 Entering Gaussian System, Link 0=g16
 Input=mols_66_7_06_c-c-c-cOC_opt_0.gjf
 Output=mols_66_7_06_c-c-c-cOC_opt_0.log
 Initial command:
 /opt/ohpc/pub/libs/gaussian/g16-A.03/sandybridge/g16/l1.exe "/mnt/gpfs2_4m/scratch/rdu230/ondemand/projects/dihedral_energies/7trial/wtuning/mols_66_7_06_c-c-c-cOC/Gau-204791.inp" -scrdir="/mnt/gpfs2_4m/scratch/rdu230/ondemand/projects/dihedral_energies/7trial/wtuning/mols_66_7_06_c-c-c-cOC/"
 Entering Link 1 = /opt/ohpc/pub/libs/gaussian/g16-A.03/sandybridge/g16/l1.exe PID=    204795.
  
 Copyright (c) 1988,1990,1992,1993,1995,1998,2003,2009,2016,
            Gaussian, Inc.  All Rights Reserved.
  
 This is part of the Gaussian(R) 16 program.  It is based on
 the Gaussian(R) 09 system (copyright 2009, Gaussian, Inc.),
 the Gaussian(R) 03 system (copyright 2003, Gaussian, Inc.),
 the Gaussian(R) 98 system (copyright 1998, Gaussian, Inc.),
 the Gaussian(R) 94 system (copyright 1995, Gaussian, Inc.),
 the Gaussian 92(TM) system (copyright 1992, Gaussian, Inc.),
 the Gaussian 90(TM) system (copyright 1990, Gaussian, Inc.),
 the Gaussian 88(TM) system (copyright 1988, Gaussian, Inc.),
 the Gaussian 86(TM) system (copyright 1986, Carnegie Mellon
 University), and the Gaussian 82(TM) system (copyright 1983,
 Carnegie Mellon University). Gaussian is a federally registered
 trademark of Gaussian, Inc.
  
 This software contains proprietary and confidential information,
 including trade secrets, belonging to Gaussian, Inc.
  
 This software is provided under written license and may be
 used, copied, transmitted, or stored only in accord with that
 written license.
  
 The following legend is applicable only to US Government
 contracts under FAR:
  
                    RESTRICTED RIGHTS LEGEND
  
 Use, reproduction and disclosure by the US Government is
 subject to restrictions as set forth in subparagraphs (a)
 and (c) of the Commercial Computer Software - Restricted
 Rights clause in FAR 52.227-19.
  
 Gaussian, Inc.
 340 Quinnipiac St., Bldg. 40, Wallingford CT 06492
  
  
 ---------------------------------------------------------------
 Warning -- This program may not be used in any manner that
 competes with the business of Gaussian, Inc. or will provide
 assistance to any competitor of Gaussian, Inc.  The licensee
 of this program is prohibited from giving any competitor of
 Gaussian, Inc. access to this program.  By using this program,
 the user acknowledges that Gaussian, Inc. is engaged in the
 business of creating and licensing software in the field of
 computational chemistry and represents and warrants to the
 licensee that it is not a competitor of Gaussian, Inc. and that
 it will not use this program in any manner prohibited above.
 ---------------------------------------------------------------
  

 Cite this work as:
 Gaussian 16, Revision A.03,
 M. J. Frisch, G. W. Trucks, H. B. Schlegel, G. E. Scuseria, 
 M. A. Robb, J. R. Cheeseman, G. Scalmani, V. Barone, 
 G. A. Petersson, H. Nakatsuji, X. Li, M. Caricato, A. V. Marenich, 
 J. Bloino, B. G. Janesko, R. Gomperts, B. Mennucci, H. P. Hratchian, 
 J. V. Ortiz, A. F. Izmaylov, J. L. Sonnenberg, D. Williams-Young, 
 F. Ding, F. Lipparini, F. Egidi, J. Goings, B. Peng, A. Petrone, 
 T. Henderson, D. Ranasinghe, V. G. Zakrzewski, J. Gao, N. Rega, 
 G. Zheng, W. Liang, M. Hada, M. Ehara, K. Toyota, R. Fukuda, 
 J. Hasegawa, M. Ishida, T. Nakajima, Y. Honda, O. Kitao, H. Nakai, 
 T. Vreven, K. Throssell, J. A. Montgomery, Jr., J. E. Peralta, 
 F. Ogliaro, M. J. Bearpark, J. J. Heyd, E. N. Brothers, K. N. Kudin, 
 V. N. Staroverov, T. A. Keith, R. Kobayashi, J. Normand, 
 K. Raghavachari, A. P. Rendell, J. C. Burant, S. S. Iyengar, 
 J. Tomasi, M. Cossi, J. M. Millam, M. Klene, C. Adamo, R. Cammi, 
 J. W. Ochterski, R. L. Martin, K. Morokuma, O. Farkas, 
 J. B. Foresman, and D. J. Fox, Gaussian, Inc., Wallingford CT, 2016.
 
 ******************************************
 Gaussian 16:  EM64L-G16RevA.03 25-Dec-2016
                24-Jul-2020 
 ******************************************
 %mem=30GB
 %nproc=8
 Will use up to    8 processors via shared memory.
 ---------------------------------------------------------------
 #P uLC-wPBE/cc-pVDZ iop(3/107=0144300000, 3/108=0144300000) opt
 ---------------------------------------------------------------
 1/18=20,19=15,26=3,38=1/1,3;
 2/9=110,12=2,17=6,18=5,40=1/2;
 3/5=16,11=2,25=1,30=1,71=1,74=-41,107=144300000,108=144300000,116=2/1,2,3;
 4//1;
 5/5=2,38=5/2;
 6/7=2,8=2,9=2,10=2,28=1/1;
 7//1,2,3,16;
 1/18=20,19=15,26=3/3(2);
 2/9=110/2;
 99//99;
 2/9=110/2;
 3/5=16,11=2,25=1,30=1,71=1,74=-41,107=144300000,108=144300000,116=2/1,2,3;
 4/5=5,16=3,69=1/1;
 5/5=2,38=5/2;
 7//1,2,3,16;
 1/18=20,19=15,26=3/3(-5);
 2/9=110/2;
 6/7=2,8=2,9=2,10=2,19=2,28=1/1;
 99/9=1/99;
 Leave Link    1 at Fri Jul 24 12:11:57 2020, MaxMem=  4026531840 cpu:               2.7 elap:               0.4
 (Enter /opt/ohpc/pub/libs/gaussian/g16-A.03/sandybridge/g16/l101.exe)
 ----------
 H72 C91 O7
 ----------
 Symbolic Z-matrix:
 Charge =  0 Multiplicity = 1
 C                     28.31128   4.97735  -0.47469 
 C                     27.50621   4.92431  -1.62737 
 C                     26.22281   4.29721  -1.57086 
 C                     25.82072   3.80717  -0.30514 
 C                     26.6128   3.90379   0.853 
 C                     27.84573   4.47475   0.74057 
 C                     24.43328   3.19754  -0.21577 
 C                     23.42713   3.87697   0.5476 
 C                     22.1319   3.38585   0.6286 
 C                     21.77866   2.22974   0.07915 
 C                     22.77778   1.48666  -0.717 
 C                     24.1109   2.05722  -0.87561 
 O                     25.08399   1.46161  -1.55567 
 C                     24.76471   0.21699  -2.1927 
 C                     20.42144   1.72746   0.16643 
 C                     19.33887   2.46926  -0.34701 
 C                     18.05788   1.95989  -0.19586 
 C                     17.81775   0.65555   0.2581 
 C                     18.88838  -0.05466   0.72144 
 C                     20.17327   0.36296   0.66808 
 C                     16.39616   0.16124   0.34176 
 C                     16.05188  -1.01817  -0.35306 
 C                     14.82951  -1.51845  -0.39563 
 C                     13.75821  -0.90282   0.37485 
 C                     14.05011   0.22553   1.05654 
 C                     15.34741   0.76104   1.11237 
 O                     15.72455   1.85086   1.79843 
 C                     14.74283   2.54007   2.57051 
 C                     12.40978  -1.39508   0.2442 
 C                     11.77301  -1.63624  -0.96037 
 C                     10.40621  -1.9889   -0.98551 
 C                     9.65338  -2.11524   0.19467 
 C                     10.24531  -1.95868   1.43144 
 C                     11.65936  -1.55495   1.44452 
 C                     8.16545  -2.25155   0.16542 
 C                     7.34878  -1.21236   0.59731 
 C                     5.97394  -1.38264   0.61247 
 C                     5.35995  -2.48672   0.01827 
 C                     6.15389  -3.53475  -0.38835 
 C                     7.547    -3.4025   -0.3611 
 O                     8.4026   -4.38438  -0.84503 
 C                     7.95191  -5.76094  -0.71798 
 C                     3.90429  -2.59671   0.02708 
 C                     3.09752  -2.51623   1.12962 
 C                     1.75175  -2.49201   1.11971 
 C                     1.00752  -2.59206  -0.12726 
 C                     1.76513  -2.69693  -1.26931 
 C                     3.16907  -2.77031  -1.25331 
 C                    -0.49373  -2.53472  -0.13405 
 C                    -1.01566  -1.43815  -0.71808 
 C                    -2.41548  -1.29327  -0.69425 
 C                    -3.32348  -2.27406  -0.18055 
 C                    -2.6474   -3.45311   0.37192 
 C                    -1.2619   -3.52521   0.39395 
 O                    -0.64128  -4.63793   1.00739 
 C                    -1.38665  -5.66886   1.44749 
 C                    -4.78437  -2.13018  -0.16453 
 C                    -5.65409  -3.10295  -0.61233 
 C                    -6.99158  -2.96946  -0.63528 
 C                    -7.59702  -1.76554  -0.1656 
 C                    -6.67992  -0.74759   0.32014 
 C                    -5.32118  -0.91963   0.40834 
 C                    -9.05683  -1.50098  -0.12487 
 C                    -9.66329  -1.6053   -1.38485 
 C                    -11.12274  -1.31945  -1.48123 
 C                    -11.80116  -0.89425  -0.39208 
 C                    -11.1904  -0.86166   0.83445 
 C                    -9.83217  -1.18815   0.98136 
 O                    -9.11028  -1.12343   2.2147 
 C                    -9.86833  -0.9645    3.32494 
 C                    -13.25699  -0.57915  -0.5293 
 C                    -14.1424  -1.08154   0.44214 
 C                    -15.58714  -0.68528   0.38631 
 C                    -16.00098   0.20595  -0.66183 
 C                    -15.10796   0.68159  -1.56903 
 C                    -13.7609   0.26723  -1.45829 
 C                    -17.41252   0.57454  -0.63566 
 C                    -17.75108   1.98559  -0.59574 
 C                    -18.99695   2.42545  -0.58332 
 C                    -20.05775   1.56129  -0.60541 
 C                    -19.83242   0.19113  -0.6289 
 C                    -18.52161  -0.31137  -0.67585 
 O                    -18.15092  -1.59303  -0.80487 
 C                    -19.22718  -2.50824  -1.08384 
 C                    -21.46504   2.02578  -0.56005 
 C                    -21.84599   3.02136   0.41247 
 C                    -23.23224   3.46783   0.48909 
 C                    -24.19053   3.026    -0.3654 
 C                    -23.83302   2.01141  -1.2881 
 C                    -22.49631   1.61642  -1.40829 
 C                    -25.62833   3.48469  -0.28587 
 C                    -26.18264   3.95598  -1.46031 
 C                    -27.47407   4.51046  -1.42639 
 C                    -28.20426   4.43191  -0.30601 
 C                    -27.70846   3.90521   0.90502 
 C                    -26.39228   3.4473    0.85768 
 O                    -25.70552   2.84888   1.95559 
 C                    -26.45021   2.95905   3.24034 
 H                     29.37839   5.37649  -0.57967 
 H                     27.86824   5.20859  -2.59343 
 H                     25.666    4.26436  -2.47239 
 H                     26.29144   3.53453   1.73037 
 H                     28.48205   4.52115   1.61403 
 H                     23.68196   4.8496    0.99021 
 H                     21.38224   3.97196   1.27679 
 H                     22.47311   0.59513  -1.25158 
 H                     24.45095  -0.57912  -1.41052 
 H                     25.68078  -0.21841  -2.68296 
 H                     23.93821   0.2548   -2.95387 
 H                     19.4695   3.39454  -0.69979 
 H                     17.1789   2.50814  -0.6126 
 H                     18.67712  -1.09881   1.17767 
 H                     20.96658  -0.21906   1.04451 
 H                     16.8307  -1.53845  -0.92473 
 H                     14.6007  -2.45124  -1.0226 
 H                     13.29226   0.665     1.64062 
 H                     15.17261   3.44325   3.03337 
 H                     13.94133   2.93857   1.82387 
 H                     14.30555   1.93083   3.25482 
 H                     12.23464  -1.4765   -1.92146 
 H                     9.90089  -2.05174  -1.92463 
 H                     9.68257  -2.06609   2.32765 
 H                     12.14384  -1.44861   2.40527 
 H                     7.81113  -0.36175   1.03115 
 H                     5.32465  -0.58731   0.92481 
 H                     5.63439  -4.40039  -0.84448 
 H                     8.76622  -6.47876  -0.81873 
 H                     7.43354  -5.94498   0.29736 
 H                     7.1778   -5.94548  -1.50231 
 H                     3.58586  -2.42723   2.17985 
 H                     1.17267  -2.42621   2.09909 
 H                     1.26573  -2.85107  -2.26823 
 H                     3.77531  -2.79466  -2.12835 
 H                    -0.49436  -0.61256  -1.14835 
 H                    -2.88946  -0.45833  -1.15579 
 H                    -3.33697  -4.20972   0.86576 
 H                    -0.75793  -6.47813   1.79756 
 H                    -2.05437  -6.12741   0.70225 
 H                    -2.02762  -5.43572   2.29842 
 H                    -5.2108   -4.07904  -1.03527 
 H                    -7.5944   -3.74044  -1.03184 
 H                    -7.14302   0.15405   0.78604 
 H                    -4.67754  -0.12306   0.80946 
 H                    -9.15357  -1.83401  -2.25659 
 H                    -11.55919  -1.38076  -2.42808 
 H                    -11.74696  -0.61585   1.74811 
 H                    -9.18234  -1.07437   4.20352 
 H                    -10.31691   0.05993   3.3725 
 H                    -10.5817  -1.67981   3.46281 
 H                    -13.89856  -1.73551   1.26869 
 H                    -16.25467  -1.12388   1.1385 
 H                    -15.41155   1.3404   -2.38946 
 H                    -13.07343   0.69692  -2.1934 
 H                    -16.86151   2.75421  -0.58474 
 H                    -19.19902   3.55721  -0.52109 
 H                    -20.67136  -0.51938  -0.6261 
 H                    -18.75999  -3.54648  -1.32099 
 H                    -19.90097  -2.65867  -0.31684 
 H                    -19.69932  -2.19152  -2.10128 
 H                    -21.116    3.418     1.06591 
 H                    -23.49282   4.2585    1.23237 
 H                    -24.53543   1.63222  -2.04088 
 H                    -22.2449   0.79648  -2.12596 
 H                    -25.58994   4.06685  -2.39958 
 H                    -27.95124   4.8451   -2.3675 
 H                    -29.30287   4.83832  -0.23861 
 H                    -28.25345   3.90167   1.83008 
 H                    -26.66795   4.00775   3.51521 
 H                    -25.72314   2.53614   4.02377 
 H                    -27.30654   2.35384   3.2787 
 
 ITRead=  0  0  0  0  0  0  0  0  0  0  0  0  0  0  0  0  0  0  0  0
 ITRead=  0  0  0  0  0  0  0  0  0  0  0  0  0  0  0  0  0  0  0  0
 ITRead=  0  0  0  0  0  0  0  0  0  0  0  0  0  0  0  0  0  0  0  0
 ITRead=  0  0  0  0  0  0  0  0  0  0  0  0  0  0  0  0  0  0  0  0
 ITRead=  0  0  0  0  0  0  0  0  0  0  0  0  0  0  0  0  0  0  0  0
 ITRead=  0  0  0  0  0  0  0  0  0  0  0  0  0  0  0  0  0  0  0  0
 ITRead=  0  0  0  0  0  0  0  0  0  0  0  0  0  0  0  0  0  0  0  0
 ITRead=  0  0  0  0  0  0  0  0  0  0  0  0  0  0  0  0  0  0  0  0
 ITRead=  0  0  0  0  0  0  0  0  0  0
 MicOpt= -1 -1 -1 -1 -1 -1 -1 -1 -1 -1 -1 -1 -1 -1 -1 -1 -1 -1 -1 -1
 MicOpt= -1 -1 -1 -1 -1 -1 -1 -1 -1 -1 -1 -1 -1 -1 -1 -1 -1 -1 -1 -1
 MicOpt= -1 -1 -1 -1 -1 -1 -1 -1 -1 -1 -1 -1 -1 -1 -1 -1 -1 -1 -1 -1
 MicOpt= -1 -1 -1 -1 -1 -1 -1 -1 -1 -1 -1 -1 -1 -1 -1 -1 -1 -1 -1 -1
 MicOpt= -1 -1 -1 -1 -1 -1 -1 -1 -1 -1 -1 -1 -1 -1 -1 -1 -1 -1 -1 -1
 MicOpt= -1 -1 -1 -1 -1 -1 -1 -1 -1 -1 -1 -1 -1 -1 -1 -1 -1 -1 -1 -1
 MicOpt= -1 -1 -1 -1 -1 -1 -1 -1 -1 -1 -1 -1 -1 -1 -1 -1 -1 -1 -1 -1
 MicOpt= -1 -1 -1 -1 -1 -1 -1 -1 -1 -1 -1 -1 -1 -1 -1 -1 -1 -1 -1 -1
 MicOpt= -1 -1 -1 -1 -1 -1 -1 -1 -1 -1
 NAtoms=    170 NQM=      170 NQMF=       0 NMMI=      0 NMMIF=      0
                NMic=       0 NMicF=      0.
                    Isotopes and Nuclear Properties:
 (Nuclear quadrupole moments (NQMom) in fm**2, nuclear magnetic moments (NMagM)
  in nuclear magnetons)

  Atom         1           2           3           4           5           6           7           8           9          10
 IAtWgt=          12          12          12          12          12          12          12          12          12          12
 AtmWgt=  12.0000000  12.0000000  12.0000000  12.0000000  12.0000000  12.0000000  12.0000000  12.0000000  12.0000000  12.0000000
 NucSpn=           0           0           0           0           0           0           0           0           0           0
 AtZEff=  -0.0000000  -0.0000000  -0.0000000  -0.0000000  -0.0000000  -0.0000000  -0.0000000  -0.0000000  -0.0000000  -0.0000000
 NQMom=    0.0000000   0.0000000   0.0000000   0.0000000   0.0000000   0.0000000   0.0000000   0.0000000   0.0000000   0.0000000
 NMagM=    0.0000000   0.0000000   0.0000000   0.0000000   0.0000000   0.0000000   0.0000000   0.0000000   0.0000000   0.0000000
 AtZNuc=   6.0000000   6.0000000   6.0000000   6.0000000   6.0000000   6.0000000   6.0000000   6.0000000   6.0000000   6.0000000

  Atom        11          12          13          14          15          16          17          18          19          20
 IAtWgt=          12          12          16          12          12          12          12          12          12          12
 AtmWgt=  12.0000000  12.0000000  15.9949146  12.0000000  12.0000000  12.0000000  12.0000000  12.0000000  12.0000000  12.0000000
 NucSpn=           0           0           0           0           0           0           0           0           0           0
 AtZEff=  -0.0000000  -0.0000000  -0.0000000  -0.0000000  -0.0000000  -0.0000000  -0.0000000  -0.0000000  -0.0000000  -0.0000000
 NQMom=    0.0000000   0.0000000   0.0000000   0.0000000   0.0000000   0.0000000   0.0000000   0.0000000   0.0000000   0.0000000
 NMagM=    0.0000000   0.0000000   0.0000000   0.0000000   0.0000000   0.0000000   0.0000000   0.0000000   0.0000000   0.0000000
 AtZNuc=   6.0000000   6.0000000   8.0000000   6.0000000   6.0000000   6.0000000   6.0000000   6.0000000   6.0000000   6.0000000

  Atom        21          22          23          24          25          26          27          28          29          30
 IAtWgt=          12          12          12          12          12          12          16          12          12          12
 AtmWgt=  12.0000000  12.0000000  12.0000000  12.0000000  12.0000000  12.0000000  15.9949146  12.0000000  12.0000000  12.0000000
 NucSpn=           0           0           0           0           0           0           0           0           0           0
 AtZEff=  -0.0000000  -0.0000000  -0.0000000  -0.0000000  -0.0000000  -0.0000000  -0.0000000  -0.0000000  -0.0000000  -0.0000000
 NQMom=    0.0000000   0.0000000   0.0000000   0.0000000   0.0000000   0.0000000   0.0000000   0.0000000   0.0000000   0.0000000
 NMagM=    0.0000000   0.0000000   0.0000000   0.0000000   0.0000000   0.0000000   0.0000000   0.0000000   0.0000000   0.0000000
 AtZNuc=   6.0000000   6.0000000   6.0000000   6.0000000   6.0000000   6.0000000   8.0000000   6.0000000   6.0000000   6.0000000

  Atom        31          32          33          34          35          36          37          38          39          40
 IAtWgt=          12          12          12          12          12          12          12          12          12          12
 AtmWgt=  12.0000000  12.0000000  12.0000000  12.0000000  12.0000000  12.0000000  12.0000000  12.0000000  12.0000000  12.0000000
 NucSpn=           0           0           0           0           0           0           0           0           0           0
 AtZEff=  -0.0000000  -0.0000000  -0.0000000  -0.0000000  -0.0000000  -0.0000000  -0.0000000  -0.0000000  -0.0000000  -0.0000000
 NQMom=    0.0000000   0.0000000   0.0000000   0.0000000   0.0000000   0.0000000   0.0000000   0.0000000   0.0000000   0.0000000
 NMagM=    0.0000000   0.0000000   0.0000000   0.0000000   0.0000000   0.0000000   0.0000000   0.0000000   0.0000000   0.0000000
 AtZNuc=   6.0000000   6.0000000   6.0000000   6.0000000   6.0000000   6.0000000   6.0000000   6.0000000   6.0000000   6.0000000

  Atom        41          42          43          44          45          46          47          48          49          50
 IAtWgt=          16          12          12          12          12          12          12          12          12          12
 AtmWgt=  15.9949146  12.0000000  12.0000000  12.0000000  12.0000000  12.0000000  12.0000000  12.0000000  12.0000000  12.0000000
 NucSpn=           0           0           0           0           0           0           0           0           0           0
 AtZEff=  -0.0000000  -0.0000000  -0.0000000  -0.0000000  -0.0000000  -0.0000000  -0.0000000  -0.0000000  -0.0000000  -0.0000000
 NQMom=    0.0000000   0.0000000   0.0000000   0.0000000   0.0000000   0.0000000   0.0000000   0.0000000   0.0000000   0.0000000
 NMagM=    0.0000000   0.0000000   0.0000000   0.0000000   0.0000000   0.0000000   0.0000000   0.0000000   0.0000000   0.0000000
 AtZNuc=   8.0000000   6.0000000   6.0000000   6.0000000   6.0000000   6.0000000   6.0000000   6.0000000   6.0000000   6.0000000

  Atom        51          52          53          54          55          56          57          58          59          60
 IAtWgt=          12          12          12          12          16          12          12          12          12          12
 AtmWgt=  12.0000000  12.0000000  12.0000000  12.0000000  15.9949146  12.0000000  12.0000000  12.0000000  12.0000000  12.0000000
 NucSpn=           0           0           0           0           0           0           0           0           0           0
 AtZEff=  -0.0000000  -0.0000000  -0.0000000  -0.0000000  -0.0000000  -0.0000000  -0.0000000  -0.0000000  -0.0000000  -0.0000000
 NQMom=    0.0000000   0.0000000   0.0000000   0.0000000   0.0000000   0.0000000   0.0000000   0.0000000   0.0000000   0.0000000
 NMagM=    0.0000000   0.0000000   0.0000000   0.0000000   0.0000000   0.0000000   0.0000000   0.0000000   0.0000000   0.0000000
 AtZNuc=   6.0000000   6.0000000   6.0000000   6.0000000   8.0000000   6.0000000   6.0000000   6.0000000   6.0000000   6.0000000

  Atom        61          62          63          64          65          66          67          68          69          70
 IAtWgt=          12          12          12          12          12          12          12          12          16          12
 AtmWgt=  12.0000000  12.0000000  12.0000000  12.0000000  12.0000000  12.0000000  12.0000000  12.0000000  15.9949146  12.0000000
 NucSpn=           0           0           0           0           0           0           0           0           0           0
 AtZEff=  -0.0000000  -0.0000000  -0.0000000  -0.0000000  -0.0000000  -0.0000000  -0.0000000  -0.0000000  -0.0000000  -0.0000000
 NQMom=    0.0000000   0.0000000   0.0000000   0.0000000   0.0000000   0.0000000   0.0000000   0.0000000   0.0000000   0.0000000
 NMagM=    0.0000000   0.0000000   0.0000000   0.0000000   0.0000000   0.0000000   0.0000000   0.0000000   0.0000000   0.0000000
 AtZNuc=   6.0000000   6.0000000   6.0000000   6.0000000   6.0000000   6.0000000   6.0000000   6.0000000   8.0000000   6.0000000

  Atom        71          72          73          74          75          76          77          78          79          80
 IAtWgt=          12          12          12          12          12          12          12          12          12          12
 AtmWgt=  12.0000000  12.0000000  12.0000000  12.0000000  12.0000000  12.0000000  12.0000000  12.0000000  12.0000000  12.0000000
 NucSpn=           0           0           0           0           0           0           0           0           0           0
 AtZEff=  -0.0000000  -0.0000000  -0.0000000  -0.0000000  -0.0000000  -0.0000000  -0.0000000  -0.0000000  -0.0000000  -0.0000000
 NQMom=    0.0000000   0.0000000   0.0000000   0.0000000   0.0000000   0.0000000   0.0000000   0.0000000   0.0000000   0.0000000
 NMagM=    0.0000000   0.0000000   0.0000000   0.0000000   0.0000000   0.0000000   0.0000000   0.0000000   0.0000000   0.0000000
 AtZNuc=   6.0000000   6.0000000   6.0000000   6.0000000   6.0000000   6.0000000   6.0000000   6.0000000   6.0000000   6.0000000

  Atom        81          82          83          84          85          86          87          88          89          90
 IAtWgt=          12          12          16          12          12          12          12          12          12          12
 AtmWgt=  12.0000000  12.0000000  15.9949146  12.0000000  12.0000000  12.0000000  12.0000000  12.0000000  12.0000000  12.0000000
 NucSpn=           0           0           0           0           0           0           0           0           0           0
 AtZEff=  -0.0000000  -0.0000000  -0.0000000  -0.0000000  -0.0000000  -0.0000000  -0.0000000  -0.0000000  -0.0000000  -0.0000000
 NQMom=    0.0000000   0.0000000   0.0000000   0.0000000   0.0000000   0.0000000   0.0000000   0.0000000   0.0000000   0.0000000
 NMagM=    0.0000000   0.0000000   0.0000000   0.0000000   0.0000000   0.0000000   0.0000000   0.0000000   0.0000000   0.0000000
 AtZNuc=   6.0000000   6.0000000   8.0000000   6.0000000   6.0000000   6.0000000   6.0000000   6.0000000   6.0000000   6.0000000

  Atom        91          92          93          94          95          96          97          98          99         100
 IAtWgt=          12          12          12          12          12          12          16          12           1           1
 AtmWgt=  12.0000000  12.0000000  12.0000000  12.0000000  12.0000000  12.0000000  15.9949146  12.0000000   1.0078250   1.0078250
 NucSpn=           0           0           0           0           0           0           0           0           1           1
 AtZEff=  -0.0000000  -0.0000000  -0.0000000  -0.0000000  -0.0000000  -0.0000000  -0.0000000  -0.0000000  -0.0000000  -0.0000000
 NQMom=    0.0000000   0.0000000   0.0000000   0.0000000   0.0000000   0.0000000   0.0000000   0.0000000   0.0000000   0.0000000
 NMagM=    0.0000000   0.0000000   0.0000000   0.0000000   0.0000000   0.0000000   0.0000000   0.0000000   2.7928460   2.7928460
 AtZNuc=   6.0000000   6.0000000   6.0000000   6.0000000   6.0000000   6.0000000   8.0000000   6.0000000   1.0000000   1.0000000

  Atom       101         102         103         104         105         106         107         108         109         110
 IAtWgt=           1           1           1           1           1           1           1           1           1           1
 AtmWgt=   1.0078250   1.0078250   1.0078250   1.0078250   1.0078250   1.0078250   1.0078250   1.0078250   1.0078250   1.0078250
 NucSpn=           1           1           1           1           1           1           1           1           1           1
 AtZEff=  -0.0000000  -0.0000000  -0.0000000  -0.0000000  -0.0000000  -0.0000000  -0.0000000  -0.0000000  -0.0000000  -0.0000000
 NQMom=    0.0000000   0.0000000   0.0000000   0.0000000   0.0000000   0.0000000   0.0000000   0.0000000   0.0000000   0.0000000
 NMagM=    2.7928460   2.7928460   2.7928460   2.7928460   2.7928460   2.7928460   2.7928460   2.7928460   2.7928460   2.7928460
 AtZNuc=   1.0000000   1.0000000   1.0000000   1.0000000   1.0000000   1.0000000   1.0000000   1.0000000   1.0000000   1.0000000

  Atom       111         112         113         114         115         116         117         118         119         120
 IAtWgt=           1           1           1           1           1           1           1           1           1           1
 AtmWgt=   1.0078250   1.0078250   1.0078250   1.0078250   1.0078250   1.0078250   1.0078250   1.0078250   1.0078250   1.0078250
 NucSpn=           1           1           1           1           1           1           1           1           1           1
 AtZEff=  -0.0000000  -0.0000000  -0.0000000  -0.0000000  -0.0000000  -0.0000000  -0.0000000  -0.0000000  -0.0000000  -0.0000000
 NQMom=    0.0000000   0.0000000   0.0000000   0.0000000   0.0000000   0.0000000   0.0000000   0.0000000   0.0000000   0.0000000
 NMagM=    2.7928460   2.7928460   2.7928460   2.7928460   2.7928460   2.7928460   2.7928460   2.7928460   2.7928460   2.7928460
 AtZNuc=   1.0000000   1.0000000   1.0000000   1.0000000   1.0000000   1.0000000   1.0000000   1.0000000   1.0000000   1.0000000

  Atom       121         122         123         124         125         126         127         128         129         130
 IAtWgt=           1           1           1           1           1           1           1           1           1           1
 AtmWgt=   1.0078250   1.0078250   1.0078250   1.0078250   1.0078250   1.0078250   1.0078250   1.0078250   1.0078250   1.0078250
 NucSpn=           1           1           1           1           1           1           1           1           1           1
 AtZEff=  -0.0000000  -0.0000000  -0.0000000  -0.0000000  -0.0000000  -0.0000000  -0.0000000  -0.0000000  -0.0000000  -0.0000000
 NQMom=    0.0000000   0.0000000   0.0000000   0.0000000   0.0000000   0.0000000   0.0000000   0.0000000   0.0000000   0.0000000
 NMagM=    2.7928460   2.7928460   2.7928460   2.7928460   2.7928460   2.7928460   2.7928460   2.7928460   2.7928460   2.7928460
 AtZNuc=   1.0000000   1.0000000   1.0000000   1.0000000   1.0000000   1.0000000   1.0000000   1.0000000   1.0000000   1.0000000

  Atom       131         132         133         134         135         136         137         138         139         140
 IAtWgt=           1           1           1           1           1           1           1           1           1           1
 AtmWgt=   1.0078250   1.0078250   1.0078250   1.0078250   1.0078250   1.0078250   1.0078250   1.0078250   1.0078250   1.0078250
 NucSpn=           1           1           1           1           1           1           1           1           1           1
 AtZEff=  -0.0000000  -0.0000000  -0.0000000  -0.0000000  -0.0000000  -0.0000000  -0.0000000  -0.0000000  -0.0000000  -0.0000000
 NQMom=    0.0000000   0.0000000   0.0000000   0.0000000   0.0000000   0.0000000   0.0000000   0.0000000   0.0000000   0.0000000
 NMagM=    2.7928460   2.7928460   2.7928460   2.7928460   2.7928460   2.7928460   2.7928460   2.7928460   2.7928460   2.7928460
 AtZNuc=   1.0000000   1.0000000   1.0000000   1.0000000   1.0000000   1.0000000   1.0000000   1.0000000   1.0000000   1.0000000

  Atom       141         142         143         144         145         146         147         148         149         150
 IAtWgt=           1           1           1           1           1           1           1           1           1           1
 AtmWgt=   1.0078250   1.0078250   1.0078250   1.0078250   1.0078250   1.0078250   1.0078250   1.0078250   1.0078250   1.0078250
 NucSpn=           1           1           1           1           1           1           1           1           1           1
 AtZEff=  -0.0000000  -0.0000000  -0.0000000  -0.0000000  -0.0000000  -0.0000000  -0.0000000  -0.0000000  -0.0000000  -0.0000000
 NQMom=    0.0000000   0.0000000   0.0000000   0.0000000   0.0000000   0.0000000   0.0000000   0.0000000   0.0000000   0.0000000
 NMagM=    2.7928460   2.7928460   2.7928460   2.7928460   2.7928460   2.7928460   2.7928460   2.7928460   2.7928460   2.7928460
 AtZNuc=   1.0000000   1.0000000   1.0000000   1.0000000   1.0000000   1.0000000   1.0000000   1.0000000   1.0000000   1.0000000

  Atom       151         152         153         154         155         156         157         158         159         160
 IAtWgt=           1           1           1           1           1           1           1           1           1           1
 AtmWgt=   1.0078250   1.0078250   1.0078250   1.0078250   1.0078250   1.0078250   1.0078250   1.0078250   1.0078250   1.0078250
 NucSpn=           1           1           1           1           1           1           1           1           1           1
 AtZEff=  -0.0000000  -0.0000000  -0.0000000  -0.0000000  -0.0000000  -0.0000000  -0.0000000  -0.0000000  -0.0000000  -0.0000000
 NQMom=    0.0000000   0.0000000   0.0000000   0.0000000   0.0000000   0.0000000   0.0000000   0.0000000   0.0000000   0.0000000
 NMagM=    2.7928460   2.7928460   2.7928460   2.7928460   2.7928460   2.7928460   2.7928460   2.7928460   2.7928460   2.7928460
 AtZNuc=   1.0000000   1.0000000   1.0000000   1.0000000   1.0000000   1.0000000   1.0000000   1.0000000   1.0000000   1.0000000

  Atom       161         162         163         164         165         166         167         168         169         170
 IAtWgt=           1           1           1           1           1           1           1           1           1           1
 AtmWgt=   1.0078250   1.0078250   1.0078250   1.0078250   1.0078250   1.0078250   1.0078250   1.0078250   1.0078250   1.0078250
 NucSpn=           1           1           1           1           1           1           1           1           1           1
 AtZEff=  -0.0000000  -0.0000000  -0.0000000  -0.0000000  -0.0000000  -0.0000000  -0.0000000  -0.0000000  -0.0000000  -0.0000000
 NQMom=    0.0000000   0.0000000   0.0000000   0.0000000   0.0000000   0.0000000   0.0000000   0.0000000   0.0000000   0.0000000
 NMagM=    2.7928460   2.7928460   2.7928460   2.7928460   2.7928460   2.7928460   2.7928460   2.7928460   2.7928460   2.7928460
 AtZNuc=   1.0000000   1.0000000   1.0000000   1.0000000   1.0000000   1.0000000   1.0000000   1.0000000   1.0000000   1.0000000
 Leave Link  101 at Fri Jul 24 12:11:58 2020, MaxMem=  4026531840 cpu:               3.3 elap:               0.5
 (Enter /opt/ohpc/pub/libs/gaussian/g16-A.03/sandybridge/g16/l103.exe)

 GradGradGradGradGradGradGradGradGradGradGradGradGradGradGradGradGradGrad
 Berny optimization.
 Initialization pass.
                           ----------------------------
                           !    Initial Parameters    !
                           ! (Angstroms and Degrees)  !
 --------------------------                            --------------------------
 ! Name  Definition              Value          Derivative Info.                !
 --------------------------------------------------------------------------------
 ! R1    R(1,2)                  1.407          estimate D2E/DX2                !
 ! R2    R(1,6)                  1.3951         estimate D2E/DX2                !
 ! R3    R(1,99)                 1.1441         estimate D2E/DX2                !
 ! R4    R(2,3)                  1.4295         estimate D2E/DX2                !
 ! R5    R(2,100)                1.0701         estimate D2E/DX2                !
 ! R6    R(3,4)                  1.4156         estimate D2E/DX2                !
 ! R7    R(3,101)                1.0601         estimate D2E/DX2                !
 ! R8    R(4,5)                  1.4064         estimate D2E/DX2                !
 ! R9    R(4,7)                  1.5181         estimate D2E/DX2                !
 ! R10   R(5,6)                  1.3634         estimate D2E/DX2                !
 ! R11   R(5,102)                1.0047         estimate D2E/DX2                !
 ! R12   R(6,103)                1.0817         estimate D2E/DX2                !
 ! R13   R(7,8)                  1.4341         estimate D2E/DX2                !
 ! R14   R(7,12)                 1.3563         estimate D2E/DX2                !
 ! R15   R(8,9)                  1.3876         estimate D2E/DX2                !
 ! R16   R(8,104)                1.0986         estimate D2E/DX2                !
 ! R17   R(9,10)                 1.3279         estimate D2E/DX2                !
 ! R18   R(9,105)                1.1514         estimate D2E/DX2                !
 ! R19   R(10,11)                1.4779         estimate D2E/DX2                !
 ! R20   R(10,15)                1.4498         estimate D2E/DX2                !
 ! R21   R(11,12)                1.4587         estimate D2E/DX2                !
 ! R22   R(11,106)               1.0832         estimate D2E/DX2                !
 ! R23   R(12,13)                1.3282         estimate D2E/DX2                !
 ! R24   R(13,14)                1.4342         estimate D2E/DX2                !
 ! R25   R(14,107)               1.1593         estimate D2E/DX2                !
 ! R26   R(14,108)               1.1265         estimate D2E/DX2                !
 ! R27   R(14,109)               1.1242         estimate D2E/DX2                !
 ! R28   R(15,16)                1.4092         estimate D2E/DX2                !
 ! R29   R(15,20)                1.4748         estimate D2E/DX2                !
 ! R30   R(16,17)                1.3868         estimate D2E/DX2                !
 ! R31   R(16,110)               0.9988         estimate D2E/DX2                !
 ! R32   R(17,18)                1.4018         estimate D2E/DX2                !
 ! R33   R(17,111)               1.1166         estimate D2E/DX2                !
 ! R34   R(18,19)                1.3658         estimate D2E/DX2                !
 ! R35   R(18,21)                1.5074         estimate D2E/DX2                !
 ! R36   R(19,20)                1.3521         estimate D2E/DX2                !
 ! R37   R(19,112)               1.1589         estimate D2E/DX2                !
 ! R38   R(20,113)               1.0535         estimate D2E/DX2                !
 ! R39   R(21,22)                1.4115         estimate D2E/DX2                !
 ! R40   R(21,26)                1.433          estimate D2E/DX2                !
 ! R41   R(22,23)                1.3215         estimate D2E/DX2                !
 ! R42   R(22,114)               1.0973         estimate D2E/DX2                !
 ! R43   R(23,24)                1.4561         estimate D2E/DX2                !
 ! R44   R(23,115)               1.147          estimate D2E/DX2                !
 ! R45   R(24,25)                1.3502         estimate D2E/DX2                !
 ! R46   R(24,29)                1.4414         estimate D2E/DX2                !
 ! R47   R(25,26)                1.4046         estimate D2E/DX2                !
 ! R48   R(25,116)               1.0529         estimate D2E/DX2                !
 ! R49   R(26,27)                1.3419         estimate D2E/DX2                !
 ! R50   R(27,28)                1.4265         estimate D2E/DX2                !
 ! R51   R(28,117)               1.1021         estimate D2E/DX2                !
 ! R52   R(28,118)               1.1656         estimate D2E/DX2                !
 ! R53   R(28,119)               1.0152         estimate D2E/DX2                !
 ! R54   R(29,30)                1.3837         estimate D2E/DX2                !
 ! R55   R(29,34)                1.4246         estimate D2E/DX2                !
 ! R56   R(30,31)                1.4118         estimate D2E/DX2                !
 ! R57   R(30,120)               1.0781         estimate D2E/DX2                !
 ! R58   R(31,32)                1.4055         estimate D2E/DX2                !
 ! R59   R(31,121)               1.0683         estimate D2E/DX2                !
 ! R60   R(32,33)                1.38           estimate D2E/DX2                !
 ! R61   R(32,35)                1.4944         estimate D2E/DX2                !
 ! R62   R(33,34)                1.4706         estimate D2E/DX2                !
 ! R63   R(33,122)               1.0637         estimate D2E/DX2                !
 ! R64   R(34,123)               1.0812         estimate D2E/DX2                !
 ! R65   R(35,36)                1.3905         estimate D2E/DX2                !
 ! R66   R(35,40)                1.4087         estimate D2E/DX2                !
 ! R67   R(36,37)                1.3854         estimate D2E/DX2                !
 ! R68   R(36,124)               1.0609         estimate D2E/DX2                !
 ! R69   R(37,38)                1.3961         estimate D2E/DX2                !
 ! R70   R(37,125)               1.0732         estimate D2E/DX2                !
 ! R71   R(38,39)                1.3762         estimate D2E/DX2                !
 ! R72   R(38,43)                1.4598         estimate D2E/DX2                !
 ! R73   R(39,40)                1.3996         estimate D2E/DX2                !
 ! R74   R(39,126)               1.1078         estimate D2E/DX2                !
 ! R75   R(40,41)                1.3894         estimate D2E/DX2                !
 ! R76   R(41,42)                1.454          estimate D2E/DX2                !
 ! R77   R(42,127)               1.0902         estimate D2E/DX2                !
 ! R78   R(42,128)               1.1548         estimate D2E/DX2                !
 ! R79   R(42,129)               1.1174         estimate D2E/DX2                !
 ! R80   R(43,44)                1.3686         estimate D2E/DX2                !
 ! R81   R(43,48)                1.4866         estimate D2E/DX2                !
 ! R82   R(44,45)                1.346          estimate D2E/DX2                !
 ! R83   R(44,130)               1.1616         estimate D2E/DX2                !
 ! R84   R(45,46)                1.4556         estimate D2E/DX2                !
 ! R85   R(45,131)               1.1397         estimate D2E/DX2                !
 ! R86   R(46,47)                1.3745         estimate D2E/DX2                !
 ! R87   R(46,49)                1.5024         estimate D2E/DX2                !
 ! R88   R(47,48)                1.4059         estimate D2E/DX2                !
 ! R89   R(47,132)               1.1274         estimate D2E/DX2                !
 ! R90   R(48,133)               1.0648         estimate D2E/DX2                !
 ! R91   R(49,50)                1.3476         estimate D2E/DX2                !
 ! R92   R(49,54)                1.3601         estimate D2E/DX2                !
 ! R93   R(50,51)                1.4075         estimate D2E/DX2                !
 ! R94   R(50,134)               1.067          estimate D2E/DX2                !
 ! R95   R(51,52)                1.4319         estimate D2E/DX2                !
 ! R96   R(51,135)               1.0653         estimate D2E/DX2                !
 ! R97   R(52,53)                1.4671         estimate D2E/DX2                !
 ! R98   R(52,57)                1.468          estimate D2E/DX2                !
 ! R99   R(53,54)                1.3875         estimate D2E/DX2                !
 ! R100  R(53,136)               1.1366         estimate D2E/DX2                !
 ! R101  R(54,55)                1.4141         estimate D2E/DX2                !
 ! R102  R(55,56)                1.3461         estimate D2E/DX2                !
 ! R103  R(56,137)               1.0829         estimate D2E/DX2                !
 ! R104  R(56,138)               1.1007         estimate D2E/DX2                !
 ! R105  R(56,139)               1.0905         estimate D2E/DX2                !
 ! R106  R(57,58)                1.3796         estimate D2E/DX2                !
 ! R107  R(57,62)                1.4428         estimate D2E/DX2                !
 ! R108  R(58,59)                1.3443         estimate D2E/DX2                !
 ! R109  R(58,140)               1.1524         estimate D2E/DX2                !
 ! R110  R(59,60)                1.4271         estimate D2E/DX2                !
 ! R111  R(59,141)               1.056          estimate D2E/DX2                !
 ! R112  R(60,61)                1.4537         estimate D2E/DX2                !
 ! R113  R(60,63)                1.4841         estimate D2E/DX2                !
 ! R114  R(61,62)                1.3724         estimate D2E/DX2                !
 ! R115  R(61,142)               1.1156         estimate D2E/DX2                !
 ! R116  R(62,143)               1.0999         estimate D2E/DX2                !
 ! R117  R(63,64)                1.4022         estimate D2E/DX2                !
 ! R118  R(63,68)                1.3866         estimate D2E/DX2                !
 ! R119  R(64,65)                1.4903         estimate D2E/DX2                !
 ! R120  R(64,144)               1.0354         estimate D2E/DX2                !
 ! R121  R(65,66)                1.3518         estimate D2E/DX2                !
 ! R122  R(65,145)               1.0444         estimate D2E/DX2                !
 ! R123  R(66,67)                1.3706         estimate D2E/DX2                !
 ! R124  R(66,71)                1.4958         estimate D2E/DX2                !
 ! R125  R(67,68)                1.4046         estimate D2E/DX2                !
 ! R126  R(67,146)               1.0977         estimate D2E/DX2                !
 ! R127  R(68,69)                1.4305         estimate D2E/DX2                !
 ! R128  R(69,70)                1.3537         estimate D2E/DX2                !
 ! R129  R(70,147)               1.1201         estimate D2E/DX2                !
 ! R130  R(70,148)               1.1194         estimate D2E/DX2                !
 ! R131  R(70,149)               1.0196         estimate D2E/DX2                !
 ! R132  R(71,72)                1.4071         estimate D2E/DX2                !
 ! R133  R(71,76)                1.354          estimate D2E/DX2                !
 ! R134  R(72,73)                1.4991         estimate D2E/DX2                !
 ! R135  R(72,150)               1.0818         estimate D2E/DX2                !
 ! R136  R(73,74)                1.4367         estimate D2E/DX2                !
 ! R137  R(73,151)               1.0972         estimate D2E/DX2                !
 ! R138  R(74,75)                1.359          estimate D2E/DX2                !
 ! R139  R(74,77)                1.4591         estimate D2E/DX2                !
 ! R140  R(75,76)                1.4137         estimate D2E/DX2                !
 ! R141  R(75,152)               1.0951         estimate D2E/DX2                !
 ! R142  R(76,153)               1.0944         estimate D2E/DX2                !
 ! R143  R(77,78)                1.4516         estimate D2E/DX2                !
 ! R144  R(77,82)                1.42           estimate D2E/DX2                !
 ! R145  R(78,79)                1.3213         estimate D2E/DX2                !
 ! R146  R(78,154)               1.1757         estimate D2E/DX2                !
 ! R147  R(79,80)                1.3684         estimate D2E/DX2                !
 ! R148  R(79,155)               1.1513         estimate D2E/DX2                !
 ! R149  R(80,81)                1.3888         estimate D2E/DX2                !
 ! R150  R(80,85)                1.4827         estimate D2E/DX2                !
 ! R151  R(81,82)                1.4046         estimate D2E/DX2                !
 ! R152  R(81,156)               1.0994         estimate D2E/DX2                !
 ! R153  R(82,83)                1.3404         estimate D2E/DX2                !
 ! R154  R(83,84)                1.4401         estimate D2E/DX2                !
 ! R155  R(84,157)               1.1629         estimate D2E/DX2                !
 ! R156  R(84,158)               1.0319         estimate D2E/DX2                !
 ! R157  R(84,159)               1.1655         estimate D2E/DX2                !
 ! R158  R(85,86)                1.4429         estimate D2E/DX2                !
 ! R159  R(85,90)                1.3966         estimate D2E/DX2                !
 ! R160  R(86,87)                1.4584         estimate D2E/DX2                !
 ! R161  R(86,160)               1.057          estimate D2E/DX2                !
 ! R162  R(87,88)                1.3578         estimate D2E/DX2                !
 ! R163  R(87,161)               1.116          estimate D2E/DX2                !
 ! R164  R(88,89)                1.4172         estimate D2E/DX2                !
 ! R165  R(88,91)                1.5113         estimate D2E/DX2                !
 ! R166  R(89,90)                1.399          estimate D2E/DX2                !
 ! R167  R(89,162)               1.0972         estimate D2E/DX2                !
 ! R168  R(90,163)               1.1183         estimate D2E/DX2                !
 ! R169  R(91,92)                1.3815         estimate D2E/DX2                !
 ! R170  R(91,96)                1.3758         estimate D2E/DX2                !
 ! R171  R(92,93)                1.4058         estimate D2E/DX2                !
 ! R172  R(92,164)               1.1162         estimate D2E/DX2                !
 ! R173  R(93,94)                1.3396         estimate D2E/DX2                !
 ! R174  R(93,165)               1.107          estimate D2E/DX2                !
 ! R175  R(94,95)                1.4106         estimate D2E/DX2                !
 ! R176  R(94,166)               1.1733         estimate D2E/DX2                !
 ! R177  R(95,96)                1.3944         estimate D2E/DX2                !
 ! R178  R(95,167)               1.0737         estimate D2E/DX2                !
 ! R179  R(96,97)                1.4266         estimate D2E/DX2                !
 ! R180  R(97,98)                1.489          estimate D2E/DX2                !
 ! R181  R(98,168)               1.1058         estimate D2E/DX2                !
 ! R182  R(98,169)               1.1495         estimate D2E/DX2                !
 ! R183  R(98,170)               1.0493         estimate D2E/DX2                !
 ! A1    A(2,1,6)              120.6059         estimate D2E/DX2                !
 ! A2    A(2,1,99)             118.1418         estimate D2E/DX2                !
 ! A3    A(6,1,99)             121.1215         estimate D2E/DX2                !
 ! A4    A(1,2,3)              119.8581         estimate D2E/DX2                !
 ! A5    A(1,2,100)            122.4112         estimate D2E/DX2                !
 ! A6    A(3,2,100)            117.1263         estimate D2E/DX2                !
 ! A7    A(2,3,4)              116.2452         estimate D2E/DX2                !
 ! A8    A(2,3,101)            116.8408         estimate D2E/DX2                !
 ! A9    A(4,3,101)            126.9026         estimate D2E/DX2                !
 ! A10   A(3,4,5)              123.5416         estimate D2E/DX2                !
 ! A11   A(3,4,7)              116.824          estimate D2E/DX2                !
 ! A12   A(5,4,7)              119.5922         estimate D2E/DX2                !
 ! A13   A(4,5,6)              118.0454         estimate D2E/DX2                !
 ! A14   A(4,5,102)            120.9122         estimate D2E/DX2                !
 ! A15   A(6,5,102)            121.0103         estimate D2E/DX2                !
 ! A16   A(1,6,5)              121.6347         estimate D2E/DX2                !
 ! A17   A(1,6,103)            119.4503         estimate D2E/DX2                !
 ! A18   A(5,6,103)            118.906          estimate D2E/DX2                !
 ! A19   A(4,7,8)              118.8351         estimate D2E/DX2                !
 ! A20   A(4,7,12)             121.7488         estimate D2E/DX2                !
 ! A21   A(8,7,12)             119.3741         estimate D2E/DX2                !
 ! A22   A(7,8,9)              121.2166         estimate D2E/DX2                !
 ! A23   A(7,8,104)            118.1101         estimate D2E/DX2                !
 ! A24   A(9,8,104)            120.4226         estimate D2E/DX2                !
 ! A25   A(8,9,10)             122.162          estimate D2E/DX2                !
 ! A26   A(8,9,105)            117.4159         estimate D2E/DX2                !
 ! A27   A(10,9,105)           120.1955         estimate D2E/DX2                !
 ! A28   A(9,10,11)            118.7389         estimate D2E/DX2                !
 ! A29   A(9,10,15)            121.7187         estimate D2E/DX2                !
 ! A30   A(11,10,15)           119.4124         estimate D2E/DX2                !
 ! A31   A(10,11,12)           118.6675         estimate D2E/DX2                !
 ! A32   A(10,11,106)          119.3085         estimate D2E/DX2                !
 ! A33   A(12,11,106)          121.6877         estimate D2E/DX2                !
 ! A34   A(7,12,11)            119.5484         estimate D2E/DX2                !
 ! A35   A(7,12,13)            116.8702         estimate D2E/DX2                !
 ! A36   A(11,12,13)           123.3544         estimate D2E/DX2                !
 ! A37   A(12,13,14)           116.9682         estimate D2E/DX2                !
 ! A38   A(13,14,107)          110.8855         estimate D2E/DX2                !
 ! A39   A(13,14,108)          110.3458         estimate D2E/DX2                !
 ! A40   A(13,14,109)          115.7991         estimate D2E/DX2                !
 ! A41   A(107,14,108)         104.3766         estimate D2E/DX2                !
 ! A42   A(107,14,109)         106.3156         estimate D2E/DX2                !
 ! A43   A(108,14,109)         108.4308         estimate D2E/DX2                !
 ! A44   A(10,15,16)           120.9876         estimate D2E/DX2                !
 ! A45   A(10,15,20)           119.903          estimate D2E/DX2                !
 ! A46   A(16,15,20)           118.7953         estimate D2E/DX2                !
 ! A47   A(15,16,17)           118.4601         estimate D2E/DX2                !
 ! A48   A(15,16,110)          121.0546         estimate D2E/DX2                !
 ! A49   A(17,16,110)          119.9698         estimate D2E/DX2                !
 ! A50   A(16,17,18)           122.363          estimate D2E/DX2                !
 ! A51   A(16,17,111)          120.4045         estimate D2E/DX2                !
 ! A52   A(18,17,111)          116.287          estimate D2E/DX2                !
 ! A53   A(17,18,19)           117.3507         estimate D2E/DX2                !
 ! A54   A(17,18,21)           118.9893         estimate D2E/DX2                !
 ! A55   A(19,18,21)           123.3618         estimate D2E/DX2                !
 ! A56   A(18,19,20)           124.815          estimate D2E/DX2                !
 ! A57   A(18,19,112)          117.3344         estimate D2E/DX2                !
 ! A58   A(20,19,112)          117.8429         estimate D2E/DX2                !
 ! A59   A(15,20,19)           117.3285         estimate D2E/DX2                !
 ! A60   A(15,20,113)          120.3963         estimate D2E/DX2                !
 ! A61   A(19,20,113)          122.0641         estimate D2E/DX2                !
 ! A62   A(18,21,22)           118.4713         estimate D2E/DX2                !
 ! A63   A(18,21,26)           125.6467         estimate D2E/DX2                !
 ! A64   A(22,21,26)           115.8452         estimate D2E/DX2                !
 ! A65   A(21,22,23)           123.9051         estimate D2E/DX2                !
 ! A66   A(21,22,114)          118.654          estimate D2E/DX2                !
 ! A67   A(23,22,114)          117.403          estimate D2E/DX2                !
 ! A68   A(22,23,24)           120.228          estimate D2E/DX2                !
 ! A69   A(22,23,115)          120.6658         estimate D2E/DX2                !
 ! A70   A(24,23,115)          119.0975         estimate D2E/DX2                !
 ! A71   A(23,24,25)           117.4775         estimate D2E/DX2                !
 ! A72   A(23,24,29)           119.7301         estimate D2E/DX2                !
 ! A73   A(25,24,29)           122.2357         estimate D2E/DX2                !
 ! A74   A(24,25,26)           122.5711         estimate D2E/DX2                !
 ! A75   A(24,25,116)          118.2466         estimate D2E/DX2                !
 ! A76   A(26,25,116)          118.9215         estimate D2E/DX2                !
 ! A77   A(21,26,25)           119.6702         estimate D2E/DX2                !
 ! A78   A(21,26,27)           114.1539         estimate D2E/DX2                !
 ! A79   A(25,26,27)           126.1248         estimate D2E/DX2                !
 ! A80   A(26,27,28)           118.4044         estimate D2E/DX2                !
 ! A81   A(27,28,117)          110.7856         estimate D2E/DX2                !
 ! A82   A(27,28,118)          106.96           estimate D2E/DX2                !
 ! A83   A(27,28,119)          111.7964         estimate D2E/DX2                !
 ! A84   A(117,28,118)         104.8916         estimate D2E/DX2                !
 ! A85   A(117,28,119)         112.1269         estimate D2E/DX2                !
 ! A86   A(118,28,119)         109.923          estimate D2E/DX2                !
 ! A87   A(24,29,30)           124.6763         estimate D2E/DX2                !
 ! A88   A(24,29,34)           117.048          estimate D2E/DX2                !
 ! A89   A(30,29,34)           118.1332         estimate D2E/DX2                !
 ! A90   A(29,30,31)           120.3029         estimate D2E/DX2                !
 ! A91   A(29,30,120)          123.5859         estimate D2E/DX2                !
 ! A92   A(31,30,120)          115.8281         estimate D2E/DX2                !
 ! A93   A(30,31,32)           121.7392         estimate D2E/DX2                !
 ! A94   A(30,31,121)          119.2283         estimate D2E/DX2                !
 ! A95   A(32,31,121)          118.6522         estimate D2E/DX2                !
 ! A96   A(31,32,33)           120.8342         estimate D2E/DX2                !
 ! A97   A(31,32,35)           121.6717         estimate D2E/DX2                !
 ! A98   A(33,32,35)           117.0612         estimate D2E/DX2                !
 ! A99   A(32,33,34)           116.8429         estimate D2E/DX2                !
 ! A100  A(32,33,122)          121.1121         estimate D2E/DX2                !
 ! A101  A(34,33,122)          121.933          estimate D2E/DX2                !
 ! A102  A(29,34,33)           121.9927         estimate D2E/DX2                !
 ! A103  A(29,34,123)          120.1066         estimate D2E/DX2                !
 ! A104  A(33,34,123)          117.7591         estimate D2E/DX2                !
 ! A105  A(32,35,36)           120.6988         estimate D2E/DX2                !
 ! A106  A(32,35,40)           121.2621         estimate D2E/DX2                !
 ! A107  A(36,35,40)           117.9609         estimate D2E/DX2                !
 ! A108  A(35,36,37)           119.6293         estimate D2E/DX2                !
 ! A109  A(35,36,124)          118.0522         estimate D2E/DX2                !
 ! A110  A(37,36,124)          121.7726         estimate D2E/DX2                !
 ! A111  A(36,37,38)           121.9368         estimate D2E/DX2                !
 ! A112  A(36,37,125)          120.8304         estimate D2E/DX2                !
 ! A113  A(38,37,125)          116.3514         estimate D2E/DX2                !
 ! A114  A(37,38,39)           118.3116         estimate D2E/DX2                !
 ! A115  A(37,38,43)           119.7067         estimate D2E/DX2                !
 ! A116  A(39,38,43)           121.3087         estimate D2E/DX2                !
 ! A117  A(38,39,40)           119.7686         estimate D2E/DX2                !
 ! A118  A(38,39,126)          116.4974         estimate D2E/DX2                !
 ! A119  A(40,39,126)          123.271          estimate D2E/DX2                !
 ! A120  A(35,40,39)           121.43           estimate D2E/DX2                !
 ! A121  A(35,40,41)           115.9276         estimate D2E/DX2                !
 ! A122  A(39,40,41)           122.6424         estimate D2E/DX2                !
 ! A123  A(40,41,42)           116.5992         estimate D2E/DX2                !
 ! A124  A(41,42,127)          112.5666         estimate D2E/DX2                !
 ! A125  A(41,42,128)          111.5214         estimate D2E/DX2                !
 ! A126  A(41,42,129)          108.0454         estimate D2E/DX2                !
 ! A127  A(127,42,128)         108.1567         estimate D2E/DX2                !
 ! A128  A(127,42,129)         110.1129         estimate D2E/DX2                !
 ! A129  A(128,42,129)         106.2531         estimate D2E/DX2                !
 ! A130  A(38,43,44)           126.0325         estimate D2E/DX2                !
 ! A131  A(38,43,48)           119.7845         estimate D2E/DX2                !
 ! A132  A(44,43,48)           114.1537         estimate D2E/DX2                !
 ! A133  A(43,44,45)           125.7689         estimate D2E/DX2                !
 ! A134  A(43,44,130)          119.0155         estimate D2E/DX2                !
 ! A135  A(45,44,130)          115.1882         estimate D2E/DX2                !
 ! A136  A(44,45,46)           121.0812         estimate D2E/DX2                !
 ! A137  A(44,45,131)          120.1808         estimate D2E/DX2                !
 ! A138  A(46,45,131)          118.7086         estimate D2E/DX2                !
 ! A139  A(45,46,47)           115.7994         estimate D2E/DX2                !
 ! A140  A(45,46,49)           120.8073         estimate D2E/DX2                !
 ! A141  A(47,46,49)           123.3625         estimate D2E/DX2                !
 ! A142  A(46,47,48)           123.0195         estimate D2E/DX2                !
 ! A143  A(46,47,132)          120.1637         estimate D2E/DX2                !
 ! A144  A(48,47,132)          116.4422         estimate D2E/DX2                !
 ! A145  A(43,48,47)           119.8384         estimate D2E/DX2                !
 ! A146  A(43,48,133)          115.3967         estimate D2E/DX2                !
 ! A147  A(47,48,133)          124.0809         estimate D2E/DX2                !
 ! A148  A(46,49,50)           114.8371         estimate D2E/DX2                !
 ! A149  A(46,49,54)           122.3314         estimate D2E/DX2                !
 ! A150  A(50,49,54)           122.8257         estimate D2E/DX2                !
 ! A151  A(49,50,51)           117.4917         estimate D2E/DX2                !
 ! A152  A(49,50,134)          127.9644         estimate D2E/DX2                !
 ! A153  A(51,50,134)          114.3983         estimate D2E/DX2                !
 ! A154  A(50,51,52)           124.4879         estimate D2E/DX2                !
 ! A155  A(50,51,135)          121.0542         estimate D2E/DX2                !
 ! A156  A(52,51,135)          114.2148         estimate D2E/DX2                !
 ! A157  A(51,52,53)           113.163          estimate D2E/DX2                !
 ! A158  A(51,52,57)           124.598          estimate D2E/DX2                !
 ! A159  A(53,52,57)           122.224          estimate D2E/DX2                !
 ! A160  A(52,53,54)           120.5222         estimate D2E/DX2                !
 ! A161  A(52,53,136)          114.7717         estimate D2E/DX2                !
 ! A162  A(54,53,136)          124.3552         estimate D2E/DX2                !
 ! A163  A(49,54,53)           121.3288         estimate D2E/DX2                !
 ! A164  A(49,54,55)           119.5754         estimate D2E/DX2                !
 ! A165  A(53,54,55)           119.0783         estimate D2E/DX2                !
 ! A166  A(54,55,56)           120.0959         estimate D2E/DX2                !
 ! A167  A(55,56,137)          110.8876         estimate D2E/DX2                !
 ! A168  A(55,56,138)          115.6968         estimate D2E/DX2                !
 ! A169  A(55,56,139)          114.6338         estimate D2E/DX2                !
 ! A170  A(137,56,138)         105.0544         estimate D2E/DX2                !
 ! A171  A(137,56,139)         104.404          estimate D2E/DX2                !
 ! A172  A(138,56,139)         105.1178         estimate D2E/DX2                !
 ! A173  A(52,57,58)           123.6905         estimate D2E/DX2                !
 ! A174  A(52,57,62)           117.1807         estimate D2E/DX2                !
 ! A175  A(58,57,62)           119.0735         estimate D2E/DX2                !
 ! A176  A(57,58,59)           124.2457         estimate D2E/DX2                !
 ! A177  A(57,58,140)          118.2844         estimate D2E/DX2                !
 ! A178  A(59,58,140)          117.4214         estimate D2E/DX2                !
 ! A179  A(58,59,60)           120.0159         estimate D2E/DX2                !
 ! A180  A(58,59,141)          120.1242         estimate D2E/DX2                !
 ! A181  A(60,59,141)          119.825          estimate D2E/DX2                !
 ! A182  A(59,60,61)           115.6622         estimate D2E/DX2                !
 ! A183  A(59,60,63)           125.219          estimate D2E/DX2                !
 ! A184  A(61,60,63)           119.1133         estimate D2E/DX2                !
 ! A185  A(60,61,62)           123.9371         estimate D2E/DX2                !
 ! A186  A(60,61,142)          116.3351         estimate D2E/DX2                !
 ! A187  A(62,61,142)          119.0429         estimate D2E/DX2                !
 ! A188  A(57,62,61)           116.6153         estimate D2E/DX2                !
 ! A189  A(57,62,143)          122.3256         estimate D2E/DX2                !
 ! A190  A(61,62,143)          120.798          estimate D2E/DX2                !
 ! A191  A(60,63,64)           112.7985         estimate D2E/DX2                !
 ! A192  A(60,63,68)           127.7409         estimate D2E/DX2                !
 ! A193  A(64,63,68)           119.4588         estimate D2E/DX2                !
 ! A194  A(63,64,65)           117.865          estimate D2E/DX2                !
 ! A195  A(63,64,144)          124.0585         estimate D2E/DX2                !
 ! A196  A(65,64,144)          118.0361         estimate D2E/DX2                !
 ! A197  A(64,65,66)           119.9807         estimate D2E/DX2                !
 ! A198  A(64,65,145)          117.1686         estimate D2E/DX2                !
 ! A199  A(66,65,145)          122.6293         estimate D2E/DX2                !
 ! A200  A(65,66,67)           120.3227         estimate D2E/DX2                !
 ! A201  A(65,66,71)           118.7372         estimate D2E/DX2                !
 ! A202  A(67,66,71)           120.7166         estimate D2E/DX2                !
 ! A203  A(66,67,68)           121.264          estimate D2E/DX2                !
 ! A204  A(66,67,146)          121.6169         estimate D2E/DX2                !
 ! A205  A(68,67,146)          117.0825         estimate D2E/DX2                !
 ! A206  A(63,68,67)           120.6428         estimate D2E/DX2                !
 ! A207  A(63,68,69)           114.5726         estimate D2E/DX2                !
 ! A208  A(67,68,69)           124.5842         estimate D2E/DX2                !
 ! A209  A(68,69,70)           115.4563         estimate D2E/DX2                !
 ! A210  A(69,70,147)          106.7892         estimate D2E/DX2                !
 ! A211  A(69,70,148)          111.5124         estimate D2E/DX2                !
 ! A212  A(69,70,149)          114.8558         estimate D2E/DX2                !
 ! A213  A(147,70,148)         107.5706         estimate D2E/DX2                !
 ! A214  A(147,70,149)         104.6924         estimate D2E/DX2                !
 ! A215  A(148,70,149)         110.8504         estimate D2E/DX2                !
 ! A216  A(66,71,72)           118.2853         estimate D2E/DX2                !
 ! A217  A(66,71,76)           123.8366         estimate D2E/DX2                !
 ! A218  A(72,71,76)           117.5589         estimate D2E/DX2                !
 ! A219  A(71,72,73)           119.0989         estimate D2E/DX2                !
 ! A220  A(71,72,150)          126.9746         estimate D2E/DX2                !
 ! A221  A(73,72,150)          113.9203         estimate D2E/DX2                !
 ! A222  A(72,73,74)           117.952          estimate D2E/DX2                !
 ! A223  A(72,73,151)          117.074          estimate D2E/DX2                !
 ! A224  A(74,73,151)          124.9517         estimate D2E/DX2                !
 ! A225  A(73,74,75)           120.9876         estimate D2E/DX2                !
 ! A226  A(73,74,77)           114.9784         estimate D2E/DX2                !
 ! A227  A(75,74,77)           124.0056         estimate D2E/DX2                !
 ! A228  A(74,75,76)           118.1174         estimate D2E/DX2                !
 ! A229  A(74,75,152)          121.9048         estimate D2E/DX2                !
 ! A230  A(76,75,152)          119.9452         estimate D2E/DX2                !
 ! A231  A(71,76,75)           126.2703         estimate D2E/DX2                !
 ! A232  A(71,76,153)          118.1981         estimate D2E/DX2                !
 ! A233  A(75,76,153)          115.5228         estimate D2E/DX2                !
 ! A234  A(74,77,78)           118.1424         estimate D2E/DX2                !
 ! A235  A(74,77,82)           126.6882         estimate D2E/DX2                !
 ! A236  A(78,77,82)           115.153          estimate D2E/DX2                !
 ! A237  A(77,78,79)           122.9397         estimate D2E/DX2                !
 ! A238  A(77,78,154)          117.3405         estimate D2E/DX2                !
 ! A239  A(79,78,154)          119.7172         estimate D2E/DX2                !
 ! A240  A(78,79,80)           121.3704         estimate D2E/DX2                !
 ! A241  A(78,79,155)          119.5535         estimate D2E/DX2                !
 ! A242  A(80,79,155)          119.0509         estimate D2E/DX2                !
 ! A243  A(79,80,81)           119.8376         estimate D2E/DX2                !
 ! A244  A(79,80,85)           122.5107         estimate D2E/DX2                !
 ! A245  A(81,80,85)           117.6204         estimate D2E/DX2                !
 ! A246  A(80,81,82)           120.3272         estimate D2E/DX2                !
 ! A247  A(80,81,156)          120.9146         estimate D2E/DX2                !
 ! A248  A(82,81,156)          118.7522         estimate D2E/DX2                !
 ! A249  A(77,82,81)           120.3141         estimate D2E/DX2                !
 ! A250  A(77,82,83)           112.5349         estimate D2E/DX2                !
 ! A251  A(81,82,83)           127.1111         estimate D2E/DX2                !
 ! A252  A(82,83,84)           114.8121         estimate D2E/DX2                !
 ! A253  A(83,84,157)          107.8573         estimate D2E/DX2                !
 ! A254  A(83,84,158)          115.8902         estimate D2E/DX2                !
 ! A255  A(83,84,159)          107.407          estimate D2E/DX2                !
 ! A256  A(157,84,158)         106.4827         estimate D2E/DX2                !
 ! A257  A(157,84,159)         103.1396         estimate D2E/DX2                !
 ! A258  A(158,84,159)         115.0841         estimate D2E/DX2                !
 ! A259  A(80,85,86)           119.1674         estimate D2E/DX2                !
 ! A260  A(80,85,90)           126.1885         estimate D2E/DX2                !
 ! A261  A(86,85,90)           114.6224         estimate D2E/DX2                !
 ! A262  A(85,86,87)           119.8398         estimate D2E/DX2                !
 ! A263  A(85,86,160)          119.5548         estimate D2E/DX2                !
 ! A264  A(87,86,160)          120.6051         estimate D2E/DX2                !
 ! A265  A(86,87,88)           122.559          estimate D2E/DX2                !
 ! A266  A(86,87,161)          118.282          estimate D2E/DX2                !
 ! A267  A(88,87,161)          119.0041         estimate D2E/DX2                !
 ! A268  A(87,88,89)           117.6864         estimate D2E/DX2                !
 ! A269  A(87,88,91)           122.6538         estimate D2E/DX2                !
 ! A270  A(89,88,91)           119.4409         estimate D2E/DX2                !
 ! A271  A(88,89,90)           119.9389         estimate D2E/DX2                !
 ! A272  A(88,89,162)          122.1819         estimate D2E/DX2                !
 ! A273  A(90,89,162)          117.0745         estimate D2E/DX2                !
 ! A274  A(85,90,89)           124.7899         estimate D2E/DX2                !
 ! A275  A(85,90,163)          116.0193         estimate D2E/DX2                !
 ! A276  A(89,90,163)          118.4868         estimate D2E/DX2                !
 ! A277  A(88,91,92)           116.1372         estimate D2E/DX2                !
 ! A278  A(88,91,96)           124.3173         estimate D2E/DX2                !
 ! A279  A(92,91,96)           119.5432         estimate D2E/DX2                !
 ! A280  A(91,92,93)           118.856          estimate D2E/DX2                !
 ! A281  A(91,92,164)          122.425          estimate D2E/DX2                !
 ! A282  A(93,92,164)          117.9643         estimate D2E/DX2                !
 ! A283  A(92,93,94)           119.8518         estimate D2E/DX2                !
 ! A284  A(92,93,165)          119.6501         estimate D2E/DX2                !
 ! A285  A(94,93,165)          119.5908         estimate D2E/DX2                !
 ! A286  A(93,94,95)           123.2518         estimate D2E/DX2                !
 ! A287  A(93,94,166)          122.5544         estimate D2E/DX2                !
 ! A288  A(95,94,166)          114.1494         estimate D2E/DX2                !
 ! A289  A(94,95,96)           115.166          estimate D2E/DX2                !
 ! A290  A(94,95,167)          124.2289         estimate D2E/DX2                !
 ! A291  A(96,95,167)          120.4849         estimate D2E/DX2                !
 ! A292  A(91,96,95)           122.9188         estimate D2E/DX2                !
 ! A293  A(91,96,97)           112.5686         estimate D2E/DX2                !
 ! A294  A(95,96,97)           124.4741         estimate D2E/DX2                !
 ! A295  A(96,97,98)           113.0928         estimate D2E/DX2                !
 ! A296  A(97,98,168)          112.5271         estimate D2E/DX2                !
 ! A297  A(97,98,169)          104.152          estimate D2E/DX2                !
 ! A298  A(97,98,170)          113.3913         estimate D2E/DX2                !
 ! A299  A(168,98,169)         107.7019         estimate D2E/DX2                !
 ! A300  A(168,98,170)         112.1604         estimate D2E/DX2                !
 ! A301  A(169,98,170)         106.2057         estimate D2E/DX2                !
 ! D1    D(6,1,2,3)             -2.8003         estimate D2E/DX2                !
 ! D2    D(6,1,2,100)         -173.6269         estimate D2E/DX2                !
 ! D3    D(99,1,2,3)           173.0885         estimate D2E/DX2                !
 ! D4    D(99,1,2,100)           2.2619         estimate D2E/DX2                !
 ! D5    D(2,1,6,5)              0.8337         estimate D2E/DX2                !
 ! D6    D(2,1,6,103)          179.7295         estimate D2E/DX2                !
 ! D7    D(99,1,6,5)          -174.9313         estimate D2E/DX2                !
 ! D8    D(99,1,6,103)           3.9644         estimate D2E/DX2                !
 ! D9    D(1,2,3,4)              2.5215         estimate D2E/DX2                !
 ! D10   D(1,2,3,101)         -178.6211         estimate D2E/DX2                !
 ! D11   D(100,2,3,4)          173.8238         estimate D2E/DX2                !
 ! D12   D(100,2,3,101)         -7.3188         estimate D2E/DX2                !
 ! D13   D(2,3,4,5)             -0.4207         estimate D2E/DX2                !
 ! D14   D(2,3,4,7)            177.2011         estimate D2E/DX2                !
 ! D15   D(101,3,4,5)         -179.1458         estimate D2E/DX2                !
 ! D16   D(101,3,4,7)           -1.524          estimate D2E/DX2                !
 ! D17   D(3,4,5,6)             -1.4781         estimate D2E/DX2                !
 ! D18   D(3,4,5,102)         -179.4393         estimate D2E/DX2                !
 ! D19   D(7,4,5,6)           -179.0374         estimate D2E/DX2                !
 ! D20   D(7,4,5,102)            3.0013         estimate D2E/DX2                !
 ! D21   D(3,4,7,8)           -112.0574         estimate D2E/DX2                !
 ! D22   D(3,4,7,12)            65.5677         estimate D2E/DX2                !
 ! D23   D(5,4,7,8)             65.6631         estimate D2E/DX2                !
 ! D24   D(5,4,7,12)          -116.7117         estimate D2E/DX2                !
 ! D25   D(4,5,6,1)              1.2741         estimate D2E/DX2                !
 ! D26   D(4,5,6,103)         -177.6275         estimate D2E/DX2                !
 ! D27   D(102,5,6,1)          179.2333         estimate D2E/DX2                !
 ! D28   D(102,5,6,103)          0.3317         estimate D2E/DX2                !
 ! D29   D(4,7,8,9)            177.9904         estimate D2E/DX2                !
 ! D30   D(4,7,8,104)            3.7195         estimate D2E/DX2                !
 ! D31   D(12,7,8,9)             0.3078         estimate D2E/DX2                !
 ! D32   D(12,7,8,104)        -173.9631         estimate D2E/DX2                !
 ! D33   D(4,7,12,11)          177.7703         estimate D2E/DX2                !
 ! D34   D(4,7,12,13)            3.0608         estimate D2E/DX2                !
 ! D35   D(8,7,12,11)           -4.617          estimate D2E/DX2                !
 ! D36   D(8,7,12,13)         -179.3265         estimate D2E/DX2                !
 ! D37   D(7,8,9,10)             4.2554         estimate D2E/DX2                !
 ! D38   D(7,8,9,105)          178.792          estimate D2E/DX2                !
 ! D39   D(104,8,9,10)         178.3948         estimate D2E/DX2                !
 ! D40   D(104,8,9,105)         -7.0686         estimate D2E/DX2                !
 ! D41   D(8,9,10,11)           -3.9941         estimate D2E/DX2                !
 ! D42   D(8,9,10,15)         -179.8224         estimate D2E/DX2                !
 ! D43   D(105,9,10,11)       -178.3825         estimate D2E/DX2                !
 ! D44   D(105,9,10,15)          5.7892         estimate D2E/DX2                !
 ! D45   D(9,10,11,12)          -0.4104         estimate D2E/DX2                !
 ! D46   D(9,10,11,106)       -173.8655         estimate D2E/DX2                !
 ! D47   D(15,10,11,12)        175.516          estimate D2E/DX2                !
 ! D48   D(15,10,11,106)         2.0609         estimate D2E/DX2                !
 ! D49   D(9,10,15,16)          59.1567         estimate D2E/DX2                !
 ! D50   D(9,10,15,20)        -127.3565         estimate D2E/DX2                !
 ! D51   D(11,10,15,16)       -116.6441         estimate D2E/DX2                !
 ! D52   D(11,10,15,20)         56.8427         estimate D2E/DX2                !
 ! D53   D(10,11,12,7)           4.7459         estimate D2E/DX2                !
 ! D54   D(10,11,12,13)        179.095          estimate D2E/DX2                !
 ! D55   D(106,11,12,7)        178.0382         estimate D2E/DX2                !
 ! D56   D(106,11,12,13)        -7.6127         estimate D2E/DX2                !
 ! D57   D(7,12,13,14)         176.631          estimate D2E/DX2                !
 ! D58   D(11,12,13,14)          2.1416         estimate D2E/DX2                !
 ! D59   D(12,13,14,107)       -61.4898         estimate D2E/DX2                !
 ! D60   D(12,13,14,108)      -176.6363         estimate D2E/DX2                !
 ! D61   D(12,13,14,109)        59.7368         estimate D2E/DX2                !
 ! D62   D(10,15,16,17)       -177.8879         estimate D2E/DX2                !
 ! D63   D(10,15,16,110)        -6.1273         estimate D2E/DX2                !
 ! D64   D(20,15,16,17)          8.5546         estimate D2E/DX2                !
 ! D65   D(20,15,16,110)      -179.6848         estimate D2E/DX2                !
 ! D66   D(10,15,20,19)       -179.6814         estimate D2E/DX2                !
 ! D67   D(10,15,20,113)         5.4899         estimate D2E/DX2                !
 ! D68   D(16,15,20,19)         -6.0523         estimate D2E/DX2                !
 ! D69   D(16,15,20,113)       179.1189         estimate D2E/DX2                !
 ! D70   D(15,16,17,18)        -10.013          estimate D2E/DX2                !
 ! D71   D(15,16,17,111)      -178.47           estimate D2E/DX2                !
 ! D72   D(110,16,17,18)       178.1343         estimate D2E/DX2                !
 ! D73   D(110,16,17,111)        9.6773         estimate D2E/DX2                !
 ! D74   D(16,17,18,19)          8.4809         estimate D2E/DX2                !
 ! D75   D(16,17,18,21)       -177.5779         estimate D2E/DX2                !
 ! D76   D(111,17,18,19)       177.3827         estimate D2E/DX2                !
 ! D77   D(111,17,18,21)        -8.676          estimate D2E/DX2                !
 ! D78   D(17,18,19,20)         -5.9735         estimate D2E/DX2                !
 ! D79   D(17,18,19,112)       175.0576         estimate D2E/DX2                !
 ! D80   D(21,18,19,20)       -179.6271         estimate D2E/DX2                !
 ! D81   D(21,18,19,112)         1.404          estimate D2E/DX2                !
[...]
  Beta virt. eigenvalues --    2.88275   2.90741   2.93481   2.93908   2.94479
  Beta virt. eigenvalues --    2.95040   2.95419   2.95978   2.99849   2.99999
  Beta virt. eigenvalues --    3.00068   3.00131   3.00175   3.00312   3.00373
  Beta virt. eigenvalues --    3.03428   3.04147   3.04171   3.04248   3.04292
  Beta virt. eigenvalues --    3.04351   3.04419   3.20415   3.20928   3.21500
  Beta virt. eigenvalues --    3.22135   3.22679   3.23099   3.26192   3.36012
  Beta virt. eigenvalues --    3.36305   3.36413   3.36506   3.36592   3.36705
  Beta virt. eigenvalues --    3.37110   3.40913   3.41330   3.42038   3.43110
  Beta virt. eigenvalues --    3.44287   3.45431   3.50093   3.54256   3.55696
  Beta virt. eigenvalues --    3.57350   3.58868   3.60022   3.60847   3.61045
          Condensed to atoms (all electrons):
          Atomic-Atomic Spin Densities.
 Mulliken charges and spin densities:
               1          2
     1  C    0.021498   0.000000
     2  C    0.025905  -0.000000
     3  C    0.034431  -0.000000
     4  C    0.021105  -0.000000
     5  C    0.007818   0.000000
     6  C    0.026923  -0.000000
     7  C   -0.007324  -0.000000
     8  C    0.026958  -0.000000
     9  C    0.006457  -0.000000
    10  C    0.026184   0.000000
    11  C   -0.030560  -0.000000
    12  C    0.098339   0.000000
    13  O   -0.237689  -0.000000
    14  C    0.066172   0.000000
    15  C    0.027203  -0.000000
    16  C    0.008255   0.000000
    17  C    0.042175   0.000000
    18  C    0.035691   0.000000
    19  C    0.014312   0.000000
    20  C    0.006004  -0.000000
    21  C   -0.007862  -0.000000
    22  C    0.024750   0.000000
    23  C    0.006662  -0.000000
    24  C    0.026888   0.000000
    25  C   -0.029880  -0.000000
    26  C    0.097396  -0.000000
    27  O   -0.238519  -0.000000
    28  C    0.066126   0.000000
    29  C    0.027541   0.000000
    30  C    0.007924  -0.000000
    31  C    0.042410   0.000000
    32  C    0.036056  -0.000000
    33  C    0.014329   0.000000
    34  C    0.005862  -0.000000
    35  C   -0.004670   0.000000
    36  C    0.023024  -0.000000
    37  C    0.006214  -0.000000
    38  C    0.029640   0.000000
    39  C   -0.031308   0.000000
    40  C    0.095530  -0.000000
    41  O   -0.238539   0.000000
    42  C    0.066246  -0.000000
    43  C    0.024384   0.000000
    44  C    0.008466  -0.000000
    45  C    0.043921   0.000000
    46  C    0.033177  -0.000000
    47  C    0.015933   0.000000
    48  C    0.006133   0.000000
    49  C   -0.008033   0.000000
    50  C    0.024581   0.000000
    51  C    0.006945  -0.000000
    52  C    0.027121   0.000000
    53  C   -0.030089  -0.000000
    54  C    0.097077   0.000000
    55  O   -0.238651  -0.000000
    56  C    0.066005   0.000000
    57  C    0.024810  -0.000000
    58  C    0.006606   0.000000
    59  C    0.015858  -0.000000
    60  C    0.033081   0.000000
    61  C    0.043843  -0.000000
    62  C    0.008318   0.000000
    63  C   -0.008049  -0.000000
    64  C    0.024652   0.000000
    65  C    0.006726  -0.000000
    66  C    0.027054   0.000000
    67  C   -0.029716  -0.000000
    68  C    0.097051   0.000000
    69  O   -0.238586  -0.000000
    70  C    0.065980   0.000000
    71  C    0.024674   0.000000
    72  C    0.006067   0.000000
    73  C    0.043371  -0.000000
    74  C    0.033124   0.000000
    75  C    0.016172   0.000000
    76  C    0.009026  -0.000000
    77  C   -0.008121  -0.000000
    78  C    0.024597   0.000000
    79  C    0.007110  -0.000000
    80  C    0.026872   0.000000
    81  C   -0.029946  -0.000000
    82  C    0.097257  -0.000000
    83  O   -0.238626  -0.000000
    84  C    0.066002   0.000000
    85  C    0.024555  -0.000000
    86  C    0.008354   0.000000
    87  C    0.045269  -0.000000
    88  C    0.034438  -0.000000
    89  C    0.016925   0.000000
    90  C    0.006849   0.000000
    91  C   -0.018994   0.000000
    92  C    0.016654  -0.000000
    93  C    0.030022   0.000000
    94  C    0.026940  -0.000000
    95  C   -0.023992   0.000000
    96  C    0.090224  -0.000000
    97  O   -0.236412  -0.000000
    98  C    0.063043  -0.000000
    99  H   -0.023436  -0.000000
   100  H   -0.022507   0.000000
   101  H   -0.034461  -0.000000
   102  H   -0.029028   0.000000
   103  H   -0.021847  -0.000000
   104  H   -0.029983   0.000000
   105  H   -0.033744   0.000000
   106  H   -0.029566   0.000000
   107  H    0.042653   0.000000
   108  H    0.048126  -0.000000
   109  H    0.045656  -0.000000
   110  H   -0.029641   0.000000
   111  H   -0.034229   0.000000
   112  H   -0.029037   0.000000
   113  H   -0.031734  -0.000000
   114  H   -0.030688   0.000000
   115  H   -0.033667   0.000000
   116  H   -0.029035   0.000000
   117  H    0.048501   0.000000
   118  H    0.046222  -0.000000
   119  H    0.043005  -0.000000
   120  H   -0.029623   0.000000
   121  H   -0.034333   0.000000
   122  H   -0.029282   0.000000
   123  H   -0.031617  -0.000000
   124  H   -0.030313   0.000000
   125  H   -0.033131  -0.000000
   126  H   -0.028087  -0.000000
   127  H    0.048306  -0.000000
   128  H    0.047096   0.000000
   129  H    0.042463  -0.000000
   130  H   -0.030171  -0.000000
   131  H   -0.034134   0.000000
   132  H   -0.029013   0.000000
   133  H   -0.031800   0.000000
   134  H   -0.029206  -0.000000
   135  H   -0.032928  -0.000000
   136  H   -0.028586  -0.000000
   137  H    0.048604  -0.000000
   138  H    0.042985   0.000000
   139  H    0.046255  -0.000000
   140  H   -0.031950   0.000000
   141  H   -0.029236  -0.000000
   142  H   -0.033848   0.000000
   143  H   -0.029426  -0.000000
   144  H   -0.029291  -0.000000
   145  H   -0.032977   0.000000
   146  H   -0.028605  -0.000000
   147  H    0.048696  -0.000000
   148  H    0.046449   0.000000
   149  H    0.042782  -0.000000
   150  H   -0.032532   0.000000
   151  H   -0.034914   0.000000
   152  H   -0.027989   0.000000
   153  H   -0.028753   0.000000
   154  H   -0.029218  -0.000000
   155  H   -0.032883  -0.000000
   156  H   -0.028656  -0.000000
   157  H    0.048604  -0.000000
   158  H    0.045965  -0.000000
   159  H    0.043285  -0.000000
   160  H   -0.029521   0.000000
   161  H   -0.034061  -0.000000
   162  H   -0.029324   0.000000
   163  H   -0.031624  -0.000000
   164  H   -0.028035   0.000000
   165  H   -0.024695   0.000000
   166  H   -0.021526  -0.000000
   167  H   -0.020797   0.000000
   168  H    0.043517   0.000000
   169  H    0.049791   0.000000
   170  H    0.043993   0.000000
 Sum of Mulliken charges =  -0.00000   0.00000
 Mulliken charges and spin densities with hydrogens summed into heavy atoms:
               1          2
     1  C   -0.001938   0.000000
     2  C    0.003398  -0.000000
     3  C   -0.000030  -0.000000
     4  C    0.021105  -0.000000
     5  C   -0.021209   0.000000
     6  C    0.005076  -0.000000
     7  C   -0.007324  -0.000000
     8  C   -0.003025  -0.000000
     9  C   -0.027287   0.000000
    10  C    0.026184   0.000000
    11  C   -0.060126  -0.000000
    12  C    0.098339   0.000000
    13  O   -0.237689  -0.000000
    14  C    0.202608  -0.000000
    15  C    0.027203  -0.000000
    16  C   -0.021385   0.000000
    17  C    0.007945   0.000000
    18  C    0.035691   0.000000
    19  C   -0.014725   0.000000
    20  C   -0.025730  -0.000000
    21  C   -0.007862  -0.000000
    22  C   -0.005937   0.000000
    23  C   -0.027005  -0.000000
    24  C    0.026888   0.000000
    25  C   -0.058915  -0.000000
    26  C    0.097396  -0.000000
    27  O   -0.238519  -0.000000
    28  C    0.203855  -0.000000
    29  C    0.027541   0.000000
    30  C   -0.021698  -0.000000
    31  C    0.008077   0.000000
    32  C    0.036056  -0.000000
    33  C   -0.014953   0.000000
    34  C   -0.025755  -0.000000
    35  C   -0.004670   0.000000
    36  C   -0.007289  -0.000000
    37  C   -0.026917  -0.000000
    38  C    0.029640   0.000000
    39  C   -0.059395   0.000000
    40  C    0.095530  -0.000000
    41  O   -0.238539   0.000000
    42  C    0.204111  -0.000000
    43  C    0.024384   0.000000
    44  C   -0.021705  -0.000000
    45  C    0.009787   0.000000
    46  C    0.033177  -0.000000
    47  C   -0.013080   0.000000
    48  C   -0.025667   0.000000
    49  C   -0.008033   0.000000
    50  C   -0.004625   0.000000
    51  C   -0.025984  -0.000000
    52  C    0.027121   0.000000
    53  C   -0.058675  -0.000000
    54  C    0.097077   0.000000
    55  O   -0.238651  -0.000000
    56  C    0.203850   0.000000
    57  C    0.024810  -0.000000
    58  C   -0.025344   0.000000
    59  C   -0.013378  -0.000000
    60  C    0.033081   0.000000
    61  C    0.009995  -0.000000
    62  C   -0.021108   0.000000
    63  C   -0.008049  -0.000000
    64  C   -0.004639   0.000000
    65  C   -0.026251  -0.000000
    66  C    0.027054   0.000000
    67  C   -0.058320  -0.000000
    68  C    0.097051   0.000000
    69  O   -0.238586  -0.000000
    70  C    0.203907   0.000000
    71  C    0.024674   0.000000
    72  C   -0.026465   0.000000
    73  C    0.008456  -0.000000
    74  C    0.033124   0.000000
    75  C   -0.011816   0.000000
    76  C   -0.019727   0.000000
    77  C   -0.008121  -0.000000
    78  C   -0.004621  -0.000000
    79  C   -0.025773  -0.000000
    80  C    0.026872   0.000000
    81  C   -0.058602  -0.000000
    82  C    0.097257  -0.000000
    83  O   -0.238626  -0.000000
    84  C    0.203856  -0.000000
    85  C    0.024555  -0.000000
    86  C   -0.021167   0.000000
    87  C    0.011208  -0.000000
    88  C    0.034438  -0.000000
    89  C   -0.012399   0.000000
    90  C   -0.024775   0.000000
    91  C   -0.018994   0.000000
    92  C   -0.011381   0.000000
    93  C    0.005327   0.000000
    94  C    0.005414  -0.000000
    95  C   -0.044788   0.000000
    96  C    0.090224  -0.000000
    97  O   -0.236412  -0.000000
    98  C    0.200345   0.000000
 Electronic spatial extent (au):  <R**2>=         751897.3533
 Charge=             -0.0000 electrons
 Dipole moment (field-independent basis, Debye):
    X=             -7.5124    Y=              1.8256    Z=              1.7086  Tot=              7.9176
 Quadrupole moment (field-independent basis, Debye-Ang):
   XX=           -496.2774   YY=           -512.1320   ZZ=           -544.9230
   XY=            -73.5838   XZ=              6.4025   YZ=             -1.5914
 Traceless Quadrupole moment (field-independent basis, Debye-Ang):
   XX=             21.5000   YY=              5.6455   ZZ=            -27.1455
   XY=            -73.5838   XZ=              6.4025   YZ=             -1.5914
 Octapole moment (field-independent basis, Debye-Ang**2):
  XXX=          -6676.4403  YYY=             33.1989  ZZZ=             73.3013  XYY=            336.1596
  XXY=            709.3171  XXZ=           -136.5801  XZZ=           -400.2999  YZZ=             38.1321
  YYZ=              4.6906  XYZ=            150.1171
 Hexadecapole moment (field-independent basis, Debye-Ang**3):
 XXXX=        -928068.8871 YYYY=          -5951.4960 ZZZZ=          -3954.7101 XXXY=         -41312.7225
 XXXZ=          13638.3308 YYYX=          -1781.8190 YYYZ=           -117.3747 ZZZX=            -33.9513
 ZZZY=             39.2247 XXYY=        -159831.8238 XXZZ=        -170243.8257 YYZZ=          -1742.2906
 XXYZ=          -2696.4089 YYXZ=             92.2548 ZZXY=           -860.6150
 N-N= 1.227341156228D+04 E-N=-3.392369904052D+04  KE= 4.006013564606D+03
 Leave Link  601 at Fri Jul 24 19:57:38 2020, MaxMem=  4026531840 cpu:              20.2 elap:               3.1
 (Enter /opt/ohpc/pub/libs/gaussian/g16-A.03/sandybridge/g16/l9999.exe)

 Test job not archived.
 1\1\GINC-SKYLAKE032\FOpt\ULC-wPBE\CC-pVDZ\C91H72O7\RDU230\24-Jul-2020\
 0\\#P uLC-wPBE/cc-pVDZ iop(3/107=0144300000, 3/108=0144300000) opt\\H7
 2 C91 O7\\0,1\C,29.8379982702,0.673427016,0.0116236543\C,29.1353033816
 ,1.2347650458,-1.0640228087\C,27.737913749,1.1696304674,-1.1094541374\
 C,27.0104295197,0.5463553326,-0.073924185\C,27.7304377893,-0.016285764
 3,1.0005883545\C,29.1290292862,0.0455672999,1.0440343857\C,25.52055246
 14,0.509221576,-0.0666654403\C,24.8129120162,0.8328883332,1.1035019238
 \C,23.4153658083,0.7972119828,1.1679285669\C,22.6656247444,0.424128643
 5,0.0391842813\C,23.3562544773,0.0927958586,-1.1453670738\C,24.7580331
 446,0.1337574295,-1.2064628385\O,25.4716524885,-0.1808619581,-2.332808
 6667\C,24.7497129562,-0.6173462585,-3.4771913666\C,21.1793214987,0.378
 3633605,0.0819499725\C,20.4411777626,1.3521198063,0.7861062537\C,19.04
 53305927,1.3112424893,0.8358013865\C,18.3234596981,0.2952035873,0.1755
 196652\C,19.0615207299,-0.6803646322,-0.5261399964\C,20.4585067447,-0.
 6405082944,-0.572460841\C,16.8350228222,0.2537093275,0.1643515793\C,16
 .1457282497,-0.0069922408,-1.0326145204\C,14.7494606544,-0.0746785882,
 -1.0941006489\C,13.9810502207,0.1173288252,0.067106138\C,14.6525802561
 ,0.3783367146,1.279809302\C,16.0533408,0.4485081368,1.3363533605\O,16.
 7476628965,0.6965097321,2.4908133103\C,16.0064948298,0.8378390154,3.69
 6098377\C,12.4954781388,0.0510264359,0.0281956684\C,11.7717429884,0.57
 73398706,-1.0618804179\C,10.3766983416,0.512872548,-1.1073775413\C,9.6
 411353098,-0.0764201948,-0.0580428779\C,10.3648184702,-0.6056401536,1.
 0304609274\C,11.7610908737,-0.5438687267,1.0735349204\C,8.1527040525,-
 0.111805449,-0.0505817919\C,7.4452151758,0.215374992,1.1192155731\C,6.
 0480249554,0.1784419142,1.1850935383\C,5.2972510729,-0.19657939,0.0573
 793578\C,5.9874239484,-0.5313171195,-1.1265446064\C,7.3890612333,-0.49
 05820579,-1.1889380183\O,8.1022295844,-0.8277273998,-2.3088094005\C,7.
 3788725533,-1.2664644571,-3.4518199556\C,3.8109316743,-0.2387119193,0.
 1003481342\C,3.1292352289,-0.7017686832,1.2448017645\C,1.7334347147,-0
 .7470882118,1.2910043406\C,0.9552914972,-0.32257769,0.193869441\C,1.63
 67014187,0.1389501683,-0.9510852051\C,3.0336776129,0.1799109837,-0.997
 9417109\C,-0.5333566181,-0.3066802575,0.2318132538\C,-1.238829259,0.81
 23276706,-0.2436031049\C,-2.636836395,0.8713499658,-0.2456534495\C,-3.
 3905767279,-0.2132455194,0.2352933599\C,-2.702622794,-1.3473967861,0.7
 151063206\C,-1.3000021765,-1.4010832471,0.7184688488\O,-0.5899225023,-
 2.48141281,1.1718118113\C,-1.3191919183,-3.6200790094,1.6119267207\C,-
 4.8777032844,-0.174486038,0.2440931748\C,-5.6423399408,-1.3157113545,-
 0.0698946811\C,-7.0400098989,-1.2728391732,-0.0616902736\C,-7.73475863
 23,-0.0891477741,0.2616250995\C,-6.9693387276,1.0515160497,0.581505166
 2\C,-5.5727173842,1.0089021238,0.5687371037\C,-9.2229451241,-0.0618380
 004,0.2134109693\C,-9.9046989369,-0.6575763481,-0.8618140827\C,-11.301
 3217976,-0.6743078259,-0.9465732808\C,-12.0777539574,-0.0853812629,0.0
 663551108\C,-11.4138240982,0.5161738132,1.1559299264\C,-10.0125528228,
 0.5337579707,1.2352572832\O,-9.325262851,1.1034678874,2.27439986\C,-10
 .07810499,1.6592827821,3.3451117302\C,-13.5638860034,-0.088282476,-0.0
 008383292\C,-14.34953097,-0.2883077036,1.1531231478\C,-15.7455273033,-
 0.2963818835,1.0904093062\C,-16.419174963,-0.0961544018,-0.1323685651\
 C,-15.6336891808,0.100686186,-1.2868379297\C,-14.2368527238,0.10398822
 36,-1.2238473793\C,-17.9046554977,-0.0434467437,-0.2238867421\C,-18.52
 91264149,0.9648587495,-0.9783339694\C,-19.9195755634,1.0493835348,-1.1
 105950203\C,-20.7478608467,0.104010092,-0.4813975068\C,-20.1418142335,
 -0.9178962148,0.2789495516\C,-18.7467041671,-0.9967595476,0.4120799231
 \O,-18.1145537628,-1.9717326816,1.1377876722\C,-18.9170766254,-2.98135
 29616,1.7367363862\C,-22.228692733,0.1721381887,-0.6070041645\C,-22.90
 38960014,1.4101890622,-0.591158212\C,-24.2947118725,1.4808514089,-0.70
 61630144\C,-25.072556354,0.3134960273,-0.8504445107\C,-24.3980687558,-
 0.9243222575,-0.8652139243\C,-23.0065091082,-0.9946306879,-0.745342345
 8\C,-26.5511565808,0.359284711,-1.0308291068\C,-27.1594300145,-0.42018
 80296,-2.0306082199\C,-28.5469383467,-0.4264877171,-2.2289920286\C,-29
 .3567543132,0.3633227663,-1.4087765727\C,-28.78546741,1.1524328917,-0.
 3998108991\C,-27.3929752352,1.1568182241,-0.2070249361\O,-26.766162209
 3,1.8914264658,0.7646302962\C,-27.5783937326,2.659815425,1.6429442325\
 H,30.9356163196,0.7230115588,0.0430765186\H,29.6816876428,1.7324454176
 ,-1.8780473467\H,27.1964820774,1.6124231312,-1.9547926349\H,27.1814981
 44,-0.5264782227,1.8051844106\H,29.6679723945,-0.4062849066,1.88903419
 05\H,25.3869383225,1.1344438342,1.991228793\H,22.9052196115,1.03989108
 1,2.1097613418\H,22.7749668191,-0.1747880659,-2.0359139908\H,24.159176
 0043,-1.5352338234,-3.2663971276\H,25.5112256168,-0.8434427639,-4.2443
 332791\H,24.0662995778,0.1704685093,-3.8624540706\H,20.9735065577,2.17
 57290712,1.2829682086\H,18.5001178426,2.0893704563,1.3840741265\H,18.5
 283102028,-1.5041004632,-1.0220816082\H,21.0035836933,-1.4370974871,-1
 .0989815849\H,16.7335926441,-0.1497673271,-1.9504835719\H,14.254749939
 3,-0.300110985,-2.0483420097\H,14.0570674716,0.5539558234,2.183702245\
 H,16.7553407823,0.9965644081,4.4920171464\H,15.3201232687,1.7117107695
 ,3.6612061446\H,15.4163273053,-0.0756155828,3.9259449372\H,12.31451696
 52,1.0733266078,-1.8791736016\H,9.842674758,0.9406784251,-1.9648359118
 \H,9.8207849232,-1.1015374923,1.8471112344\H,12.2950941204,-0.99801195
 41,1.9205760349\H,8.0182821743,0.538124098,2.0000579707\H,5.5367188372
 ,0.4785584689,2.1095532489\H,5.4083422126,-0.8601456004,-1.9977422011\
 H,8.1396944336,-1.4947052379,-4.2189590069\H,6.7881611146,-2.183537442
 3,-3.2386672504\H,6.6957088289,-0.4788308331,-3.8378026956\H,3.7081044
 321,-1.0551386536,2.1100366315\H,1.2331633181,-1.1204939011,2.19299456
 34\H,1.0573519826,0.4637369394,-1.8272570732\H,3.5319862404,0.56521162
 3,-1.899099302\H,-0.6623148297,1.6720518539,-0.6136412431\H,-3.1454324
 136,1.7593721017,-0.6442696265\H,-3.2851390571,-2.1860150689,1.1149501
 452\H,-0.5607659944,-4.3700060097,1.8980478144\H,-1.9590919478,-4.0366
 309191,0.8041197807\H,-1.9557660099,-3.3898412969,2.4938179934\H,-5.13
 30671869,-2.2500725145,-0.3465195112\H,-7.6095075517,-2.1820326915,-0.
 3022648475\H,-7.480275657,1.9853314946,0.8464697567\H,-5.0043520369,1.
 9102796304,0.8390013129\H,-9.3101481731,-1.1133641364,-1.6662953564\H,
 -11.7910832639,-1.1682315037,-1.7964769878\H,-12.0140315974,0.99900127
 98,1.9363912382\H,-9.3354184707,2.0282592151,4.0743080543\H,-10.712891
 7246,2.5079797082,3.009404955\H,-10.723406524,0.8974020157,3.833666222
 4\H,-13.8543794675,-0.4661621351,2.118673962\H,-16.3282354628,-0.46369
 61628,2.0046289823\H,-16.1303070337,0.2440140022,-2.2572068319\H,-13.6
 548969226,0.2782868592,-2.1399994451\H,-17.8941344658,1.7163957763,-1.
 4686403453\H,-20.3624167599,1.8439369253,-1.7260170473\H,-20.784267880
 8,-1.6431038648,0.7925991912\H,-18.2113922204,-3.67011288,2.2338025433
 \H,-19.6136866742,-2.562372192,2.4951578246\H,-19.5045713798,-3.543599
 4775,0.9789717493\H,-22.3263769138,2.3368583211,-0.4634163504\H,-24.79
 12404186,2.4588122,-0.681773373\H,-24.9795894457,-1.8522284853,-0.9637
 289416\H,-22.5107844804,-1.9753677566,-0.78135896\H,-26.5125729559,-1.
 0238535331,-2.6831637986\H,-28.9873179679,-1.041064986,-3.0255587292\H
 ,-30.446980958,0.3757207825,-1.5477363144\H,-29.4354209427,1.762770811
 8,0.2385962372\H,-28.1528903166,3.4413780219,1.099509103\H,-26.8815557
 607,3.1466448443,2.3478985535\H,-28.2877486467,2.021178079,2.212756677
 1\\Version=EM64L-G16RevA.03\State=1-A\HF=-4033.8672306\S2=0.\S2-1=0.\S
 2A=0.\RMSD=5.251e-09\RMSF=1.647e-06\Dipole=-2.955109,-0.5451546,0.8206
 699\Quadrupole=16.112309,-19.1237952,3.0114861,-13.9880939,-53.0870102
 ,5.111278\PG=C01 [X(C91H72O7)]\\@


 CHRISTMAS IS ON TOP OF A STEEP HILL.
 THE CLOSER YOU GET, THE STEEPER THE HILL IS.
          -- LINUS, OF PEANUTS
 Job cpu time:       2 days 13 hours 10 minutes 40.8 seconds.
 Elapsed time:       0 days  7 hours 45 minutes 38.4 seconds.
 File lengths (MBytes):  RWF=   3316 Int=      0 D2E=      0 Chk=    300 Scr=      8
 Normal termination of Gaussian 16 at Fri Jul 24 19:57:38 2020.
