 Entering Gaussian System, Link 0=g16
 Input=mols_65_5_18_n-n-CF_opt_0.gjf
 Output=mols_65_5_18_n-n-CF_opt_0.log
 Initial command:
 /opt/ohpc/pub/libs/gaussian/g16-A.03/sandybridge/g16/l1.exe "/mnt/gpfs2_4m/scratch/rdu230/ondemand/projects/dihedral_energies/7trial/wtuning/mols_65_5_18_n-n-CF/Gau-150377.inp" -scrdir="/mnt/gpfs2_4m/scratch/rdu230/ondemand/projects/dihedral_energies/7trial/wtuning/mols_65_5_18_n-n-CF/"
 Entering Link 1 = /opt/ohpc/pub/libs/gaussian/g16-A.03/sandybridge/g16/l1.exe PID=    150378.
  
 Copyright (c) 1988,1990,1992,1993,1995,1998,2003,2009,2016,
            Gaussian, Inc.  All Rights Reserved.
  
 This is part of the Gaussian(R) 16 program.  It is based on
 the Gaussian(R) 09 system (copyright 2009, Gaussian, Inc.),
 the Gaussian(R) 03 system (copyright 2003, Gaussian, Inc.),
 the Gaussian(R) 98 system (copyright 1998, Gaussian, Inc.),
 the Gaussian(R) 94 system (copyright 1995, Gaussian, Inc.),
 the Gaussian 92(TM) system (copyright 1992, Gaussian, Inc.),
 the Gaussian 90(TM) system (copyright 1990, Gaussian, Inc.),
 the Gaussian 88(TM) system (copyright 1988, Gaussian, Inc.),
 the Gaussian 86(TM) system (copyright 1986, Carnegie Mellon
 University), and the Gaussian 82(TM) system (copyright 1983,
 Carnegie Mellon University). Gaussian is a federally registered
 trademark of Gaussian, Inc.
  
 This software contains proprietary and confidential information,
 including trade secrets, belonging to Gaussian, Inc.
  
 This software is provided under written license and may be
 used, copied, transmitted, or stored only in accord with that
 written license.
  
 The following legend is applicable only to US Government
 contracts under FAR:
  
                    RESTRICTED RIGHTS LEGEND
  
 Use, reproduction and disclosure by the US Government is
 subject to restrictions as set forth in subparagraphs (a)
 and (c) of the Commercial Computer Software - Restricted
 Rights clause in FAR 52.227-19.
  
 Gaussian, Inc.
 340 Quinnipiac St., Bldg. 40, Wallingford CT 06492
  
  
 ---------------------------------------------------------------
 Warning -- This program may not be used in any manner that
 competes with the business of Gaussian, Inc. or will provide
 assistance to any competitor of Gaussian, Inc.  The licensee
 of this program is prohibited from giving any competitor of
 Gaussian, Inc. access to this program.  By using this program,
 the user acknowledges that Gaussian, Inc. is engaged in the
 business of creating and licensing software in the field of
 computational chemistry and represents and warrants to the
 licensee that it is not a competitor of Gaussian, Inc. and that
 it will not use this program in any manner prohibited above.
 ---------------------------------------------------------------
  

 Cite this work as:
 Gaussian 16, Revision A.03,
 M. J. Frisch, G. W. Trucks, H. B. Schlegel, G. E. Scuseria, 
 M. A. Robb, J. R. Cheeseman, G. Scalmani, V. Barone, 
 G. A. Petersson, H. Nakatsuji, X. Li, M. Caricato, A. V. Marenich, 
 J. Bloino, B. G. Janesko, R. Gomperts, B. Mennucci, H. P. Hratchian, 
 J. V. Ortiz, A. F. Izmaylov, J. L. Sonnenberg, D. Williams-Young, 
 F. Ding, F. Lipparini, F. Egidi, J. Goings, B. Peng, A. Petrone, 
 T. Henderson, D. Ranasinghe, V. G. Zakrzewski, J. Gao, N. Rega, 
 G. Zheng, W. Liang, M. Hada, M. Ehara, K. Toyota, R. Fukuda, 
 J. Hasegawa, M. Ishida, T. Nakajima, Y. Honda, O. Kitao, H. Nakai, 
 T. Vreven, K. Throssell, J. A. Montgomery, Jr., J. E. Peralta, 
 F. Ogliaro, M. J. Bearpark, J. J. Heyd, E. N. Brothers, K. N. Kudin, 
 V. N. Staroverov, T. A. Keith, R. Kobayashi, J. Normand, 
 K. Raghavachari, A. P. Rendell, J. C. Burant, S. S. Iyengar, 
 J. Tomasi, M. Cossi, J. M. Millam, M. Klene, C. Adamo, R. Cammi, 
 J. W. Ochterski, R. L. Martin, K. Morokuma, O. Farkas, 
 J. B. Foresman, and D. J. Fox, Gaussian, Inc., Wallingford CT, 2016.
 
 ******************************************
 Gaussian 16:  EM64L-G16RevA.03 25-Dec-2016
                25-Jul-2020 
 ******************************************
 %mem=30GB
 %nproc=8
 Will use up to    8 processors via shared memory.
 ---------------------------------------------------------------
 #P uLC-wPBE/cc-pVDZ iop(3/107=0253900000, 3/108=0253900000) opt
 ---------------------------------------------------------------
 1/18=20,19=15,26=3,38=1/1,3;
 2/9=110,12=2,17=6,18=5,40=1/2;
 3/5=16,11=2,25=1,30=1,71=1,74=-41,107=253900000,108=253900000,116=2/1,2,3;
 4//1;
 5/5=2,38=5/2;
 6/7=2,8=2,9=2,10=2,28=1/1;
 7//1,2,3,16;
 1/18=20,19=15,26=3/3(2);
 2/9=110/2;
 99//99;
 2/9=110/2;
 3/5=16,11=2,25=1,30=1,71=1,74=-41,107=253900000,108=253900000,116=2/1,2,3;
 4/5=5,16=3,69=1/1;
 5/5=2,38=5/2;
 7//1,2,3,16;
 1/18=20,19=15,26=3/3(-5);
 2/9=110/2;
 6/7=2,8=2,9=2,10=2,19=2,28=1/1;
 99/9=1/99;
 Leave Link    1 at Sat Jul 25 01:24:30 2020, MaxMem=  4026531840 cpu:               0.8 elap:               0.1
 (Enter /opt/ohpc/pub/libs/gaussian/g16-A.03/sandybridge/g16/l101.exe)
 -----------------
 H17 C40 S5 N10 F5
 -----------------
 Symbolic Z-matrix:
 Charge =  0 Multiplicity = 1
 C                    -18.77649  -2.13029  -0.79697 
 C                    -18.01868  -3.17756  -0.11778 
 N                    -16.74884  -3.07943   0.10598 
 C                    -16.08829  -1.98075  -0.3049 
 N                    -16.66234  -1.01694  -0.91238 
 C                    -17.94324  -1.08019  -1.20625 
 C                    -14.70515  -1.93916   0.01842 
 C                    -13.9159  -2.81576   0.72028 
 F                    -14.36136  -3.96322   1.27039 
 C                    -12.52272  -2.38232   0.80872 
 C                    -12.27043  -1.17081   0.18593 
 S                    -13.67699  -0.60056  -0.52583 
 C                    -10.99487  -0.45219   0.05211 
 C                    -10.87677   0.93622  -0.01433 
 N                    -9.73344   1.56114  -0.13643 
 C                    -8.60593   0.84041  -0.06668 
 N                    -8.59126  -0.51468   0.01124 
 C                    -9.81271  -1.11886   0.03754 
 C                    -7.33175   1.54896  -0.24665 
 C                    -7.12785   2.85562  -0.52491 
 F                    -8.08848   3.73688  -0.81059 
 C                    -5.74485   3.31524  -0.48823 
 C                    -4.95136   2.24547  -0.2459 
 S                    -5.88271   0.77044   0.05161 
 C                    -3.50143   2.20107  -0.08509 
 C                    -2.80603   3.33442   0.46482 
 N                    -1.49436   3.3762    0.57759 
 C                    -0.79885   2.30203   0.20152 
 N                    -1.36358   1.13886  -0.23757 
 C                    -2.64468   1.13402  -0.40612 
 C                     0.71288   2.37939   0.40817 
 C                     1.45156   3.35427   0.78548 
 F                     0.99135   4.62197   1.09415 
 C                     2.9069    3.10544   0.87982 
 C                     3.13225   1.79575   0.54482 
 S                     1.70212   0.98563   0.11747 
 C                     4.43064   1.08376   0.36236 
 C                     4.65125  -0.2652    0.62824 
 N                     5.84465  -0.91866   0.54396 
 C                     6.90245  -0.16859   0.23501 
 N                     6.85011   1.1709    0.06139 
 C                     5.55279   1.74546   0.09673 
 C                     8.17402  -0.83755   0.17613 
 C                     8.47697  -2.17247   0.03544 
 F                     7.55324  -3.12929   0.05019 
 C                     9.79148  -2.49063  -0.05543 
 C                     10.57882  -1.35112  -0.00891 
 S                     9.60453   0.07494   0.04992 
 C                     12.0218  -1.21887  -0.12686 
 C                     12.77627  -0.08986  -0.6595 
 N                     14.10929   0.01205  -0.7531 
 C                     14.83563  -1.04544  -0.28376 
 N                     14.27962  -2.21192   0.24008 
 C                     12.95302  -2.19932   0.33704 
 C                     16.2642  -1.01368  -0.37671 
 C                     17.17927  -1.94066  -0.09413 
 F                     16.89995  -3.24176   0.29104 
 C                     18.50069  -1.54518  -0.25491 
 C                     18.62172  -0.30713  -0.61136 
 S                     17.06482   0.48557  -0.71119 
 H                    -19.81067  -2.27206  -1.01215 
 H                    -18.61591  -4.07089   0.19308 
 H                    -18.38223  -0.26256  -1.67807 
 H                    -11.79316  -2.97509   1.39382 
 H                    -11.79351   1.54649   0.08061 
 H                    -9.73744  -2.19718   0.09004 
 H                    -5.39184   4.27566  -0.75222 
 H                    -3.30174   4.28099   0.75022 
 H                    -3.02453   0.25104  -0.74984 
 H                     3.6522    3.76662   1.20561 
 H                     3.77421  -0.88776   0.84106 
 H                     5.60765   2.88093  -0.0641 
 H                     10.19678  -3.41797  -0.11384 
 H                     12.26153   0.76758  -1.01427 
 H                     12.47075  -3.14428   0.78044 
 H                     19.34744  -2.20539  -0.12465 
 H                     19.45782   0.33993  -0.8215 
 
 ITRead=  0  0  0  0  0  0  0  0  0  0  0  0  0  0  0  0  0  0  0  0
 ITRead=  0  0  0  0  0  0  0  0  0  0  0  0  0  0  0  0  0  0  0  0
 ITRead=  0  0  0  0  0  0  0  0  0  0  0  0  0  0  0  0  0  0  0  0
 ITRead=  0  0  0  0  0  0  0  0  0  0  0  0  0  0  0  0  0
 MicOpt= -1 -1 -1 -1 -1 -1 -1 -1 -1 -1 -1 -1 -1 -1 -1 -1 -1 -1 -1 -1
 MicOpt= -1 -1 -1 -1 -1 -1 -1 -1 -1 -1 -1 -1 -1 -1 -1 -1 -1 -1 -1 -1
 MicOpt= -1 -1 -1 -1 -1 -1 -1 -1 -1 -1 -1 -1 -1 -1 -1 -1 -1 -1 -1 -1
 MicOpt= -1 -1 -1 -1 -1 -1 -1 -1 -1 -1 -1 -1 -1 -1 -1 -1 -1
 NAtoms=     77 NQM=       77 NQMF=       0 NMMI=      0 NMMIF=      0
                NMic=       0 NMicF=      0.
                    Isotopes and Nuclear Properties:
 (Nuclear quadrupole moments (NQMom) in fm**2, nuclear magnetic moments (NMagM)
  in nuclear magnetons)

  Atom         1           2           3           4           5           6           7           8           9          10
 IAtWgt=          12          12          14          12          14          12          12          12          19          12
 AtmWgt=  12.0000000  12.0000000  14.0030740  12.0000000  14.0030740  12.0000000  12.0000000  12.0000000  18.9984033  12.0000000
 NucSpn=           0           0           2           0           2           0           0           0           1           0
 AtZEff=  -0.0000000  -0.0000000  -0.0000000  -0.0000000  -0.0000000  -0.0000000  -0.0000000  -0.0000000  -0.0000000  -0.0000000
 NQMom=    0.0000000   0.0000000   2.0440000   0.0000000   2.0440000   0.0000000   0.0000000   0.0000000   0.0000000   0.0000000
 NMagM=    0.0000000   0.0000000   0.4037610   0.0000000   0.4037610   0.0000000   0.0000000   0.0000000   2.6288670   0.0000000
 AtZNuc=   6.0000000   6.0000000   7.0000000   6.0000000   7.0000000   6.0000000   6.0000000   6.0000000   9.0000000   6.0000000

  Atom        11          12          13          14          15          16          17          18          19          20
 IAtWgt=          12          32          12          12          14          12          14          12          12          12
 AtmWgt=  12.0000000  31.9720718  12.0000000  12.0000000  14.0030740  12.0000000  14.0030740  12.0000000  12.0000000  12.0000000
 NucSpn=           0           0           0           0           2           0           2           0           0           0
 AtZEff=  -0.0000000  -0.0000000  -0.0000000  -0.0000000  -0.0000000  -0.0000000  -0.0000000  -0.0000000  -0.0000000  -0.0000000
 NQMom=    0.0000000   0.0000000   0.0000000   0.0000000   2.0440000   0.0000000   2.0440000   0.0000000   0.0000000   0.0000000
 NMagM=    0.0000000   0.0000000   0.0000000   0.0000000   0.4037610   0.0000000   0.4037610   0.0000000   0.0000000   0.0000000
 AtZNuc=   6.0000000  16.0000000   6.0000000   6.0000000   7.0000000   6.0000000   7.0000000   6.0000000   6.0000000   6.0000000

  Atom        21          22          23          24          25          26          27          28          29          30
 IAtWgt=          19          12          12          32          12          12          14          12          14          12
 AtmWgt=  18.9984033  12.0000000  12.0000000  31.9720718  12.0000000  12.0000000  14.0030740  12.0000000  14.0030740  12.0000000
 NucSpn=           1           0           0           0           0           0           2           0           2           0
 AtZEff=  -0.0000000  -0.0000000  -0.0000000  -0.0000000  -0.0000000  -0.0000000  -0.0000000  -0.0000000  -0.0000000  -0.0000000
 NQMom=    0.0000000   0.0000000   0.0000000   0.0000000   0.0000000   0.0000000   2.0440000   0.0000000   2.0440000   0.0000000
 NMagM=    2.6288670   0.0000000   0.0000000   0.0000000   0.0000000   0.0000000   0.4037610   0.0000000   0.4037610   0.0000000
 AtZNuc=   9.0000000   6.0000000   6.0000000  16.0000000   6.0000000   6.0000000   7.0000000   6.0000000   7.0000000   6.0000000

  Atom        31          32          33          34          35          36          37          38          39          40
 IAtWgt=          12          12          19          12          12          32          12          12          14          12
 AtmWgt=  12.0000000  12.0000000  18.9984033  12.0000000  12.0000000  31.9720718  12.0000000  12.0000000  14.0030740  12.0000000
 NucSpn=           0           0           1           0           0           0           0           0           2           0
 AtZEff=  -0.0000000  -0.0000000  -0.0000000  -0.0000000  -0.0000000  -0.0000000  -0.0000000  -0.0000000  -0.0000000  -0.0000000
 NQMom=    0.0000000   0.0000000   0.0000000   0.0000000   0.0000000   0.0000000   0.0000000   0.0000000   2.0440000   0.0000000
 NMagM=    0.0000000   0.0000000   2.6288670   0.0000000   0.0000000   0.0000000   0.0000000   0.0000000   0.4037610   0.0000000
 AtZNuc=   6.0000000   6.0000000   9.0000000   6.0000000   6.0000000  16.0000000   6.0000000   6.0000000   7.0000000   6.0000000

  Atom        41          42          43          44          45          46          47          48          49          50
 IAtWgt=          14          12          12          12          19          12          12          32          12          12
 AtmWgt=  14.0030740  12.0000000  12.0000000  12.0000000  18.9984033  12.0000000  12.0000000  31.9720718  12.0000000  12.0000000
 NucSpn=           2           0           0           0           1           0           0           0           0           0
 AtZEff=  -0.0000000  -0.0000000  -0.0000000  -0.0000000  -0.0000000  -0.0000000  -0.0000000  -0.0000000  -0.0000000  -0.0000000
 NQMom=    2.0440000   0.0000000   0.0000000   0.0000000   0.0000000   0.0000000   0.0000000   0.0000000   0.0000000   0.0000000
 NMagM=    0.4037610   0.0000000   0.0000000   0.0000000   2.6288670   0.0000000   0.0000000   0.0000000   0.0000000   0.0000000
 AtZNuc=   7.0000000   6.0000000   6.0000000   6.0000000   9.0000000   6.0000000   6.0000000  16.0000000   6.0000000   6.0000000

  Atom        51          52          53          54          55          56          57          58          59          60
 IAtWgt=          14          12          14          12          12          12          19          12          12          32
 AtmWgt=  14.0030740  12.0000000  14.0030740  12.0000000  12.0000000  12.0000000  18.9984033  12.0000000  12.0000000  31.9720718
 NucSpn=           2           0           2           0           0           0           1           0           0           0
 AtZEff=  -0.0000000  -0.0000000  -0.0000000  -0.0000000  -0.0000000  -0.0000000  -0.0000000  -0.0000000  -0.0000000  -0.0000000
 NQMom=    2.0440000   0.0000000   2.0440000   0.0000000   0.0000000   0.0000000   0.0000000   0.0000000   0.0000000   0.0000000
 NMagM=    0.4037610   0.0000000   0.4037610   0.0000000   0.0000000   0.0000000   2.6288670   0.0000000   0.0000000   0.0000000
 AtZNuc=   7.0000000   6.0000000   7.0000000   6.0000000   6.0000000   6.0000000   9.0000000   6.0000000   6.0000000  16.0000000

  Atom        61          62          63          64          65          66          67          68          69          70
 IAtWgt=           1           1           1           1           1           1           1           1           1           1
 AtmWgt=   1.0078250   1.0078250   1.0078250   1.0078250   1.0078250   1.0078250   1.0078250   1.0078250   1.0078250   1.0078250
 NucSpn=           1           1           1           1           1           1           1           1           1           1
 AtZEff=  -0.0000000  -0.0000000  -0.0000000  -0.0000000  -0.0000000  -0.0000000  -0.0000000  -0.0000000  -0.0000000  -0.0000000
 NQMom=    0.0000000   0.0000000   0.0000000   0.0000000   0.0000000   0.0000000   0.0000000   0.0000000   0.0000000   0.0000000
 NMagM=    2.7928460   2.7928460   2.7928460   2.7928460   2.7928460   2.7928460   2.7928460   2.7928460   2.7928460   2.7928460
 AtZNuc=   1.0000000   1.0000000   1.0000000   1.0000000   1.0000000   1.0000000   1.0000000   1.0000000   1.0000000   1.0000000

  Atom        71          72          73          74          75          76          77
 IAtWgt=           1           1           1           1           1           1           1
 AtmWgt=   1.0078250   1.0078250   1.0078250   1.0078250   1.0078250   1.0078250   1.0078250
 NucSpn=           1           1           1           1           1           1           1
 AtZEff=  -0.0000000  -0.0000000  -0.0000000  -0.0000000  -0.0000000  -0.0000000  -0.0000000
 NQMom=    0.0000000   0.0000000   0.0000000   0.0000000   0.0000000   0.0000000   0.0000000
 NMagM=    2.7928460   2.7928460   2.7928460   2.7928460   2.7928460   2.7928460   2.7928460
 AtZNuc=   1.0000000   1.0000000   1.0000000   1.0000000   1.0000000   1.0000000   1.0000000
 Leave Link  101 at Sat Jul 25 01:24:31 2020, MaxMem=  4026531840 cpu:               2.9 elap:               0.4
 (Enter /opt/ohpc/pub/libs/gaussian/g16-A.03/sandybridge/g16/l103.exe)

 GradGradGradGradGradGradGradGradGradGradGradGradGradGradGradGradGradGrad
 Berny optimization.
 Initialization pass.
                           ----------------------------
                           !    Initial Parameters    !
                           ! (Angstroms and Degrees)  !
 --------------------------                            --------------------------
 ! Name  Definition              Value          Derivative Info.                !
 --------------------------------------------------------------------------------
 ! R1    R(1,2)                  1.4603         estimate D2E/DX2                !
 ! R2    R(1,6)                  1.4016         estimate D2E/DX2                !
 ! R3    R(1,61)                 1.0658         estimate D2E/DX2                !
 ! R4    R(2,3)                  1.2931         estimate D2E/DX2                !
 ! R5    R(2,62)                 1.1186         estimate D2E/DX2                !
 ! R6    R(3,4)                  1.3462         estimate D2E/DX2                !
 ! R7    R(4,5)                  1.2757         estimate D2E/DX2                !
 ! R8    R(4,7)                  1.421          estimate D2E/DX2                !
 ! R9    R(5,6)                  1.3157         estimate D2E/DX2                !
 ! R10   R(6,63)                 1.0411         estimate D2E/DX2                !
 ! R11   R(7,8)                  1.3726         estimate D2E/DX2                !
 ! R12   R(7,12)                 1.7735         estimate D2E/DX2                !
 ! R13   R(8,9)                  1.3482         estimate D2E/DX2                !
 ! R14   R(8,10)                 1.4617         estimate D2E/DX2                !
 ! R15   R(10,11)                1.3854         estimate D2E/DX2                !
 ! R16   R(10,64)                1.1072         estimate D2E/DX2                !
 ! R17   R(11,12)                1.6764         estimate D2E/DX2                !
 ! R18   R(11,13)                1.4702         estimate D2E/DX2                !
 ! R19   R(13,14)                1.395          estimate D2E/DX2                !
 ! R20   R(13,18)                1.3573         estimate D2E/DX2                !
 ! R21   R(14,15)                1.3087         estimate D2E/DX2                !
 ! R22   R(14,65)                1.1054         estimate D2E/DX2                !
 ! R23   R(15,16)                1.34           estimate D2E/DX2                !
 ! R24   R(16,17)                1.3574         estimate D2E/DX2                !
 ! R25   R(16,19)                1.469          estimate D2E/DX2                !
 ! R26   R(17,18)                1.363          estimate D2E/DX2                !
 ! R27   R(18,66)                1.0822         estimate D2E/DX2                !
 ! R28   R(19,20)                1.3514         estimate D2E/DX2                !
 ! R29   R(19,24)                1.6718         estimate D2E/DX2                !
 ! R30   R(20,21)                1.3346         estimate D2E/DX2                !
 ! R31   R(20,22)                1.4578         estimate D2E/DX2                !
 ! R32   R(22,23)                1.3538         estimate D2E/DX2                !
 ! R33   R(22,67)                1.0567         estimate D2E/DX2                !
 ! R34   R(23,24)                1.7696         estimate D2E/DX2                !
 ! R35   R(23,25)                1.4595         estimate D2E/DX2                !
 ! R36   R(25,26)                1.4389         estimate D2E/DX2                !
 ! R37   R(25,30)                1.4056         estimate D2E/DX2                !
 ! R38   R(26,27)                1.3172         estimate D2E/DX2                !
 ! R39   R(26,68)                1.106          estimate D2E/DX2                !
 ! R40   R(27,28)                1.3338         estimate D2E/DX2                !
 ! R41   R(28,29)                1.3655         estimate D2E/DX2                !
 ! R42   R(28,31)                1.5277         estimate D2E/DX2                !
 ! R43   R(29,30)                1.2921         estimate D2E/DX2                !
 ! R44   R(30,69)                1.0208         estimate D2E/DX2                !
 ! R45   R(31,32)                1.28           estimate D2E/DX2                !
 ! R46   R(31,36)                1.7337         estimate D2E/DX2                !
 ! R47   R(32,33)                1.3835         estimate D2E/DX2                !
 ! R48   R(32,34)                1.4795         estimate D2E/DX2                !
 ! R49   R(34,35)                1.3705         estimate D2E/DX2                !
 ! R50   R(34,70)                1.0482         estimate D2E/DX2                !
 ! R51   R(35,36)                1.6983         estimate D2E/DX2                !
 ! R52   R(35,37)                1.492          estimate D2E/DX2                !
 ! R53   R(37,38)                1.3925         estimate D2E/DX2                !
 ! R54   R(37,42)                1.3295         estimate D2E/DX2                !
 ! R55   R(38,39)                1.3632         estimate D2E/DX2                !
 ! R56   R(38,71)                1.0964         estimate D2E/DX2                !
 ! R57   R(39,40)                1.333          estimate D2E/DX2                !
 ! R58   R(40,41)                1.3517         estimate D2E/DX2                !
 ! R59   R(40,43)                1.438          estimate D2E/DX2                !
 ! R60   R(41,42)                1.4193         estimate D2E/DX2                !
 ! R61   R(42,72)                1.1481         estimate D2E/DX2                !
 ! R62   R(43,44)                1.3761         estimate D2E/DX2                !
 ! R63   R(43,48)                1.7014         estimate D2E/DX2                !
 ! R64   R(44,45)                1.33           estimate D2E/DX2                !
 ! R65   R(44,46)                1.3555         estimate D2E/DX2                !
 ! R66   R(46,47)                1.3858         estimate D2E/DX2                !
 ! R67   R(46,73)                1.0137         estimate D2E/DX2                !
 ! R68   R(47,48)                1.7281         estimate D2E/DX2                !
 ! R69   R(47,49)                1.4538         estimate D2E/DX2                !
 ! R70   R(49,50)                1.4586         estimate D2E/DX2                !
 ! R71   R(49,54)                1.4296         estimate D2E/DX2                !
 ! R72   R(50,51)                1.3402         estimate D2E/DX2                !
 ! R73   R(50,74)                1.0611         estimate D2E/DX2                !
 ! R74   R(51,52)                1.3661         estimate D2E/DX2                !
 ! R75   R(52,53)                1.3943         estimate D2E/DX2                !
 ! R76   R(52,55)                1.4319         estimate D2E/DX2                !
 ! R77   R(53,54)                1.3302         estimate D2E/DX2                !
 ! R78   R(54,75)                1.1498         estimate D2E/DX2                !
 ! R79   R(55,56)                1.3328         estimate D2E/DX2                !
 ! R80   R(55,60)                1.7322         estimate D2E/DX2                !
 ! R81   R(56,57)                1.3854         estimate D2E/DX2                !
 ! R82   R(56,58)                1.3887         estimate D2E/DX2                !
 ! R83   R(58,59)                1.294          estimate D2E/DX2                !
 ! R84   R(58,76)                1.0816         estimate D2E/DX2                !
 ! R85   R(59,60)                1.7499         estimate D2E/DX2                !
 ! R86   R(59,77)                1.0779         estimate D2E/DX2                !
 ! A1    A(2,1,6)              111.384          estimate D2E/DX2                !
 ! A2    A(2,1,61)             120.1364         estimate D2E/DX2                !
 ! A3    A(6,1,61)             128.1388         estimate D2E/DX2                !
 ! A4    A(1,2,3)              122.3892         estimate D2E/DX2                !
 ! A5    A(1,2,62)             115.1451         estimate D2E/DX2                !
 ! A6    A(3,2,62)             122.4657         estimate D2E/DX2                !
 ! A7    A(2,3,4)              119.4035         estimate D2E/DX2                !
 ! A8    A(3,4,5)              122.7609         estimate D2E/DX2                !
 ! A9    A(3,4,7)              115.5963         estimate D2E/DX2                !
 ! A10   A(5,4,7)              121.6152         estimate D2E/DX2                !
 ! A11   A(4,5,6)              120.5384         estimate D2E/DX2                !
 ! A12   A(1,6,5)              123.3371         estimate D2E/DX2                !
 ! A13   A(1,6,63)             118.038          estimate D2E/DX2                !
 ! A14   A(5,6,63)             118.2937         estimate D2E/DX2                !
 ! A15   A(4,7,8)              131.0973         estimate D2E/DX2                !
 ! A16   A(4,7,12)             121.1012         estimate D2E/DX2                !
 ! A17   A(8,7,12)             107.7949         estimate D2E/DX2                !
 ! A18   A(7,8,9)              124.2081         estimate D2E/DX2                !
 ! A19   A(7,8,10)             112.9304         estimate D2E/DX2                !
 ! A20   A(9,8,10)             122.8606         estimate D2E/DX2                !
 ! A21   A(8,10,11)            113.9341         estimate D2E/DX2                !
 ! A22   A(8,10,64)            120.081          estimate D2E/DX2                !
 ! A23   A(11,10,64)           125.8546         estimate D2E/DX2                !
 ! A24   A(10,11,12)           109.6057         estimate D2E/DX2                !
 ! A25   A(10,11,13)           128.7835         estimate D2E/DX2                !
 ! A26   A(12,11,13)           121.5385         estimate D2E/DX2                !
 ! A27   A(7,12,11)             95.7038         estimate D2E/DX2                !
 ! A28   A(11,13,14)           124.3521         estimate D2E/DX2                !
 ! A29   A(11,13,18)           121.1033         estimate D2E/DX2                !
 ! A30   A(14,13,18)           114.4952         estimate D2E/DX2                !
 ! A31   A(13,14,15)           123.619          estimate D2E/DX2                !
 ! A32   A(13,14,65)           118.3713         estimate D2E/DX2                !
 ! A33   A(15,14,65)           117.9653         estimate D2E/DX2                !
 ! A34   A(14,15,16)           118.2566         estimate D2E/DX2                !
 ! A35   A(15,16,17)           123.2998         estimate D2E/DX2                !
 ! A36   A(15,16,19)           117.6476         estimate D2E/DX2                !
 ! A37   A(17,16,19)           118.6312         estimate D2E/DX2                !
 ! A38   A(16,17,18)           115.7183         estimate D2E/DX2                !
 ! A39   A(13,18,17)           124.2656         estimate D2E/DX2                !
 ! A40   A(13,18,66)           123.3314         estimate D2E/DX2                !
 ! A41   A(17,18,66)           112.3514         estimate D2E/DX2                !
 ! A42   A(16,19,20)           128.4953         estimate D2E/DX2                !
 ! A43   A(16,19,24)           120.3546         estimate D2E/DX2                !
 ! A44   A(20,19,24)           110.8681         estimate D2E/DX2                !
 ! A45   A(19,20,21)           125.0252         estimate D2E/DX2                !
 ! A46   A(19,20,22)           116.2816         estimate D2E/DX2                !
 ! A47   A(21,20,22)           118.6892         estimate D2E/DX2                !
 ! A48   A(20,22,23)           108.144          estimate D2E/DX2                !
 ! A49   A(20,22,67)           126.6665         estimate D2E/DX2                !
 ! A50   A(23,22,67)           124.5479         estimate D2E/DX2                !
 ! A51   A(22,23,24)           112.3506         estimate D2E/DX2                !
 ! A52   A(22,23,25)           128.7587         estimate D2E/DX2                !
 ! A53   A(24,23,25)           118.6175         estimate D2E/DX2                !
 ! A54   A(19,24,23)            92.1791         estimate D2E/DX2                !
 ! A55   A(23,25,26)           119.8852         estimate D2E/DX2                !
 ! A56   A(23,25,30)           127.1189         estimate D2E/DX2                !
 ! A57   A(26,25,30)           112.9944         estimate D2E/DX2                !
 ! A58   A(25,26,27)           122.614          estimate D2E/DX2                !
 ! A59   A(25,26,68)           123.7881         estimate D2E/DX2                !
 ! A60   A(27,26,68)           113.3967         estimate D2E/DX2                !
 ! A61   A(26,27,28)           118.0072         estimate D2E/DX2                !
 ! A62   A(27,28,29)           124.1258         estimate D2E/DX2                !
 ! A63   A(27,28,31)           115.9167         estimate D2E/DX2                !
 ! A64   A(29,28,31)           119.726          estimate D2E/DX2                !
 ! A65   A(28,29,30)           117.0753         estimate D2E/DX2                !
 ! A66   A(25,30,29)           124.8679         estimate D2E/DX2                !
 ! A67   A(25,30,69)           120.4459         estimate D2E/DX2                !
 ! A68   A(29,30,69)           114.5878         estimate D2E/DX2                !
 ! A69   A(28,31,32)           130.5024         estimate D2E/DX2                !
 ! A70   A(28,31,36)           120.081          estimate D2E/DX2                !
 ! A71   A(32,31,36)           109.4166         estimate D2E/DX2                !
 ! A72   A(31,32,33)           124.8669         estimate D2E/DX2                !
 ! A73   A(31,32,34)           117.2825         estimate D2E/DX2                !
 ! A74   A(33,32,34)           117.8456         estimate D2E/DX2                !
 ! A75   A(32,34,35)           107.8715         estimate D2E/DX2                !
 ! A76   A(32,34,70)           127.8176         estimate D2E/DX2                !
 ! A77   A(35,34,70)           124.1826         estimate D2E/DX2                !
 ! A78   A(34,35,36)           112.2653         estimate D2E/DX2                !
 ! A79   A(34,35,37)           128.9773         estimate D2E/DX2                !
 ! A80   A(36,35,37)           118.3216         estimate D2E/DX2                !
 ! A81   A(31,36,35)            93.1422         estimate D2E/DX2                !
 ! A82   A(35,37,38)           125.2262         estimate D2E/DX2                !
 ! A83   A(35,37,42)           121.4287         estimate D2E/DX2                !
 ! A84   A(38,37,42)           112.7408         estimate D2E/DX2                !
 ! A85   A(37,38,39)           126.2463         estimate D2E/DX2                !
 ! A86   A(37,38,71)           117.4126         estimate D2E/DX2                !
 ! A87   A(39,38,71)           116.111          estimate D2E/DX2                !
 ! A88   A(38,39,40)           116.0588         estimate D2E/DX2                !
 ! A89   A(39,40,41)           123.8228         estimate D2E/DX2                !
 ! A90   A(39,40,43)           116.7059         estimate D2E/DX2                !
 ! A91   A(41,40,43)           119.3395         estimate D2E/DX2                !
 ! A92   A(40,41,42)           115.6809         estimate D2E/DX2                !
 ! A93   A(37,42,41)           125.0988         estimate D2E/DX2                !
 ! A94   A(37,42,72)           124.0926         estimate D2E/DX2                !
 ! A95   A(41,42,72)           110.683          estimate D2E/DX2                !
 ! A96   A(40,43,44)           130.5529         estimate D2E/DX2                !
 ! A97   A(40,43,48)           119.8012         estimate D2E/DX2                !
 ! A98   A(44,43,48)           109.1221         estimate D2E/DX2                !
 ! A99   A(43,44,45)           122.946          estimate D2E/DX2                !
 ! A100  A(43,44,46)           116.6182         estimate D2E/DX2                !
 ! A101  A(45,44,46)           120.3574         estimate D2E/DX2                !
 ! A102  A(44,46,47)           110.8363         estimate D2E/DX2                !
 ! A103  A(44,46,73)           127.3215         estimate D2E/DX2                !
 ! A104  A(47,46,73)           121.8017         estimate D2E/DX2                !
 ! A105  A(46,47,48)           111.0618         estimate D2E/DX2                !
 ! A106  A(46,47,49)           129.4919         estimate D2E/DX2                !
 ! A107  A(48,47,49)           119.162          estimate D2E/DX2                !
 ! A108  A(43,48,47)            91.9468         estimate D2E/DX2                !
 ! A109  A(47,49,50)           127.8375         estimate D2E/DX2                !
 ! A110  A(47,49,54)           123.9059         estimate D2E/DX2                !
 ! A111  A(50,49,54)           108.205          estimate D2E/DX2                !
 ! A112  A(49,50,51)           126.7867         estimate D2E/DX2                !
 ! A113  A(49,50,74)           119.7766         estimate D2E/DX2                !
 ! A114  A(51,50,74)           113.4343         estimate D2E/DX2                !
 ! A115  A(50,51,52)           116.4876         estimate D2E/DX2                !
 ! A116  A(51,52,53)           124.3787         estimate D2E/DX2                !
 ! A117  A(51,52,55)           119.4049         estimate D2E/DX2                !
 ! A118  A(53,52,55)           116.1521         estimate D2E/DX2                !
 ! A119  A(52,53,54)           114.6539         estimate D2E/DX2                !
 ! A120  A(49,54,53)           129.2335         estimate D2E/DX2                !
 ! A121  A(49,54,75)           114.5544         estimate D2E/DX2                !
 ! A122  A(53,54,75)           116.0152         estimate D2E/DX2                !
 ! A123  A(52,55,56)           130.9764         estimate D2E/DX2                !
 ! A124  A(52,55,60)           119.5268         estimate D2E/DX2                !
 ! A125  A(56,55,60)           108.9997         estimate D2E/DX2                !
 ! A126  A(55,56,57)           125.0089         estimate D2E/DX2                !
 ! A127  A(55,56,58)           115.5116         estimate D2E/DX2                !
 ! A128  A(57,56,58)           119.4398         estimate D2E/DX2                !
 ! A129  A(56,58,59)           113.1639         estimate D2E/DX2                !
 ! A130  A(56,58,76)           123.861          estimate D2E/DX2                !
 ! A131  A(59,58,76)           122.9541         estimate D2E/DX2                !
 ! A132  A(58,59,60)           111.4629         estimate D2E/DX2                !
 ! A133  A(58,59,77)           134.473          estimate D2E/DX2                !
 ! A134  A(60,59,77)           114.0199         estimate D2E/DX2                !
 ! A135  A(55,60,59)            90.4657         estimate D2E/DX2                !
 ! D1    D(6,1,2,3)              2.6966         estimate D2E/DX2                !
 ! D2    D(6,1,2,62)          -177.2075         estimate D2E/DX2                !
 ! D3    D(61,1,2,3)           176.524          estimate D2E/DX2                !
 ! D4    D(61,1,2,62)           -3.3801         estimate D2E/DX2                !
 ! D5    D(2,1,6,5)             -4.961          estimate D2E/DX2                !
 ! D6    D(2,1,6,63)          -178.2312         estimate D2E/DX2                !
 ! D7    D(61,1,6,5)          -178.1711         estimate D2E/DX2                !
 ! D8    D(61,1,6,63)            8.5588         estimate D2E/DX2                !
 ! D9    D(1,2,3,4)             -0.445          estimate D2E/DX2                !
 ! D10   D(62,2,3,4)           179.4521         estimate D2E/DX2                !
 ! D11   D(2,3,4,5)              0.0512         estimate D2E/DX2                !
 ! D12   D(2,3,4,7)            178.1671         estimate D2E/DX2                !
 ! D13   D(3,4,5,6)             -2.2788         estimate D2E/DX2                !
 ! D14   D(7,4,5,6)            179.7166         estimate D2E/DX2                !
 ! D15   D(3,4,7,8)             -2.1851         estimate D2E/DX2                !
 ! D16   D(3,4,7,12)           176.7555         estimate D2E/DX2                !
 ! D17   D(5,4,7,8)            175.9544         estimate D2E/DX2                !
 ! D18   D(5,4,7,12)            -5.105          estimate D2E/DX2                !
 ! D19   D(4,5,6,1)              5.0219         estimate D2E/DX2                !
 ! D20   D(4,5,6,63)           178.2759         estimate D2E/DX2                !
 ! D21   D(4,7,8,9)             -0.1114         estimate D2E/DX2                !
 ! D22   D(4,7,8,10)           179.5588         estimate D2E/DX2                !
 ! D23   D(12,7,8,9)          -179.1587         estimate D2E/DX2                !
 ! D24   D(12,7,8,10)            0.5115         estimate D2E/DX2                !
 ! D25   D(4,7,12,11)          179.5554         estimate D2E/DX2                !
 ! D26   D(8,7,12,11)           -1.283          estimate D2E/DX2                !
 ! D27   D(7,8,10,11)            0.7379         estimate D2E/DX2                !
 ! D28   D(7,8,10,64)          176.8275         estimate D2E/DX2                !
 ! D29   D(9,8,10,11)         -179.5868         estimate D2E/DX2                !
 ! D30   D(9,8,10,64)           -3.4972         estimate D2E/DX2                !
 ! D31   D(8,10,11,12)          -1.6785         estimate D2E/DX2                !
 ! D32   D(8,10,11,13)        -178.5772         estimate D2E/DX2                !
 ! D33   D(64,10,11,12)       -177.5031         estimate D2E/DX2                !
 ! D34   D(64,10,11,13)          5.5981         estimate D2E/DX2                !
 ! D35   D(10,11,12,7)           1.695          estimate D2E/DX2                !
 ! D36   D(13,11,12,7)         178.8587         estimate D2E/DX2                !
 ! D37   D(10,11,13,14)       -149.3651         estimate D2E/DX2                !
 ! D38   D(10,11,13,18)         27.9359         estimate D2E/DX2                !
 ! D39   D(12,11,13,14)         34.063          estimate D2E/DX2                !
 ! D40   D(12,11,13,18)       -148.636          estimate D2E/DX2                !
 ! D41   D(11,13,14,15)       -179.8457         estimate D2E/DX2                !
 ! D42   D(11,13,14,65)          2.6311         estimate D2E/DX2                !
 ! D43   D(18,13,14,15)          2.6938         estimate D2E/DX2                !
 ! D44   D(18,13,14,65)       -174.8295         estimate D2E/DX2                !
 ! D45   D(11,13,18,17)       -175.1894         estimate D2E/DX2                !
 ! D46   D(11,13,18,66)          1.9957         estimate D2E/DX2                !
 ! D47   D(14,13,18,17)          2.3621         estimate D2E/DX2                !
 ! D48   D(14,13,18,66)        179.5473         estimate D2E/DX2                !
 ! D49   D(13,14,15,16)         -6.5778         estimate D2E/DX2                !
 ! D50   D(65,14,15,16)        170.9548         estimate D2E/DX2                !
 ! D51   D(14,15,16,17)          5.7264         estimate D2E/DX2                !
 ! D52   D(14,15,16,19)        178.1625         estimate D2E/DX2                !
 ! D53   D(15,16,17,18)         -1.0525         estimate D2E/DX2                !
 ! D54   D(19,16,17,18)       -173.4185         estimate D2E/DX2                !
 ! D55   D(15,16,19,20)         -2.4927         estimate D2E/DX2                !
 ! D56   D(15,16,19,24)        170.8189         estimate D2E/DX2                !
 ! D57   D(17,16,19,20)        170.3066         estimate D2E/DX2                !
 ! D58   D(17,16,19,24)        -16.3818         estimate D2E/DX2                !
 ! D59   D(16,17,18,13)         -3.1114         estimate D2E/DX2                !
 ! D60   D(16,17,18,66)        179.4313         estimate D2E/DX2                !
 ! D61   D(16,19,20,21)         -6.449          estimate D2E/DX2                !
 ! D62   D(16,19,20,22)        172.8042         estimate D2E/DX2                !
 ! D63   D(24,19,20,21)        179.7256         estimate D2E/DX2                !
 ! D64   D(24,19,20,22)         -1.0212         estimate D2E/DX2                !
 ! D65   D(16,19,24,23)       -175.7411         estimate D2E/DX2                !
 ! D66   D(20,19,24,23)         -1.3395         estimate D2E/DX2                !
 ! D67   D(19,20,22,23)          3.633          estimate D2E/DX2                !
 ! D68   D(19,20,22,67)        174.7278         estimate D2E/DX2                !
 ! D69   D(21,20,22,23)       -177.0642         estimate D2E/DX2                !
 ! D70   D(21,20,22,67)         -5.9694         estimate D2E/DX2                !
 ! D71   D(20,22,23,24)         -4.438          estimate D2E/DX2                !
 ! D72   D(20,22,23,25)       -178.2662         estimate D2E/DX2                !
 ! D73   D(67,22,23,24)       -175.7674         estimate D2E/DX2                !
 ! D74   D(67,22,23,25)         10.4044         estimate D2E/DX2                !
 ! D75   D(22,23,24,19)          3.5621         estimate D2E/DX2                !
 ! D76   D(25,23,24,19)        178.0819         estimate D2E/DX2                !
 ! D77   D(22,23,25,26)         30.481          estimate D2E/DX2                !
 ! D78   D(22,23,25,30)       -149.9948         estimate D2E/DX2                !
 ! D79   D(24,23,25,26)       -143.015          estimate D2E/DX2                !
 ! D80   D(24,23,25,30)         36.5091         estimate D2E/DX2                !
 ! D81   D(23,25,26,27)       -176.8525         estimate D2E/DX2                !
 ! D82   D(23,25,26,68)         -2.3496         estimate D2E/DX2                !
 ! D83   D(30,25,26,27)          3.5596         estimate D2E/DX2                !
 ! D84   D(30,25,26,68)        178.0626         estimate D2E/DX2                !
 ! D85   D(23,25,30,29)       -179.5589         estimate D2E/DX2                !
 ! D86   D(23,25,30,69)         -3.3666         estimate D2E/DX2                !
 ! D87   D(26,25,30,29)         -0.0071         estimate D2E/DX2                !
 ! D88   D(26,25,30,69)        176.1852         estimate D2E/DX2                !
 ! D89   D(25,26,27,28)         -2.1188         estimate D2E/DX2                !
 ! D90   D(68,26,27,28)       -177.1423         estimate D2E/DX2                !
 ! D91   D(26,27,28,29)         -3.0444         estimate D2E/DX2                !
 ! D92   D(26,27,28,31)       -177.484          estimate D2E/DX2                !
 ! D93   D(27,28,29,30)          6.3628         estimate D2E/DX2                !
 ! D94   D(31,28,29,30)       -179.3969         estimate D2E/DX2                !
 ! D95   D(27,28,31,32)         -6.5617         estimate D2E/DX2                !
 ! D96   D(27,28,31,36)        173.4384         estimate D2E/DX2                !
 ! D97   D(29,28,31,32)        178.738          estimate D2E/DX2                !
 ! D98   D(29,28,31,36)         -1.2619         estimate D2E/DX2                !
 ! D99   D(28,29,30,25)         -4.5892         estimate D2E/DX2                !
 ! D100  D(28,29,30,69)        179.0205         estimate D2E/DX2                !
 ! D101  D(28,31,32,33)         -0.4418         estimate D2E/DX2                !
 ! D102  D(28,31,32,34)       -179.6156         estimate D2E/DX2                !
 ! D103  D(36,31,32,33)        179.5581         estimate D2E/DX2                !
 ! D104  D(36,31,32,34)          0.3844         estimate D2E/DX2                !
 ! D105  D(28,31,36,35)       -179.5319         estimate D2E/DX2                !
 ! D106  D(32,31,36,35)          0.4682         estimate D2E/DX2                !
 ! D107  D(31,32,34,35)         -1.2825         estimate D2E/DX2                !
 ! D108  D(31,32,34,70)       -177.2614         estimate D2E/DX2                !
 ! D109  D(33,32,34,35)        179.4841         estimate D2E/DX2                !
 ! D110  D(33,32,34,70)          3.5052         estimate D2E/DX2                !
 ! D111  D(32,34,35,36)          1.5582         estimate D2E/DX2                !
 ! D112  D(32,34,35,37)        173.7429         estimate D2E/DX2                !
 ! D113  D(70,34,35,36)        177.7186         estimate D2E/DX2                !
 ! D114  D(70,34,35,37)        -10.0967         estimate D2E/DX2                !
 ! D115  D(34,35,36,31)         -1.2416         estimate D2E/DX2                !
 ! D116  D(37,35,36,31)       -174.3447         estimate D2E/DX2                !
 ! D117  D(34,35,37,38)        148.6455         estimate D2E/DX2                !
 ! D118  D(34,35,37,42)        -21.7817         estimate D2E/DX2                !
 ! D119  D(36,35,37,38)        -39.5732         estimate D2E/DX2                !
 ! D120  D(36,35,37,42)        149.9995         estimate D2E/DX2                !
 ! D121  D(35,37,38,39)       -175.9008         estimate D2E/DX2                !
 ! D122  D(35,37,38,71)          9.8496         estimate D2E/DX2                !
 ! D123  D(42,37,38,39)         -4.7516         estimate D2E/DX2                !
 ! D124  D(42,37,38,71)       -179.0013         estimate D2E/DX2                !
 ! D125  D(35,37,42,41)        172.3145         estimate D2E/DX2                !
 ! D126  D(35,37,42,72)         -3.2258         estimate D2E/DX2                !
 ! D127  D(38,37,42,41)          0.7848         estimate D2E/DX2                !
 ! D128  D(38,37,42,72)       -174.7555         estimate D2E/DX2                !
 ! D129  D(37,38,39,40)          3.2263         estimate D2E/DX2                !
 ! D130  D(71,38,39,40)        177.5416         estimate D2E/DX2                !
 ! D131  D(38,39,40,41)          2.6623         estimate D2E/DX2                !
 ! D132  D(38,39,40,43)        178.4507         estimate D2E/DX2                !
 ! D133  D(39,40,41,42)         -6.0454         estimate D2E/DX2                !
 ! D134  D(43,40,41,42)        178.2708         estimate D2E/DX2                !
 ! D135  D(39,40,43,44)         19.5473         estimate D2E/DX2                !
 ! D136  D(39,40,43,48)       -169.7296         estimate D2E/DX2                !
 ! D137  D(41,40,43,44)       -164.4661         estimate D2E/DX2                !
 ! D138  D(41,40,43,48)          6.257          estimate D2E/DX2                !
 ! D139  D(40,41,42,37)          4.216          estimate D2E/DX2                !
 ! D140  D(40,41,42,72)       -179.7308         estimate D2E/DX2                !
 ! D141  D(40,43,44,45)         -6.5187         estimate D2E/DX2                !
 ! D142  D(40,43,44,46)        176.6966         estimate D2E/DX2                !
 ! D143  D(48,43,44,45)       -178.0044         estimate D2E/DX2                !
 ! D144  D(48,43,44,46)          5.2109         estimate D2E/DX2                !
 ! D145  D(40,43,48,47)       -178.4572         estimate D2E/DX2                !
 ! D146  D(44,43,48,47)         -5.9058         estimate D2E/DX2                !
 ! D147  D(43,44,46,47)         -1.1138         estimate D2E/DX2                !
 ! D148  D(43,44,46,73)        176.5827         estimate D2E/DX2                !
 ! D149  D(45,44,46,47)       -177.987          estimate D2E/DX2                !
 ! D150  D(45,44,46,73)         -0.2904         estimate D2E/DX2                !
 ! D151  D(44,46,47,48)         -3.4993         estimate D2E/DX2                !
 ! D152  D(44,46,47,49)       -177.215          estimate D2E/DX2                !
 ! D153  D(73,46,47,48)        178.656          estimate D2E/DX2                !
 ! D154  D(73,46,47,49)          4.9402         estimate D2E/DX2                !
 ! D155  D(46,47,48,43)          5.503          estimate D2E/DX2                !
 ! D156  D(49,47,48,43)        179.9518         estimate D2E/DX2                !
 ! D157  D(46,47,49,50)        150.0223         estimate D2E/DX2                !
 ! D158  D(46,47,49,54)        -32.907          estimate D2E/DX2                !
 ! D159  D(48,47,49,50)        -23.2601         estimate D2E/DX2                !
 ! D160  D(48,47,49,54)        153.8107         estimate D2E/DX2                !
 ! D161  D(47,49,50,51)        179.6904         estimate D2E/DX2                !
 ! D162  D(47,49,50,74)          0.2923         estimate D2E/DX2                !
 ! D163  D(54,49,50,51)          2.2494         estimate D2E/DX2                !
 ! D164  D(54,49,50,74)       -177.1487         estimate D2E/DX2                !
 ! D165  D(47,49,54,53)        177.1968         estimate D2E/DX2                !
 ! D166  D(47,49,54,75)          2.5607         estimate D2E/DX2                !
 ! D167  D(50,49,54,53)         -5.2382         estimate D2E/DX2                !
 ! D168  D(50,49,54,75)       -179.8742         estimate D2E/DX2                !
 ! D169  D(49,50,51,52)         -0.9409         estimate D2E/DX2                !
 ! D170  D(74,50,51,52)        178.4897         estimate D2E/DX2                !
 ! D171  D(50,51,52,53)          1.8336         estimate D2E/DX2                !
 ! D172  D(50,51,52,55)        178.8001         estimate D2E/DX2                !
 ! D173  D(51,52,53,54)         -4.1837         estimate D2E/DX2                !
 ! D174  D(55,52,53,54)        178.7603         estimate D2E/DX2                !
 ! D175  D(51,52,55,56)       -174.1628         estimate D2E/DX2                !
 ! D176  D(51,52,55,60)         14.8939         estimate D2E/DX2                !
 ! D177  D(53,52,55,56)          3.0482         estimate D2E/DX2                !
 ! D178  D(53,52,55,60)       -167.8951         estimate D2E/DX2                !
 ! D179  D(52,53,54,49)          6.2774         estimate D2E/DX2                !
 ! D180  D(52,53,54,75)       -179.1518         estimate D2E/DX2                !
 ! D181  D(52,55,56,57)          4.7784         estimate D2E/DX2                !
 ! D182  D(52,55,56,58)       -177.5342         estimate D2E/DX2                !
 ! D183  D(60,55,56,57)        176.4492         estimate D2E/DX2                !
 ! D184  D(60,55,56,58)         -5.8634         estimate D2E/DX2                !
 ! D185  D(52,55,60,59)        178.6056         estimate D2E/DX2                !
 ! D186  D(56,55,60,59)          5.8262         estimate D2E/DX2                !
 ! D187  D(55,56,58,59)          2.4033         estimate D2E/DX2                !
 ! D188  D(55,56,58,76)       -175.9723         estimate D2E/DX2                !
 ! D189  D(57,56,58,59)       -179.7717         estimate D2E/DX2                !
 ! D190  D(57,56,58,76)          1.8528         estimate D2E/DX2                !
 ! D191  D(56,58,59,60)          2.3213         estimate D2E/DX2                !
 ! D192  D(56,58,59,77)        179.6829         estimate D2E/DX2                !
 ! D193  D(76,58,59,60)       -179.2862         estimate D2E/DX2                !
 ! D194  D(76,58,59,77)         -1.9246         estimate D2E/DX2                !
 ! D195  D(58,59,60,55)         -4.7234         estimate D2E/DX2                !
 ! D196  D(77,59,60,55)        177.3375         estimate D2E/DX2                !
 --------------------------------------------------------------------------------
 Trust Radius=3.00D-01 FncErr=1.00D-07 GrdErr=1.00D-06 EigMax=2.50D+02 EigMin=1.00D-04
 Number of steps in this run=    427 maximum allowed number of steps=    462.
 GradGradGradGradGradGradGradGradGradGradGradGradGradGradGradGradGradGrad

 Leave Link  103 at Sat Jul 25 01:24:31 2020, MaxMem=  4026531840 cpu:               0.1 elap:               0.0
 (Enter /opt/ohpc/pub/libs/gaussian/g16-A.03/sandybridge/g16/l202.exe)
 Stoichiometry    C40H17F5N10S5
 Framework group  C1[X(C40H17F5N10S5)]
 Deg. of freedom   225
 Full point group                 C1      NOp   1
 Largest Abelian subgroup         C1      NOp   1
 Largest concise Abelian subgroup C1      NOp   1
                         Standard orientation:                         
 ---------------------------------------------------------------------
 Center     Atomic      Atomic             Coordinates (Angstroms)
 Number     Number       Type             X           Y           Z
 ---------------------------------------------------------------------
      1          6           0      -18.780141   -2.122936   -0.774040
      2          6           0      -18.022292   -3.169029   -0.093070
      3          7           0      -16.752299   -3.070838    0.129790
      4          6           0      -16.091624   -1.973235   -0.283757
      5          7           0      -16.665692   -1.010518   -0.892937
      6          6           0      -17.946775   -1.073965   -1.185970
      7          6           0      -14.708298   -1.931420    0.038721
      8          6           0      -13.918937   -2.806806    0.741987
      9          9           0      -14.364468   -3.952970    1.294739
     10          6           0      -12.525576   -2.373634    0.828748
     11          6           0      -12.273235   -1.163509    0.203287
     12         16           0      -13.680006   -0.594297   -0.508889
     13          6           0      -10.997514   -0.445585    0.067269
     14          6           0      -10.879006    0.942645   -0.002144
     15          7           0       -9.735546    1.566938   -0.126184
     16          6           0       -8.608226    0.845994   -0.055543
     17          7           0       -8.593950   -0.508936    0.025210
     18          6           0       -9.815583   -1.112662    0.053446
     19          6           0       -7.333920    1.553754   -0.237688
     20          6           0       -7.129749    2.859759   -0.518800
     21          9           0       -8.090246    3.740730   -0.805796
     22          6           0       -5.746574    3.319009   -0.483837
     23          6           0       -4.953304    2.249496   -0.239701
     24         16           0       -5.884963    0.775392    0.061404
     25          6           0       -3.503300    2.204960   -0.079595
     26          6           0       -2.807228    3.339229    0.467556
     27          7           0       -1.495484    3.380827    0.579527
     28          6           0       -0.800527    2.305642    0.205323
     29          7           0       -1.365874    1.141744   -0.231022
     30          6           0       -2.647063    1.136963   -0.398857
     31          6           0        0.711339    2.382945    0.410984
     32          6           0        1.450539    3.358378    0.785846
     33          9           0        0.990913    4.626866    1.092117
     34          6           0        2.905853    3.109273    0.879914
     35          6           0        3.130597    1.798808    0.547530
     36         16           0        1.699966    0.988256    0.122657
     37          6           0        4.428656    1.086023    0.365849
     38          6           0        4.648982   -0.262454    0.634439
     39          7           0        5.842115   -0.916468    0.550870
     40          6           0        6.899996   -0.167388    0.239766
     41          7           0        6.847987    1.171751    0.063372
     42          6           0        5.550876    1.746801    0.098226
     43          6           0        8.171310   -0.836886    0.181598
     44          6           0        8.473753   -2.172195    0.043533
     45          9           0        7.549730   -3.128688    0.060797
     46          6           0        9.788118   -2.490969   -0.047386
     47          6           0       10.575843   -1.351622   -0.003690
     48         16           0        9.602043    0.074878    0.052689
     49          6           0       12.018799   -1.220085   -0.122700
     50          6           0       12.773341   -0.092431   -0.658123
     51          7           0       14.106344    0.008844   -0.752663
     52          6           0       14.832600   -1.047898   -0.281505
     53          7           0       14.276509   -2.213095    0.245077
     54          6           0       12.949959   -2.199863    0.342738
     55          6           0       16.261133   -1.016795   -0.375302
     56          6           0       17.176057   -1.943468   -0.091289
     57          9           0       16.896533   -3.243673    0.296756
     58          6           0       18.497519   -1.548757   -0.253620
     59          6           0       18.618751   -0.311500   -0.612725
     60         16           0       17.062051    0.481492   -0.713359
     61          1           0      -19.814483   -2.264830   -0.988348
     62          1           0      -18.619648   -4.061515    0.219988
     63          1           0      -18.385765   -0.257184   -1.659265
     64          1           0      -11.795886   -2.965412    1.414692
     65          1           0      -11.795497    1.553412    0.092014
     66          1           0       -9.740625   -2.190896    0.108157
     67          1           0       -5.393400    4.278759   -0.750028
     68          1           0       -3.302480    4.286554    0.751249
     69          1           0       -3.027393    0.253388   -0.740515
     70          1           0        3.651546    3.770894    1.203903
     71          1           0        3.771854   -0.884276    0.849040
     72          1           0        5.606013    2.881908   -0.065013
     73          1           0       10.193079   -3.418562   -0.104076
     74          1           0       12.258691    0.764420   -1.014404
     75          1           0       12.467634   -3.143732    0.788378
     76          1           0       19.344125   -2.208972   -0.122436
     77          1           0       19.454947    0.334852   -0.824674
 ---------------------------------------------------------------------
 Rotational constants (GHZ):           0.1238211           0.0045452           0.0044021
 Leave Link  202 at Sat Jul 25 01:24:31 2020, MaxMem=  4026531840 cpu:               0.1 elap:               0.0
 (Enter /opt/ohpc/pub/libs/gaussian/g16-A.03/sandybridge/g16/l301.exe)
 Standard basis: CC-pVDZ (5D, 7F)
 Ernie: Thresh=  0.10000D-02 Tol=  0.10000D-05 Strict=F.
 Ernie:  160 primitive shells out of 1545 were deleted.
 There are  1005 symmetry adapted cartesian basis functions of A   symmetry.
 There are   945 symmetry adapted basis functions of A   symmetry.
   945 basis functions,  2289 primitive gaussians,  1005 cartesian basis functions
   226 alpha electrons      226 beta electrons
       nuclear repulsion energy      7370.6776921061 Hartrees.
 IExCor=32609 DFT=T Ex+Corr=LC-wPBE ExCW=0 ScaHFX=  1.000000
 ScaDFX=  1.000000  0.000000  1.000000  1.000000 ScalE2=  1.000000  1.000000
 IRadAn=      5 IRanWt=     -1 IRanGd=            0 ICorTp=0 IEmpDi=  4
 HFx  wShort=  0.000000 wLong=  0.253900 cFull=  0.000000 cShort=  0.000000 cLong=  1.000000
 DFx  wShort=  0.000000 wLong=  0.253900 cFull=  0.000000 cShort=  0.000000 cLong=  1.000000
 NAtoms=   77 NActive=   77 NUniq=   77 SFac= 1.00D+00 NAtFMM=   60 NAOKFM=T Big=T
 Integral buffers will be    131072 words long.
 Raffenetti 2 integral format.
 Two-electron integral symmetry is turned on.
 Leave Link  301 at Sat Jul 25 01:24:31 2020, MaxMem=  4026531840 cpu:               0.4 elap:               0.1
 (Enter /opt/ohpc/pub/libs/gaussian/g16-A.03/sandybridge/g16/l302.exe)
 NPDir=0 NMtPBC=     1 NCelOv=     1 NCel=       1 NClECP=     1 NCelD=      1
         NCelK=      1 NCelE2=     1 NClLst=     1 CellRange=     0.0.
 One-electron integrals computed using PRISM.
 One-electron integral symmetry used in STVInt
 NBasis=   945 RedAO= T EigKep=  3.57D-04  NBF=   945
 NBsUse=   945 1.00D-06 EigRej= -1.00D+00 NBFU=   945
 Precomputing XC quadrature grid using
 IXCGrd= 4 IRadAn=           5 IRanWt=          -1 IRanGd=           0 AccXCQ= 0.00D+00.
 Generated NRdTot=       0 NPtTot=           0 NUsed=           0 NTot=          32
 NSgBfM=   601   601   601   601   601 MxSgAt=    77 MxSgA2=    68.
 Leave Link  302 at Sat Jul 25 01:24:34 2020, MaxMem=  4026531840 cpu:              22.5 elap:               2.8
 (Enter /opt/ohpc/pub/libs/gaussian/g16-A.03/sandybridge/g16/l303.exe)
 DipDrv:  MaxL=1.
 Leave Link  303 at Sat Jul 25 01:24:34 2020, MaxMem=  4026531840 cpu:               1.5 elap:               0.2
 (Enter /opt/ohpc/pub/libs/gaussian/g16-A.03/sandybridge/g16/l401.exe)
 ExpMin= 1.22D-01 ExpMax= 1.11D+05 ExpMxC= 1.07D+03 IAcc=3 IRadAn=         5 AccDes= 0.00D+00
 Harris functional with IExCor=32609 and IRadAn=       5 diagonalized for initial guess.
 HarFok:  IExCor=32609 AccDes= 0.00D+00 IRadAn=         5 IDoV= 1 UseB2=F ITyADJ=14
 ICtDFT=  3500011 ScaDFX=  1.000000  1.000000  1.000000  1.000000
 FoFCou: FMM=F IPFlag=           0 FMFlag=      100000 FMFlg1=        2001
         NFxFlg=           0 DoJE=T BraDBF=F KetDBF=T FulRan=T
         wScrn=  0.000000 ICntrl=       500 IOpCl=  0 I1Cent=   200000004 NGrid=           0
         NMat0=    1 NMatS0=      1 NMatT0=    0 NMatD0=    1 NMtDS0=    0 NMtDT0=    0
 Petite list used in FoFCou.
 Harris En= -4568.97810678905    
 JPrj=0 DoOrth=F DoCkMO=F.
 Initial guess <Sx>= 0.0000 <Sy>= 0.0000 <Sz>= 0.0000 <S**2>=-0.0000 S=-0.0000
 Leave Link  401 at Sat Jul 25 01:24:43 2020, MaxMem=  4026531840 cpu:              70.7 elap:               8.9
 (Enter /opt/ohpc/pub/libs/gaussian/g16-A.03/sandybridge/g16/l502.exe)
 Integral symmetry usage will be decided dynamically.
 UHF open shell SCF:
 Using DIIS extrapolation, IDIIS=  1040.
 NGot=  4026531840 LenX=  4024493949 LenY=  4023482919
 Requested convergence on RMS density matrix=1.00D-08 within 128 cycles.
 Requested convergence on MAX density matrix=1.00D-06.
 Requested convergence on             energy=1.00D-06.
 No special actions if energy rises.
 Fock matrices will be formed incrementally for  20 cycles.
 Integral accuracy reduced to 1.0D-05 until final iterations.

 Cycle   1  Pass 0  IDiag  1:
 FoFJK:  IHMeth= 1 ICntrl=       0 DoSepK=T KAlg= 0 I1Cent=           0 FoldK=F
 IRaf=         1 NMat=       1 IRICut=       1 DoRegI=T DoRafI=F ISym2E= 0 IDoP0=0 IntGTp=1.
 FoFCou: FMM=T IPFlag=           0 FMFlag=      100000 FMFlg1=        2001
         NFxFlg=           0 DoJE=T BraDBF=F KetDBF=F FulRan=T
         wScrn=  0.000000 ICntrl=       500 IOpCl=  0 I1Cent=           0 NGrid=           0
         NMat0=    1 NMatS0=      1 NMatT0=    0 NMatD0=    1 NMtDS0=    0 NMtDT0=    0
 Symmetry not used in FoFCou.
 FMM levels:  10  Number of levels for PrismC:   9
 E= -4568.56011549271    
 DIIS: error= 1.23D-02 at cycle   1 NSaved=   1.
 NSaved= 1 IEnMin= 1 EnMin= -4568.56011549271     IErMin= 1 ErrMin= 1.23D-02
 ErrMax= 1.23D-02  0.00D+00 EMaxC= 1.00D-01 BMatC= 3.36D+00 BMatP= 3.36D+00
 IDIUse=3 WtCom= 8.77D-01 WtEn= 1.23D-01
 Coeff-Com:  0.100D+01
 Coeff-En:   0.100D+01
 Coeff:      0.100D+01
 Gap=     0.294 Goal=   None    Shift=    0.000
 Gap=     0.294 Goal=   None    Shift=    0.000
 GapD=    0.294 DampG=1.000 DampE=0.500 DampFc=0.5000 IDamp=-1.
 Damping current iteration by 5.00D-01
 RMSDP=2.14D-03 MaxDP=1.52D-01              OVMax= 2.07D-01

 Cycle   2  Pass 0  IDiag  1:
 RMSU=  1.07D-03    CP:  9.94D-01
 E= -4569.00840405193     Delta-E=       -0.448288559219 Rises=F Damp=T
 DIIS: error= 3.31D-03 at cycle   2 NSaved=   2.
 NSaved= 2 IEnMin= 2 EnMin= -4569.00840405193     IErMin= 2 ErrMin= 3.31D-03
 ErrMax= 3.31D-03  0.00D+00 EMaxC= 1.00D-01 BMatC= 1.52D-01 BMatP= 3.36D+00
 IDIUse=3 WtCom= 9.67D-01 WtEn= 3.31D-02
 Coeff-Com: -0.107D-01 0.101D+01
 Coeff-En:   0.000D+00 0.100D+01
 Coeff:     -0.104D-01 0.101D+01
 Gap=     0.257 Goal=   None    Shift=    0.000
 Gap=     0.257 Goal=   None    Shift=    0.000
 RMSDP=5.86D-04 MaxDP=2.31D-02 DE=-4.48D-01 OVMax= 1.27D-01

 Cycle   3  Pass 0  IDiag  1:
 RMSU=  5.56D-04    CP:  9.91D-01  1.17D+00
 E= -4569.45908762254     Delta-E=       -0.450683570605 Rises=F Damp=F
 DIIS: error= 3.03D-03 at cycle   3 NSaved=   3.
 NSaved= 3 IEnMin= 3 EnMin= -4569.45908762254     IErMin= 3 ErrMin= 3.03D-03
 ErrMax= 3.03D-03  0.00D+00 EMaxC= 1.00D-01 BMatC= 6.13D-02 BMatP= 1.52D-01
 IDIUse=3 WtCom= 9.70D-01 WtEn= 3.03D-02
 Coeff-Com: -0.277D-01 0.376D+00 0.652D+00
 Coeff-En:   0.000D+00 0.000D+00 0.100D+01
 Coeff:     -0.269D-01 0.365D+00 0.662D+00
 Gap=     0.247 Goal=   None    Shift=    0.000
 Gap=     0.247 Goal=   None    Shift=    0.000
 RMSDP=1.98D-04 MaxDP=1.17D-02 DE=-4.51D-01 OVMax= 2.79D-02

 Cycle   4  Pass 0  IDiag  1:
 RMSU=  1.68D-04    CP:  9.91D-01  1.19D+00  8.18D-01
 E= -4569.47267440700     Delta-E=       -0.013586784466 Rises=F Damp=F
 DIIS: error= 2.30D-03 at cycle   4 NSaved=   4.
 NSaved= 4 IEnMin= 4 EnMin= -4569.47267440700     IErMin= 4 ErrMin= 2.30D-03
 ErrMax= 2.30D-03  0.00D+00 EMaxC= 1.00D-01 BMatC= 1.51D-02 BMatP= 6.13D-02
 IDIUse=3 WtCom= 9.77D-01 WtEn= 2.30D-02
 Coeff-Com: -0.397D-02 0.509D-01 0.333D+00 0.620D+00
 Coeff-En:   0.000D+00 0.000D+00 0.109D+00 0.891D+00
 Coeff:     -0.388D-02 0.498D-01 0.327D+00 0.627D+00
 Gap=     0.248 Goal=   None    Shift=    0.000
 Gap=     0.248 Goal=   None    Shift=    0.000
 RMSDP=7.51D-05 MaxDP=5.98D-03 DE=-1.36D-02 OVMax= 1.20D-02

 Cycle   5  Pass 0  IDiag  1:
 RMSU=  5.77D-05    CP:  9.91D-01  1.19D+00  8.86D-01  8.27D-01
 E= -4569.47661777310     Delta-E=       -0.003943366100 Rises=F Damp=F
 DIIS: error= 7.01D-04 at cycle   5 NSaved=   5.
 NSaved= 5 IEnMin= 5 EnMin= -4569.47661777310     IErMin= 5 ErrMin= 7.01D-04
 ErrMax= 7.01D-04  0.00D+00 EMaxC= 1.00D-01 BMatC= 1.23D-03 BMatP= 1.51D-02
 IDIUse=3 WtCom= 9.93D-01 WtEn= 7.01D-03
 Coeff-Com:  0.556D-02-0.286D-01 0.531D-01 0.244D+00 0.726D+00
 Coeff-En:   0.000D+00 0.000D+00 0.000D+00 0.000D+00 0.100D+01
 Coeff:      0.552D-02-0.284D-01 0.527D-01 0.242D+00 0.728D+00
 Gap=     0.250 Goal=   None    Shift=    0.000
 Gap=     0.250 Goal=   None    Shift=    0.000
 RMSDP=3.11D-05 MaxDP=1.86D-03 DE=-3.94D-03 OVMax= 5.70D-03

 Cycle   6  Pass 0  IDiag  1:
 RMSU=  2.48D-05    CP:  9.91D-01  1.18D+00  8.98D-01  9.29D-01  1.04D+00
 E= -4569.47708274361     Delta-E=       -0.000464970504 Rises=F Damp=F
 DIIS: error= 2.70D-04 at cycle   6 NSaved=   6.
 NSaved= 6 IEnMin= 6 EnMin= -4569.47708274361     IErMin= 6 ErrMin= 2.70D-04
 ErrMax= 2.70D-04  0.00D+00 EMaxC= 1.00D-01 BMatC= 2.61D-04 BMatP= 1.23D-03
 IDIUse=3 WtCom= 9.97D-01 WtEn= 2.70D-03
 Coeff-Com:  0.460D-02-0.256D-01-0.338D-01 0.442D-02 0.330D+00 0.721D+00
 Coeff-En:   0.000D+00 0.000D+00 0.000D+00 0.000D+00 0.000D+00 0.100D+01
 Coeff:      0.459D-02-0.256D-01-0.337D-01 0.441D-02 0.329D+00 0.722D+00
 Gap=     0.250 Goal=   None    Shift=    0.000
 Gap=     0.250 Goal=   None    Shift=    0.000
 RMSDP=1.71D-05 MaxDP=1.21D-03 DE=-4.65D-04 OVMax= 3.30D-03

 Cycle   7  Pass 0  IDiag  1:
 RMSU=  1.15D-05    CP:  9.91D-01  1.18D+00  9.08D-01  9.63D-01  1.21D+00
                    CP:  1.03D+00
 E= -4569.47721603077     Delta-E=       -0.000133287160 Rises=F Damp=F
 DIIS: error= 6.25D-05 at cycle   7 NSaved=   7.
 NSaved= 7 IEnMin= 7 EnMin= -4569.47721603077     IErMin= 7 ErrMin= 6.25D-05
 ErrMax= 6.25D-05  0.00D+00 EMaxC= 1.00D-01 BMatC= 3.75D-05 BMatP= 2.61D-04
 IDIUse=1 WtCom= 1.00D+00 WtEn= 0.00D+00
 Coeff-Com:  0.827D-03-0.408D-02-0.191D-01-0.423D-01-0.492D-01 0.222D+00
 Coeff-Com:  0.892D+00
 Coeff:      0.827D-03-0.408D-02-0.191D-01-0.423D-01-0.492D-01 0.222D+00
 Coeff:      0.892D+00
 Gap=     0.251 Goal=   None    Shift=    0.000
 Gap=     0.251 Goal=   None    Shift=    0.000
 RMSDP=1.29D-05 MaxDP=6.79D-04 DE=-1.33D-04 OVMax= 2.25D-03

 Cycle   8  Pass 0  IDiag  1:
 RMSU=  8.93D-06    CP:  9.91D-01  1.18D+00  9.11D-01  9.87D-01  1.29D+00
                    CP:  1.28D+00  1.27D+00
 E= -4569.47724599815     Delta-E=       -0.000029967387 Rises=F Damp=F
 DIIS: error= 3.45D-05 at cycle   8 NSaved=   8.
 NSaved= 8 IEnMin= 8 EnMin= -4569.47724599815     IErMin= 8 ErrMin= 3.45D-05
 ErrMax= 3.45D-05  0.00D+00 EMaxC= 1.00D-01 BMatC= 1.20D-05 BMatP= 3.75D-05
 IDIUse=1 WtCom= 1.00D+00 WtEn= 0.00D+00
 Coeff-Com: -0.228D-03 0.197D-02-0.353D-02-0.212D-01-0.825D-01-0.938D-02
 Coeff-Com:  0.448D+00 0.667D+00
 Coeff:     -0.228D-03 0.197D-02-0.353D-02-0.212D-01-0.825D-01-0.938D-02
 Coeff:      0.448D+00 0.667D+00
 Gap=     0.251 Goal=   None    Shift=    0.000
 Gap=     0.251 Goal=   None    Shift=    0.000
 RMSDP=8.35D-06 MaxDP=3.08D-04 DE=-3.00D-05 OVMax= 6.50D-04

 Initial convergence to 1.0D-05 achieved.  Increase integral accuracy.
 Cycle   9  Pass 1  IDiag  1:
 E= -4569.47648389894     Delta-E=        0.000762099213 Rises=F Damp=F
 DIIS: error= 1.81D-04 at cycle   1 NSaved=   1.
 NSaved= 1 IEnMin= 1 EnMin= -4569.47648389894     IErMin= 1 ErrMin= 1.81D-04
 ErrMax= 1.81D-04  0.00D+00 EMaxC= 1.00D-01 BMatC= 1.23D-04 BMatP= 1.23D-04
 IDIUse=3 WtCom= 9.98D-01 WtEn= 1.81D-03
 Coeff-Com:  0.100D+01
 Coeff-En:   0.100D+01
 Coeff:      0.100D+01
 Gap=     0.251 Goal=   None    Shift=    0.000
 Gap=     0.251 Goal=   None    Shift=    0.000
 RMSDP=8.35D-06 MaxDP=3.08D-04 DE= 7.62D-04 OVMax= 5.05D-04

 Cycle  10  Pass 1  IDiag  1:
 RMSU=  1.09D-04    CP:  1.00D+00
 E= -4569.47650904795     Delta-E=       -0.000025149013 Rises=F Damp=F
 DIIS: error= 2.58D-05 at cycle   2 NSaved=   2.
 NSaved= 2 IEnMin= 2 EnMin= -4569.47650904795     IErMin= 2 ErrMin= 2.58D-05
 ErrMax= 2.58D-05  0.00D+00 EMaxC= 1.00D-01 BMatC= 2.31D-06 BMatP= 1.23D-04
 IDIUse=1 WtCom= 1.00D+00 WtEn= 0.00D+00
 Coeff-Com: -0.768D-02 0.101D+01
 Coeff:     -0.768D-02 0.101D+01
 Gap=     0.251 Goal=   None    Shift=    0.000
 Gap=     0.251 Goal=   None    Shift=    0.000
 RMSDP=6.15D-06 MaxDP=2.15D-04 DE=-2.51D-05 OVMax= 3.38D-04

 Cycle  11  Pass 1  IDiag  1:
 RMSU=  2.55D-06    CP:  1.00D+00  1.05D+00
 E= -4569.47650859376     Delta-E=        0.000000454191 Rises=F Damp=F
 DIIS: error= 3.88D-05 at cycle   3 NSaved=   3.
 NSaved= 3 IEnMin= 2 EnMin= -4569.47650904795     IErMin= 2 ErrMin= 2.58D-05
 ErrMax= 3.88D-05  0.00D+00 EMaxC= 1.00D-01 BMatC= 5.02D-06 BMatP= 2.31D-06
 IDIUse=1 WtCom= 1.00D+00 WtEn= 0.00D+00
 Coeff-Com: -0.234D-01 0.616D+00 0.408D+00
 Coeff:     -0.234D-01 0.616D+00 0.408D+00
 Gap=     0.251 Goal=   None    Shift=    0.000
 Gap=     0.251 Goal=   None    Shift=    0.000
 RMSDP=1.17D-06 MaxDP=1.14D-04 DE= 4.54D-07 OVMax= 1.86D-04

 Cycle  12  Pass 1  IDiag  1:
 RMSU=  9.48D-07    CP:  1.00D+00  1.05D+00  7.47D-01
 E= -4569.47650977693     Delta-E=       -0.000001183167 Rises=F Damp=F
 DIIS: error= 1.70D-06 at cycle   4 NSaved=   4.
 NSaved= 4 IEnMin= 4 EnMin= -4569.47650977693     IErMin= 4 ErrMin= 1.70D-06
 ErrMax= 1.70D-06  0.00D+00 EMaxC= 1.00D-01 BMatC= 2.61D-08 BMatP= 2.31D-06
 IDIUse=1 WtCom= 1.00D+00 WtEn= 0.00D+00
 Coeff-Com: -0.458D-02 0.974D-01 0.780D-01 0.829D+00
 Coeff:     -0.458D-02 0.974D-01 0.780D-01 0.829D+00
 Gap=     0.251 Goal=   None    Shift=    0.000
 Gap=     0.251 Goal=   None    Shift=    0.000
 RMSDP=2.44D-07 MaxDP=1.09D-05 DE=-1.18D-06 OVMax= 3.51D-05

 Cycle  13  Pass 1  IDiag  1:
 RMSU=  1.67D-07    CP:  1.00D+00  1.05D+00  7.94D-01  1.08D+00
 E= -4569.47650979559     Delta-E=       -0.000000018665 Rises=F Damp=F
 DIIS: error= 1.42D-06 at cycle   5 NSaved=   5.
 NSaved= 5 IEnMin= 5 EnMin= -4569.47650979559     IErMin= 5 ErrMin= 1.42D-06
 ErrMax= 1.42D-06  0.00D+00 EMaxC= 1.00D-01 BMatC= 1.25D-08 BMatP= 2.61D-08
 IDIUse=1 WtCom= 1.00D+00 WtEn= 0.00D+00
 Coeff-Com:  0.383D-02-0.112D+00-0.715D-01 0.395D+00 0.785D+00
 Coeff:      0.383D-02-0.112D+00-0.715D-01 0.395D+00 0.785D+00
 Gap=     0.251 Goal=   None    Shift=    0.000
 Gap=     0.251 Goal=   None    Shift=    0.000
 RMSDP=1.62D-07 MaxDP=7.76D-06 DE=-1.87D-08 OVMax= 2.80D-05

 Cycle  14  Pass 1  IDiag  1:
 RMSU=  1.07D-07    CP:  1.00D+00  1.05D+00  8.16D-01  1.17D+00  1.30D+00
 E= -4569.47650981151     Delta-E=       -0.000000015914 Rises=F Damp=F
 DIIS: error= 9.58D-07 at cycle   6 NSaved=   6.
 NSaved= 6 IEnMin= 6 EnMin= -4569.47650981151     IErMin= 6 ErrMin= 9.58D-07
 ErrMax= 9.58D-07  0.00D+00 EMaxC= 1.00D-01 BMatC= 2.12D-09 BMatP= 1.25D-08
 IDIUse=1 WtCom= 1.00D+00 WtEn= 0.00D+00
 Coeff-Com:  0.204D-02-0.539D-01-0.389D-01-0.124D-01 0.304D+00 0.799D+00
 Coeff:      0.204D-02-0.539D-01-0.389D-01-0.124D-01 0.304D+00 0.799D+00
 Gap=     0.251 Goal=   None    Shift=    0.000
 Gap=     0.251 Goal=   None    Shift=    0.000
 RMSDP=6.31D-08 MaxDP=3.42D-06 DE=-1.59D-08 OVMax= 1.42D-05

 Cycle  15  Pass 1  IDiag  1:
 RMSU=  3.44D-08    CP:  1.00D+00  1.05D+00  8.19D-01  1.19D+00  1.58D+00
                    CP:  1.17D+00
 E= -4569.47650981319     Delta-E=       -0.000000001686 Rises=F Damp=F
 DIIS: error= 3.47D-07 at cycle   7 NSaved=   7.
 NSaved= 7 IEnMin= 7 EnMin= -4569.47650981319     IErMin= 7 ErrMin= 3.47D-07
 ErrMax= 3.47D-07  0.00D+00 EMaxC= 1.00D-01 BMatC= 5.68D-10 BMatP= 2.12D-09
 IDIUse=1 WtCom= 1.00D+00 WtEn= 0.00D+00
 Coeff-Com: -0.128D-03 0.678D-02 0.124D-02-0.132D+00-0.768D-01 0.394D+00
 Coeff-Com:  0.807D+00
 Coeff:     -0.128D-03 0.678D-02 0.124D-02-0.132D+00-0.768D-01 0.394D+00
 Coeff:      0.807D+00
 Gap=     0.251 Goal=   None    Shift=    0.000
 Gap=     0.251 Goal=   None    Shift=    0.000
 RMSDP=3.61D-08 MaxDP=2.30D-06 DE=-1.69D-09 OVMax= 7.25D-06

 Cycle  16  Pass 1  IDiag  1:
 RMSU=  1.48D-08    CP:  1.00D+00  1.05D+00  8.19D-01  1.19D+00  1.71D+00
                    CP:  1.38D+00  1.06D+00
 E= -4569.47650981346     Delta-E=       -0.000000000264 Rises=F Damp=F
 DIIS: error= 7.15D-08 at cycle   8 NSaved=   8.
 NSaved= 8 IEnMin= 8 EnMin= -4569.47650981346     IErMin= 8 ErrMin= 7.15D-08
 ErrMax= 7.15D-08  0.00D+00 EMaxC= 1.00D-01 BMatC= 3.78D-11 BMatP= 5.68D-10
 IDIUse=1 WtCom= 1.00D+00 WtEn= 0.00D+00
 Coeff-Com: -0.200D-03 0.680D-02 0.311D-02-0.588D-01-0.548D-01 0.122D+00
 Coeff-Com:  0.350D+00 0.633D+00
 Coeff:     -0.200D-03 0.680D-02 0.311D-02-0.588D-01-0.548D-01 0.122D+00
 Coeff:      0.350D+00 0.633D+00
 Gap=     0.251 Goal=   None    Shift=    0.000
 Gap=     0.251 Goal=   None    Shift=    0.000
 RMSDP=6.46D-09 MaxDP=3.28D-07 DE=-2.64D-10 OVMax= 1.44D-06

 SCF Done:  E(ULC-wPBE) =  -4569.47650981     A.U. after   16 cycles
            NFock= 16  Conv=0.65D-08     -V/T= 2.0041
 <Sx>= 0.0000 <Sy>= 0.0000 <Sz>= 0.0000 <S**2>=-0.0000 S=-0.0000
 <L.S>= 0.000000000000E+00
 KE= 4.550768578107D+03 PE=-2.549825907164D+04 EE= 9.007336291617D+03
 Annihilation of the first spin contaminant:
 S**2 before annihilation    -0.0000,   after     0.0000
 Leave Link  502 at Sat Jul 25 01:33:39 2020, MaxMem=  4026531840 cpu:            4207.9 elap:             536.2
 (Enter /opt/ohpc/pub/libs/gaussian/g16-A.03/sandybridge/g16/l601.exe)
 Copying SCF densities to generalized density rwf, IOpCl= 1 IROHF=0.

 **********************************************************************

            Population analysis using the SCF density.

 **********************************************************************

 Orbital symmetries:
 Alpha Orbitals:
       Occupied  (A) (A) (A) (A) (A) (A) (A) (A) (A) (A) (A) (A)
                 (A) (A) (A) (A) (A) (A) (A) (A) (A) (A) (A) (A)
                 (A) (A) (A) (A) (A) (A) (A) (A) (A) (A) (A) (A)
                 (A) (A) (A) (A) (A) (A) (A) (A) (A) (A) (A) (A)
                 (A) (A) (A) (A) (A) (A) (A) (A) (A) (A) (A) (A)
                 (A) (A) (A) (A) (A) (A) (A) (A) (A) (A) (A) (A)
                 (A) (A) (A) (A) (A) (A) (A) (A) (A) (A) (A) (A)
                 (A) (A) (A) (A) (A) (A) (A) (A) (A) (A) (A) (A)
                 (A) (A) (A) (A) (A) (A) (A) (A) (A) (A) (A) (A)
                 (A) (A) (A) (A) (A) (A) (A) (A) (A) (A) (A) (A)
                 (A) (A) (A) (A) (A) (A) (A) (A) (A) (A) (A) (A)
                 (A) (A) (A) (A) (A) (A) (A) (A) (A) (A) (A) (A)
                 (A) (A) (A) (A) (A) (A) (A) (A) (A) (A) (A) (A)
                 (A) (A) (A) (A) (A) (A) (A) (A) (A) (A) (A) (A)
                 (A) (A) (A) (A) (A) (A) (A) (A) (A) (A) (A) (A)
                 (A) (A) (A) (A) (A) (A) (A) (A) (A) (A) (A) (A)
                 (A) (A) (A) (A) (A) (A) (A) (A) (A) (A) (A) (A)
                 (A) (A) (A) (A) (A) (A) (A) (A) (A) (A) (A) (A)
                 (A) (A) (A) (A) (A) (A) (A) (A) (A) (A)
       Virtual   (A) (A) (A) (A) (A) (A) (A) (A) (A) (A) (A) (A)
                 (A) (A) (A) (A) (A) (A) (A) (A) (A) (A) (A) (A)
                 (A) (A) (A) (A) (A) (A) (A) (A) (A) (A) (A) (A)
                 (A) (A) (A) (A) (A) (A) (A) (A) (A) (A) (A) (A)
                 (A) (A) (A) (A) (A) (A) (A) (A) (A) (A) (A) (A)
                 (A) (A) (A) (A) (A) (A) (A) (A) (A) (A) (A) (A)
                 (A) (A) (A) (A) (A) (A) (A) (A) (A) (A) (A) (A)
                 (A) (A) (A) (A) (A) (A) (A) (A) (A) (A) (A) (A)
                 (A) (A) (A) (A) (A) (A) (A) (A) (A) (A) (A) (A)
                 (A) (A) (A) (A) (A) (A) (A) (A) (A) (A) (A) (A)
                 (A) (A) (A) (A) (A) (A) (A) (A) (A) (A) (A) (A)
                 (A) (A) (A) (A) (A) (A) (A) (A) (A) (A) (A) (A)
                 (A) (A) (A) (A) (A) (A) (A) (A) (A) (A) (A) (A)
                 (A) (A) (A) (A) (A) (A) (A) (A) (A) (A) (A) (A)
                 (A) (A) (A) (A) (A) (A) (A) (A) (A) (A) (A) (A)
                 (A) (A) (A) (A) (A) (A) (A) (A) (A) (A) (A) (A)
                 (A) (A) (A) (A) (A) (A) (A) (A) (A) (A) (A) (A)
                 (A) (A) (A) (A) (A) (A) (A) (A) (A) (A) (A) (A)
                 (A) (A) (A) (A) (A) (A) (A) (A) (A) (A) (A) (A)
                 (A) (A) (A) (A) (A) (A) (A) (A) (A) (A) (A) (A)
                 (A) (A) (A) (A) (A) (A) (A) (A) (A) (A) (A) (A)
                 (A) (A) (A) (A) (A) (A) (A) (A) (A) (A) (A) (A)
                 (A) (A) (A) (A) (A) (A) (A) (A) (A) (A) (A) (A)
                 (A) (A) (A) (A) (A) (A) (A) (A) (A) (A) (A) (A)
                 (A) (A) (A) (A) (A) (A) (A) (A) (A) (A) (A) (A)
                 (A) (A) (A) (A) (A) (A) (A) (A) (A) (A) (A) (A)
                 (A) (A) (A) (A) (A) (A) (A) (A) (A) (A) (A) (A)
                 (A) (A) (A) (A) (A) (A) (A) (A) (A) (A) (A) (A)
                 (A) (A) (A) (A) (A) (A) (A) (A) (A) (A) (A) (A)
                 (A) (A) (A) (A) (A) (A) (A) (A) (A) (A) (A) (A)
                 (A) (A) (A) (A) (A) (A) (A) (A) (A) (A) (A) (A)
                 (A) (A) (A) (A) (A) (A) (A) (A) (A) (A) (A) (A)
                 (A) (A) (A) (A) (A) (A) (A) (A) (A) (A) (A) (A)
                 (A) (A) (A) (A) (A) (A) (A) (A) (A) (A) (A) (A)
                 (A) (A) (A) (A) (A) (A) (A) (A) (A) (A) (A) (A)
                 (A) (A) (A) (A) (A) (A) (A) (A) (A) (A) (A) (A)
                 (A) (A) (A) (A) (A) (A) (A) (A) (A) (A) (A) (A)
[...]
    16 C(13)  Bbb     0.0000     0.000     0.000     0.000  0.1770  0.9444  0.2770
              Bcc     0.0000     0.000     0.000     0.000 -0.1580 -0.2505  0.9551
 
              Baa    -0.0000    -0.000    -0.000    -0.000  0.8834  0.4615 -0.0814
    17 N(14)  Bbb     0.0000     0.000     0.000     0.000  0.0623  0.0565  0.9965
              Bcc     0.0000     0.000     0.000     0.000 -0.4645  0.8853 -0.0212
 
              Baa    -0.0000    -0.000    -0.000    -0.000  0.7543 -0.6557  0.0344
    18 C(13)  Bbb     0.0000     0.000     0.000     0.000 -0.1648 -0.1384  0.9766
              Bcc     0.0000     0.000     0.000     0.000  0.6355  0.7423  0.2125
 
              Baa    -0.0000    -0.000    -0.000    -0.000  0.1983 -0.5277  0.8260
    19 C(13)  Bbb    -0.0000    -0.000    -0.000    -0.000 -0.2966  0.7709  0.5637
              Bcc     0.0000     0.000     0.000     0.000  0.9342  0.3568  0.0036
 
              Baa    -0.0000    -0.000    -0.000    -0.000  0.9412 -0.2780  0.1918
    20 C(13)  Bbb     0.0000     0.000     0.000     0.000  0.1843  0.8986  0.3982
              Bcc     0.0000     0.000     0.000     0.000 -0.2831 -0.3395  0.8970
 
              Baa    -0.0000    -0.000    -0.000    -0.000  0.7977 -0.5847  0.1475
    21 F(19)  Bbb     0.0000     0.000     0.000     0.000  0.1313  0.4072  0.9039
              Bcc     0.0000     0.000     0.000     0.000  0.5886  0.7016 -0.4016
 
              Baa    -0.0000    -0.000    -0.000    -0.000  0.4901  0.8362 -0.2460
    22 C(13)  Bbb     0.0000     0.000     0.000     0.000  0.8683 -0.4436  0.2218
              Bcc     0.0000     0.000     0.000     0.000 -0.0764  0.3223  0.9435
 
              Baa    -0.0000    -0.000    -0.000    -0.000 -0.1274  0.9893  0.0715
    23 C(13)  Bbb     0.0000     0.000     0.000     0.000 -0.2238 -0.0989  0.9696
              Bcc     0.0000     0.000     0.000     0.000  0.9663  0.1075  0.2340
 
              Baa    -0.0000    -0.000    -0.000    -0.000  0.4336 -0.0898  0.8966
    24 S(33)  Bbb    -0.0000    -0.000    -0.000    -0.000  0.1085  0.9930  0.0470
              Bcc     0.0000     0.000     0.000     0.000  0.8946 -0.0769 -0.4403
 
              Baa    -0.0000    -0.000    -0.000    -0.000  0.9086 -0.4128 -0.0630
    25 C(13)  Bbb    -0.0000    -0.000    -0.000    -0.000 -0.0477 -0.2525  0.9664
              Bcc     0.0000     0.000     0.000     0.000  0.4149  0.8751  0.2491
 
              Baa    -0.0000    -0.000    -0.000    -0.000 -0.7016  0.7085  0.0752
    26 C(13)  Bbb     0.0000     0.000     0.000     0.000  0.6573  0.6029  0.4521
              Bcc     0.0000     0.000     0.000     0.000 -0.2750 -0.3666  0.8888
 
              Baa    -0.0000    -0.000    -0.000    -0.000 -0.4588  0.1253  0.8797
    27 N(14)  Bbb     0.0000     0.000     0.000     0.000  0.7214 -0.5254  0.4511
              Bcc     0.0000     0.000     0.000     0.000  0.5187  0.8415  0.1507
 
              Baa    -0.0000    -0.000    -0.000    -0.000  0.0333  0.8978  0.4391
    28 C(13)  Bbb     0.0000     0.000     0.000     0.000 -0.0159 -0.4388  0.8984
              Bcc     0.0000     0.000     0.000     0.000  0.9993 -0.0369 -0.0003
 
              Baa    -0.0000    -0.000    -0.000    -0.000  0.3553  0.9347  0.0101
    29 N(14)  Bbb    -0.0000    -0.000    -0.000    -0.000  0.2823 -0.1176  0.9521
              Bcc     0.0000     0.000     0.000     0.000  0.8911 -0.3354 -0.3056
 
              Baa    -0.0000    -0.000    -0.000    -0.000  0.3290  0.8804  0.3414
    30 C(13)  Bbb     0.0000     0.000     0.000     0.000 -0.1956 -0.2902  0.9368
              Bcc     0.0000     0.000     0.000     0.000  0.9238 -0.3750  0.0767
 
              Baa    -0.0000    -0.000    -0.000    -0.000  0.1331  0.1939  0.9719
    31 C(13)  Bbb    -0.0000    -0.000    -0.000    -0.000  0.3631  0.9029 -0.2299
              Bcc     0.0000     0.000     0.000     0.000  0.9222 -0.3835 -0.0498
 
              Baa    -0.0000    -0.000    -0.000    -0.000  0.4110  0.8362  0.3631
    32 C(13)  Bbb     0.0000     0.000     0.000     0.000  0.8958 -0.4443  0.0091
              Bcc     0.0000     0.000     0.000     0.000 -0.1689 -0.3216  0.9317
 
              Baa    -0.0000    -0.000    -0.000    -0.000  0.8509 -0.5238  0.0406
    33 F(19)  Bbb    -0.0000    -0.000    -0.000    -0.000 -0.1134 -0.1076  0.9877
              Bcc     0.0000     0.000     0.000     0.000  0.5130  0.8450  0.1509
 
              Baa    -0.0000    -0.000    -0.000    -0.000 -0.1862 -0.0220  0.9823
    34 C(13)  Bbb    -0.0000    -0.000    -0.000    -0.000  0.3229  0.9429  0.0824
              Bcc     0.0000     0.000     0.000     0.000  0.9279 -0.3325  0.1685
 
              Baa    -0.0000    -0.000    -0.000    -0.000  0.9332 -0.2213  0.2831
    35 C(13)  Bbb    -0.0000    -0.000    -0.000    -0.000 -0.2839  0.0290  0.9584
              Bcc     0.0000     0.000     0.000     0.000  0.2203  0.9748  0.0358
 
              Baa    -0.0000    -0.000    -0.000    -0.000  0.1108  0.9380  0.3284
    36 S(33)  Bbb    -0.0000    -0.000    -0.000    -0.000 -0.0873 -0.3200  0.9434
              Bcc     0.0000     0.000     0.000     0.000  0.9900 -0.1332  0.0464
 
              Baa    -0.0000    -0.000    -0.000    -0.000 -0.0987  0.9951 -0.0104
    37 C(13)  Bbb    -0.0000    -0.000    -0.000    -0.000 -0.0692  0.0036  0.9976
              Bcc     0.0000     0.000     0.000     0.000  0.9927  0.0992  0.0685
 
              Baa    -0.0000    -0.000    -0.000    -0.000  0.0550  0.3021  0.9517
    38 C(13)  Bbb    -0.0000    -0.000    -0.000    -0.000 -0.0305  0.9532 -0.3008
              Bcc     0.0000     0.000     0.000     0.000  0.9980  0.0125 -0.0617
 
              Baa    -0.0000    -0.000    -0.000    -0.000  0.7516  0.6467  0.1298
    39 N(14)  Bbb    -0.0000    -0.000    -0.000    -0.000 -0.1790  0.0105  0.9838
              Bcc     0.0000     0.000     0.000     0.000 -0.6349  0.7627 -0.1237
 
              Baa    -0.0000    -0.000    -0.000    -0.000 -0.5434  0.8359 -0.0769
    40 C(13)  Bbb     0.0000     0.000     0.000     0.000 -0.6246 -0.3414  0.7024
              Bcc     0.0000     0.000     0.000     0.000  0.5609  0.4297  0.7076
 
              Baa    -0.0000    -0.000    -0.000    -0.000  0.9587  0.1472  0.2435
    41 N(14)  Bbb    -0.0000    -0.000    -0.000    -0.000 -0.2822  0.3826  0.8798
              Bcc     0.0000     0.000     0.000     0.000 -0.0363  0.9121 -0.4083
 
              Baa    -0.0000    -0.000    -0.000    -0.000 -0.3643  0.8934  0.2630
    42 C(13)  Bbb    -0.0000    -0.000    -0.000    -0.000  0.3422 -0.1342  0.9300
              Bcc     0.0000     0.000     0.000     0.000  0.8661  0.4288 -0.2568
 
              Baa    -0.0000    -0.000    -0.000    -0.000  0.6706  0.6768 -0.3037
    43 C(13)  Bbb     0.0000     0.000     0.000     0.000  0.7118 -0.7023  0.0064
              Bcc     0.0000     0.000     0.000     0.000  0.2090  0.2205  0.9527
 
              Baa    -0.0000    -0.000    -0.000    -0.000  0.9265  0.2871 -0.2434
    44 C(13)  Bbb     0.0000     0.000     0.000     0.000  0.1820  0.2246  0.9573
              Bcc     0.0000     0.000     0.000     0.000 -0.3295  0.9312 -0.1558
 
              Baa    -0.0000    -0.000    -0.000    -0.000 -0.3628  0.9308 -0.0457
    45 F(19)  Bbb     0.0000     0.000     0.000     0.000  0.1628  0.1115  0.9803
              Bcc     0.0000     0.000     0.000     0.000  0.9176  0.3482 -0.1920
 
              Baa    -0.0000    -0.000    -0.000    -0.000  0.8417 -0.5232 -0.1332
    46 C(13)  Bbb    -0.0000    -0.000    -0.000    -0.000  0.3598  0.3597  0.8609
              Bcc     0.0000     0.000     0.000     0.000  0.4025  0.7726 -0.4910
 
              Baa    -0.0000    -0.000    -0.000    -0.000  0.8063  0.5153 -0.2904
    47 C(13)  Bbb    -0.0000    -0.000    -0.000    -0.000 -0.5548  0.8291 -0.0691
              Bcc     0.0000     0.000     0.000     0.000  0.2051  0.2168  0.9544
 
              Baa    -0.0000    -0.000    -0.000    -0.000  0.9249 -0.3794 -0.0265
    48 S(33)  Bbb    -0.0000    -0.000    -0.000    -0.000  0.3654  0.9057 -0.2150
              Bcc     0.0000     0.000     0.000     0.000  0.1056  0.1892  0.9763
 
              Baa    -0.0000    -0.000    -0.000    -0.000  0.9181 -0.0899 -0.3861
    49 C(13)  Bbb     0.0000     0.000     0.000     0.000  0.3964  0.1868  0.8989
              Bcc     0.0000     0.000     0.000     0.000  0.0087  0.9783 -0.2071
 
              Baa    -0.0000    -0.000    -0.000    -0.000  0.0173  0.7157  0.6982
    50 C(13)  Bbb    -0.0000    -0.000    -0.000    -0.000  0.9567  0.1910 -0.2195
              Bcc     0.0000     0.000     0.000     0.000  0.2904 -0.6718  0.6814
 
              Baa    -0.0000    -0.000    -0.000    -0.000 -0.0447  0.9973 -0.0575
    51 N(14)  Bbb    -0.0000    -0.000    -0.000    -0.000  0.9709  0.0569  0.2325
              Bcc     0.0000     0.000     0.000     0.000 -0.2351  0.0454  0.9709
 
              Baa    -0.0000    -0.000    -0.000    -0.000  0.8754  0.2572 -0.4092
    52 C(13)  Bbb     0.0000     0.000     0.000     0.000  0.3762  0.1688  0.9110
              Bcc     0.0000     0.000     0.000     0.000 -0.3034  0.9515 -0.0509
 
              Baa    -0.0000    -0.000    -0.000    -0.000  0.8579  0.3645 -0.3621
    53 N(14)  Bbb     0.0000     0.000     0.000     0.000 -0.2137  0.8941  0.3936
              Bcc     0.0000     0.000     0.000     0.000  0.4672 -0.2603  0.8450
 
              Baa    -0.0000    -0.000    -0.000    -0.000 -0.0293  0.8625  0.5052
    54 C(13)  Bbb     0.0000     0.000     0.000     0.000  0.7948 -0.2864  0.5351
              Bcc     0.0000     0.000     0.000     0.000 -0.6062 -0.4172  0.6771
 
              Baa    -0.0000    -0.000    -0.000    -0.000  0.6982  0.6955 -0.1696
    55 C(13)  Bbb    -0.0000    -0.000    -0.000    -0.000 -0.4443  0.6067  0.6592
              Bcc     0.0000     0.000     0.000     0.000  0.5614 -0.3849  0.7326
 
              Baa    -0.0000    -0.000    -0.000    -0.000 -0.0875  0.8227  0.5617
    56 C(13)  Bbb    -0.0000    -0.000    -0.000    -0.000  0.9876 -0.0019  0.1567
              Bcc     0.0000     0.000     0.000     0.000 -0.1300 -0.5684  0.8124
 
              Baa    -0.0000    -0.000    -0.000    -0.000  0.1297  0.6761  0.7253
    57 F(19)  Bbb    -0.0000    -0.000    -0.000    -0.000  0.9741  0.0500 -0.2207
              Bcc     0.0000     0.000     0.000     0.000 -0.1855  0.7351 -0.6521
 
              Baa    -0.0000    -0.000    -0.000    -0.000  0.0415  0.9302  0.3648
    58 C(13)  Bbb     0.0000     0.000     0.000     0.000  0.5825 -0.3192  0.7475
              Bcc     0.0000     0.000     0.000     0.000  0.8118  0.1814 -0.5551
 
              Baa    -0.0000    -0.000    -0.000    -0.000 -0.0742  0.6948  0.7154
    59 C(13)  Bbb    -0.0000    -0.000    -0.000    -0.000  0.9857 -0.0576  0.1582
              Bcc     0.0000     0.000     0.000     0.000  0.1511  0.7169 -0.6806
 
              Baa    -0.0000    -0.000    -0.000    -0.000  0.1633  0.9710 -0.1745
    60 S(33)  Bbb     0.0000     0.000     0.000     0.000  0.4048  0.0954  0.9094
              Bcc     0.0000     0.000     0.000     0.000  0.8997 -0.2191 -0.3775
 
              Baa    -0.0000    -0.000    -0.000    -0.000  0.7530 -0.2541  0.6069
    61 H(1)   Bbb     0.0000     0.000     0.000     0.000 -0.1743  0.8124  0.5564
              Bcc     0.0000     0.000     0.000     0.000  0.6345  0.5248 -0.5675
 
              Baa    -0.0000    -0.000    -0.000    -0.000  0.5056  0.7363 -0.4496
    62 H(1)   Bbb     0.0000     0.000     0.000     0.000  0.7829 -0.1726  0.5978
              Bcc     0.0000     0.000     0.000     0.000 -0.3626  0.6542  0.6637
 
              Baa    -0.0000    -0.000    -0.000    -0.000  0.9124 -0.3496  0.2129
    63 H(1)   Bbb     0.0000     0.000     0.000     0.000  0.2855  0.9162  0.2813
              Bcc     0.0000     0.000     0.000     0.000 -0.2934 -0.1958  0.9357
 
              Baa    -0.0000    -0.000    -0.000    -0.000  0.9112 -0.0917  0.4016
    64 H(1)   Bbb     0.0000     0.000     0.000     0.000 -0.2552  0.6396  0.7251
              Bcc     0.0000     0.000     0.000     0.000  0.3234  0.7632 -0.5594
 
              Baa    -0.0000    -0.000    -0.000    -0.000  0.6283  0.5144 -0.5836
    65 H(1)   Bbb    -0.0000    -0.000    -0.000    -0.000  0.2156  0.6056  0.7660
              Bcc     0.0000     0.000     0.000     0.000  0.7475 -0.6071  0.2696
 
              Baa    -0.0000    -0.000    -0.000    -0.000  0.1131  0.9573 -0.2661
    66 H(1)   Bbb     0.0000     0.000     0.000     0.000  0.1644  0.2461  0.9552
              Bcc     0.0000     0.000     0.000     0.000  0.9799 -0.1518 -0.1295
 
              Baa    -0.0000    -0.000    -0.000    -0.000  0.2380  0.8926 -0.3829
    67 H(1)   Bbb     0.0000     0.000     0.000     0.000  0.3788  0.2777  0.8828
              Bcc     0.0000     0.000     0.000     0.000  0.8943 -0.3552 -0.2721
 
              Baa    -0.0000    -0.000    -0.000    -0.000  0.8783  0.3676  0.3058
    68 H(1)   Bbb     0.0000     0.000     0.000     0.000 -0.1009 -0.4826  0.8700
              Bcc     0.0000     0.000     0.000     0.000 -0.4674  0.7950  0.3868
 
              Baa    -0.0000    -0.000    -0.000    -0.000 -0.0717 -0.3129  0.9471
    69 H(1)   Bbb    -0.0000    -0.000    -0.000    -0.000  0.9465 -0.3208 -0.0343
              Bcc     0.0000     0.000     0.000     0.000  0.3145  0.8940  0.3191
 
              Baa    -0.0000    -0.000    -0.000    -0.000  0.0923  0.9343  0.3444
    70 H(1)   Bbb     0.0000     0.000     0.000     0.000 -0.4332 -0.2737  0.8587
              Bcc     0.0000     0.000     0.000     0.000  0.8965 -0.2285  0.3795
 
              Baa    -0.0000    -0.000    -0.000    -0.000 -0.3442 -0.1719  0.9230
    71 H(1)   Bbb    -0.0000    -0.000    -0.000    -0.000  0.4901  0.8056  0.3328
              Bcc     0.0000     0.000     0.000     0.000  0.8008 -0.5669  0.1930
 
              Baa    -0.0000    -0.000    -0.000    -0.000  0.9679  0.0919 -0.2338
    72 H(1)   Bbb    -0.0000    -0.000    -0.000    -0.000  0.2005  0.2784  0.9393
              Bcc     0.0000     0.000     0.000     0.000 -0.1514  0.9561 -0.2511
 
              Baa    -0.0000    -0.000    -0.000    -0.000 -0.0817  0.9639 -0.2535
    73 H(1)   Bbb     0.0000     0.000     0.000     0.000 -0.1252  0.2424  0.9621
              Bcc     0.0000     0.000     0.000     0.000  0.9888  0.1104  0.1009
 
              Baa    -0.0000    -0.000    -0.000    -0.000 -0.0637  0.6852  0.7256
    74 H(1)   Bbb    -0.0000    -0.000    -0.000    -0.000  0.8245  0.4457 -0.3485
              Bcc     0.0000     0.000     0.000     0.000  0.5622 -0.5760  0.5934
 
              Baa    -0.0000    -0.000    -0.000    -0.000  0.0745  0.7776  0.6244
    75 H(1)   Bbb    -0.0000    -0.000    -0.000    -0.000  0.9896 -0.1349  0.0499
              Bcc     0.0000     0.000     0.000     0.000 -0.1231 -0.6142  0.7795
 
              Baa    -0.0000    -0.000    -0.000    -0.000 -0.5419  0.6910 -0.4784
    76 H(1)   Bbb    -0.0000    -0.000    -0.000    -0.000  0.4646  0.7206  0.5146
              Bcc     0.0000     0.000     0.000     0.000 -0.7004 -0.0566  0.7115
 
              Baa    -0.0000    -0.000    -0.000    -0.000  0.0875  0.6547  0.7508
    77 H(1)   Bbb    -0.0000    -0.000    -0.000    -0.000 -0.2022  0.7497 -0.6302
              Bcc     0.0000     0.000     0.000     0.000  0.9754  0.0967 -0.1979
 

 ---------------------------------------------------------------------------------

 No NMR shielding tensors so no spin-rotation constants.
 Leave Link  601 at Sat Jul 25 03:30:56 2020, MaxMem=  4026531840 cpu:              12.4 elap:               1.6
 (Enter /opt/ohpc/pub/libs/gaussian/g16-A.03/sandybridge/g16/l9999.exe)

 Test job not archived.
 1\1\GINC-SKYLAKE034\FOpt\ULC-wPBE\CC-pVDZ\C40H17F5N10S5\RDU230\25-Jul-
 2020\0\\#P uLC-wPBE/cc-pVDZ iop(3/107=0253900000, 3/108=0253900000) op
 t\\H17 C40 S5 N10 F5\\0,1\C,-18.2188552852,-2.7115860051,-1.5802254873
 \C,-17.6889043314,-3.4876540981,-0.5501646294\N,-16.4597910016,-3.3018
 931475,-0.0588919269\C,-15.7520993098,-2.3089373891,-0.6215536624\N,-1
 6.1569978188,-1.4972999609,-1.6171398588\C,-17.3889851987,-1.710815162
 7,-2.0848046629\C,-14.395745608,-2.0633453554,-0.1191098266\C,-13.6781
 34435,-2.6924712701,0.8774545187\F,-14.1434107952,-3.7055136675,1.6123
 885165\C,-12.3752160338,-2.1719373659,1.085949569\C,-12.1018848029,-1.
 1277262082,0.2292413051\S,-13.4381781757,-0.8000144854,-0.8282824659\C
 ,-10.8632082488,-0.3420065261,0.1469395699\C,-10.8371383418,1.01210291
 43,-0.2198105058\N,-9.718331602,1.7322372449,-0.2940882163\C,-8.581731
 2079,1.0891280955,0.0186864544\N,-8.4752876167,-0.2025925967,0.3859427
 415\C,-9.6081061581,-0.8989917596,0.4377429868\C,-7.3258702496,1.84051
 06418,-0.0379405121\C,-7.0819686374,3.1576297811,-0.3716368866\F,-8.02
 83366481,4.0264107153,-0.7339251162\C,-5.7174919039,3.5390497871,-0.31
 27905066\C,-4.9122616652,2.4893697115,0.0734157918\S,-5.8342388114,1.0
 493691166,0.3698047546\C,-3.4533244088,2.5009482871,0.245231573\C,-2.7
 616404459,3.6490893243,0.6612274009\N,-1.4384936095,3.6969856501,0.807
 8231477\C,-0.7748360789,2.5578640329,0.5487391726\N,-1.3227269685,1.39
 14652096,0.1576200059\C,-2.6448911373,1.3792909837,0.0051822221\C,0.68
 1721887,2.5588047701,0.6990719066\C,1.5440982865,3.566167853,1.0830294
 335\F,1.1555528103,4.799979024,1.4129448421\C,2.9114813721,3.192601935
 4,1.1156595184\C,3.0877920097,1.8758304168,0.7485706613\S,1.5797469509
 ,1.1114355717,0.3583087182\C,4.3539803831,1.1357804319,0.6631291091\C,
 4.4576175394,-0.2395065518,0.9212377422\N,5.602949148,-0.9165127239,0.
 8494596849\C,6.6913600637,-0.2012973382,0.5205977098\N,6.7221228185,1.
 1187013412,0.2515399776\C,5.5606787178,1.7643094619,0.3182254557\C,7.9
 763870367,-0.8978110525,0.4394688403\C,8.293012746,-2.2249303395,0.650
 4072362\F,7.4035126509,-3.1636616582,0.9812255636\C,9.6647338243,-2.53
 98379406,0.4783157296\C,10.4020825834,-1.4286149612,0.1303442712\S,9.4
 105862513,-0.008210829,0.0269730723\C,11.8464260341,-1.3616284028,-0.1
 299489008\C,12.4189821371,-0.4677852348,-1.0477007419\N,13.7267466339,
 -0.4098131386,-1.2865006204\C,14.5012433765,-1.2751952671,-0.603402985
 5\N,14.0733387585,-2.1759084536,0.2981535692\C,12.7613177326,-2.199666
 5764,0.5256582935\C,15.936527326,-1.2085574872,-0.8839746143\C,16.9847
 973606,-1.9407208099,-0.3621402223\F,16.8448507457,-2.9031904565,0.553
 8836609\C,18.2620076749,-1.5927733495,-0.8790283981\C,18.1593834205,-0
 .5836694548,-1.8017197718\S,16.5388861234,-0.0606880093,-2.0424157778\
 H,-19.2279470695,-2.8780403897,-1.9704601446\H,-18.2733752407,-4.29959
 54354,-0.0925512273\H,-17.7211908681,-1.0492848281,-2.8983451087\H,-11
 .6989279656,-2.5461692312,1.8591028442\H,-11.7718252848,1.5434390993,-
 0.4563307942\H,-9.5169433239,-1.9602485491,0.7123432645\H,-5.364473242
 ,4.539338891,-0.5770819298\H,-3.3095103513,4.5729826937,0.8993856954\H
 ,-3.088206506,0.43108125,-0.3352468641\H,3.709291968,3.871407552,1.428
 3609616\H,3.5686774071,-0.8208397252,1.2108120109\H,5.5830161809,2.836
 3978868,0.0727559232\H,10.0634764342,-3.5524311983,0.5816209183\H,11.7
 867888427,0.2260123919,-1.6228900472\H,12.4136450773,-2.9180422175,1.2
 832198312\H,19.1913505506,-2.0773420974,-0.5693003676\H,18.9706355236,
 -0.1128243602,-2.3624413957\\Version=EM64L-G16RevA.03\State=1-A\HF=-45
 69.6038309\S2=0.\S2-1=0.\S2A=0.\RMSD=6.604e-09\RMSF=5.387e-06\Dipole=-
 1.6474411,0.0020404,-0.5699363\Quadrupole=58.0957751,-29.2023278,-28.8
 934473,19.3552776,5.682168,1.225305\PG=C01 [X(C40H17F5N10S5)]\\@


 MAN IS THE MEASURE OF ALL THINGS.
  -- PROTAGORAS (5TH CENTURY B.C.)
 Job cpu time:       0 days 16 hours 33 minutes  0.1 seconds.
 Elapsed time:       0 days  2 hours  6 minutes 25.1 seconds.
 File lengths (MBytes):  RWF=   1032 Int=      0 D2E=      0 Chk=     92 Scr=      8
 Normal termination of Gaussian 16 at Sat Jul 25 03:30:57 2020.
