 Entering Gaussian System, Link 0=g16
 Input=mols_65_3_33_cF-cOC-N_opt_0.gjf
 Output=mols_65_3_33_cF-cOC-N_opt_0.log
 Initial command:
 /opt/ohpc/pub/libs/gaussian/g16-A.03/sandybridge/g16/l1.exe "/mnt/gpfs2_4m/scratch/rdu230/ondemand/projects/dihedral_energies/7trial/wtuning/redos_512cycles/mols_65_3_33_cF-cOC-N/Gau-373193.inp" -scrdir="/mnt/gpfs2_4m/scratch/rdu230/ondemand/projects/dihedral_energies/7trial/wtuning/redos_512cycles/mols_65_3_33_cF-cOC-N/"
 Entering Link 1 = /opt/ohpc/pub/libs/gaussian/g16-A.03/sandybridge/g16/l1.exe PID=    373195.
  
 Copyright (c) 1988,1990,1992,1993,1995,1998,2003,2009,2016,
            Gaussian, Inc.  All Rights Reserved.
  
 This is part of the Gaussian(R) 16 program.  It is based on
 the Gaussian(R) 09 system (copyright 2009, Gaussian, Inc.),
 the Gaussian(R) 03 system (copyright 2003, Gaussian, Inc.),
 the Gaussian(R) 98 system (copyright 1998, Gaussian, Inc.),
 the Gaussian(R) 94 system (copyright 1995, Gaussian, Inc.),
 the Gaussian 92(TM) system (copyright 1992, Gaussian, Inc.),
 the Gaussian 90(TM) system (copyright 1990, Gaussian, Inc.),
 the Gaussian 88(TM) system (copyright 1988, Gaussian, Inc.),
 the Gaussian 86(TM) system (copyright 1986, Carnegie Mellon
 University), and the Gaussian 82(TM) system (copyright 1983,
 Carnegie Mellon University). Gaussian is a federally registered
 trademark of Gaussian, Inc.
  
 This software contains proprietary and confidential information,
 including trade secrets, belonging to Gaussian, Inc.
  
 This software is provided under written license and may be
 used, copied, transmitted, or stored only in accord with that
 written license.
  
 The following legend is applicable only to US Government
 contracts under FAR:
  
                    RESTRICTED RIGHTS LEGEND
  
 Use, reproduction and disclosure by the US Government is
 subject to restrictions as set forth in subparagraphs (a)
 and (c) of the Commercial Computer Software - Restricted
 Rights clause in FAR 52.227-19.
  
 Gaussian, Inc.
 340 Quinnipiac St., Bldg. 40, Wallingford CT 06492
  
  
 ---------------------------------------------------------------
 Warning -- This program may not be used in any manner that
 competes with the business of Gaussian, Inc. or will provide
 assistance to any competitor of Gaussian, Inc.  The licensee
 of this program is prohibited from giving any competitor of
 Gaussian, Inc. access to this program.  By using this program,
 the user acknowledges that Gaussian, Inc. is engaged in the
 business of creating and licensing software in the field of
 computational chemistry and represents and warrants to the
 licensee that it is not a competitor of Gaussian, Inc. and that
 it will not use this program in any manner prohibited above.
 ---------------------------------------------------------------
  

 Cite this work as:
 Gaussian 16, Revision A.03,
 M. J. Frisch, G. W. Trucks, H. B. Schlegel, G. E. Scuseria, 
 M. A. Robb, J. R. Cheeseman, G. Scalmani, V. Barone, 
 G. A. Petersson, H. Nakatsuji, X. Li, M. Caricato, A. V. Marenich, 
 J. Bloino, B. G. Janesko, R. Gomperts, B. Mennucci, H. P. Hratchian, 
 J. V. Ortiz, A. F. Izmaylov, J. L. Sonnenberg, D. Williams-Young, 
 F. Ding, F. Lipparini, F. Egidi, J. Goings, B. Peng, A. Petrone, 
 T. Henderson, D. Ranasinghe, V. G. Zakrzewski, J. Gao, N. Rega, 
 G. Zheng, W. Liang, M. Hada, M. Ehara, K. Toyota, R. Fukuda, 
 J. Hasegawa, M. Ishida, T. Nakajima, Y. Honda, O. Kitao, H. Nakai, 
 T. Vreven, K. Throssell, J. A. Montgomery, Jr., J. E. Peralta, 
 F. Ogliaro, M. J. Bearpark, J. J. Heyd, E. N. Brothers, K. N. Kudin, 
 V. N. Staroverov, T. A. Keith, R. Kobayashi, J. Normand, 
 K. Raghavachari, A. P. Rendell, J. C. Burant, S. S. Iyengar, 
 J. Tomasi, M. Cossi, J. M. Millam, M. Klene, C. Adamo, R. Cammi, 
 J. W. Ochterski, R. L. Martin, K. Morokuma, O. Farkas, 
 J. B. Foresman, and D. J. Fox, Gaussian, Inc., Wallingford CT, 2016.
 
 ******************************************
 Gaussian 16:  EM64L-G16RevA.03 25-Dec-2016
                26-Jul-2020 
 ******************************************
 %mem=30GB
 %nproc=8
 Will use up to    8 processors via shared memory.
 ---------------------------------------------------------------
 #P uLC-wPBE/cc-pVDZ iop(3/107=0407400000, 3/108=0407400000) opt
 ---------------------------------------------------------------
 1/18=20,19=15,26=3,38=1/1,3;
 2/9=110,12=2,17=6,18=5,40=1/2;
 3/5=16,11=2,25=1,30=1,71=1,74=-41,107=407400000,108=407400000,116=2/1,2,3;
 4//1;
 5/5=2,38=5/2;
 6/7=2,8=2,9=2,10=2,28=1/1;
 7//1,2,3,16;
 1/18=20,19=15,26=3/3(2);
 2/9=110/2;
 99//99;
 2/9=110/2;
 3/5=16,11=2,25=1,30=1,71=1,74=-41,107=407400000,108=407400000,116=2/1,2,3;
 4/5=5,16=3,69=1/1;
 5/5=2,38=5/2;
 7//1,2,3,16;
 1/18=20,19=15,26=3/3(-5);
 2/9=110/2;
 6/7=2,8=2,9=2,10=2,19=2,28=1/1;
 99/9=1/99;
 Leave Link    1 at Sun Jul 26 12:21:36 2020, MaxMem=  4026531840 cpu:               1.6 elap:               0.2
 (Enter /opt/ohpc/pub/libs/gaussian/g16-A.03/sandybridge/g16/l101.exe)
 -------------------
 H20 C30 S3 N3 O3 F3
 -------------------
 Symbolic Z-matrix:
 Charge =  0 Multiplicity = 1
 C                     10.55552   1.27396   1.73086 
 C                     10.12878  -0.03658   2.06607 
 C                     9.02015  -0.57424   1.52912 
 F                     8.59492  -1.75303   1.84936 
 C                     8.28153   0.2288    0.64972 
 C                     8.6915    1.51858   0.23451 
 O                     7.85917   2.18473  -0.61969 
 C                     8.31947   3.53843  -0.97889 
 C                     9.82825   2.05433   0.82331 
 C                     6.99603  -0.39098   0.03171 
 N                     6.96598  -1.41936  -0.76549 
 C                     5.73058  -1.74372  -0.99971 
 C                     4.68192  -0.91912  -0.48346 
 S                     5.51032   0.25544   0.54125 
 C                     3.30889  -1.03222  -0.60676 
 C                     2.62261  -2.21427  -0.21056 
 C                     1.22966  -2.23074  -0.32906 
 F                     0.60581  -3.42552  -0.05947 
 C                     0.45753  -1.15427  -0.75293 
 C                     1.14274   0.03082  -1.09755 
 O                     0.35446   1.02673  -1.66008 
 C                     0.95736   2.3729   -1.78476 
 C                     2.48857   0.08392  -0.99375 
 C                    -0.98969  -1.34306  -0.94861 
 N                    -1.65086  -2.30941  -1.57665 
 C                    -3.02052  -2.18803  -1.43622 
 C                    -3.42175  -1.13956  -0.71714 
 S                    -2.02093  -0.29329  -0.07016 
 C                    -4.74186  -0.73094  -0.3482 
 C                    -5.73923  -1.62505   0.17158 
 C                    -7.024    -1.20551   0.42278 
 F                    -7.81245  -2.13506   0.99793 
 C                    -7.44222   0.04171   0.28976 
 C                    -6.56368   1.03234  -0.2342 
 O                    -6.96982   2.3262   -0.46926 
 C                    -6.1081    3.2922   -0.92633 
 C                    -5.25104   0.61912  -0.53181 
 C                    -8.85015   0.39613   0.60269 
 N                    -9.88501   0.02422  -0.02541 
 C                    -10.97221   0.46959   0.51549 
 C                    -10.78769   1.30441   1.67221 
 S                    -9.1221    1.38321   1.92823 
 H                     11.44873   1.65314   2.2021 
 H                     10.76862  -0.61483   2.82042 
 H                     8.38534   4.12632  -0.12233 
 H                     7.64709   3.92331  -1.70499 
 H                     9.29886   3.50552  -1.5109 
 H                     10.17468   3.01746   0.61329 
 H                     5.5174   -2.55769  -1.72477 
 H                     3.10732  -3.04152   0.1037 
 H                     1.65201   2.31686  -2.57337 
 H                     1.42908   2.67861  -0.78927 
 H                     0.23016   3.07845  -2.03572 
 H                     3.10374   1.00768  -1.32926 
 H                    -3.5707   -2.87439  -1.97256 
 H                    -5.43874  -2.68722   0.29691 
 H                    -6.60952   4.20633  -1.08561 
 H                    -5.78742   2.96545  -1.98614 
 H                    -5.29557   3.40734  -0.26583 
 H                    -4.51888   1.37586  -0.9514 
 H                    -12.00691   0.24002   0.08766 
 H                    -11.55235   1.756     2.21054 
 
 ITRead=  0  0  0  0  0  0  0  0  0  0  0  0  0  0  0  0  0  0  0  0
 ITRead=  0  0  0  0  0  0  0  0  0  0  0  0  0  0  0  0  0  0  0  0
 ITRead=  0  0  0  0  0  0  0  0  0  0  0  0  0  0  0  0  0  0  0  0
 ITRead=  0  0
 MicOpt= -1 -1 -1 -1 -1 -1 -1 -1 -1 -1 -1 -1 -1 -1 -1 -1 -1 -1 -1 -1
 MicOpt= -1 -1 -1 -1 -1 -1 -1 -1 -1 -1 -1 -1 -1 -1 -1 -1 -1 -1 -1 -1
 MicOpt= -1 -1 -1 -1 -1 -1 -1 -1 -1 -1 -1 -1 -1 -1 -1 -1 -1 -1 -1 -1
 MicOpt= -1 -1
 NAtoms=     62 NQM=       62 NQMF=       0 NMMI=      0 NMMIF=      0
                NMic=       0 NMicF=      0.
                    Isotopes and Nuclear Properties:
 (Nuclear quadrupole moments (NQMom) in fm**2, nuclear magnetic moments (NMagM)
  in nuclear magnetons)

  Atom         1           2           3           4           5           6           7           8           9          10
 IAtWgt=          12          12          12          19          12          12          16          12          12          12
 AtmWgt=  12.0000000  12.0000000  12.0000000  18.9984033  12.0000000  12.0000000  15.9949146  12.0000000  12.0000000  12.0000000
 NucSpn=           0           0           0           1           0           0           0           0           0           0
 AtZEff=  -0.0000000  -0.0000000  -0.0000000  -0.0000000  -0.0000000  -0.0000000  -0.0000000  -0.0000000  -0.0000000  -0.0000000
 NQMom=    0.0000000   0.0000000   0.0000000   0.0000000   0.0000000   0.0000000   0.0000000   0.0000000   0.0000000   0.0000000
 NMagM=    0.0000000   0.0000000   0.0000000   2.6288670   0.0000000   0.0000000   0.0000000   0.0000000   0.0000000   0.0000000
 AtZNuc=   6.0000000   6.0000000   6.0000000   9.0000000   6.0000000   6.0000000   8.0000000   6.0000000   6.0000000   6.0000000

  Atom        11          12          13          14          15          16          17          18          19          20
 IAtWgt=          14          12          12          32          12          12          12          19          12          12
 AtmWgt=  14.0030740  12.0000000  12.0000000  31.9720718  12.0000000  12.0000000  12.0000000  18.9984033  12.0000000  12.0000000
 NucSpn=           2           0           0           0           0           0           0           1           0           0
 AtZEff=  -0.0000000  -0.0000000  -0.0000000  -0.0000000  -0.0000000  -0.0000000  -0.0000000  -0.0000000  -0.0000000  -0.0000000
 NQMom=    2.0440000   0.0000000   0.0000000   0.0000000   0.0000000   0.0000000   0.0000000   0.0000000   0.0000000   0.0000000
 NMagM=    0.4037610   0.0000000   0.0000000   0.0000000   0.0000000   0.0000000   0.0000000   2.6288670   0.0000000   0.0000000
 AtZNuc=   7.0000000   6.0000000   6.0000000  16.0000000   6.0000000   6.0000000   6.0000000   9.0000000   6.0000000   6.0000000

  Atom        21          22          23          24          25          26          27          28          29          30
 IAtWgt=          16          12          12          12          14          12          12          32          12          12
 AtmWgt=  15.9949146  12.0000000  12.0000000  12.0000000  14.0030740  12.0000000  12.0000000  31.9720718  12.0000000  12.0000000
 NucSpn=           0           0           0           0           2           0           0           0           0           0
 AtZEff=  -0.0000000  -0.0000000  -0.0000000  -0.0000000  -0.0000000  -0.0000000  -0.0000000  -0.0000000  -0.0000000  -0.0000000
 NQMom=    0.0000000   0.0000000   0.0000000   0.0000000   2.0440000   0.0000000   0.0000000   0.0000000   0.0000000   0.0000000
 NMagM=    0.0000000   0.0000000   0.0000000   0.0000000   0.4037610   0.0000000   0.0000000   0.0000000   0.0000000   0.0000000
 AtZNuc=   8.0000000   6.0000000   6.0000000   6.0000000   7.0000000   6.0000000   6.0000000  16.0000000   6.0000000   6.0000000

  Atom        31          32          33          34          35          36          37          38          39          40
 IAtWgt=          12          19          12          12          16          12          12          12          14          12
 AtmWgt=  12.0000000  18.9984033  12.0000000  12.0000000  15.9949146  12.0000000  12.0000000  12.0000000  14.0030740  12.0000000
 NucSpn=           0           1           0           0           0           0           0           0           2           0
 AtZEff=  -0.0000000  -0.0000000  -0.0000000  -0.0000000  -0.0000000  -0.0000000  -0.0000000  -0.0000000  -0.0000000  -0.0000000
 NQMom=    0.0000000   0.0000000   0.0000000   0.0000000   0.0000000   0.0000000   0.0000000   0.0000000   2.0440000   0.0000000
 NMagM=    0.0000000   2.6288670   0.0000000   0.0000000   0.0000000   0.0000000   0.0000000   0.0000000   0.4037610   0.0000000
 AtZNuc=   6.0000000   9.0000000   6.0000000   6.0000000   8.0000000   6.0000000   6.0000000   6.0000000   7.0000000   6.0000000

  Atom        41          42          43          44          45          46          47          48          49          50
 IAtWgt=          12          32           1           1           1           1           1           1           1           1
 AtmWgt=  12.0000000  31.9720718   1.0078250   1.0078250   1.0078250   1.0078250   1.0078250   1.0078250   1.0078250   1.0078250
 NucSpn=           0           0           1           1           1           1           1           1           1           1
 AtZEff=  -0.0000000  -0.0000000  -0.0000000  -0.0000000  -0.0000000  -0.0000000  -0.0000000  -0.0000000  -0.0000000  -0.0000000
 NQMom=    0.0000000   0.0000000   0.0000000   0.0000000   0.0000000   0.0000000   0.0000000   0.0000000   0.0000000   0.0000000
 NMagM=    0.0000000   0.0000000   2.7928460   2.7928460   2.7928460   2.7928460   2.7928460   2.7928460   2.7928460   2.7928460
 AtZNuc=   6.0000000  16.0000000   1.0000000   1.0000000   1.0000000   1.0000000   1.0000000   1.0000000   1.0000000   1.0000000

  Atom        51          52          53          54          55          56          57          58          59          60
 IAtWgt=           1           1           1           1           1           1           1           1           1           1
 AtmWgt=   1.0078250   1.0078250   1.0078250   1.0078250   1.0078250   1.0078250   1.0078250   1.0078250   1.0078250   1.0078250
 NucSpn=           1           1           1           1           1           1           1           1           1           1
 AtZEff=  -0.0000000  -0.0000000  -0.0000000  -0.0000000  -0.0000000  -0.0000000  -0.0000000  -0.0000000  -0.0000000  -0.0000000
 NQMom=    0.0000000   0.0000000   0.0000000   0.0000000   0.0000000   0.0000000   0.0000000   0.0000000   0.0000000   0.0000000
 NMagM=    2.7928460   2.7928460   2.7928460   2.7928460   2.7928460   2.7928460   2.7928460   2.7928460   2.7928460   2.7928460
 AtZNuc=   1.0000000   1.0000000   1.0000000   1.0000000   1.0000000   1.0000000   1.0000000   1.0000000   1.0000000   1.0000000

  Atom        61          62
 IAtWgt=           1           1
 AtmWgt=   1.0078250   1.0078250
 NucSpn=           1           1
 AtZEff=  -0.0000000  -0.0000000
 NQMom=    0.0000000   0.0000000
 NMagM=    2.7928460   2.7928460
 AtZNuc=   1.0000000   1.0000000
 Leave Link  101 at Sun Jul 26 12:21:36 2020, MaxMem=  4026531840 cpu:               3.5 elap:               0.5
 (Enter /opt/ohpc/pub/libs/gaussian/g16-A.03/sandybridge/g16/l103.exe)

 GradGradGradGradGradGradGradGradGradGradGradGradGradGradGradGradGradGrad
 Berny optimization.
 Initialization pass.
                           ----------------------------
                           !    Initial Parameters    !
                           ! (Angstroms and Degrees)  !
 --------------------------                            --------------------------
 ! Name  Definition              Value          Derivative Info.                !
 --------------------------------------------------------------------------------
 ! R1    R(1,2)                  1.4184         estimate D2E/DX2                !
 ! R2    R(1,9)                  1.4006         estimate D2E/DX2                !
 ! R3    R(1,43)                 1.0787         estimate D2E/DX2                !
 ! R4    R(2,3)                  1.344          estimate D2E/DX2                !
 ! R5    R(2,44)                 1.1458         estimate D2E/DX2                !
 ! R6    R(3,4)                  1.2934         estimate D2E/DX2                !
 ! R7    R(3,5)                  1.4014         estimate D2E/DX2                !
 ! R8    R(5,6)                  1.4156         estimate D2E/DX2                !
 ! R9    R(5,10)                 1.5552         estimate D2E/DX2                !
 ! R10   R(6,7)                  1.3661         estimate D2E/DX2                !
 ! R11   R(6,9)                  1.3878         estimate D2E/DX2                !
 ! R12   R(7,8)                  1.4742         estimate D2E/DX2                !
 ! R13   R(8,45)                 1.041          estimate D2E/DX2                !
 ! R14   R(8,46)                 1.0618         estimate D2E/DX2                !
 ! R15   R(8,47)                 1.115          estimate D2E/DX2                !
 ! R16   R(9,48)                 1.0449         estimate D2E/DX2                !
 ! R17   R(10,11)                1.3015         estimate D2E/DX2                !
 ! R18   R(10,14)                1.6985         estimate D2E/DX2                !
 ! R19   R(11,12)                1.2986         estimate D2E/DX2                !
 ! R20   R(12,13)                1.4304         estimate D2E/DX2                !
 ! R21   R(12,49)                1.1107         estimate D2E/DX2                !
 ! R22   R(13,14)                1.7652         estimate D2E/DX2                !
 ! R23   R(13,15)                1.3832         estimate D2E/DX2                !
 ! R24   R(15,16)                1.4231         estimate D2E/DX2                !
 ! R25   R(15,23)                1.4382         estimate D2E/DX2                !
 ! R26   R(16,17)                1.3981         estimate D2E/DX2                !
 ! R27   R(16,50)                1.009          estimate D2E/DX2                !
 ! R28   R(17,18)                1.3745         estimate D2E/DX2                !
 ! R29   R(17,19)                1.3909         estimate D2E/DX2                !
 ! R30   R(19,20)                1.4116         estimate D2E/DX2                !
 ! R31   R(19,24)                1.4725         estimate D2E/DX2                !
 ! R32   R(20,21)                1.3891         estimate D2E/DX2                !
 ! R33   R(20,23)                1.3509         estimate D2E/DX2                !
 ! R34   R(21,22)                1.4803         estimate D2E/DX2                !
 ! R35   R(22,51)                1.0524         estimate D2E/DX2                !
 ! R36   R(22,52)                1.1432         estimate D2E/DX2                !
 ! R37   R(22,53)                1.0438         estimate D2E/DX2                !
 ! R38   R(23,54)                1.1595         estimate D2E/DX2                !
 ! R39   R(24,25)                1.3287         estimate D2E/DX2                !
 ! R40   R(24,28)                1.7138         estimate D2E/DX2                !
 ! R41   R(25,26)                1.3822         estimate D2E/DX2                !
 ! R42   R(26,27)                1.3332         estimate D2E/DX2                !
 ! R43   R(26,55)                1.0303         estimate D2E/DX2                !
 ! R44   R(27,28)                1.7598         estimate D2E/DX2                !
 ! R45   R(27,29)                1.4303         estimate D2E/DX2                !
 ! R46   R(29,30)                1.4368         estimate D2E/DX2                !
 ! R47   R(29,37)                1.4545         estimate D2E/DX2                !
 ! R48   R(30,31)                1.3747         estimate D2E/DX2                !
 ! R49   R(30,56)                1.1109         estimate D2E/DX2                !
 ! R50   R(31,32)                1.3478         estimate D2E/DX2                !
 ! R51   R(31,33)                1.3222         estimate D2E/DX2                !
 ! R52   R(33,34)                1.424          estimate D2E/DX2                !
 ! R53   R(33,38)                1.4852         estimate D2E/DX2                !
 ! R54   R(34,35)                1.3763         estimate D2E/DX2                !
 ! R55   R(34,37)                1.408          estimate D2E/DX2                !
 ! R56   R(35,36)                1.3728         estimate D2E/DX2                !
 ! R57   R(36,57)                1.0547         estimate D2E/DX2                !
 ! R58   R(36,58)                1.1545         estimate D2E/DX2                !
 ! R59   R(36,59)                1.0534         estimate D2E/DX2                !
 ! R60   R(37,60)                1.1335         estimate D2E/DX2                !
 ! R61   R(38,39)                1.2664         estimate D2E/DX2                !
 ! R62   R(38,42)                1.6749         estimate D2E/DX2                !
 ! R63   R(39,40)                1.2934         estimate D2E/DX2                !
 ! R64   R(40,41)                1.4384         estimate D2E/DX2                !
 ! R65   R(40,61)                1.143          estimate D2E/DX2                !
 ! R66   R(41,42)                1.687          estimate D2E/DX2                !
 ! R67   R(41,62)                1.0385         estimate D2E/DX2                !
 ! A1    A(2,1,9)              120.7778         estimate D2E/DX2                !
 ! A2    A(2,1,43)             118.0761         estimate D2E/DX2                !
 ! A3    A(9,1,43)             121.1435         estimate D2E/DX2                !
 ! A4    A(1,2,3)              121.5568         estimate D2E/DX2                !
 ! A5    A(1,2,44)             116.9921         estimate D2E/DX2                !
 ! A6    A(3,2,44)             121.4502         estimate D2E/DX2                !
 ! A7    A(2,3,4)              122.4692         estimate D2E/DX2                !
 ! A8    A(2,3,5)              117.1437         estimate D2E/DX2                !
 ! A9    A(4,3,5)              120.2886         estimate D2E/DX2                !
 ! A10   A(3,5,6)              123.6088         estimate D2E/DX2                !
 ! A11   A(3,5,10)             117.1731         estimate D2E/DX2                !
 ! A12   A(6,5,10)             119.0733         estimate D2E/DX2                !
 ! A13   A(5,6,7)              116.8229         estimate D2E/DX2                !
 ! A14   A(5,6,9)              117.6787         estimate D2E/DX2                !
 ! A15   A(7,6,9)              125.1776         estimate D2E/DX2                !
 ! A16   A(6,7,8)              114.1973         estimate D2E/DX2                !
 ! A17   A(7,8,45)             109.7455         estimate D2E/DX2                !
 ! A18   A(7,8,46)             107.5614         estimate D2E/DX2                !
 ! A19   A(7,8,47)             111.3085         estimate D2E/DX2                !
 ! A20   A(45,8,46)            113.4563         estimate D2E/DX2                !
 ! A21   A(45,8,47)            110.713          estimate D2E/DX2                !
 ! A22   A(46,8,47)            103.9233         estimate D2E/DX2                !
 ! A23   A(1,9,6)              119.0238         estimate D2E/DX2                !
 ! A24   A(1,9,48)             118.1435         estimate D2E/DX2                !
 ! A25   A(6,9,48)             122.8305         estimate D2E/DX2                !
 ! A26   A(5,10,11)            125.2658         estimate D2E/DX2                !
 ! A27   A(5,10,14)            116.8824         estimate D2E/DX2                !
 ! A28   A(11,10,14)           117.6629         estimate D2E/DX2                !
 ! A29   A(10,11,12)           109.2564         estimate D2E/DX2                !
 ! A30   A(11,12,13)           119.2325         estimate D2E/DX2                !
 ! A31   A(11,12,49)           118.906          estimate D2E/DX2                !
 ! A32   A(13,12,49)           121.1543         estimate D2E/DX2                !
 ! A33   A(12,13,14)           104.4212         estimate D2E/DX2                !
 ! A34   A(12,13,15)           130.4216         estimate D2E/DX2                !
 ! A35   A(14,13,15)           124.8906         estimate D2E/DX2                !
 ! A36   A(10,14,13)            89.0325         estimate D2E/DX2                !
 ! A37   A(13,15,16)           121.4533         estimate D2E/DX2                !
 ! A38   A(13,15,23)           121.7839         estimate D2E/DX2                !
 ! A39   A(16,15,23)           116.389          estimate D2E/DX2                !
 ! A40   A(15,16,17)           117.8178         estimate D2E/DX2                !
 ! A41   A(15,16,50)           122.4157         estimate D2E/DX2                !
 ! A42   A(17,16,50)           119.6944         estimate D2E/DX2                !
 ! A43   A(16,17,18)           116.4755         estimate D2E/DX2                !
 ! A44   A(16,17,19)           124.7365         estimate D2E/DX2                !
 ! A45   A(18,17,19)           118.7201         estimate D2E/DX2                !
 ! A46   A(17,19,20)           117.0431         estimate D2E/DX2                !
 ! A47   A(17,19,24)           119.1339         estimate D2E/DX2                !
 ! A48   A(20,19,24)           123.5213         estimate D2E/DX2                !
 ! A49   A(19,20,21)           115.169          estimate D2E/DX2                !
 ! A50   A(19,20,23)           119.8563         estimate D2E/DX2                !
 ! A51   A(21,20,23)           124.631          estimate D2E/DX2                !
 ! A52   A(20,21,22)           117.063          estimate D2E/DX2                !
 ! A53   A(21,22,51)           106.4704         estimate D2E/DX2                !
 ! A54   A(21,22,52)           109.7487         estimate D2E/DX2                !
 ! A55   A(21,22,53)           110.5601         estimate D2E/DX2                !
 ! A56   A(51,22,52)           113.2275         estimate D2E/DX2                !
 ! A57   A(51,22,53)           108.4014         estimate D2E/DX2                !
 ! A58   A(52,22,53)           108.4249         estimate D2E/DX2                !
 ! A59   A(15,23,20)           123.9469         estimate D2E/DX2                !
 ! A60   A(15,23,54)           113.1751         estimate D2E/DX2                !
 ! A61   A(20,23,54)           122.5247         estimate D2E/DX2                !
 ! A62   A(19,24,25)           130.1744         estimate D2E/DX2                !
 ! A63   A(19,24,28)           116.4058         estimate D2E/DX2                !
 ! A64   A(25,24,28)           112.8519         estimate D2E/DX2                !
 ! A65   A(24,25,26)           112.4089         estimate D2E/DX2                !
 ! A66   A(25,26,27)           114.9668         estimate D2E/DX2                !
 ! A67   A(25,26,55)           114.6946         estimate D2E/DX2                !
 ! A68   A(27,26,55)           130.0913         estimate D2E/DX2                !
 ! A69   A(26,27,28)           109.6896         estimate D2E/DX2                !
 ! A70   A(26,27,29)           129.9092         estimate D2E/DX2                !
 ! A71   A(28,27,29)           120.1625         estimate D2E/DX2                !
 ! A72   A(24,28,27)            89.7689         estimate D2E/DX2                !
 ! A73   A(27,29,30)           123.7949         estimate D2E/DX2                !
 ! A74   A(27,29,37)           123.7589         estimate D2E/DX2                !
 ! A75   A(30,29,37)           112.3503         estimate D2E/DX2                !
 ! A76   A(29,30,31)           121.6648         estimate D2E/DX2                !
 ! A77   A(29,30,56)           116.6172         estimate D2E/DX2                !
 ! A78   A(31,30,56)           121.599          estimate D2E/DX2                !
 ! A79   A(30,31,32)           114.4703         estimate D2E/DX2                !
 ! A80   A(30,31,33)           124.411          estimate D2E/DX2                !
 ! A81   A(32,31,33)           120.563          estimate D2E/DX2                !
 ! A82   A(31,33,34)           119.8751         estimate D2E/DX2                !
 ! A83   A(31,33,38)           120.2492         estimate D2E/DX2                !
 ! A84   A(34,33,38)           119.7604         estimate D2E/DX2                !
 ! A85   A(33,34,35)           122.329          estimate D2E/DX2                !
 ! A86   A(33,34,37)           116.6661         estimate D2E/DX2                !
 ! A87   A(35,34,37)           120.9921         estimate D2E/DX2                !
 ! A88   A(34,35,36)           122.2172         estimate D2E/DX2                !
 ! A89   A(35,36,57)           111.2065         estimate D2E/DX2                !
 ! A90   A(35,36,58)           106.3106         estimate D2E/DX2                !
 ! A91   A(35,36,59)           110.6285         estimate D2E/DX2                !
 ! A92   A(57,36,58)           103.8113         estimate D2E/DX2                !
 ! A93   A(57,36,59)           111.5092         estimate D2E/DX2                !
 ! A94   A(58,36,59)           113.0963         estimate D2E/DX2                !
 ! A95   A(29,37,34)           124.8966         estimate D2E/DX2                !
 ! A96   A(29,37,60)           116.1222         estimate D2E/DX2                !
 ! A97   A(34,37,60)           118.9807         estimate D2E/DX2                !
 ! A98   A(33,38,39)           126.8754         estimate D2E/DX2                !
 ! A99   A(33,38,42)           117.4716         estimate D2E/DX2                !
 ! A100  A(39,38,42)           115.6518         estimate D2E/DX2                !
 ! A101  A(38,39,40)           112.2316         estimate D2E/DX2                !
 ! A102  A(39,40,41)           115.3608         estimate D2E/DX2                !
 ! A103  A(39,40,61)           122.361          estimate D2E/DX2                !
 ! A104  A(41,40,61)           122.2574         estimate D2E/DX2                !
 ! A105  A(40,41,42)           106.01           estimate D2E/DX2                !
 ! A106  A(40,41,62)           125.0855         estimate D2E/DX2                !
 ! A107  A(42,41,62)           128.903          estimate D2E/DX2                !
 ! A108  A(38,42,41)            90.7265         estimate D2E/DX2                !
 ! D1    D(9,1,2,3)              0.0384         estimate D2E/DX2                !
 ! D2    D(9,1,2,44)          -179.618          estimate D2E/DX2                !
 ! D3    D(43,1,2,3)           179.4516         estimate D2E/DX2                !
 ! D4    D(43,1,2,44)           -0.2048         estimate D2E/DX2                !
 ! D5    D(2,1,9,6)             -1.1256         estimate D2E/DX2                !
 ! D6    D(2,1,9,48)           179.4066         estimate D2E/DX2                !
 ! D7    D(43,1,9,6)           179.4793         estimate D2E/DX2                !
 ! D8    D(43,1,9,48)            0.0115         estimate D2E/DX2                !
 ! D9    D(1,2,3,4)           -178.0763         estimate D2E/DX2                !
 ! D10   D(1,2,3,5)             -1.6806         estimate D2E/DX2                !
 ! D11   D(44,2,3,4)             1.5648         estimate D2E/DX2                !
 ! D12   D(44,2,3,5)           177.9604         estimate D2E/DX2                !
 ! D13   D(2,3,5,6)              4.6227         estimate D2E/DX2                !
 ! D14   D(2,3,5,10)          -179.8009         estimate D2E/DX2                !
 ! D15   D(4,3,5,6)           -178.8989         estimate D2E/DX2                !
 ! D16   D(4,3,5,10)            -3.3225         estimate D2E/DX2                !
 ! D17   D(3,5,6,7)           -179.5447         estimate D2E/DX2                !
 ! D18   D(3,5,6,9)             -5.7071         estimate D2E/DX2                !
 ! D19   D(10,5,6,7)             4.9582         estimate D2E/DX2                !
 ! D20   D(10,5,6,9)           178.7957         estimate D2E/DX2                !
 ! D21   D(3,5,10,11)          -63.8681         estimate D2E/DX2                !
 ! D22   D(3,5,10,14)          111.0021         estimate D2E/DX2                !
 ! D23   D(6,5,10,11)          111.917          estimate D2E/DX2                !
 ! D24   D(6,5,10,14)          -73.2128         estimate D2E/DX2                !
 ! D25   D(5,6,7,8)            178.0645         estimate D2E/DX2                !
 ! D26   D(9,6,7,8)              4.7434         estimate D2E/DX2                !
 ! D27   D(5,6,9,1)              3.754          estimate D2E/DX2                !
 ! D28   D(5,6,9,48)          -176.8046         estimate D2E/DX2                !
 ! D29   D(7,6,9,1)            177.0233         estimate D2E/DX2                !
 ! D30   D(7,6,9,48)            -3.5352         estimate D2E/DX2                !
 ! D31   D(6,7,8,45)           -61.0047         estimate D2E/DX2                !
 ! D32   D(6,7,8,46)           175.1337         estimate D2E/DX2                !
 ! D33   D(6,7,8,47)            61.9084         estimate D2E/DX2                !
 ! D34   D(5,10,11,12)         174.4522         estimate D2E/DX2                !
 ! D35   D(14,10,11,12)         -0.3818         estimate D2E/DX2                !
 ! D36   D(5,10,14,13)        -178.3179         estimate D2E/DX2                !
 ! D37   D(11,10,14,13)         -3.0459         estimate D2E/DX2                !
 ! D38   D(10,11,12,13)          5.0131         estimate D2E/DX2                !
 ! D39   D(10,11,12,49)        175.4917         estimate D2E/DX2                !
 ! D40   D(11,12,13,14)         -6.9137         estimate D2E/DX2                !
 ! D41   D(11,12,13,15)        178.9137         estimate D2E/DX2                !
 ! D42   D(49,12,13,14)       -177.1718         estimate D2E/DX2                !
 ! D43   D(49,12,13,15)          8.6557         estimate D2E/DX2                !
 ! D44   D(12,13,14,10)          4.9611         estimate D2E/DX2                !
 ! D45   D(15,13,14,10)        179.5538         estimate D2E/DX2                !
 ! D46   D(12,13,15,16)         56.0005         estimate D2E/DX2                !
 ! D47   D(12,13,15,23)       -131.2733         estimate D2E/DX2                !
 ! D48   D(14,13,15,16)       -117.1142         estimate D2E/DX2                !
 ! D49   D(14,13,15,23)         55.612          estimate D2E/DX2                !
 ! D50   D(13,15,16,17)        178.0142         estimate D2E/DX2                !
 ! D51   D(13,15,16,50)         -5.0848         estimate D2E/DX2                !
 ! D52   D(23,15,16,17)          4.9147         estimate D2E/DX2                !
 ! D53   D(23,15,16,50)       -178.1843         estimate D2E/DX2                !
 ! D54   D(13,15,23,20)       -178.4102         estimate D2E/DX2                !
 ! D55   D(13,15,23,54)          8.277          estimate D2E/DX2                !
 ! D56   D(16,15,23,20)         -5.3353         estimate D2E/DX2                !
 ! D57   D(16,15,23,54)       -178.6481         estimate D2E/DX2                !
 ! D58   D(15,16,17,18)        174.0547         estimate D2E/DX2                !
 ! D59   D(15,16,17,19)         -2.8996         estimate D2E/DX2                !
 ! D60   D(50,16,17,18)         -2.9338         estimate D2E/DX2                !
 ! D61   D(50,16,17,19)       -179.888          estimate D2E/DX2                !
 ! D62   D(16,17,19,20)          0.6297         estimate D2E/DX2                !
 ! D63   D(16,17,19,24)        174.5458         estimate D2E/DX2                !
 ! D64   D(18,17,19,20)       -176.2614         estimate D2E/DX2                !
 ! D65   D(18,17,19,24)         -2.3454         estimate D2E/DX2                !
 ! D66   D(17,19,20,21)        172.8966         estimate D2E/DX2                !
 ! D67   D(17,19,20,23)         -0.6809         estimate D2E/DX2                !
 ! D68   D(24,19,20,21)         -0.7277         estimate D2E/DX2                !
 ! D69   D(24,19,20,23)       -174.3052         estimate D2E/DX2                !
 ! D70   D(17,19,24,25)        -46.8242         estimate D2E/DX2                !
 ! D71   D(17,19,24,28)        123.8142         estimate D2E/DX2                !
 ! D72   D(20,19,24,25)        126.6743         estimate D2E/DX2                !
 ! D73   D(20,19,24,28)        -62.6873         estimate D2E/DX2                !
 ! D74   D(19,20,21,22)        167.9592         estimate D2E/DX2                !
 ! D75   D(23,20,21,22)        -18.8118         estimate D2E/DX2                !
 ! D76   D(19,20,23,15)          3.1912         estimate D2E/DX2                !
 ! D77   D(19,20,23,54)        175.897          estimate D2E/DX2                !
 ! D78   D(21,20,23,15)       -169.7413         estimate D2E/DX2                !
 ! D79   D(21,20,23,54)          2.9645         estimate D2E/DX2                !
 ! D80   D(20,21,22,51)         73.7974         estimate D2E/DX2                !
 ! D81   D(20,21,22,52)        -49.0976         estimate D2E/DX2                !
 ! D82   D(20,21,22,53)       -168.6563         estimate D2E/DX2                !
 ! D83   D(19,24,25,26)        174.5681         estimate D2E/DX2                !
 ! D84   D(28,24,25,26)          3.6649         estimate D2E/DX2                !
 ! D85   D(19,24,28,27)       -177.2163         estimate D2E/DX2                !
 ! D86   D(25,24,28,27)         -4.9678         estimate D2E/DX2                !
 ! D87   D(24,25,26,27)          0.3806         estimate D2E/DX2                !
 ! D88   D(24,25,26,55)        175.2535         estimate D2E/DX2                !
 ! D89   D(25,26,27,28)         -4.0555         estimate D2E/DX2                !
 ! D90   D(25,26,27,29)       -178.3336         estimate D2E/DX2                !
 ! D91   D(55,26,27,28)       -177.9632         estimate D2E/DX2                !
 ! D92   D(55,26,27,29)          7.7587         estimate D2E/DX2                !
 ! D93   D(26,27,28,24)          5.0085         estimate D2E/DX2                !
 ! D94   D(29,27,28,24)        179.934          estimate D2E/DX2                !
 ! D95   D(26,27,29,30)         46.0738         estimate D2E/DX2                !
 ! D96   D(26,27,29,37)       -130.0928         estimate D2E/DX2                !
 ! D97   D(28,27,29,30)       -127.6933         estimate D2E/DX2                !
 ! D98   D(28,27,29,37)         56.1401         estimate D2E/DX2                !
 ! D99   D(27,29,30,31)       -175.2831         estimate D2E/DX2                !
 ! D100  D(27,29,30,56)          0.8101         estimate D2E/DX2                !
 ! D101  D(37,29,30,31)          1.2715         estimate D2E/DX2                !
 ! D102  D(37,29,30,56)        177.3647         estimate D2E/DX2                !
 ! D103  D(27,29,37,34)        176.9571         estimate D2E/DX2                !
 ! D104  D(27,29,37,60)         -2.7576         estimate D2E/DX2                !
 ! D105  D(30,29,37,34)          0.4011         estimate D2E/DX2                !
 ! D106  D(30,29,37,60)       -179.3136         estimate D2E/DX2                !
 ! D107  D(29,30,31,32)       -175.4252         estimate D2E/DX2                !
 ! D108  D(29,30,31,33)         -3.9657         estimate D2E/DX2                !
 ! D109  D(56,30,31,32)          8.6759         estimate D2E/DX2                !
 ! D110  D(56,30,31,33)       -179.8647         estimate D2E/DX2                !
 ! D111  D(30,31,33,34)          4.6473         estimate D2E/DX2                !
 ! D112  D(30,31,33,38)       -179.2655         estimate D2E/DX2                !
 ! D113  D(32,31,33,34)        175.6157         estimate D2E/DX2                !
 ! D114  D(32,31,33,38)         -8.2971         estimate D2E/DX2                !
 ! D115  D(31,33,34,35)        176.0098         estimate D2E/DX2                !
 ! D116  D(31,33,34,37)         -2.6954         estimate D2E/DX2                !
 ! D117  D(38,33,34,35)         -0.0967         estimate D2E/DX2                !
 ! D118  D(38,33,34,37)       -178.8018         estimate D2E/DX2                !
 ! D119  D(31,33,38,39)        -66.9153         estimate D2E/DX2                !
 ! D120  D(31,33,38,42)        112.6592         estimate D2E/DX2                !
 ! D121  D(34,33,38,39)        109.1763         estimate D2E/DX2                !
 ! D122  D(34,33,38,42)        -71.2491         estimate D2E/DX2                !
 ! D123  D(33,34,35,36)        177.4632         estimate D2E/DX2                !
 ! D124  D(37,34,35,36)         -3.8866         estimate D2E/DX2                !
 ! D125  D(33,34,37,29)          0.262          estimate D2E/DX2                !
 ! D126  D(33,34,37,60)        179.9692         estimate D2E/DX2                !
 ! D127  D(35,34,37,29)       -178.4616         estimate D2E/DX2                !
 ! D128  D(35,34,37,60)          1.2456         estimate D2E/DX2                !
 ! D129  D(34,35,36,57)        177.5242         estimate D2E/DX2                !
 ! D130  D(34,35,36,58)         65.1694         estimate D2E/DX2                !
 ! D131  D(34,35,36,59)        -57.984          estimate D2E/DX2                !
 ! D132  D(33,38,39,40)        178.1219         estimate D2E/DX2                !
 ! D133  D(42,38,39,40)         -1.4593         estimate D2E/DX2                !
 ! D134  D(33,38,42,41)       -178.8109         estimate D2E/DX2                !
 ! D135  D(39,38,42,41)          0.8115         estimate D2E/DX2                !
 ! D136  D(38,39,40,41)          1.4837         estimate D2E/DX2                !
 ! D137  D(38,39,40,61)        179.8588         estimate D2E/DX2                !
 ! D138  D(39,40,41,42)         -0.8508         estimate D2E/DX2                !
 ! D139  D(39,40,41,62)        178.7361         estimate D2E/DX2                !
 ! D140  D(61,40,41,42)       -179.2278         estimate D2E/DX2                !
 ! D141  D(61,40,41,62)          0.3591         estimate D2E/DX2                !
 ! D142  D(40,41,42,38)          0.0304         estimate D2E/DX2                !
 ! D143  D(62,41,42,38)       -179.5353         estimate D2E/DX2                !
 --------------------------------------------------------------------------------
 Trust Radius=3.00D-01 FncErr=1.00D-07 GrdErr=1.00D-06 EigMax=2.50D+02 EigMin=1.00D-04
 Number of steps in this run=    328 maximum allowed number of steps=    372.
 GradGradGradGradGradGradGradGradGradGradGradGradGradGradGradGradGradGrad

 Leave Link  103 at Sun Jul 26 12:21:36 2020, MaxMem=  4026531840 cpu:               0.2 elap:               0.0
 (Enter /opt/ohpc/pub/libs/gaussian/g16-A.03/sandybridge/g16/l202.exe)
 Stoichiometry    C30H20F3N3O3S3
 Framework group  C1[X(C30H20F3N3O3S3)]
 Deg. of freedom   180
 Full point group                 C1      NOp   1
 Largest Abelian subgroup         C1      NOp   1
 Largest concise Abelian subgroup C1      NOp   1
                         Standard orientation:                         
 ---------------------------------------------------------------------
 Center     Atomic      Atomic             Coordinates (Angstroms)
 Number     Number       Type             X           Y           Z
 ---------------------------------------------------------------------
      1          6           0       10.556754    1.268983    1.738879
      2          6           0       10.129221   -0.041417    2.073629
      3          6           0        9.020636   -0.578472    1.535974
      4          9           0        8.594683   -1.757114    1.855782
      5          6           0        8.282872    0.225067    0.656308
      6          6           0        8.693672    1.514723    0.241548
      7          8           0        7.862120    2.181412   -0.612998
      8          6           0        8.323245    3.534959   -0.971706
      9          6           0        9.830344    2.049844    0.831057
     10          6           0        6.997422   -0.394007    0.037489
     11          7           0        6.967336   -1.422242   -0.759903
     12          6           0        5.731910   -1.745985   -0.994856
     13          6           0        4.683356   -0.920984   -0.479042
     14         16           0        5.511735    0.253006    0.546328
     15          6           0        3.310341   -1.033429   -0.603115
     16          6           0        2.623297   -2.215229   -0.207485
     17          6           0        1.230405   -2.231036   -0.326759
     18          9           0        0.605849   -3.425572   -0.057713
     19          6           0        0.458998   -1.154130   -0.750859
     20          6           0        1.144949    0.030702   -1.094907
     21          8           0        0.357439    1.027076   -1.657696
     22          6           0        0.961034    2.372986   -1.781814
     23          6           0        2.490749    0.083152   -0.990359
     24          6           0       -0.988196   -1.342219   -0.947366
     25          7           0       -1.649475   -2.308154   -1.575933
     26          6           0       -3.019152   -2.186157   -1.436240
     27          6           0       -3.420284   -1.137627   -0.717201
     28         16           0       -2.019427   -0.292116   -0.069299
     29          6           0       -4.740412   -0.728462   -0.348912
     30          6           0       -5.738483   -1.622199    0.170167
     31          6           0       -7.023197   -1.202101    0.420733
     32          9           0       -7.812388   -2.131386    0.995300
     33          6           0       -7.440757    0.045331    0.287700
     34          6           0       -6.561474    1.035648   -0.235607
     35          8           0       -6.966888    2.329739   -0.470669
     36          6           0       -6.104466    3.295415   -0.927100
     37          6           0       -5.248862    0.621865   -0.532567
     38          6           0       -8.848694    0.400355    0.599921
     39          7           0       -9.883390    0.029036   -0.028809
     40          6           0      -10.970678    0.474815    0.511569
     41          6           0      -10.786403    1.309346    1.668537
     42         16           0       -9.120918    1.387329    1.925478
     43          1           0       11.449884    1.647672    2.210667
     44          1           0       10.768382   -0.620094    2.828226
     45          1           0        8.388918    4.122667   -0.115017
     46          1           0        7.651437    3.920271   -1.698114
     47          1           0        9.302905    3.501686   -1.503191
     48          1           0       10.177334    3.012854    0.621394
     49          1           0        5.518756   -2.559737   -1.720171
     50          1           0        3.107451   -3.042755    0.106888
     51          1           0        1.656090    2.316756   -2.570050
     52          1           0        1.432349    2.678304   -0.786014
     53          1           0        0.234301    3.078912   -2.033050
     54          1           0        3.106528    1.006689   -1.325372
     55          1           0       -3.569354   -2.872176   -1.972996
     56          1           0       -5.438551   -2.684525    0.295482
     57          1           0       -6.605375    4.209800   -1.086499
     58          1           0       -5.783358    2.968698   -1.986788
     59          1           0       -5.292250    3.410061   -0.266131
     60          1           0       -4.516118    1.378341   -0.951628
     61          1           0      -12.005253    0.245799    0.083133
     62          1           0      -11.551146    1.761200    2.206524
 ---------------------------------------------------------------------
 Rotational constants (GHZ):           0.2103324           0.0180132           0.0173838
 Leave Link  202 at Sun Jul 26 12:21:36 2020, MaxMem=  4026531840 cpu:               0.3 elap:               0.1
 (Enter /opt/ohpc/pub/libs/gaussian/g16-A.03/sandybridge/g16/l301.exe)
 Standard basis: CC-pVDZ (5D, 7F)
 Ernie: Thresh=  0.10000D-02 Tol=  0.10000D-05 Strict=F.
 Ernie:  108 primitive shells out of 1108 were deleted.
 There are   742 symmetry adapted cartesian basis functions of A   symmetry.
 There are   700 symmetry adapted basis functions of A   symmetry.
   700 basis functions,  1640 primitive gaussians,   742 cartesian basis functions
   160 alpha electrons      160 beta electrons
       nuclear repulsion energy      4886.6410293649 Hartrees.
 IExCor=32609 DFT=T Ex+Corr=LC-wPBE ExCW=0 ScaHFX=  1.000000
 ScaDFX=  1.000000  0.000000  1.000000  1.000000 ScalE2=  1.000000  1.000000
 IRadAn=      5 IRanWt=     -1 IRanGd=            0 ICorTp=0 IEmpDi=  4
 HFx  wShort=  0.000000 wLong=  0.407400 cFull=  0.000000 cShort=  0.000000 cLong=  1.000000
 DFx  wShort=  0.000000 wLong=  0.407400 cFull=  0.000000 cShort=  0.000000 cLong=  1.000000
 NAtoms=   62 NActive=   62 NUniq=   62 SFac= 1.00D+00 NAtFMM=   60 NAOKFM=T Big=T
 Integral buffers will be    131072 words long.
 Raffenetti 2 integral format.
 Two-electron integral symmetry is turned on.
 Leave Link  301 at Sun Jul 26 12:21:36 2020, MaxMem=  4026531840 cpu:               0.5 elap:               0.1
 (Enter /opt/ohpc/pub/libs/gaussian/g16-A.03/sandybridge/g16/l302.exe)
 NPDir=0 NMtPBC=     1 NCelOv=     1 NCel=       1 NClECP=     1 NCelD=      1
         NCelK=      1 NCelE2=     1 NClLst=     1 CellRange=     0.0.
 One-electron integrals computed using PRISM.
 One-electron integral symmetry used in STVInt
 NBasis=   700 RedAO= T EigKep=  2.93D-04  NBF=   700
 NBsUse=   700 1.00D-06 EigRej= -1.00D+00 NBFU=   700
 Precomputing XC quadrature grid using
 IXCGrd= 4 IRadAn=           5 IRanWt=          -1 IRanGd=           0 AccXCQ= 0.00D+00.
 Generated NRdTot=       0 NPtTot=           0 NUsed=           0 NTot=          32
 NSgBfM=   661   660   661   661   661 MxSgAt=    62 MxSgA2=    62.
 Leave Link  302 at Sun Jul 26 12:21:39 2020, MaxMem=  4026531840 cpu:              20.6 elap:               2.6
 (Enter /opt/ohpc/pub/libs/gaussian/g16-A.03/sandybridge/g16/l303.exe)
 DipDrv:  MaxL=1.
 Leave Link  303 at Sun Jul 26 12:21:39 2020, MaxMem=  4026531840 cpu:               1.5 elap:               0.2
 (Enter /opt/ohpc/pub/libs/gaussian/g16-A.03/sandybridge/g16/l401.exe)
 ExpMin= 1.22D-01 ExpMax= 1.11D+05 ExpMxC= 1.07D+03 IAcc=3 IRadAn=         5 AccDes= 0.00D+00
 Harris functional with IExCor=32609 and IRadAn=       5 diagonalized for initial guess.
 HarFok:  IExCor=32609 AccDes= 0.00D+00 IRadAn=         5 IDoV= 1 UseB2=F ITyADJ=14
 ICtDFT=  3500011 ScaDFX=  1.000000  1.000000  1.000000  1.000000
 FoFCou: FMM=F IPFlag=           0 FMFlag=      100000 FMFlg1=        2001
         NFxFlg=           0 DoJE=T BraDBF=F KetDBF=T FulRan=T
         wScrn=  0.000000 ICntrl=       500 IOpCl=  0 I1Cent=   200000004 NGrid=           0
         NMat0=    1 NMatS0=      1 NMatT0=    0 NMatD0=    1 NMtDS0=    0 NMtDT0=    0
 Petite list used in FoFCou.
 Harris En= -3037.13130913264    
 JPrj=0 DoOrth=F DoCkMO=F.
 Initial guess <Sx>= 0.0000 <Sy>= 0.0000 <Sz>= 0.0000 <S**2>= 0.0000 S= 0.0000
 Leave Link  401 at Sun Jul 26 12:21:51 2020, MaxMem=  4026531840 cpu:              92.4 elap:              11.7
 (Enter /opt/ohpc/pub/libs/gaussian/g16-A.03/sandybridge/g16/l502.exe)
 Integral symmetry usage will be decided dynamically.
 UHF open shell SCF:
 Using DIIS extrapolation, IDIIS=  1040.
 NGot=  4026531840 LenX=  4025417212 LenY=  4024865906
 Requested convergence on RMS density matrix=1.00D-08 within 128 cycles.
 Requested convergence on MAX density matrix=1.00D-06.
 Requested convergence on             energy=1.00D-06.
 No special actions if energy rises.
 Fock matrices will be formed incrementally for  20 cycles.
 Integral accuracy reduced to 1.0D-05 until final iterations.

 Cycle   1  Pass 0  IDiag  1:
 FoFJK:  IHMeth= 1 ICntrl=       0 DoSepK=T KAlg= 0 I1Cent=           0 FoldK=F
 IRaf=         1 NMat=       1 IRICut=       1 DoRegI=T DoRafI=F ISym2E= 0 IDoP0=0 IntGTp=1.
 FoFCou: FMM=T IPFlag=           0 FMFlag=      100000 FMFlg1=        2001
         NFxFlg=           0 DoJE=T BraDBF=F KetDBF=F FulRan=T
         wScrn=  0.000000 ICntrl=       500 IOpCl=  0 I1Cent=           0 NGrid=           0
         NMat0=    1 NMatS0=      1 NMatT0=    0 NMatD0=    1 NMtDS0=    0 NMtDT0=    0
 Symmetry not used in FoFCou.
 FMM levels:  10  Number of levels for PrismC:   9
 E= -3036.79665183119    
 DIIS: error= 1.93D-02 at cycle   1 NSaved=   1.
 NSaved= 1 IEnMin= 1 EnMin= -3036.79665183119     IErMin= 1 ErrMin= 1.93D-02
 ErrMax= 1.93D-02  0.00D+00 EMaxC= 1.00D-01 BMatC= 2.85D+00 BMatP= 2.85D+00
 IDIUse=3 WtCom= 8.07D-01 WtEn= 1.93D-01
 Coeff-Com:  0.100D+01
 Coeff-En:   0.100D+01
 Coeff:      0.100D+01
 Gap=     0.348 Goal=   None    Shift=    0.000
 Gap=     0.348 Goal=   None    Shift=    0.000
 GapD=    0.348 DampG=1.000 DampE=0.500 DampFc=0.5000 IDamp=-1.
 Damping current iteration by 5.00D-01
 RMSDP=2.58D-03 MaxDP=1.29D-01              OVMax= 2.26D-01

 Cycle   2  Pass 0  IDiag  1:
 RMSU=  1.29D-03    CP:  9.92D-01
 E= -3037.19501708009     Delta-E=       -0.398365248907 Rises=F Damp=T
 DIIS: error= 4.70D-03 at cycle   2 NSaved=   2.
 NSaved= 2 IEnMin= 2 EnMin= -3037.19501708009     IErMin= 2 ErrMin= 4.70D-03
 ErrMax= 4.70D-03  0.00D+00 EMaxC= 1.00D-01 BMatC= 1.86D-01 BMatP= 2.85D+00
 IDIUse=3 WtCom= 9.53D-01 WtEn= 4.70D-02
 Coeff-Com: -0.781D-01 0.108D+01
 Coeff-En:   0.000D+00 0.100D+01
 Coeff:     -0.744D-01 0.107D+01
 Gap=     0.329 Goal=   None    Shift=    0.000
 Gap=     0.329 Goal=   None    Shift=    0.000
 RMSDP=8.55D-04 MaxDP=2.81D-02 DE=-3.98D-01 OVMax= 1.22D-01

 Cycle   3  Pass 0  IDiag  1:
 RMSU=  8.22D-04    CP:  9.85D-01  1.17D+00
 E= -3037.57350678056     Delta-E=       -0.378489700464 Rises=F Damp=F
 DIIS: error= 3.04D-03 at cycle   3 NSaved=   3.
 NSaved= 3 IEnMin= 3 EnMin= -3037.57350678056     IErMin= 3 ErrMin= 3.04D-03
 ErrMax= 3.04D-03  0.00D+00 EMaxC= 1.00D-01 BMatC= 8.21D-02 BMatP= 1.86D-01
 IDIUse=3 WtCom= 9.70D-01 WtEn= 3.04D-02
 Coeff-Com: -0.718D-01 0.436D+00 0.636D+00
 Coeff-En:   0.000D+00 0.000D+00 0.100D+01
 Coeff:     -0.696D-01 0.423D+00 0.647D+00
 Gap=     0.313 Goal=   None    Shift=    0.000
 Gap=     0.313 Goal=   None    Shift=    0.000
 RMSDP=2.49D-04 MaxDP=1.91D-02 DE=-3.78D-01 OVMax= 2.52D-02

 Cycle   4  Pass 0  IDiag  1:
 RMSU=  2.00D-04    CP:  9.85D-01  1.24D+00  8.61D-01
 E= -3037.59225132550     Delta-E=       -0.018744544943 Rises=F Damp=F
 DIIS: error= 1.05D-03 at cycle   4 NSaved=   4.
 NSaved= 4 IEnMin= 4 EnMin= -3037.59225132550     IErMin= 4 ErrMin= 1.05D-03
 ErrMax= 1.05D-03  0.00D+00 EMaxC= 1.00D-01 BMatC= 7.79D-03 BMatP= 8.21D-02
 IDIUse=3 WtCom= 9.89D-01 WtEn= 1.05D-02
 Coeff-Com: -0.811D-02 0.146D-01 0.224D+00 0.770D+00
 Coeff-En:   0.000D+00 0.000D+00 0.000D+00 0.100D+01
 Coeff:     -0.803D-02 0.144D-01 0.222D+00 0.772D+00
 Gap=     0.314 Goal=   None    Shift=    0.000
 Gap=     0.314 Goal=   None    Shift=    0.000
 RMSDP=9.14D-05 MaxDP=5.95D-03 DE=-1.87D-02 OVMax= 9.07D-03

 Cycle   5  Pass 0  IDiag  1:
 RMSU=  6.91D-05    CP:  9.85D-01  1.24D+00  9.30D-01  9.18D-01
 E= -3037.59453279275     Delta-E=       -0.002281467255 Rises=F Damp=F
 DIIS: error= 3.00D-04 at cycle   5 NSaved=   5.
 NSaved= 5 IEnMin= 5 EnMin= -3037.59453279275     IErMin= 5 ErrMin= 3.00D-04
 ErrMax= 3.00D-04  0.00D+00 EMaxC= 1.00D-01 BMatC= 8.33D-04 BMatP= 7.79D-03
 IDIUse=3 WtCom= 9.97D-01 WtEn= 3.00D-03
 Coeff-Com:  0.597D-02-0.364D-01 0.171D-01 0.255D+00 0.758D+00
 Coeff-En:   0.000D+00 0.000D+00 0.000D+00 0.000D+00 0.100D+01
 Coeff:      0.595D-02-0.363D-01 0.170D-01 0.254D+00 0.759D+00
 Gap=     0.316 Goal=   None    Shift=    0.000
 Gap=     0.316 Goal=   None    Shift=    0.000
 RMSDP=3.68D-05 MaxDP=1.78D-03 DE=-2.28D-03 OVMax= 4.66D-03

 Cycle   6  Pass 0  IDiag  1:
 RMSU=  2.75D-05    CP:  9.85D-01  1.23D+00  9.51D-01  1.00D+00  1.03D+00
 E= -3037.59486871005     Delta-E=       -0.000335917301 Rises=F Damp=F
 DIIS: error= 1.48D-04 at cycle   6 NSaved=   6.
 NSaved= 6 IEnMin= 6 EnMin= -3037.59486871005     IErMin= 6 ErrMin= 1.48D-04
 ErrMax= 1.48D-04  0.00D+00 EMaxC= 1.00D-01 BMatC= 1.47D-04 BMatP= 8.33D-04
 IDIUse=3 WtCom= 9.99D-01 WtEn= 1.48D-03
 Coeff-Com:  0.469D-02-0.179D-01-0.284D-01-0.286D-01 0.242D+00 0.828D+00
 Coeff-En:   0.000D+00 0.000D+00 0.000D+00 0.000D+00 0.000D+00 0.100D+01
 Coeff:      0.468D-02-0.179D-01-0.284D-01-0.285D-01 0.241D+00 0.829D+00
 Gap=     0.316 Goal=   None    Shift=    0.000
 Gap=     0.316 Goal=   None    Shift=    0.000
 RMSDP=2.08D-05 MaxDP=8.01D-04 DE=-3.36D-04 OVMax= 3.14D-03

 Cycle   7  Pass 0  IDiag  1:
 RMSU=  1.40D-05    CP:  9.85D-01  1.23D+00  9.61D-01  1.02D+00  1.20D+00
                    CP:  1.14D+00
 E= -3037.59496139866     Delta-E=       -0.000092688601 Rises=F Damp=F
 DIIS: error= 9.61D-05 at cycle   7 NSaved=   7.
 NSaved= 7 IEnMin= 7 EnMin= -3037.59496139866     IErMin= 7 ErrMin= 9.61D-05
 ErrMax= 9.61D-05  0.00D+00 EMaxC= 1.00D-01 BMatC= 3.55D-05 BMatP= 1.47D-04
 IDIUse=1 WtCom= 1.00D+00 WtEn= 0.00D+00
 Coeff-Com:  0.891D-03-0.222D-03-0.108D-01-0.525D-01-0.803D-01 0.290D+00
 Coeff-Com:  0.853D+00
 Coeff:      0.891D-03-0.222D-03-0.108D-01-0.525D-01-0.803D-01 0.290D+00
 Coeff:      0.853D+00
 Gap=     0.316 Goal=   None    Shift=    0.000
 Gap=     0.316 Goal=   None    Shift=    0.000
 RMSDP=1.44D-05 MaxDP=4.99D-04 DE=-9.27D-05 OVMax= 1.85D-03

 Cycle   8  Pass 0  IDiag  1:
 RMSU=  9.46D-06    CP:  9.85D-01  1.23D+00  9.63D-01  1.04D+00  1.26D+00
                    CP:  1.43D+00  1.31D+00
 E= -3037.59498751010     Delta-E=       -0.000026111443 Rises=F Damp=F
 DIIS: error= 3.76D-05 at cycle   8 NSaved=   8.
 NSaved= 8 IEnMin= 8 EnMin= -3037.59498751010     IErMin= 8 ErrMin= 3.76D-05
 ErrMax= 3.76D-05  0.00D+00 EMaxC= 1.00D-01 BMatC= 7.25D-06 BMatP= 3.55D-05
 IDIUse=1 WtCom= 1.00D+00 WtEn= 0.00D+00
 Coeff-Com: -0.463D-03 0.306D-02 0.260D-02-0.106D-01-0.826D-01-0.731D-01
 Coeff-Com:  0.299D+00 0.862D+00
 Coeff:     -0.463D-03 0.306D-02 0.260D-02-0.106D-01-0.826D-01-0.731D-01
 Coeff:      0.299D+00 0.862D+00
 Gap=     0.317 Goal=   None    Shift=    0.000
 Gap=     0.317 Goal=   None    Shift=    0.000
 RMSDP=1.27D-05 MaxDP=3.69D-04 DE=-2.61D-05 OVMax= 9.40D-04

 Cycle   9  Pass 0  IDiag  1:
 RMSU=  7.64D-06    CP:  9.85D-01  1.23D+00  9.64D-01  1.04D+00  1.29D+00
                    CP:  1.57D+00  1.80D+00  1.66D+00
 E= -3037.59499456805     Delta-E=       -0.000007057946 Rises=F Damp=F
 DIIS: error= 4.06D-05 at cycle   9 NSaved=   9.
 NSaved= 9 IEnMin= 9 EnMin= -3037.59499456805     IErMin= 8 ErrMin= 3.76D-05
 ErrMax= 4.06D-05  0.00D+00 EMaxC= 1.00D-01 BMatC= 2.07D-06 BMatP= 7.25D-06
 IDIUse=1 WtCom= 1.00D+00 WtEn= 0.00D+00
 Coeff-Com: -0.234D-03 0.113D-02 0.221D-02 0.252D-02-0.223D-01-0.625D-01
 Coeff-Com:  0.899D-02 0.332D+00 0.739D+00
 Coeff:     -0.234D-03 0.113D-02 0.221D-02 0.252D-02-0.223D-01-0.625D-01
 Coeff:      0.899D-02 0.332D+00 0.739D+00
 Gap=     0.317 Goal=   None    Shift=    0.000
 Gap=     0.317 Goal=   None    Shift=    0.000
 RMSDP=1.23D-05 MaxDP=4.45D-04 DE=-7.06D-06 OVMax= 2.26D-04

 Cycle  10  Pass 0  IDiag  1:
 RMSU=  6.11D-06    CP:  9.85D-01  1.23D+00  9.64D-01  1.04D+00  1.31D+00
                    CP:  1.63D+00  2.10D+00  2.44D+00  1.78D+00
 E= -3037.59499866797     Delta-E=       -0.000004099924 Rises=F Damp=F
 DIIS: error= 3.41D-05 at cycle  10 NSaved=  10.
 NSaved=10 IEnMin=10 EnMin= -3037.59499866797     IErMin=10 ErrMin= 3.41D-05
 ErrMax= 3.41D-05  0.00D+00 EMaxC= 1.00D-01 BMatC= 2.06D-06 BMatP= 2.07D-06
 IDIUse=1 WtCom= 1.00D+00 WtEn= 0.00D+00
 Coeff-Com: -0.187D-03 0.919D-03 0.178D-02 0.203D-02-0.185D-01-0.506D-01
 Coeff-Com:  0.917D-02 0.272D+00 0.590D+00 0.193D+00
 Coeff:     -0.187D-03 0.919D-03 0.178D-02 0.203D-02-0.185D-01-0.506D-01
 Coeff:      0.917D-02 0.272D+00 0.590D+00 0.193D+00
 Gap=     0.317 Goal=   None    Shift=    0.000
 Gap=     0.317 Goal=   None    Shift=    0.000
 RMSDP=3.46D-06 MaxDP=1.10D-04 DE=-4.10D-06 OVMax= 2.00D-05

 Initial convergence to 1.0D-05 achieved.  Increase integral accuracy.
 Cycle  11  Pass 1  IDiag  1:
 E= -3037.59438864465     Delta-E=        0.000610023322 Rises=F Damp=F
 DIIS: error= 3.30D-04 at cycle   1 NSaved=   1.
 NSaved= 1 IEnMin= 1 EnMin= -3037.59438864465     IErMin= 1 ErrMin= 3.30D-04
 ErrMax= 3.30D-04  0.00D+00 EMaxC= 1.00D-01 BMatC= 1.58D-04 BMatP= 1.58D-04
 IDIUse=3 WtCom= 9.97D-01 WtEn= 3.30D-03
 Coeff-Com:  0.100D+01
 Coeff-En:   0.100D+01
 Coeff:      0.100D+01
 Gap=     0.317 Goal=   None    Shift=    0.000
 Gap=     0.317 Goal=   None    Shift=    0.000
 RMSDP=3.46D-06 MaxDP=1.10D-04 DE= 6.10D-04 OVMax= 8.26D-04

 Cycle  12  Pass 1  IDiag  1:
 RMSU=  2.27D-04    CP:  9.99D-01
 E= -3037.59442311339     Delta-E=       -0.000034468740 Rises=F Damp=F
 DIIS: error= 1.59D-05 at cycle   2 NSaved=   2.
 NSaved= 2 IEnMin= 2 EnMin= -3037.59442311339     IErMin= 2 ErrMin= 1.59D-05
 ErrMax= 1.59D-05  0.00D+00 EMaxC= 1.00D-01 BMatC= 3.80D-07 BMatP= 1.58D-04
 IDIUse=1 WtCom= 1.00D+00 WtEn= 0.00D+00
 Coeff-Com: -0.394D-01 0.104D+01
 Coeff:     -0.394D-01 0.104D+01
 Gap=     0.317 Goal=   None    Shift=    0.000
 Gap=     0.317 Goal=   None    Shift=    0.000
 RMSDP=1.22D-05 MaxDP=6.42D-04 DE=-3.45D-05 OVMax= 7.03D-05

 Cycle  13  Pass 1  IDiag  1:
 RMSU=  3.43D-06    CP:  9.99D-01  1.05D+00
 E= -3037.59442330532     Delta-E=       -0.000000191934 Rises=F Damp=F
 DIIS: error= 2.67D-06 at cycle   3 NSaved=   3.
 NSaved= 3 IEnMin= 3 EnMin= -3037.59442330532     IErMin= 3 ErrMin= 2.67D-06
 ErrMax= 2.67D-06  0.00D+00 EMaxC= 1.00D-01 BMatC= 4.15D-08 BMatP= 3.80D-07
 IDIUse=1 WtCom= 1.00D+00 WtEn= 0.00D+00
 Coeff-Com: -0.104D-01 0.254D+00 0.756D+00
 Coeff:     -0.104D-01 0.254D+00 0.756D+00
 Gap=     0.317 Goal=   None    Shift=    0.000
 Gap=     0.317 Goal=   None    Shift=    0.000
 RMSDP=4.59D-07 MaxDP=1.60D-05 DE=-1.92D-07 OVMax= 3.10D-05

 Cycle  14  Pass 1  IDiag  1:
 RMSU=  2.66D-07    CP:  9.99D-01  1.05D+00  1.07D+00
 E= -3037.59442326655     Delta-E=        0.000000038771 Rises=F Damp=F
 DIIS: error= 1.48D-06 at cycle   4 NSaved=   4.
 NSaved= 4 IEnMin= 3 EnMin= -3037.59442330532     IErMin= 4 ErrMin= 1.48D-06
 ErrMax= 1.48D-06  0.00D+00 EMaxC= 1.00D-01 BMatC= 1.89D-08 BMatP= 4.15D-08
 IDIUse=1 WtCom= 1.00D+00 WtEn= 0.00D+00
 Coeff-Com:  0.286D-02-0.855D-01 0.385D+00 0.697D+00
 Coeff:      0.286D-02-0.855D-01 0.385D+00 0.697D+00
 Gap=     0.317 Goal=   None    Shift=    0.000
 Gap=     0.317 Goal=   None    Shift=    0.000
 RMSDP=2.51D-07 MaxDP=8.55D-06 DE= 3.88D-08 OVMax= 2.19D-05

 Cycle  15  Pass 1  IDiag  1:
 RMSU=  1.40D-07    CP:  9.99D-01  1.05D+00  1.12D+00  9.66D-01
 E= -3037.59442327928     Delta-E=       -0.000000012728 Rises=F Damp=F
 DIIS: error= 4.31D-07 at cycle   5 NSaved=   5.
 NSaved= 5 IEnMin= 3 EnMin= -3037.59442330532     IErMin= 5 ErrMin= 4.31D-07
 ErrMax= 4.31D-07  0.00D+00 EMaxC= 1.00D-01 BMatC= 1.01D-09 BMatP= 1.89D-08
 IDIUse=1 WtCom= 1.00D+00 WtEn= 0.00D+00
 Coeff-Com:  0.749D-03-0.177D-01-0.782D-01-0.340D-01 0.113D+01
 Coeff:      0.749D-03-0.177D-01-0.782D-01-0.340D-01 0.113D+01
 Gap=     0.317 Goal=   None    Shift=    0.000
 Gap=     0.317 Goal=   None    Shift=    0.000
 RMSDP=8.12D-08 MaxDP=3.16D-06 DE=-1.27D-08 OVMax= 1.38D-05

 Cycle  16  Pass 1  IDiag  1:
 RMSU=  4.96D-08    CP:  9.99D-01  1.05D+00  1.13D+00  1.11D+00  1.33D+00
 E= -3037.59442328225     Delta-E=       -0.000000002968 Rises=F Damp=F
 DIIS: error= 2.86D-07 at cycle   6 NSaved=   6.
 NSaved= 6 IEnMin= 3 EnMin= -3037.59442330532     IErMin= 6 ErrMin= 2.86D-07
 ErrMax= 2.86D-07  0.00D+00 EMaxC= 1.00D-01 BMatC= 5.07D-10 BMatP= 1.01D-09
 IDIUse=1 WtCom= 1.00D+00 WtEn= 0.00D+00
 Coeff-Com: -0.610D-03 0.205D-01-0.168D+00-0.257D+00 0.541D+00 0.864D+00
 Coeff:     -0.610D-03 0.205D-01-0.168D+00-0.257D+00 0.541D+00 0.864D+00
 Gap=     0.317 Goal=   None    Shift=    0.000
 Gap=     0.317 Goal=   None    Shift=    0.000
 RMSDP=5.19D-08 MaxDP=2.05D-06 DE=-2.97D-09 OVMax= 9.15D-06

 Cycle  17  Pass 1  IDiag  1:
 RMSU=  2.59D-08    CP:  9.99D-01  1.05D+00  1.13D+00  1.18D+00  1.59D+00
                    CP:  1.36D+00
 E= -3037.59442328201     Delta-E=        0.000000000233 Rises=F Damp=F
 DIIS: error= 8.76D-08 at cycle   7 NSaved=   7.
 NSaved= 7 IEnMin= 3 EnMin= -3037.59442330532     IErMin= 7 ErrMin= 8.76D-08
 ErrMax= 8.76D-08  0.00D+00 EMaxC= 1.00D-01 BMatC= 5.55D-11 BMatP= 5.07D-10
 IDIUse=1 WtCom= 1.00D+00 WtEn= 0.00D+00
 Coeff-Com: -0.345D-03 0.107D-01-0.602D-01-0.103D+00 0.890D-01 0.350D+00
 Coeff-Com:  0.714D+00
 Coeff:     -0.345D-03 0.107D-01-0.602D-01-0.103D+00 0.890D-01 0.350D+00
 Coeff:      0.714D+00
 Gap=     0.317 Goal=   None    Shift=    0.000
 Gap=     0.317 Goal=   None    Shift=    0.000
 RMSDP=1.38D-08 MaxDP=5.08D-07 DE= 2.33D-10 OVMax= 2.19D-06

 Cycle  18  Pass 1  IDiag  1:
 RMSU=  7.15D-09    CP:  9.99D-01  1.05D+00  1.13D+00  1.19D+00  1.62D+00
                    CP:  1.55D+00  1.12D+00
 E= -3037.59442328118     Delta-E=        0.000000000831 Rises=F Damp=F
 DIIS: error= 3.18D-08 at cycle   8 NSaved=   8.
 NSaved= 8 IEnMin= 3 EnMin= -3037.59442330532     IErMin= 8 ErrMin= 3.18D-08
 ErrMax= 3.18D-08  0.00D+00 EMaxC= 1.00D-01 BMatC= 6.26D-12 BMatP= 5.55D-11
 IDIUse=1 WtCom= 1.00D+00 WtEn= 0.00D+00
 Coeff-Com:  0.503D-04-0.189D-02 0.209D-01 0.299D-01-0.887D-01-0.968D-01
 Coeff-Com:  0.148D+00 0.988D+00
 Coeff:      0.503D-04-0.189D-02 0.209D-01 0.299D-01-0.887D-01-0.968D-01
 Coeff:      0.148D+00 0.988D+00
 Gap=     0.317 Goal=   None    Shift=    0.000
 Gap=     0.317 Goal=   None    Shift=    0.000
 RMSDP=7.55D-09 MaxDP=3.13D-07 DE= 8.31D-10 OVMax= 1.25D-06

 SCF Done:  E(ULC-wPBE) =  -3037.59442328     A.U. after   18 cycles
            NFock= 18  Conv=0.76D-08     -V/T= 2.0046
 <Sx>= 0.0000 <Sy>= 0.0000 <Sz>= 0.0000 <S**2>=-0.0000 S=-0.0000
 <L.S>= 0.000000000000E+00
 KE= 3.023651067199D+03 PE=-1.691933976461D+04 EE= 5.971453244768D+03
 Annihilation of the first spin contaminant:
 S**2 before annihilation    -0.0000,   after    -0.0000
 Leave Link  502 at Sun Jul 26 12:33:25 2020, MaxMem=  4026531840 cpu:            5439.5 elap:             694.1
 (Enter /opt/ohpc/pub/libs/gaussian/g16-A.03/sandybridge/g16/l601.exe)
 Copying SCF densities to generalized density rwf, IOpCl= 1 IROHF=0.

 **********************************************************************

            Population analysis using the SCF density.

 **********************************************************************

 Orbital symmetries:
 Alpha Orbitals:
       Occupied  (A) (A) (A) (A) (A) (A) (A) (A) (A) (A) (A) (A)
                 (A) (A) (A) (A) (A) (A) (A) (A) (A) (A) (A) (A)
                 (A) (A) (A) (A) (A) (A) (A) (A) (A) (A) (A) (A)
                 (A) (A) (A) (A) (A) (A) (A) (A) (A) (A) (A) (A)
                 (A) (A) (A) (A) (A) (A) (A) (A) (A) (A) (A) (A)
                 (A) (A) (A) (A) (A) (A) (A) (A) (A) (A) (A) (A)
                 (A) (A) (A) (A) (A) (A) (A) (A) (A) (A) (A) (A)
                 (A) (A) (A) (A) (A) (A) (A) (A) (A) (A) (A) (A)
                 (A) (A) (A) (A) (A) (A) (A) (A) (A) (A) (A) (A)
                 (A) (A) (A) (A) (A) (A) (A) (A) (A) (A) (A) (A)
                 (A) (A) (A) (A) (A) (A) (A) (A) (A) (A) (A) (A)
                 (A) (A) (A) (A) (A) (A) (A) (A) (A) (A) (A) (A)
                 (A) (A) (A) (A) (A) (A) (A) (A) (A) (A) (A) (A)
                 (A) (A) (A) (A)
       Virtual   (A) (A) (A) (A) (A) (A) (A) (A) (A) (A) (A) (A)
                 (A) (A) (A) (A) (A) (A) (A) (A) (A) (A) (A) (A)
                 (A) (A) (A) (A) (A) (A) (A) (A) (A) (A) (A) (A)
                 (A) (A) (A) (A) (A) (A) (A) (A) (A) (A) (A) (A)
                 (A) (A) (A) (A) (A) (A) (A) (A) (A) (A) (A) (A)
                 (A) (A) (A) (A) (A) (A) (A) (A) (A) (A) (A) (A)
                 (A) (A) (A) (A) (A) (A) (A) (A) (A) (A) (A) (A)
                 (A) (A) (A) (A) (A) (A) (A) (A) (A) (A) (A) (A)
                 (A) (A) (A) (A) (A) (A) (A) (A) (A) (A) (A) (A)
                 (A) (A) (A) (A) (A) (A) (A) (A) (A) (A) (A) (A)
                 (A) (A) (A) (A) (A) (A) (A) (A) (A) (A) (A) (A)
                 (A) (A) (A) (A) (A) (A) (A) (A) (A) (A) (A) (A)
                 (A) (A) (A) (A) (A) (A) (A) (A) (A) (A) (A) (A)
                 (A) (A) (A) (A) (A) (A) (A) (A) (A) (A) (A) (A)
                 (A) (A) (A) (A) (A) (A) (A) (A) (A) (A) (A) (A)
                 (A) (A) (A) (A) (A) (A) (A) (A) (A) (A) (A) (A)
                 (A) (A) (A) (A) (A) (A) (A) (A) (A) (A) (A) (A)
                 (A) (A) (A) (A) (A) (A) (A) (A) (A) (A) (A) (A)
                 (A) (A) (A) (A) (A) (A) (A) (A) (A) (A) (A) (A)
                 (A) (A) (A) (A) (A) (A) (A) (A) (A) (A) (A) (A)
                 (A) (A) (A) (A) (A) (A) (A) (A) (A) (A) (A) (A)
                 (A) (A) (A) (A) (A) (A) (A) (A) (A) (A) (A) (A)
                 (A) (A) (A) (A) (A) (A) (A) (A) (A) (A) (A) (A)
                 (A) (A) (A) (A) (A) (A) (A) (A) (A) (A) (A) (A)
                 (A) (A) (A) (A) (A) (A) (A) (A) (A) (A) (A) (A)
                 (A) (A) (A) (A) (A) (A) (A) (A) (A) (A) (A) (A)
                 (A) (A) (A) (A) (A) (A) (A) (A) (A) (A) (A) (A)
                 (A) (A) (A) (A) (A) (A) (A) (A) (A) (A) (A) (A)
                 (A) (A) (A) (A) (A) (A) (A) (A) (A) (A) (A) (A)
                 (A) (A) (A) (A) (A) (A) (A) (A) (A) (A) (A) (A)
                 (A) (A) (A) (A) (A) (A) (A) (A) (A) (A) (A) (A)
                 (A) (A) (A) (A) (A) (A) (A) (A) (A) (A) (A) (A)
                 (A) (A) (A) (A) (A) (A) (A) (A) (A) (A) (A) (A)
                 (A) (A) (A) (A) (A) (A) (A) (A) (A) (A) (A) (A)
                 (A) (A) (A) (A) (A) (A) (A) (A) (A) (A) (A) (A)
                 (A) (A) (A) (A) (A) (A) (A) (A) (A) (A) (A) (A)
                 (A) (A) (A) (A) (A) (A) (A) (A) (A) (A) (A) (A)
                 (A) (A) (A) (A) (A) (A) (A) (A) (A) (A) (A) (A)
                 (A) (A) (A) (A) (A) (A) (A) (A) (A) (A) (A) (A)
                 (A) (A) (A) (A) (A) (A) (A) (A) (A) (A) (A) (A)
                 (A) (A) (A) (A) (A) (A) (A) (A) (A) (A) (A) (A)
                 (A) (A) (A) (A) (A) (A) (A) (A) (A) (A) (A) (A)
                 (A) (A) (A) (A) (A) (A) (A) (A) (A) (A) (A) (A)
                 (A) (A) (A) (A) (A) (A) (A) (A) (A) (A) (A) (A)
                 (A) (A) (A) (A) (A) (A) (A) (A) (A) (A) (A) (A)
 Beta  Orbitals:
       Occupied  (A) (A) (A) (A) (A) (A) (A) (A) (A) (A) (A) (A)
                 (A) (A) (A) (A) (A) (A) (A) (A) (A) (A) (A) (A)
                 (A) (A) (A) (A) (A) (A) (A) (A) (A) (A) (A) (A)
                 (A) (A) (A) (A) (A) (A) (A) (A) (A) (A) (A) (A)
                 (A) (A) (A) (A) (A) (A) (A) (A) (A) (A) (A) (A)
                 (A) (A) (A) (A) (A) (A) (A) (A) (A) (A) (A) (A)
                 (A) (A) (A) (A) (A) (A) (A) (A) (A) (A) (A) (A)
                 (A) (A) (A) (A) (A) (A) (A) (A) (A) (A) (A) (A)
                 (A) (A) (A) (A) (A) (A) (A) (A) (A) (A) (A) (A)
                 (A) (A) (A) (A) (A) (A) (A) (A) (A) (A) (A) (A)
                 (A) (A) (A) (A) (A) (A) (A) (A) (A) (A) (A) (A)
                 (A) (A) (A) (A) (A) (A) (A) (A) (A) (A) (A) (A)
                 (A) (A) (A) (A) (A) (A) (A) (A) (A) (A) (A) (A)
                 (A) (A) (A) (A)
       Virtual   (A) (A) (A) (A) (A) (A) (A) (A) (A) (A) (A) (A)
                 (A) (A) (A) (A) (A) (A) (A) (A) (A) (A) (A) (A)
                 (A) (A) (A) (A) (A) (A) (A) (A) (A) (A) (A) (A)
                 (A) (A) (A) (A) (A) (A) (A) (A) (A) (A) (A) (A)
                 (A) (A) (A) (A) (A) (A) (A) (A) (A) (A) (A) (A)
                 (A) (A) (A) (A) (A) (A) (A) (A) (A) (A) (A) (A)
                 (A) (A) (A) (A) (A) (A) (A) (A) (A) (A) (A) (A)
                 (A) (A) (A) (A) (A) (A) (A) (A) (A) (A) (A) (A)
                 (A) (A) (A) (A) (A) (A) (A) (A) (A) (A) (A) (A)
                 (A) (A) (A) (A) (A) (A) (A) (A) (A) (A) (A) (A)
                 (A) (A) (A) (A) (A) (A) (A) (A) (A) (A) (A) (A)
                 (A) (A) (A) (A) (A) (A) (A) (A) (A) (A) (A) (A)
                 (A) (A) (A) (A) (A) (A) (A) (A) (A) (A) (A) (A)
                 (A) (A) (A) (A) (A) (A) (A) (A) (A) (A) (A) (A)
                 (A) (A) (A) (A) (A) (A) (A) (A) (A) (A) (A) (A)
                 (A) (A) (A) (A) (A) (A) (A) (A) (A) (A) (A) (A)
                 (A) (A) (A) (A) (A) (A) (A) (A) (A) (A) (A) (A)
                 (A) (A) (A) (A) (A) (A) (A) (A) (A) (A) (A) (A)
                 (A) (A) (A) (A) (A) (A) (A) (A) (A) (A) (A) (A)
                 (A) (A) (A) (A) (A) (A) (A) (A) (A) (A) (A) (A)
                 (A) (A) (A) (A) (A) (A) (A) (A) (A) (A) (A) (A)
                 (A) (A) (A) (A) (A) (A) (A) (A) (A) (A) (A) (A)
                 (A) (A) (A) (A) (A) (A) (A) (A) (A) (A) (A) (A)
                 (A) (A) (A) (A) (A) (A) (A) (A) (A) (A) (A) (A)
                 (A) (A) (A) (A) (A) (A) (A) (A) (A) (A) (A) (A)
                 (A) (A) (A) (A) (A) (A) (A) (A) (A) (A) (A) (A)
                 (A) (A) (A) (A) (A) (A) (A) (A) (A) (A) (A) (A)
                 (A) (A) (A) (A) (A) (A) (A) (A) (A) (A) (A) (A)
                 (A) (A) (A) (A) (A) (A) (A) (A) (A) (A) (A) (A)
                 (A) (A) (A) (A) (A) (A) (A) (A) (A) (A) (A) (A)
                 (A) (A) (A) (A) (A) (A) (A) (A) (A) (A) (A) (A)
                 (A) (A) (A) (A) (A) (A) (A) (A) (A) (A) (A) (A)
                 (A) (A) (A) (A) (A) (A) (A) (A) (A) (A) (A) (A)
                 (A) (A) (A) (A) (A) (A) (A) (A) (A) (A) (A) (A)
                 (A) (A) (A) (A) (A) (A) (A) (A) (A) (A) (A) (A)
                 (A) (A) (A) (A) (A) (A) (A) (A) (A) (A) (A) (A)
                 (A) (A) (A) (A) (A) (A) (A) (A) (A) (A) (A) (A)
                 (A) (A) (A) (A) (A) (A) (A) (A) (A) (A) (A) (A)
                 (A) (A) (A) (A) (A) (A) (A) (A) (A) (A) (A) (A)
                 (A) (A) (A) (A) (A) (A) (A) (A) (A) (A) (A) (A)
                 (A) (A) (A) (A) (A) (A) (A) (A) (A) (A) (A) (A)
                 (A) (A) (A) (A) (A) (A) (A) (A) (A) (A) (A) (A)
                 (A) (A) (A) (A) (A) (A) (A) (A) (A) (A) (A) (A)
                 (A) (A) (A) (A) (A) (A) (A) (A) (A) (A) (A) (A)
                 (A) (A) (A) (A) (A) (A) (A) (A) (A) (A) (A) (A)
 The electronic state is 1-A.
 Alpha  occ. eigenvalues --  -88.34043 -88.33072 -88.32949 -24.52264 -24.50074
 Alpha  occ. eigenvalues --  -24.50004 -19.03531 -19.02917 -19.02676 -14.22256
 Alpha  occ. eigenvalues --  -14.22001 -14.21023 -10.22676 -10.22245 -10.21584
 Alpha  occ. eigenvalues --  -10.21283 -10.21259 -10.21131 -10.20322 -10.20252
 Alpha  occ. eigenvalues --  -10.19060 -10.19054 -10.18540 -10.18159 -10.17089
 Alpha  occ. eigenvalues --  -10.17054 -10.16912 -10.16628 -10.16303 -10.15806
 Alpha  occ. eigenvalues --  -10.15620 -10.15404 -10.15341 -10.15068 -10.15000
 Alpha  occ. eigenvalues --  -10.14820 -10.14631 -10.14446 -10.13744 -10.13686
 Alpha  occ. eigenvalues --  -10.13664 -10.13636  -7.94816  -7.94058  -7.93784
 Alpha  occ. eigenvalues --   -5.96251  -5.95765  -5.95455  -5.95449  -5.95261
 Alpha  occ. eigenvalues --   -5.94944  -5.94731  -5.94726  -5.94358  -1.38575
 Alpha  occ. eigenvalues --   -1.34779  -1.33670  -1.22486  -1.21444  -1.20225
 Alpha  occ. eigenvalues --   -1.14183  -1.13752  -1.11501  -1.03999  -1.03396
 Alpha  occ. eigenvalues --   -1.02867  -0.98535  -0.97496  -0.96238  -0.95216
 Alpha  occ. eigenvalues --   -0.93570  -0.92579  -0.91710  -0.91508  -0.91218
 Alpha  occ. eigenvalues --   -0.90124  -0.88045  -0.87120  -0.86647  -0.85769
 Alpha  occ. eigenvalues --   -0.84862  -0.80902  -0.78801  -0.77672  -0.75887
 Alpha  occ. eigenvalues --   -0.75740  -0.75284  -0.73787  -0.72278  -0.71655
 Alpha  occ. eigenvalues --   -0.71069  -0.70724  -0.70167  -0.68510  -0.67264
 Alpha  occ. eigenvalues --   -0.66807  -0.66173  -0.65789  -0.65377  -0.64170
 Alpha  occ. eigenvalues --   -0.64045  -0.62961  -0.62859  -0.62567  -0.62268
 Alpha  occ. eigenvalues --   -0.62057  -0.62013  -0.61463  -0.61243  -0.60508
 Alpha  occ. eigenvalues --   -0.59896  -0.59655  -0.59123  -0.58605  -0.58094
 Alpha  occ. eigenvalues --   -0.57722  -0.57480  -0.56444  -0.56052  -0.55928
 Alpha  occ. eigenvalues --   -0.55344  -0.55262  -0.54978  -0.54074  -0.53911
 Alpha  occ. eigenvalues --   -0.52697  -0.52146  -0.52006  -0.51758  -0.51014
 Alpha  occ. eigenvalues --   -0.50985  -0.50240  -0.49761  -0.49576  -0.49251
 Alpha  occ. eigenvalues --   -0.48984  -0.48266  -0.47848  -0.47012  -0.46907
 Alpha  occ. eigenvalues --   -0.46583  -0.45789  -0.45091  -0.44694  -0.44062
 Alpha  occ. eigenvalues --   -0.40540  -0.40027  -0.40014  -0.39484  -0.38395
 Alpha  occ. eigenvalues --   -0.38200  -0.37860  -0.37333  -0.36678  -0.35041
 Alpha  occ. eigenvalues --   -0.34963  -0.34280  -0.33949  -0.32861  -0.31402
 Alpha virt. eigenvalues --    0.00262   0.02916   0.05197   0.06232   0.06831
 Alpha virt. eigenvalues --    0.07640   0.07964   0.08387   0.08715   0.12153
 Alpha virt. eigenvalues --    0.12650   0.13738   0.14437   0.14603   0.14921
 Alpha virt. eigenvalues --    0.15279   0.15647   0.16048   0.16229   0.17214
 Alpha virt. eigenvalues --    0.17670   0.18656   0.18847   0.19429   0.19912
 Alpha virt. eigenvalues --    0.20061   0.20292   0.20648   0.21211   0.21391
 Alpha virt. eigenvalues --    0.21494   0.22013   0.22060   0.22220   0.22584
 Alpha virt. eigenvalues --    0.22926   0.23495   0.23840   0.24061   0.24478
 Alpha virt. eigenvalues --    0.24700   0.25678   0.26158   0.26253   0.28150
 Alpha virt. eigenvalues --    0.28292   0.28571   0.31347   0.31482   0.32758
 Alpha virt. eigenvalues --    0.33273   0.33532   0.34531   0.34770   0.35729
 Alpha virt. eigenvalues --    0.35815   0.36629   0.36983   0.37407   0.38790
 Alpha virt. eigenvalues --    0.39500   0.40376   0.41409   0.41839   0.43521
 Alpha virt. eigenvalues --    0.43993   0.44607   0.44866   0.45270   0.45329
 Alpha virt. eigenvalues --    0.46293   0.47508   0.47747   0.48212   0.48653
 Alpha virt. eigenvalues --    0.48959   0.50072   0.51063   0.51794   0.52036
 Alpha virt. eigenvalues --    0.52711   0.53091   0.53268   0.53730   0.53810
 Alpha virt. eigenvalues --    0.54502   0.54811   0.54876   0.54999   0.55529
 Alpha virt. eigenvalues --    0.55795   0.55883   0.56006   0.56365   0.56734
 Alpha virt. eigenvalues --    0.57080   0.57332   0.57644   0.57820   0.58051
 Alpha virt. eigenvalues --    0.58264   0.58588   0.58783   0.58991   0.59120
 Alpha virt. eigenvalues --    0.59224   0.59613   0.59955   0.60151   0.60199
 Alpha virt. eigenvalues --    0.60770   0.61089   0.61215   0.61690   0.62027
 Alpha virt. eigenvalues --    0.62427   0.62504   0.62757   0.63167   0.63804
 Alpha virt. eigenvalues --    0.64178   0.64187   0.64439   0.64875   0.65275
 Alpha virt. eigenvalues --    0.65512   0.65964   0.66236   0.66524   0.66597
 Alpha virt. eigenvalues --    0.66831   0.67300   0.67494   0.68167   0.68694
 Alpha virt. eigenvalues --    0.68870   0.69218   0.69458   0.69755   0.69945
 Alpha virt. eigenvalues --    0.70557   0.70914   0.71222   0.71540   0.71738
 Alpha virt. eigenvalues --    0.71993   0.72515   0.72690   0.73039   0.73666
 Alpha virt. eigenvalues --    0.74225   0.74770   0.74895   0.74964   0.75333
 Alpha virt. eigenvalues --    0.75983   0.76388   0.76789   0.76840   0.77130
 Alpha virt. eigenvalues --    0.77374   0.77526   0.77771   0.78086   0.78635
 Alpha virt. eigenvalues --    0.79321   0.79954   0.80291   0.80397   0.80784
 Alpha virt. eigenvalues --    0.81057   0.81959   0.82401   0.82850   0.83202
 Alpha virt. eigenvalues --    0.83761   0.84017   0.84331   0.85009   0.85405
 Alpha virt. eigenvalues --    0.85847   0.86055   0.87342   0.87668   0.87791
 Alpha virt. eigenvalues --    0.88448   0.88722   0.88992   0.89416   0.90158
 Alpha virt. eigenvalues --    0.91350   0.91919   0.92377   0.93025   0.93378
 Alpha virt. eigenvalues --    0.93807   0.94747   0.95655   0.95897   0.96502
 Alpha virt. eigenvalues --    0.97327   0.97561   0.98218   0.98686   0.99273
[...]
    60   Atom       -0.000000      0.000000      0.000000
    61   Atom       -0.000000      0.000000     -0.000000
    62   Atom       -0.000000      0.000000     -0.000000
 --------------------------------------------------------


 ---------------------------------------------------------------------------------
              Anisotropic Spin Dipole Couplings in Principal Axis System
 ---------------------------------------------------------------------------------

       Atom             a.u.   MegaHertz   Gauss  10(-4) cm-1        Axes

              Baa    -0.0000    -0.000    -0.000    -0.000 -0.4043  0.6671 -0.6257
     1 C(13)  Bbb     0.0000     0.000     0.000     0.000 -0.6788  0.2397  0.6942
              Bcc     0.0000     0.000     0.000     0.000  0.6130  0.7053  0.3559
 
              Baa    -0.0000    -0.000    -0.000    -0.000 -0.3625  0.4233  0.8303
     2 C(13)  Bbb    -0.0000    -0.000    -0.000    -0.000 -0.2511  0.8136 -0.5244
              Bcc     0.0000     0.000     0.000     0.000  0.8975  0.3986  0.1886
 
              Baa    -0.0000    -0.000    -0.000    -0.000  0.5059 -0.2136  0.8357
     3 C(13)  Bbb     0.0000     0.000     0.000     0.000  0.8201 -0.1811 -0.5428
              Bcc     0.0000     0.000     0.000     0.000  0.2673  0.9600  0.0836
 
              Baa    -0.0000    -0.000    -0.000    -0.000  0.8727 -0.4772  0.1036
     4 F(19)  Bbb     0.0000     0.000     0.000     0.000 -0.0696  0.0884  0.9936
              Bcc     0.0000     0.000     0.000     0.000  0.4833  0.8744 -0.0440
 
              Baa    -0.0000    -0.000    -0.000    -0.000  0.6194  0.7640 -0.1804
     5 C(13)  Bbb    -0.0000    -0.000    -0.000    -0.000 -0.5021  0.5622  0.6571
              Bcc     0.0000     0.000     0.000     0.000  0.6035 -0.3164  0.7319
 
              Baa    -0.0000    -0.000    -0.000    -0.000 -0.2227  0.9404 -0.2570
     6 C(13)  Bbb    -0.0000    -0.000    -0.000    -0.000  0.8733  0.3096  0.3761
              Bcc     0.0000     0.000     0.000     0.000 -0.4332  0.1407  0.8902
 
              Baa    -0.0000     0.000     0.000     0.000 -0.4225  0.8866 -0.1880
     7 O(17)  Bbb     0.0000    -0.000    -0.000    -0.000 -0.3763  0.0171  0.9263
              Bcc     0.0000    -0.000    -0.000    -0.000  0.8245  0.4621  0.3264
 
              Baa    -0.0000    -0.000    -0.000    -0.000 -0.1409  0.9215 -0.3619
     8 C(13)  Bbb     0.0000     0.000     0.000     0.000  0.1355  0.3801  0.9150
              Bcc     0.0000     0.000     0.000     0.000  0.9807  0.0798 -0.1784
 
              Baa    -0.0000    -0.000    -0.000    -0.000  0.2358  0.9343  0.2673
     9 C(13)  Bbb     0.0000     0.000     0.000     0.000 -0.1262 -0.2433  0.9617
              Bcc     0.0000     0.000     0.000     0.000  0.9636 -0.2605  0.0605
 
              Baa    -0.0000    -0.000    -0.000    -0.000 -0.6141  0.7385  0.2783
    10 C(13)  Bbb    -0.0000    -0.000    -0.000    -0.000  0.7232  0.3854  0.5731
              Bcc     0.0000     0.000     0.000     0.000 -0.3160 -0.5532  0.7708
 
              Baa    -0.0000    -0.000    -0.000    -0.000  0.0238  0.9984 -0.0521
    11 N(14)  Bbb    -0.0000    -0.000    -0.000    -0.000  0.0296  0.0514  0.9982
              Bcc     0.0000     0.000     0.000     0.000  0.9993 -0.0253 -0.0283
 
              Baa    -0.0000    -0.000    -0.000    -0.000  0.6804 -0.4884 -0.5463
    12 C(13)  Bbb     0.0000     0.000     0.000     0.000  0.7324  0.4297  0.5282
              Bcc     0.0000     0.000     0.000     0.000  0.0232  0.7595 -0.6501
 
              Baa    -0.0000    -0.000    -0.000    -0.000  0.8156 -0.4276 -0.3899
    13 C(13)  Bbb     0.0000     0.000     0.000     0.000  0.2064  0.8444 -0.4945
              Bcc     0.0000     0.000     0.000     0.000  0.5406  0.3228  0.7769
 
              Baa    -0.0000    -0.000    -0.000    -0.000 -0.3725 -0.4646  0.8033
    14 S(33)  Bbb    -0.0000    -0.000    -0.000    -0.000  0.9110 -0.0180  0.4121
              Bcc     0.0000     0.000     0.000     0.000 -0.1770  0.8853  0.4300
 
              Baa    -0.0000    -0.000    -0.000    -0.000  0.6014  0.7662  0.2266
    15 C(13)  Bbb    -0.0000    -0.000    -0.000    -0.000 -0.1478 -0.1721  0.9739
              Bcc     0.0000     0.000     0.000     0.000  0.7852 -0.6192  0.0097
 
              Baa    -0.0000    -0.000    -0.000    -0.000  0.9230 -0.0665  0.3789
    16 C(13)  Bbb    -0.0000    -0.000    -0.000    -0.000 -0.3668  0.1449  0.9189
              Bcc     0.0000     0.000     0.000     0.000  0.1160  0.9872 -0.1093
 
              Baa    -0.0000    -0.000    -0.000    -0.000  0.4512  0.8504 -0.2707
    17 C(13)  Bbb     0.0000     0.000     0.000     0.000 -0.1681  0.3789  0.9101
              Bcc     0.0000     0.000     0.000     0.000  0.8764 -0.3652  0.3139
 
              Baa    -0.0000    -0.000    -0.000    -0.000  0.9336 -0.3462  0.0925
    18 F(19)  Bbb    -0.0000    -0.000    -0.000    -0.000 -0.0232  0.1992  0.9797
              Bcc     0.0000     0.000     0.000     0.000  0.3576  0.9168 -0.1779
 
              Baa    -0.0000    -0.000    -0.000    -0.000  0.7209  0.5527 -0.4181
    19 C(13)  Bbb    -0.0000    -0.000    -0.000    -0.000  0.5107 -0.0160  0.8596
              Bcc     0.0000     0.000     0.000     0.000 -0.4684  0.8332  0.2938
 
              Baa    -0.0000    -0.000    -0.000    -0.000 -0.5687  0.7544 -0.3278
    20 C(13)  Bbb    -0.0000    -0.000    -0.000    -0.000  0.0567  0.4335  0.8994
              Bcc     0.0000     0.000     0.000     0.000  0.8206  0.4929 -0.2893
 
              Baa    -0.0000     0.000     0.000     0.000  0.8064  0.5194 -0.2827
    21 O(17)  Bbb     0.0000    -0.000    -0.000    -0.000 -0.3158  0.7824  0.5367
              Bcc     0.0000    -0.000    -0.000    -0.000  0.5000 -0.3435  0.7950
 
              Baa    -0.0000    -0.000    -0.000    -0.000 -0.0326  0.9856  0.1661
    22 C(13)  Bbb     0.0000     0.000     0.000     0.000  0.8398 -0.0632  0.5393
              Bcc     0.0000     0.000     0.000     0.000 -0.5420 -0.1571  0.8256
 
              Baa    -0.0000    -0.000    -0.000    -0.000  0.1346  0.4410  0.8873
    23 C(13)  Bbb     0.0000     0.000     0.000     0.000  0.2086  0.8628 -0.4605
              Bcc     0.0000     0.000     0.000     0.000  0.9687 -0.2471 -0.0242
 
              Baa    -0.0000    -0.000    -0.000    -0.000  0.9409 -0.2901 -0.1748
    24 C(13)  Bbb     0.0000     0.000     0.000     0.000  0.3374  0.7581  0.5580
              Bcc     0.0000     0.000     0.000     0.000 -0.0293 -0.5840  0.8112
 
              Baa    -0.0000    -0.000    -0.000    -0.000  0.2765  0.9216  0.2723
    25 N(14)  Bbb     0.0000     0.000     0.000     0.000  0.9518 -0.2234 -0.2103
              Bcc     0.0000     0.000     0.000     0.000  0.1330 -0.3174  0.9389
 
              Baa    -0.0000    -0.000    -0.000    -0.000 -0.0962 -0.2303  0.9684
    26 C(13)  Bbb     0.0000     0.000     0.000     0.000  0.6148  0.7514  0.2398
              Bcc     0.0000     0.000     0.000     0.000  0.7828 -0.6184 -0.0693
 
              Baa    -0.0000    -0.000    -0.000    -0.000  0.8328  0.4224  0.3577
    27 C(13)  Bbb    -0.0000    -0.000    -0.000    -0.000 -0.4265  0.9016 -0.0718
              Bcc     0.0000     0.000     0.000     0.000 -0.3528 -0.0928  0.9311
 
              Baa    -0.0000    -0.000    -0.000    -0.000  0.7413 -0.5732  0.3492
    28 S(33)  Bbb    -0.0000    -0.000    -0.000    -0.000  0.6620  0.5382 -0.5217
              Bcc     0.0000     0.000     0.000     0.000  0.1111  0.6179  0.7784
 
              Baa    -0.0000    -0.000    -0.000    -0.000 -0.0055  0.9916 -0.1291
    29 C(13)  Bbb     0.0000     0.000     0.000     0.000 -0.1180  0.1276  0.9848
              Bcc     0.0000     0.000     0.000     0.000  0.9930  0.0206  0.1163
 
              Baa    -0.0000    -0.000    -0.000    -0.000 -0.3469  0.9240 -0.1607
    30 C(13)  Bbb    -0.0000    -0.000    -0.000    -0.000 -0.4150  0.0024  0.9098
              Bcc     0.0000     0.000     0.000     0.000  0.8411  0.3824  0.3827
 
              Baa    -0.0000    -0.000    -0.000    -0.000  0.2232  0.9599 -0.1696
    31 C(13)  Bbb    -0.0000    -0.000    -0.000    -0.000  0.9704 -0.2353 -0.0544
              Bcc     0.0000     0.000     0.000     0.000  0.0921  0.1524  0.9840
 
              Baa    -0.0000    -0.000    -0.000    -0.000 -0.2739 -0.1330  0.9525
    32 F(19)  Bbb    -0.0000    -0.000    -0.000    -0.000  0.8434  0.4427  0.3044
              Bcc     0.0000     0.000     0.000     0.000 -0.4622  0.8867 -0.0091
 
              Baa    -0.0000    -0.000    -0.000    -0.000  0.1663  0.1786  0.9698
    33 C(13)  Bbb    -0.0000    -0.000    -0.000    -0.000  0.8877  0.4012 -0.2261
              Bcc     0.0000     0.000     0.000     0.000 -0.4294  0.8984 -0.0918
 
              Baa    -0.0000    -0.000    -0.000    -0.000  0.9257  0.2053 -0.3177
    34 C(13)  Bbb     0.0000     0.000     0.000     0.000 -0.2454  0.9651 -0.0915
              Bcc     0.0000     0.000     0.000     0.000  0.2879  0.1626  0.9438
 
              Baa    -0.0000     0.000     0.000     0.000 -0.4136  0.8564 -0.3091
    35 O(17)  Bbb     0.0000    -0.000    -0.000    -0.000  0.9000  0.3333 -0.2810
              Bcc     0.0000    -0.000    -0.000    -0.000  0.1376  0.3944  0.9086
 
              Baa    -0.0000    -0.000    -0.000    -0.000  0.0589  0.9955  0.0738
    36 C(13)  Bbb     0.0000     0.000     0.000     0.000 -0.2795 -0.0545  0.9586
              Bcc     0.0000     0.000     0.000     0.000  0.9583 -0.0771  0.2750
 
              Baa    -0.0000    -0.000    -0.000    -0.000  0.2531  0.1548  0.9550
    37 C(13)  Bbb    -0.0000    -0.000    -0.000    -0.000  0.8449 -0.5162 -0.1403
              Bcc     0.0000     0.000     0.000     0.000  0.4712  0.8424 -0.2614
 
              Baa    -0.0000    -0.000    -0.000    -0.000  0.9265  0.3492 -0.1404
    38 C(13)  Bbb    -0.0000    -0.000    -0.000    -0.000 -0.3650  0.7425 -0.5616
              Bcc     0.0000     0.000     0.000     0.000 -0.0918  0.5716  0.8154
 
              Baa    -0.0000    -0.000    -0.000    -0.000  0.9333 -0.0238  0.3582
    39 N(14)  Bbb     0.0000     0.000     0.000     0.000  0.2402  0.7828 -0.5740
              Bcc     0.0000     0.000     0.000     0.000 -0.2667  0.6218  0.7363
 
              Baa    -0.0000    -0.000    -0.000    -0.000  0.9875  0.0584  0.1467
    40 C(13)  Bbb    -0.0000    -0.000    -0.000    -0.000 -0.1436  0.7184  0.6807
              Bcc     0.0000     0.000     0.000     0.000 -0.0656 -0.6932  0.7177
 
              Baa    -0.0000    -0.000    -0.000    -0.000  0.8110 -0.5310 -0.2456
    41 C(13)  Bbb    -0.0000    -0.000    -0.000    -0.000 -0.1013 -0.5409  0.8349
              Bcc     0.0000     0.000     0.000     0.000  0.5762  0.6522  0.4925
 
              Baa    -0.0000    -0.000    -0.000    -0.000  0.1680  0.7919  0.5870
    42 S(33)  Bbb     0.0000     0.000     0.000     0.000  0.4198 -0.5963  0.6843
              Bcc     0.0000     0.000     0.000     0.000  0.8920  0.1315 -0.4326
 
              Baa    -0.0000    -0.000    -0.000    -0.000 -0.3318  0.2341  0.9138
    43 H(1)   Bbb    -0.0000    -0.000    -0.000    -0.000  0.5237  0.8515 -0.0280
              Bcc     0.0000     0.000     0.000     0.000  0.7847 -0.4692  0.4051
 
              Baa    -0.0000    -0.000    -0.000    -0.000  0.8845  0.1993 -0.4219
    44 H(1)   Bbb    -0.0000    -0.000    -0.000    -0.000  0.2687  0.5216  0.8098
              Bcc     0.0000     0.000     0.000     0.000 -0.3814  0.8296 -0.4078
 
              Baa    -0.0000    -0.000    -0.000    -0.000  0.2604  0.9538  0.1498
    45 H(1)   Bbb     0.0000     0.000     0.000     0.000  0.8489 -0.1523 -0.5062
              Bcc     0.0000     0.000     0.000     0.000  0.4600 -0.2589  0.8493
 
              Baa    -0.0000    -0.000    -0.000    -0.000 -0.0878  0.9597 -0.2668
    46 H(1)   Bbb    -0.0000    -0.000    -0.000    -0.000 -0.3061  0.2289  0.9241
              Bcc     0.0000     0.000     0.000     0.000  0.9480  0.1628  0.2737
 
              Baa    -0.0000    -0.000    -0.000    -0.000  0.3630  0.9298 -0.0608
    47 H(1)   Bbb     0.0000     0.000     0.000     0.000  0.6166 -0.1908  0.7638
              Bcc     0.0000     0.000     0.000     0.000  0.6986 -0.3147 -0.6426
 
              Baa    -0.0000    -0.000    -0.000    -0.000  0.4645  0.8747 -0.1385
    48 H(1)   Bbb     0.0000     0.000     0.000     0.000  0.7915 -0.3399  0.5080
              Bcc     0.0000     0.000     0.000     0.000 -0.3973  0.3456  0.8501
 
              Baa    -0.0000    -0.000    -0.000    -0.000  0.4169  0.9078 -0.0449
    49 H(1)   Bbb    -0.0000    -0.000    -0.000    -0.000  0.6200 -0.2479  0.7444
              Bcc     0.0000     0.000     0.000     0.000 -0.6647  0.3382  0.6662
 
              Baa    -0.0000    -0.000    -0.000    -0.000 -0.0040  0.2649  0.9643
    50 H(1)   Bbb    -0.0000    -0.000    -0.000    -0.000  0.9203  0.3781 -0.1000
              Bcc     0.0000     0.000     0.000     0.000 -0.3911  0.8870 -0.2454
 
              Baa    -0.0000    -0.000    -0.000    -0.000  0.4259  0.7438 -0.5151
    51 H(1)   Bbb     0.0000     0.000     0.000     0.000  0.7040 -0.6301 -0.3277
              Bcc     0.0000     0.000     0.000     0.000  0.5683  0.2231  0.7920
 
              Baa    -0.0000    -0.000    -0.000    -0.000  0.7278  0.3219  0.6056
    52 H(1)   Bbb    -0.0000    -0.000    -0.000    -0.000 -0.1760  0.9411 -0.2888
              Bcc     0.0000     0.000     0.000     0.000 -0.6628  0.1036  0.7416
 
              Baa    -0.0000    -0.000    -0.000    -0.000  0.7000 -0.6624  0.2670
    53 H(1)   Bbb     0.0000     0.000     0.000     0.000  0.5752  0.7445  0.3390
              Bcc     0.0000     0.000     0.000     0.000 -0.4233 -0.0837  0.9021
 
              Baa    -0.0000    -0.000    -0.000    -0.000  0.9690 -0.1803 -0.1688
    54 H(1)   Bbb    -0.0000    -0.000    -0.000    -0.000  0.1475 -0.1254  0.9811
              Bcc     0.0000     0.000     0.000     0.000  0.1980  0.9756  0.0949
 
              Baa    -0.0000    -0.000    -0.000    -0.000  0.5362  0.8262  0.1727
    55 H(1)   Bbb     0.0000     0.000     0.000     0.000  0.8383 -0.4975 -0.2229
              Bcc     0.0000     0.000     0.000     0.000  0.0982 -0.2643  0.9594
 
              Baa    -0.0000    -0.000    -0.000    -0.000  0.8087 -0.5879 -0.0180
    56 H(1)   Bbb     0.0000     0.000     0.000     0.000  0.5857  0.8077 -0.0678
              Bcc     0.0000     0.000     0.000     0.000  0.0544  0.0443  0.9975
 
              Baa    -0.0000    -0.000    -0.000    -0.000 -0.2954  0.8084  0.5091
    57 H(1)   Bbb     0.0000     0.000     0.000     0.000  0.0735 -0.5121  0.8558
              Bcc     0.0000     0.000     0.000     0.000  0.9526  0.2902  0.0918
 
              Baa    -0.0000    -0.000    -0.000    -0.000  0.5633  0.8254 -0.0378
    58 H(1)   Bbb     0.0000     0.000     0.000     0.000  0.7952 -0.5292  0.2960
              Bcc     0.0000     0.000     0.000     0.000 -0.2243  0.1968  0.9544
 
              Baa    -0.0000    -0.000    -0.000    -0.000 -0.4785 -0.2037  0.8541
    59 H(1)   Bbb    -0.0000    -0.000    -0.000    -0.000 -0.0227  0.9753  0.2199
              Bcc     0.0000     0.000     0.000     0.000  0.8778 -0.0859  0.4713
 
              Baa    -0.0000    -0.000    -0.000    -0.000  0.6367  0.7314 -0.2443
    60 H(1)   Bbb    -0.0000    -0.000    -0.000    -0.000  0.7700 -0.6202  0.1502
              Bcc     0.0000     0.000     0.000     0.000  0.0417  0.2837  0.9580
 
              Baa    -0.0000    -0.000    -0.000    -0.000  0.7747  0.6323  0.0032
    61 H(1)   Bbb     0.0000     0.000     0.000     0.000 -0.5511  0.6727  0.4937
              Bcc     0.0000     0.000     0.000     0.000  0.3100 -0.3842  0.8696
 
              Baa    -0.0000    -0.000    -0.000    -0.000 -0.5156 -0.0574  0.8549
    62 H(1)   Bbb     0.0000     0.000     0.000     0.000  0.6217  0.6615  0.4194
              Bcc     0.0000     0.000     0.000     0.000 -0.5896  0.7478 -0.3054
 

 ---------------------------------------------------------------------------------

 No NMR shielding tensors so no spin-rotation constants.
 Leave Link  601 at Sun Jul 26 17:36:03 2020, MaxMem=  4026531840 cpu:              10.6 elap:               1.4
 (Enter /opt/ohpc/pub/libs/gaussian/g16-A.03/sandybridge/g16/l9999.exe)

 Test job not archived.
 1\1\GINC-SKYLAKE052\FOpt\ULC-wPBE\CC-pVDZ\C30H20F3N3O3S3\RDU230\26-Jul
 -2020\0\\#P uLC-wPBE/cc-pVDZ iop(3/107=0407400000, 3/108=0407400000) o
 pt\\H20 C30 S3 N3 O3 F3\\0,1\C,10.9593466397,1.2150887003,0.8847605296
 \C,10.6969328065,-0.1181058298,1.1358133465\C,9.4329319307,-0.60819164
 15,0.8492346984\F,9.1929229793,-1.8886995948,1.1246808657\C,8.41773099
 03,0.1819117846,0.3161442129\C,8.7149925962,1.5395549456,0.0896612111\
 O,7.7006447961,2.2824972399,-0.4036044025\C,7.9267315909,3.6484378855,
 -0.6638770093\C,9.9782098652,2.0513160501,0.3658537831\C,7.1033736768,
 -0.4091576355,0.0000109986\N,6.9603257556,-1.6259257377,-0.4348224127\
 C,5.6428990146,-1.946059478,-0.5694240648\C,4.744464665,-0.9773905275,
 -0.2308573717\S,5.6087973418,0.4255919639,0.2656160324\C,3.2771276057,
 -1.0381656954,-0.291578377\C,2.6264910144,-2.2467634138,-0.0813739714\
 C,1.2463338823,-2.2971111769,-0.1644008484\F,0.6710658869,-3.473014369
 4,0.0732236604\C,0.4561466567,-1.1840460155,-0.4447496375\C,1.13806468
 13,0.0349007788,-0.6262559479\O,0.355551231,1.1073405444,-0.8706999999
 \C,0.9619457574,2.3650587065,-1.0598970365\C,2.5230207557,0.1060730835
 ,-0.5603853094\C,-1.0090651808,-1.3066598031,-0.548144834\N,-1.6012226
 841,-2.3996301227,-0.9313813986\C,-2.9555820693,-2.2735686637,-0.86659
 21553\C,-3.4336890073,-1.0758328684,-0.4229867349\S,-2.100814754,-0.04
 01498571,-0.0889391057\C,-4.8344746734,-0.6570246219,-0.2691865689\C,-
 5.8022134988,-1.5943840159,0.0670906923\C,-7.120996021,-1.1919484363,0
 .185742514\F,-8.0080418785,-2.1205119096,0.536926198\C,-7.5392280468,0
 .1215333245,-0.0081219727\C,-6.5363527218,1.0580801549,-0.3230153989\O
 ,-6.9593962128,2.3293139079,-0.4849164665\C,-6.0156449207,3.3266954916
 ,-0.79926164\C,-5.2084865513,0.6750797754,-0.4596746119\C,-8.965355489
 2,0.4818110366,0.1052826335\N,-9.9260643819,-0.3278338001,-0.228262858
 2\C,-11.1467583247,0.2225929754,0.0423472792\C,-11.1259255727,1.462097
 0616,0.5957414547\S,-9.5095208093,1.9880407794,0.7704558738\H,11.94807
 04225,1.6217117095,1.1008851994\H,11.4416747909,-0.7936923257,1.553113
 6062\H,8.1964346482,4.1949946991,0.2530052795\H,6.9822502013,4.0427116
 859,-1.0531511998\H,8.7145980877,3.7885273197,-1.4197706756\H,10.20635
 18437,3.0983184178,0.1803869758\H,5.3734036598,-2.9277312372,-0.957594
 7665\H,3.1656313022,-3.1567860639,0.175067651\H,1.6239937918,2.3632353
 434,-1.9392432703\H,1.5321243154,2.6752162803,-0.1707664714\H,0.143411
 3244,3.0725187987,-1.2282876175\H,3.0334575861,1.0502202241,-0.7368649
 78\H,-3.5809063869,-3.1050251704,-1.1901205965\H,-5.5542180047,-2.6349
 190567,0.2681164252\H,-6.5786552585,4.2631325572,-0.8697019615\H,-5.52
 56697057,3.1263453908,-1.7644800862\H,-5.2516273748,3.4212753615,-0.01
 2175012\H,-4.4517102148,1.4057727855,-0.7364731133\H,-12.0476432384,-0
 .3417719085,-0.19490338\H,-11.9668291119,2.0895862132,0.879641142\\Ver
 sion=EM64L-G16RevA.03\State=1-A\HF=-3037.7203394\S2=0.\S2-1=0.\S2A=0.\
 RMSD=6.221e-09\RMSF=4.048e-06\Dipole=1.6991281,3.876288,-0.1246165\Qua
 drupole=5.4892824,7.6243153,-13.1135977,9.6673144,-0.0386041,-4.279724
 6\PG=C01 [X(C30H20F3N3O3S3)]\\@


 THE PROBLEM WITH THE LADDER OF SUCCESS IS YOU CAN'T
 CLIMB IT WHILE YOU'RE TWIDDLING YOUR THUMBS.
 Job cpu time:       1 days 17 hours 11 minutes  2.2 seconds.
 Elapsed time:       0 days  5 hours 14 minutes 23.5 seconds.
 File lengths (MBytes):  RWF=    596 Int=      0 D2E=      0 Chk=     56 Scr=      8
 Normal termination of Gaussian 16 at Sun Jul 26 17:36:03 2020.
