 Entering Gaussian System, Link 0=g16
 Input=mols_65_5_32_cF-cOC-C_opt_0.gjf
 Output=mols_65_5_32_cF-cOC-C_opt_0.log
 Initial command:
 /opt/ohpc/pub/libs/gaussian/g16-A.03/sandybridge/g16/l1.exe "/mnt/gpfs2_4m/scratch/rdu230/ondemand/projects/dihedral_energies/7trial/wtuning/mols_65_5_32_cF-cOC-C/Gau-223314.inp" -scrdir="/mnt/gpfs2_4m/scratch/rdu230/ondemand/projects/dihedral_energies/7trial/wtuning/mols_65_5_32_cF-cOC-C/"
 Entering Link 1 = /opt/ohpc/pub/libs/gaussian/g16-A.03/sandybridge/g16/l1.exe PID=    223315.
  
 Copyright (c) 1988,1990,1992,1993,1995,1998,2003,2009,2016,
            Gaussian, Inc.  All Rights Reserved.
  
 This is part of the Gaussian(R) 16 program.  It is based on
 the Gaussian(R) 09 system (copyright 2009, Gaussian, Inc.),
 the Gaussian(R) 03 system (copyright 2003, Gaussian, Inc.),
 the Gaussian(R) 98 system (copyright 1998, Gaussian, Inc.),
 the Gaussian(R) 94 system (copyright 1995, Gaussian, Inc.),
 the Gaussian 92(TM) system (copyright 1992, Gaussian, Inc.),
 the Gaussian 90(TM) system (copyright 1990, Gaussian, Inc.),
 the Gaussian 88(TM) system (copyright 1988, Gaussian, Inc.),
 the Gaussian 86(TM) system (copyright 1986, Carnegie Mellon
 University), and the Gaussian 82(TM) system (copyright 1983,
 Carnegie Mellon University). Gaussian is a federally registered
 trademark of Gaussian, Inc.
  
 This software contains proprietary and confidential information,
 including trade secrets, belonging to Gaussian, Inc.
  
 This software is provided under written license and may be
 used, copied, transmitted, or stored only in accord with that
 written license.
  
 The following legend is applicable only to US Government
 contracts under FAR:
  
                    RESTRICTED RIGHTS LEGEND
  
 Use, reproduction and disclosure by the US Government is
 subject to restrictions as set forth in subparagraphs (a)
 and (c) of the Commercial Computer Software - Restricted
 Rights clause in FAR 52.227-19.
  
 Gaussian, Inc.
 340 Quinnipiac St., Bldg. 40, Wallingford CT 06492
  
  
 ---------------------------------------------------------------
 Warning -- This program may not be used in any manner that
 competes with the business of Gaussian, Inc. or will provide
 assistance to any competitor of Gaussian, Inc.  The licensee
 of this program is prohibited from giving any competitor of
 Gaussian, Inc. access to this program.  By using this program,
 the user acknowledges that Gaussian, Inc. is engaged in the
 business of creating and licensing software in the field of
 computational chemistry and represents and warrants to the
 licensee that it is not a competitor of Gaussian, Inc. and that
 it will not use this program in any manner prohibited above.
 ---------------------------------------------------------------
  

 Cite this work as:
 Gaussian 16, Revision A.03,
 M. J. Frisch, G. W. Trucks, H. B. Schlegel, G. E. Scuseria, 
 M. A. Robb, J. R. Cheeseman, G. Scalmani, V. Barone, 
 G. A. Petersson, H. Nakatsuji, X. Li, M. Caricato, A. V. Marenich, 
 J. Bloino, B. G. Janesko, R. Gomperts, B. Mennucci, H. P. Hratchian, 
 J. V. Ortiz, A. F. Izmaylov, J. L. Sonnenberg, D. Williams-Young, 
 F. Ding, F. Lipparini, F. Egidi, J. Goings, B. Peng, A. Petrone, 
 T. Henderson, D. Ranasinghe, V. G. Zakrzewski, J. Gao, N. Rega, 
 G. Zheng, W. Liang, M. Hada, M. Ehara, K. Toyota, R. Fukuda, 
 J. Hasegawa, M. Ishida, T. Nakajima, Y. Honda, O. Kitao, H. Nakai, 
 T. Vreven, K. Throssell, J. A. Montgomery, Jr., J. E. Peralta, 
 F. Ogliaro, M. J. Bearpark, J. J. Heyd, E. N. Brothers, K. N. Kudin, 
 V. N. Staroverov, T. A. Keith, R. Kobayashi, J. Normand, 
 K. Raghavachari, A. P. Rendell, J. C. Burant, S. S. Iyengar, 
 J. Tomasi, M. Cossi, J. M. Millam, M. Klene, C. Adamo, R. Cammi, 
 J. W. Ochterski, R. L. Martin, K. Morokuma, O. Farkas, 
 J. B. Foresman, and D. J. Fox, Gaussian, Inc., Wallingford CT, 2016.
 
 ******************************************
 Gaussian 16:  EM64L-G16RevA.03 25-Dec-2016
                25-Jul-2020 
 ******************************************
 %mem=30GB
 %nproc=8
 Will use up to    8 processors via shared memory.
 ---------------------------------------------------------------
 #P uLC-wPBE/cc-pVDZ iop(3/107=0375700000, 3/108=0375700000) opt
 ---------------------------------------------------------------
 1/18=20,19=15,26=3,38=1/1,3;
 2/9=110,12=2,17=6,18=5,40=1/2;
 3/5=16,11=2,25=1,30=1,71=1,74=-41,107=375700000,108=375700000,116=2/1,2,3;
 4//1;
 5/5=2,38=5/2;
 6/7=2,8=2,9=2,10=2,28=1/1;
 7//1,2,3,16;
 1/18=20,19=15,26=3/3(2);
 2/9=110/2;
 99//99;
 2/9=110/2;
 3/5=16,11=2,25=1,30=1,71=1,74=-41,107=375700000,108=375700000,116=2/1,2,3;
 4/5=5,16=3,69=1/1;
 5/5=2,38=5/2;
 7//1,2,3,16;
 1/18=20,19=15,26=3/3(-5);
 2/9=110/2;
 6/7=2,8=2,9=2,10=2,19=2,28=1/1;
 99/9=1/99;
 Leave Link    1 at Sat Jul 25 02:16:49 2020, MaxMem=  4026531840 cpu:               1.9 elap:               0.3
 (Enter /opt/ohpc/pub/libs/gaussian/g16-A.03/sandybridge/g16/l101.exe)
 ----------------
 H37 C55 S5 O5 F5
 ----------------
 Symbolic Z-matrix:
 Charge =  0 Multiplicity = 1
 C                    -18.93406  -1.22912  -0.31419 
 C                    -17.95541  -1.78471  -1.18432 
 C                    -16.67139  -1.35816  -1.11916 
 F                    -15.7352  -1.86825  -1.92419 
 C                    -16.17304  -0.4041   -0.16876 
 C                    -17.12783   0.18272   0.74108 
 O                    -16.75051   1.10207   1.6109 
 C                    -17.67681   1.86096   2.2759 
 C                    -18.55096  -0.21223   0.65229 
 C                    -14.7842   0.03253  -0.15298 
 C                    -14.30584   1.26409  -0.26533 
 C                    -12.88845   1.33087  -0.23114 
 C                    -12.33117   0.0567    0.10287 
 S                    -13.54378  -1.11016   0.17738 
 C                    -10.91384  -0.28535   0.25402 
 C                    -10.13448   0.36937   1.14555 
 C                    -8.80204   0.05009   1.22835 
 F                    -8.04917   0.82284   2.0762 
 C                    -8.1895   -0.8922    0.3631 
 C                    -8.96431  -1.59364  -0.52424 
 O                    -8.34956  -2.55978  -1.30172 
 C                    -9.18948  -3.41996  -2.10514 
 C                    -10.31503  -1.28261  -0.57148 
 C                    -6.76764  -1.15001   0.55089 
 C                    -6.05561  -2.33578   0.90659 
 C                    -4.6573   -2.13786   0.88765 
 C                    -4.27146  -0.88361   0.50075 
 S                    -5.68642   0.09895   0.12854 
 C                    -2.94732  -0.26303   0.27158 
 C                    -2.01048  -0.96024  -0.50872 
 C                    -0.74591  -0.37541  -0.80841 
 F                     0.06876  -0.9511   -1.64381 
 C                    -0.42401   0.78935  -0.14907 
 C                    -1.31283   1.43077   0.75849 
 O                    -0.86234   2.60902   1.28592 
 C                    -1.86719   3.35567   2.03443 
 C                    -2.55086   0.91759   0.95419 
 C                     0.89332   1.45002  -0.40109 
 C                     1.13238   2.63509  -1.00723 
 C                     2.59814   2.84602  -1.14602 
 C                     3.29749   1.83662  -0.74005 
 S                     2.34831   0.56003  -0.01705 
 C                     4.77352   1.64634  -0.71605 
 C                     5.44713   0.44646  -1.12627 
 C                     6.82546   0.41489  -1.15377 
 F                     7.3046   -0.80057  -1.60999 
 C                     7.61698   1.4708   -0.84559 
 C                     7.00459   2.68491  -0.56434 
 O                     7.85142   3.72635  -0.21434 
 C                     7.32503   5.05356  -0.0784 
 C                     5.65863   2.78235  -0.42616 
 C                     9.11146   1.38011  -1.08468 
 C                     9.94503   2.06534  -1.9455 
 C                     11.32264   1.63777  -1.79418 
 C                     11.47811   0.70952  -0.78536 
 S                     9.98996   0.26884  -0.02097 
 C                     12.71568   0.01085  -0.44209 
 C                     13.91815   0.76604  -0.48115 
 C                     15.12565   0.13018  -0.12624 
 F                     16.19887   0.83142  -0.15691 
 C                     15.19853  -1.23785   0.3527 
 C                     13.97453  -1.97606   0.3904 
 O                     13.99246  -3.21741   0.83312 
 C                     12.86125  -3.96575   1.05409 
 C                     12.76595  -1.35033   0.04105 
 C                     16.43826  -1.77758   0.69861 
 C                     17.0112  -2.97238   0.1826 
 C                     18.29722  -3.29745   0.73964 
 C                     18.70967  -2.29414   1.67615 
 S                     17.48906  -1.04615   1.82028 
 H                    -19.92965  -1.48785  -0.42304 
 H                    -18.30701  -2.49473  -1.92591 
 H                    -17.18701   2.59052   2.92029 
 H                    -18.27473   1.30609   2.98338 
 H                    -18.36926   2.40173   1.63482 
 H                    -19.2999   0.13319   1.26742 
 H                    -14.92957   2.21313  -0.45764 
 H                    -12.24839   2.22899  -0.25904 
 H                    -10.49613   1.22006   1.76413 
 H                    -9.95816  -3.89563  -1.55237 
 H                    -8.52285  -4.05446  -2.62433 
 H                    -9.64465  -2.7686   -2.9415 
 H                    -11.00568  -1.75856  -1.31123 
 H                    -6.59487  -3.18322   1.12338 
 H                    -3.97485  -2.96768   1.10482 
 H                    -2.28461  -1.83699  -1.03423 
 H                    -2.25536   2.84502   2.93279 
 H                    -1.44402   4.31536   2.32651 
 H                    -2.69004   3.61852   1.34789 
 H                    -3.30258   1.38404   1.56153 
 H                     0.42946   3.39896  -1.29283 
 H                     2.98903   3.81972  -1.62882 
 H                     4.87016  -0.42707  -1.38823 
 H                     6.67537   5.10125   0.86205 
 H                     6.666     5.26929  -0.90369 
 H                     8.06667   5.78043   0.03423 
 H                     5.14855   3.70341  -0.18617 
 H                     9.58476   2.74215  -2.66252 
 H                     12.04144   2.0627   -2.37796 
 H                     13.9561   1.82953  -0.75087 
 H                     12.23325  -3.40182   1.78037 
 H                     13.11148  -4.88787   1.43709 
 H                     12.30321  -4.13706   0.06914 
 H                     11.84406  -1.91322  -0.02581 
 H                     16.47067  -3.68093  -0.50083 
 H                     18.87864  -4.11664   0.50475 
 H                     19.56952  -2.26214   2.29657 
 
 ITRead=  0  0  0  0  0  0  0  0  0  0  0  0  0  0  0  0  0  0  0  0
 ITRead=  0  0  0  0  0  0  0  0  0  0  0  0  0  0  0  0  0  0  0  0
 ITRead=  0  0  0  0  0  0  0  0  0  0  0  0  0  0  0  0  0  0  0  0
 ITRead=  0  0  0  0  0  0  0  0  0  0  0  0  0  0  0  0  0  0  0  0
 ITRead=  0  0  0  0  0  0  0  0  0  0  0  0  0  0  0  0  0  0  0  0
 ITRead=  0  0  0  0  0  0  0
 MicOpt= -1 -1 -1 -1 -1 -1 -1 -1 -1 -1 -1 -1 -1 -1 -1 -1 -1 -1 -1 -1
 MicOpt= -1 -1 -1 -1 -1 -1 -1 -1 -1 -1 -1 -1 -1 -1 -1 -1 -1 -1 -1 -1
 MicOpt= -1 -1 -1 -1 -1 -1 -1 -1 -1 -1 -1 -1 -1 -1 -1 -1 -1 -1 -1 -1
 MicOpt= -1 -1 -1 -1 -1 -1 -1 -1 -1 -1 -1 -1 -1 -1 -1 -1 -1 -1 -1 -1
 MicOpt= -1 -1 -1 -1 -1 -1 -1 -1 -1 -1 -1 -1 -1 -1 -1 -1 -1 -1 -1 -1
 MicOpt= -1 -1 -1 -1 -1 -1 -1
 NAtoms=    107 NQM=      107 NQMF=       0 NMMI=      0 NMMIF=      0
                NMic=       0 NMicF=      0.
                    Isotopes and Nuclear Properties:
 (Nuclear quadrupole moments (NQMom) in fm**2, nuclear magnetic moments (NMagM)
  in nuclear magnetons)

  Atom         1           2           3           4           5           6           7           8           9          10
 IAtWgt=          12          12          12          19          12          12          16          12          12          12
 AtmWgt=  12.0000000  12.0000000  12.0000000  18.9984033  12.0000000  12.0000000  15.9949146  12.0000000  12.0000000  12.0000000
 NucSpn=           0           0           0           1           0           0           0           0           0           0
 AtZEff=  -0.0000000  -0.0000000  -0.0000000  -0.0000000  -0.0000000  -0.0000000  -0.0000000  -0.0000000  -0.0000000  -0.0000000
 NQMom=    0.0000000   0.0000000   0.0000000   0.0000000   0.0000000   0.0000000   0.0000000   0.0000000   0.0000000   0.0000000
 NMagM=    0.0000000   0.0000000   0.0000000   2.6288670   0.0000000   0.0000000   0.0000000   0.0000000   0.0000000   0.0000000
 AtZNuc=   6.0000000   6.0000000   6.0000000   9.0000000   6.0000000   6.0000000   8.0000000   6.0000000   6.0000000   6.0000000

  Atom        11          12          13          14          15          16          17          18          19          20
 IAtWgt=          12          12          12          32          12          12          12          19          12          12
 AtmWgt=  12.0000000  12.0000000  12.0000000  31.9720718  12.0000000  12.0000000  12.0000000  18.9984033  12.0000000  12.0000000
 NucSpn=           0           0           0           0           0           0           0           1           0           0
 AtZEff=  -0.0000000  -0.0000000  -0.0000000  -0.0000000  -0.0000000  -0.0000000  -0.0000000  -0.0000000  -0.0000000  -0.0000000
 NQMom=    0.0000000   0.0000000   0.0000000   0.0000000   0.0000000   0.0000000   0.0000000   0.0000000   0.0000000   0.0000000
 NMagM=    0.0000000   0.0000000   0.0000000   0.0000000   0.0000000   0.0000000   0.0000000   2.6288670   0.0000000   0.0000000
 AtZNuc=   6.0000000   6.0000000   6.0000000  16.0000000   6.0000000   6.0000000   6.0000000   9.0000000   6.0000000   6.0000000

  Atom        21          22          23          24          25          26          27          28          29          30
 IAtWgt=          16          12          12          12          12          12          12          32          12          12
 AtmWgt=  15.9949146  12.0000000  12.0000000  12.0000000  12.0000000  12.0000000  12.0000000  31.9720718  12.0000000  12.0000000
 NucSpn=           0           0           0           0           0           0           0           0           0           0
 AtZEff=  -0.0000000  -0.0000000  -0.0000000  -0.0000000  -0.0000000  -0.0000000  -0.0000000  -0.0000000  -0.0000000  -0.0000000
 NQMom=    0.0000000   0.0000000   0.0000000   0.0000000   0.0000000   0.0000000   0.0000000   0.0000000   0.0000000   0.0000000
 NMagM=    0.0000000   0.0000000   0.0000000   0.0000000   0.0000000   0.0000000   0.0000000   0.0000000   0.0000000   0.0000000
 AtZNuc=   8.0000000   6.0000000   6.0000000   6.0000000   6.0000000   6.0000000   6.0000000  16.0000000   6.0000000   6.0000000

  Atom        31          32          33          34          35          36          37          38          39          40
 IAtWgt=          12          19          12          12          16          12          12          12          12          12
 AtmWgt=  12.0000000  18.9984033  12.0000000  12.0000000  15.9949146  12.0000000  12.0000000  12.0000000  12.0000000  12.0000000
 NucSpn=           0           1           0           0           0           0           0           0           0           0
 AtZEff=  -0.0000000  -0.0000000  -0.0000000  -0.0000000  -0.0000000  -0.0000000  -0.0000000  -0.0000000  -0.0000000  -0.0000000
 NQMom=    0.0000000   0.0000000   0.0000000   0.0000000   0.0000000   0.0000000   0.0000000   0.0000000   0.0000000   0.0000000
 NMagM=    0.0000000   2.6288670   0.0000000   0.0000000   0.0000000   0.0000000   0.0000000   0.0000000   0.0000000   0.0000000
 AtZNuc=   6.0000000   9.0000000   6.0000000   6.0000000   8.0000000   6.0000000   6.0000000   6.0000000   6.0000000   6.0000000

  Atom        41          42          43          44          45          46          47          48          49          50
 IAtWgt=          12          32          12          12          12          19          12          12          16          12
 AtmWgt=  12.0000000  31.9720718  12.0000000  12.0000000  12.0000000  18.9984033  12.0000000  12.0000000  15.9949146  12.0000000
 NucSpn=           0           0           0           0           0           1           0           0           0           0
 AtZEff=  -0.0000000  -0.0000000  -0.0000000  -0.0000000  -0.0000000  -0.0000000  -0.0000000  -0.0000000  -0.0000000  -0.0000000
 NQMom=    0.0000000   0.0000000   0.0000000   0.0000000   0.0000000   0.0000000   0.0000000   0.0000000   0.0000000   0.0000000
 NMagM=    0.0000000   0.0000000   0.0000000   0.0000000   0.0000000   2.6288670   0.0000000   0.0000000   0.0000000   0.0000000
 AtZNuc=   6.0000000  16.0000000   6.0000000   6.0000000   6.0000000   9.0000000   6.0000000   6.0000000   8.0000000   6.0000000

  Atom        51          52          53          54          55          56          57          58          59          60
 IAtWgt=          12          12          12          12          12          32          12          12          12          19
 AtmWgt=  12.0000000  12.0000000  12.0000000  12.0000000  12.0000000  31.9720718  12.0000000  12.0000000  12.0000000  18.9984033
 NucSpn=           0           0           0           0           0           0           0           0           0           1
 AtZEff=  -0.0000000  -0.0000000  -0.0000000  -0.0000000  -0.0000000  -0.0000000  -0.0000000  -0.0000000  -0.0000000  -0.0000000
 NQMom=    0.0000000   0.0000000   0.0000000   0.0000000   0.0000000   0.0000000   0.0000000   0.0000000   0.0000000   0.0000000
 NMagM=    0.0000000   0.0000000   0.0000000   0.0000000   0.0000000   0.0000000   0.0000000   0.0000000   0.0000000   2.6288670
 AtZNuc=   6.0000000   6.0000000   6.0000000   6.0000000   6.0000000  16.0000000   6.0000000   6.0000000   6.0000000   9.0000000

  Atom        61          62          63          64          65          66          67          68          69          70
 IAtWgt=          12          12          16          12          12          12          12          12          12          32
 AtmWgt=  12.0000000  12.0000000  15.9949146  12.0000000  12.0000000  12.0000000  12.0000000  12.0000000  12.0000000  31.9720718
 NucSpn=           0           0           0           0           0           0           0           0           0           0
 AtZEff=  -0.0000000  -0.0000000  -0.0000000  -0.0000000  -0.0000000  -0.0000000  -0.0000000  -0.0000000  -0.0000000  -0.0000000
 NQMom=    0.0000000   0.0000000   0.0000000   0.0000000   0.0000000   0.0000000   0.0000000   0.0000000   0.0000000   0.0000000
 NMagM=    0.0000000   0.0000000   0.0000000   0.0000000   0.0000000   0.0000000   0.0000000   0.0000000   0.0000000   0.0000000
 AtZNuc=   6.0000000   6.0000000   8.0000000   6.0000000   6.0000000   6.0000000   6.0000000   6.0000000   6.0000000  16.0000000

  Atom        71          72          73          74          75          76          77          78          79          80
 IAtWgt=           1           1           1           1           1           1           1           1           1           1
 AtmWgt=   1.0078250   1.0078250   1.0078250   1.0078250   1.0078250   1.0078250   1.0078250   1.0078250   1.0078250   1.0078250
 NucSpn=           1           1           1           1           1           1           1           1           1           1
 AtZEff=  -0.0000000  -0.0000000  -0.0000000  -0.0000000  -0.0000000  -0.0000000  -0.0000000  -0.0000000  -0.0000000  -0.0000000
 NQMom=    0.0000000   0.0000000   0.0000000   0.0000000   0.0000000   0.0000000   0.0000000   0.0000000   0.0000000   0.0000000
 NMagM=    2.7928460   2.7928460   2.7928460   2.7928460   2.7928460   2.7928460   2.7928460   2.7928460   2.7928460   2.7928460
 AtZNuc=   1.0000000   1.0000000   1.0000000   1.0000000   1.0000000   1.0000000   1.0000000   1.0000000   1.0000000   1.0000000

  Atom        81          82          83          84          85          86          87          88          89          90
 IAtWgt=           1           1           1           1           1           1           1           1           1           1
 AtmWgt=   1.0078250   1.0078250   1.0078250   1.0078250   1.0078250   1.0078250   1.0078250   1.0078250   1.0078250   1.0078250
 NucSpn=           1           1           1           1           1           1           1           1           1           1
 AtZEff=  -0.0000000  -0.0000000  -0.0000000  -0.0000000  -0.0000000  -0.0000000  -0.0000000  -0.0000000  -0.0000000  -0.0000000
 NQMom=    0.0000000   0.0000000   0.0000000   0.0000000   0.0000000   0.0000000   0.0000000   0.0000000   0.0000000   0.0000000
 NMagM=    2.7928460   2.7928460   2.7928460   2.7928460   2.7928460   2.7928460   2.7928460   2.7928460   2.7928460   2.7928460
 AtZNuc=   1.0000000   1.0000000   1.0000000   1.0000000   1.0000000   1.0000000   1.0000000   1.0000000   1.0000000   1.0000000

  Atom        91          92          93          94          95          96          97          98          99         100
 IAtWgt=           1           1           1           1           1           1           1           1           1           1
 AtmWgt=   1.0078250   1.0078250   1.0078250   1.0078250   1.0078250   1.0078250   1.0078250   1.0078250   1.0078250   1.0078250
 NucSpn=           1           1           1           1           1           1           1           1           1           1
 AtZEff=  -0.0000000  -0.0000000  -0.0000000  -0.0000000  -0.0000000  -0.0000000  -0.0000000  -0.0000000  -0.0000000  -0.0000000
 NQMom=    0.0000000   0.0000000   0.0000000   0.0000000   0.0000000   0.0000000   0.0000000   0.0000000   0.0000000   0.0000000
 NMagM=    2.7928460   2.7928460   2.7928460   2.7928460   2.7928460   2.7928460   2.7928460   2.7928460   2.7928460   2.7928460
 AtZNuc=   1.0000000   1.0000000   1.0000000   1.0000000   1.0000000   1.0000000   1.0000000   1.0000000   1.0000000   1.0000000

  Atom       101         102         103         104         105         106         107
 IAtWgt=           1           1           1           1           1           1           1
 AtmWgt=   1.0078250   1.0078250   1.0078250   1.0078250   1.0078250   1.0078250   1.0078250
 NucSpn=           1           1           1           1           1           1           1
 AtZEff=  -0.0000000  -0.0000000  -0.0000000  -0.0000000  -0.0000000  -0.0000000  -0.0000000
 NQMom=    0.0000000   0.0000000   0.0000000   0.0000000   0.0000000   0.0000000   0.0000000
 NMagM=    2.7928460   2.7928460   2.7928460   2.7928460   2.7928460   2.7928460   2.7928460
 AtZNuc=   1.0000000   1.0000000   1.0000000   1.0000000   1.0000000   1.0000000   1.0000000
 Leave Link  101 at Sat Jul 25 02:16:49 2020, MaxMem=  4026531840 cpu:               3.1 elap:               0.4
 (Enter /opt/ohpc/pub/libs/gaussian/g16-A.03/sandybridge/g16/l103.exe)

 GradGradGradGradGradGradGradGradGradGradGradGradGradGradGradGradGradGrad
 Berny optimization.
 Initialization pass.
                           ----------------------------
                           !    Initial Parameters    !
                           ! (Angstroms and Degrees)  !
 --------------------------                            --------------------------
 ! Name  Definition              Value          Derivative Info.                !
 --------------------------------------------------------------------------------
 ! R1    R(1,2)                  1.4225         estimate D2E/DX2                !
 ! R2    R(1,9)                  1.4543         estimate D2E/DX2                !
 ! R3    R(1,71)                 1.0344         estimate D2E/DX2                !
 ! R4    R(2,3)                  1.3546         estimate D2E/DX2                !
 ! R5    R(2,72)                 1.0852         estimate D2E/DX2                !
 ! R6    R(3,4)                  1.3359         estimate D2E/DX2                !
 ! R7    R(3,5)                  1.4359         estimate D2E/DX2                !
 ! R8    R(5,6)                  1.4435         estimate D2E/DX2                !
 ! R9    R(5,10)                 1.4559         estimate D2E/DX2                !
 ! R10   R(6,7)                  1.3207         estimate D2E/DX2                !
 ! R11   R(6,9)                  1.4796         estimate D2E/DX2                !
 ! R12   R(7,8)                  1.3697         estimate D2E/DX2                !
 ! R13   R(8,73)                 1.0897         estimate D2E/DX2                !
 ! R14   R(8,74)                 1.0798         estimate D2E/DX2                !
 ! R15   R(8,75)                 1.0876         estimate D2E/DX2                !
 ! R16   R(9,76)                 1.0289         estimate D2E/DX2                !
 ! R17   R(10,11)                1.326          estimate D2E/DX2                !
 ! R18   R(10,14)                1.7186         estimate D2E/DX2                !
 ! R19   R(11,12)                1.4194         estimate D2E/DX2                !
 ! R20   R(11,77)                1.1518         estimate D2E/DX2                !
 ! R21   R(12,13)                1.4303         estimate D2E/DX2                !
 ! R22   R(12,78)                1.1032         estimate D2E/DX2                !
 ! R23   R(13,14)                1.6845         estimate D2E/DX2                !
 ! R24   R(13,15)                1.4658         estimate D2E/DX2                !
 ! R25   R(15,16)                1.3531         estimate D2E/DX2                !
 ! R26   R(15,23)                1.4264         estimate D2E/DX2                !
 ! R27   R(16,17)                1.3727         estimate D2E/DX2                !
 ! R28   R(16,79)                1.1123         estimate D2E/DX2                !
 ! R29   R(17,18)                1.3722         estimate D2E/DX2                !
 ! R30   R(17,19)                1.4184         estimate D2E/DX2                !
 ! R31   R(19,20)                1.371          estimate D2E/DX2                !
 ! R32   R(19,24)                1.4572         estimate D2E/DX2                !
 ! R33   R(20,21)                1.3841         estimate D2E/DX2                !
 ! R34   R(20,23)                1.3869         estimate D2E/DX2                !
 ! R35   R(21,22)                1.446          estimate D2E/DX2                !
 ! R36   R(22,80)                1.0596         estimate D2E/DX2                !
 ! R37   R(22,81)                1.0567         estimate D2E/DX2                !
 ! R38   R(22,82)                1.1537         estimate D2E/DX2                !
 ! R39   R(23,83)                1.1184         estimate D2E/DX2                !
 ! R40   R(24,25)                1.4281         estimate D2E/DX2                !
 ! R41   R(24,28)                1.7051         estimate D2E/DX2                !
 ! R42   R(25,26)                1.4124         estimate D2E/DX2                !
 ! R43   R(25,84)                1.0276         estimate D2E/DX2                !
 ! R44   R(26,27)                1.3681         estimate D2E/DX2                !
 ! R45   R(26,85)                1.0961         estimate D2E/DX2                !
 ! R46   R(27,28)                1.7624         estimate D2E/DX2                !
 ! R47   R(27,29)                1.4802         estimate D2E/DX2                !
 ! R48   R(29,30)                1.4045         estimate D2E/DX2                !
 ! R49   R(29,37)                1.4202         estimate D2E/DX2                !
 ! R50   R(30,31)                1.4251         estimate D2E/DX2                !
 ! R51   R(30,86)                1.0583         estimate D2E/DX2                !
 ! R52   R(31,32)                1.3012         estimate D2E/DX2                !
 ! R53   R(31,33)                1.3766         estimate D2E/DX2                !
 ! R54   R(33,34)                1.4231         estimate D2E/DX2                !
 ! R55   R(33,38)                1.4951         estimate D2E/DX2                !
 ! R56   R(34,35)                1.3673         estimate D2E/DX2                !
 ! R57   R(34,37)                1.3544         estimate D2E/DX2                !
 ! R58   R(35,36)                1.4586         estimate D2E/DX2                !
 ! R59   R(36,87)                1.1039         estimate D2E/DX2                !
 ! R60   R(36,88)                1.0888         estimate D2E/DX2                !
 ! R61   R(36,89)                1.1034         estimate D2E/DX2                !
 ! R62   R(37,90)                1.0731         estimate D2E/DX2                !
 ! R63   R(38,39)                1.3524         estimate D2E/DX2                !
 ! R64   R(38,42)                1.7483         estimate D2E/DX2                !
 ! R65   R(39,40)                1.4874         estimate D2E/DX2                !
 ! R66   R(39,91)                1.0766         estimate D2E/DX2                !
 ! R67   R(40,41)                1.2934         estimate D2E/DX2                !
 ! R68   R(40,92)                1.155          estimate D2E/DX2                !
 ! R69   R(41,42)                1.7474         estimate D2E/DX2                !
 ! R70   R(41,43)                1.4884         estimate D2E/DX2                !
 ! R71   R(43,44)                1.4359         estimate D2E/DX2                !
 ! R72   R(43,51)                1.469          estimate D2E/DX2                !
 ! R73   R(44,45)                1.379          estimate D2E/DX2                !
 ! R74   R(44,93)                1.0792         estimate D2E/DX2                !
 ! R75   R(45,46)                1.3838         estimate D2E/DX2                !
 ! R76   R(45,47)                1.3552         estimate D2E/DX2                !
 ! R77   R(47,48)                1.3886         estimate D2E/DX2                !
 ! R78   R(47,52)                1.5162         estimate D2E/DX2                !
 ! R79   R(48,49)                1.3872         estimate D2E/DX2                !
 ! R80   R(48,51)                1.3565         estimate D2E/DX2                !
 ! R81   R(49,50)                1.4342         estimate D2E/DX2                !
 ! R82   R(50,94)                1.144          estimate D2E/DX2                !
 ! R83   R(50,95)                1.078          estimate D2E/DX2                !
 ! R84   R(50,96)                1.0445         estimate D2E/DX2                !
 ! R85   R(51,97)                1.0799         estimate D2E/DX2                !
 ! R86   R(52,53)                1.3804         estimate D2E/DX2                !
 ! R87   R(52,56)                1.7715         estimate D2E/DX2                !
 ! R88   R(53,54)                1.4504         estimate D2E/DX2                !
 ! R89   R(53,98)                1.0498         estimate D2E/DX2                !
 ! R90   R(54,55)                1.3797         estimate D2E/DX2                !
 ! R91   R(54,99)                1.0188         estimate D2E/DX2                !
 ! R92   R(55,56)                1.73           estimate D2E/DX2                !
 ! R93   R(55,57)                1.462          estimate D2E/DX2                !
 ! R94   R(57,58)                1.4205         estimate D2E/DX2                !
 ! R95   R(57,65)                1.4453         estimate D2E/DX2                !
 ! R96   R(58,59)                1.4101         estimate D2E/DX2                !
 ! R97   R(58,100)               1.0978         estimate D2E/DX2                !
 ! R98   R(59,60)                1.2824         estimate D2E/DX2                !
 ! R99   R(59,61)                1.4513         estimate D2E/DX2                !
 ! R100  R(61,62)                1.4299         estimate D2E/DX2                !
 ! R101  R(61,66)                1.3957         estimate D2E/DX2                !
 ! R102  R(62,63)                1.3181         estimate D2E/DX2                !
 ! R103  R(62,65)                1.4051         estimate D2E/DX2                !
 ! R104  R(63,64)                1.3742         estimate D2E/DX2                !
 ! R105  R(64,101)               1.1135         estimate D2E/DX2                !
 ! R106  R(64,102)               1.0294         estimate D2E/DX2                !
 ! R107  R(64,103)               1.1449         estimate D2E/DX2                !
 ! R108  R(65,104)               1.0822         estimate D2E/DX2                !
 ! R109  R(66,67)                1.422          estimate D2E/DX2                !
 ! R110  R(66,70)                1.7021         estimate D2E/DX2                !
 ! R111  R(67,68)                1.4387         estimate D2E/DX2                !
 ! R112  R(67,105)               1.1231         estimate D2E/DX2                !
 ! R113  R(68,69)                1.4331         estimate D2E/DX2                !
 ! R114  R(68,106)               1.0316         estimate D2E/DX2                !
 ! R115  R(69,70)                1.7516         estimate D2E/DX2                !
 ! R116  R(69,107)               1.0608         estimate D2E/DX2                !
 ! A1    A(2,1,9)              119.8931         estimate D2E/DX2                !
 ! A2    A(2,1,71)             120.0064         estimate D2E/DX2                !
 ! A3    A(9,1,71)             119.8926         estimate D2E/DX2                !
 ! A4    A(1,2,3)              119.9815         estimate D2E/DX2                !
 ! A5    A(1,2,72)             116.7846         estimate D2E/DX2                !
 ! A6    A(3,2,72)             123.0932         estimate D2E/DX2                !
 ! A7    A(2,3,4)              121.0007         estimate D2E/DX2                !
 ! A8    A(2,3,5)              124.7533         estimate D2E/DX2                !
 ! A9    A(4,3,5)              114.1629         estimate D2E/DX2                !
 ! A10   A(3,5,6)              117.2401         estimate D2E/DX2                !
 ! A11   A(3,5,10)             122.5135         estimate D2E/DX2                !
 ! A12   A(6,5,10)             120.1454         estimate D2E/DX2                !
 ! A13   A(5,6,7)              120.6066         estimate D2E/DX2                !
 ! A14   A(5,6,9)              119.3309         estimate D2E/DX2                !
 ! A15   A(7,6,9)              120.0093         estimate D2E/DX2                !
 ! A16   A(6,7,8)              120.8127         estimate D2E/DX2                !
 ! A17   A(7,8,73)             110.7368         estimate D2E/DX2                !
 ! A18   A(7,8,74)             114.071          estimate D2E/DX2                !
 ! A19   A(7,8,75)             114.8262         estimate D2E/DX2                !
 ! A20   A(73,8,74)            101.8576         estimate D2E/DX2                !
 ! A21   A(73,8,75)            107.5686         estimate D2E/DX2                !
 ! A22   A(74,8,75)            106.8075         estimate D2E/DX2                !
 ! A23   A(1,9,6)              118.6795         estimate D2E/DX2                !
 ! A24   A(1,9,76)             116.1244         estimate D2E/DX2                !
 ! A25   A(6,9,76)             125.0749         estimate D2E/DX2                !
 ! A26   A(5,10,11)            128.4448         estimate D2E/DX2                !
 ! A27   A(5,10,14)            119.4187         estimate D2E/DX2                !
 ! A28   A(11,10,14)           111.9291         estimate D2E/DX2                !
 ! A29   A(10,11,12)           113.6982         estimate D2E/DX2                !
 ! A30   A(10,11,77)           125.7372         estimate D2E/DX2                !
 ! A31   A(12,11,77)           120.3986         estimate D2E/DX2                !
 ! A32   A(11,12,13)           110.6588         estimate D2E/DX2                !
 ! A33   A(11,12,78)           128.1017         estimate D2E/DX2                !
 ! A34   A(13,12,78)           120.3381         estimate D2E/DX2                !
 ! A35   A(12,13,14)           110.3011         estimate D2E/DX2                !
 ! A36   A(12,13,15)           127.4959         estimate D2E/DX2                !
 ! A37   A(14,13,15)           121.9949         estimate D2E/DX2                !
 ! A38   A(10,14,13)            92.8944         estimate D2E/DX2                !
 ! A39   A(13,15,16)           120.7943         estimate D2E/DX2                !
 ! A40   A(13,15,23)           120.6232         estimate D2E/DX2                !
 ! A41   A(16,15,23)           118.5424         estimate D2E/DX2                !
 ! A42   A(15,16,17)           119.0978         estimate D2E/DX2                !
 ! A43   A(15,16,79)           123.3145         estimate D2E/DX2                !
 ! A44   A(17,16,79)           117.3855         estimate D2E/DX2                !
 ! A45   A(16,17,18)           116.0325         estimate D2E/DX2                !
 ! A46   A(16,17,19)           122.476          estimate D2E/DX2                !
 ! A47   A(18,17,19)           120.9382         estimate D2E/DX2                !
 ! A48   A(17,19,20)           119.3828         estimate D2E/DX2                !
 ! A49   A(17,19,24)           117.4076         estimate D2E/DX2                !
 ! A50   A(20,19,24)           122.9781         estimate D2E/DX2                !
 ! A51   A(19,20,21)           118.0124         estimate D2E/DX2                !
 ! A52   A(19,20,23)           117.2394         estimate D2E/DX2                !
 ! A53   A(21,20,23)           124.7478         estimate D2E/DX2                !
 ! A54   A(20,21,22)           117.9918         estimate D2E/DX2                !
 ! A55   A(21,22,80)           113.4904         estimate D2E/DX2                !
 ! A56   A(21,22,81)           105.2933         estimate D2E/DX2                !
 ! A57   A(21,22,82)           107.2244         estimate D2E/DX2                !
 ! A58   A(80,22,81)           116.3877         estimate D2E/DX2                !
 ! A59   A(80,22,82)           110.2087         estimate D2E/DX2                !
 ! A60   A(81,22,82)           103.3984         estimate D2E/DX2                !
 ! A61   A(15,23,20)           123.0896         estimate D2E/DX2                !
 ! A62   A(15,23,83)           114.9038         estimate D2E/DX2                !
 ! A63   A(20,23,83)           121.9071         estimate D2E/DX2                !
 ! A64   A(19,24,25)           131.7193         estimate D2E/DX2                !
 ! A65   A(19,24,28)           117.208          estimate D2E/DX2                !
 ! A66   A(25,24,28)           110.7151         estimate D2E/DX2                !
 ! A67   A(24,25,26)           111.9577         estimate D2E/DX2                !
 ! A68   A(24,25,84)           118.4002         estimate D2E/DX2                !
 ! A69   A(26,25,84)           129.639          estimate D2E/DX2                !
 ! A70   A(25,26,27)           114.2977         estimate D2E/DX2                !
 ! A71   A(25,26,85)           120.5081         estimate D2E/DX2                !
 ! A72   A(27,26,85)           125.0634         estimate D2E/DX2                !
 ! A73   A(26,27,28)           110.1459         estimate D2E/DX2                !
 ! A74   A(26,27,29)           132.8778         estimate D2E/DX2                !
 ! A75   A(28,27,29)           116.858          estimate D2E/DX2                !
 ! A76   A(24,28,27)            92.7754         estimate D2E/DX2                !
 ! A77   A(27,29,30)           118.3329         estimate D2E/DX2                !
 ! A78   A(27,29,37)           121.5896         estimate D2E/DX2                !
 ! A79   A(30,29,37)           119.5705         estimate D2E/DX2                !
 ! A80   A(29,30,31)           120.331          estimate D2E/DX2                !
 ! A81   A(29,30,86)           120.9542         estimate D2E/DX2                !
 ! A82   A(31,30,86)           117.7358         estimate D2E/DX2                !
 ! A83   A(30,31,32)           120.5988         estimate D2E/DX2                !
 ! A84   A(30,31,33)           117.0001         estimate D2E/DX2                !
 ! A85   A(32,31,33)           122.376          estimate D2E/DX2                !
 ! A86   A(31,33,34)           122.737          estimate D2E/DX2                !
 ! A87   A(31,33,38)           119.9458         estimate D2E/DX2                !
 ! A88   A(34,33,38)           117.3            estimate D2E/DX2                !
 ! A89   A(33,34,35)           115.3819         estimate D2E/DX2                !
 ! A90   A(33,34,37)           119.4917         estimate D2E/DX2                !
 ! A91   A(35,34,37)           124.8869         estimate D2E/DX2                !
 ! A92   A(34,35,36)           114.337          estimate D2E/DX2                !
 ! A93   A(35,36,87)           115.03           estimate D2E/DX2                !
 ! A94   A(35,36,88)           108.7305         estimate D2E/DX2                !
 ! A95   A(35,36,89)           108.4452         estimate D2E/DX2                !
 ! A96   A(87,36,88)           109.0331         estimate D2E/DX2                !
 ! A97   A(87,36,89)           110.7528         estimate D2E/DX2                !
 ! A98   A(88,36,89)           104.2877         estimate D2E/DX2                !
 ! A99   A(29,37,34)           120.0463         estimate D2E/DX2                !
 ! A100  A(29,37,90)           115.9653         estimate D2E/DX2                !
 ! A101  A(34,37,90)           123.8773         estimate D2E/DX2                !
 ! A102  A(33,38,39)           128.2077         estimate D2E/DX2                !
 ! A103  A(33,38,42)           118.1185         estimate D2E/DX2                !
 ! A104  A(39,38,42)           113.4173         estimate D2E/DX2                !
 ! A105  A(38,39,40)           109.8946         estimate D2E/DX2                !
 ! A106  A(38,39,91)           128.6972         estimate D2E/DX2                !
 ! A107  A(40,39,91)           121.2005         estimate D2E/DX2                !
 ! A108  A(39,40,41)           113.1354         estimate D2E/DX2                !
 ! A109  A(39,40,92)           119.4778         estimate D2E/DX2                !
 ! A110  A(41,40,92)           127.3123         estimate D2E/DX2                !
 ! A111  A(40,41,42)           113.9742         estimate D2E/DX2                !
 ! A112  A(40,41,43)           129.8702         estimate D2E/DX2                !
 ! A113  A(42,41,43)           116.0146         estimate D2E/DX2                !
 ! A114  A(38,42,41)            89.3854         estimate D2E/DX2                !
 ! A115  A(41,43,44)           124.5721         estimate D2E/DX2                !
 ! A116  A(41,43,51)           120.1205         estimate D2E/DX2                !
 ! A117  A(44,43,51)           114.8303         estimate D2E/DX2                !
 ! A118  A(43,44,45)           119.5872         estimate D2E/DX2                !
 ! A119  A(43,44,93)           119.666          estimate D2E/DX2                !
 ! A120  A(45,44,93)           120.7324         estimate D2E/DX2                !
 ! A121  A(44,45,46)           111.8862         estimate D2E/DX2                !
 ! A122  A(44,45,47)           124.155          estimate D2E/DX2                !
 ! A123  A(46,45,47)           123.8564         estimate D2E/DX2                !
 ! A124  A(45,47,48)           118.0178         estimate D2E/DX2                !
 ! A125  A(45,47,52)           119.5541         estimate D2E/DX2                !
 ! A126  A(48,47,52)           121.2612         estimate D2E/DX2                !
 ! A127  A(47,48,49)           115.9956         estimate D2E/DX2                !
 ! A128  A(47,48,51)           121.4006         estimate D2E/DX2                !
 ! A129  A(49,48,51)           121.7413         estimate D2E/DX2                !
 ! A130  A(48,49,50)           119.6436         estimate D2E/DX2                !
 ! A131  A(49,50,94)           108.9608         estimate D2E/DX2                !
 ! A132  A(49,50,95)           109.6948         estimate D2E/DX2                !
 ! A133  A(49,50,96)           113.1774         estimate D2E/DX2                !
 ! A134  A(94,50,95)           105.8935         estimate D2E/DX2                !
 ! A135  A(94,50,96)           106.5921         estimate D2E/DX2                !
 ! A136  A(95,50,96)           112.1708         estimate D2E/DX2                !
 ! A137  A(43,51,48)           121.4782         estimate D2E/DX2                !
 ! A138  A(43,51,97)           114.7619         estimate D2E/DX2                !
 ! A139  A(48,51,97)           123.5434         estimate D2E/DX2                !
 ! A140  A(47,52,53)           131.596          estimate D2E/DX2                !
 ! A141  A(47,52,56)           115.572          estimate D2E/DX2                !
 ! A142  A(53,52,56)           112.7303         estimate D2E/DX2                !
 ! A143  A(52,53,54)           111.2341         estimate D2E/DX2                !
 ! A144  A(52,53,98)           122.5991         estimate D2E/DX2                !
 ! A145  A(54,53,98)           125.9671         estimate D2E/DX2                !
 ! A146  A(53,54,55)           112.4369         estimate D2E/DX2                !
 ! A147  A(53,54,99)           119.1688         estimate D2E/DX2                !
 ! A148  A(55,54,99)           128.3212         estimate D2E/DX2                !
 ! A149  A(54,55,56)           113.4226         estimate D2E/DX2                !
 ! A150  A(54,55,57)           126.0555         estimate D2E/DX2                !
 ! A151  A(56,55,57)           120.176          estimate D2E/DX2                !
 ! A152  A(52,56,55)            90.0851         estimate D2E/DX2                !
 ! A153  A(55,57,58)           117.1323         estimate D2E/DX2                !
 ! A154  A(55,57,65)           123.9178         estimate D2E/DX2                !
 ! A155  A(58,57,65)           118.7155         estimate D2E/DX2                !
 ! A156  A(57,58,59)           118.5713         estimate D2E/DX2                !
 ! A157  A(57,58,100)          123.4382         estimate D2E/DX2                !
 ! A158  A(59,58,100)          117.9739         estimate D2E/DX2                !
 ! A159  A(58,59,60)           117.6499         estimate D2E/DX2                !
 ! A160  A(58,59,61)           123.4445         estimate D2E/DX2                !
 ! A161  A(60,59,61)           118.7724         estimate D2E/DX2                !
 ! A162  A(59,61,62)           116.8966         estimate D2E/DX2                !
 ! A163  A(59,61,66)           119.4016         estimate D2E/DX2                !
 ! A164  A(62,61,66)           123.6547         estimate D2E/DX2                !
 ! A165  A(61,62,63)           118.9109         estimate D2E/DX2                !
 ! A166  A(61,62,65)           119.9889         estimate D2E/DX2                !
 ! A167  A(63,62,65)           120.9724         estimate D2E/DX2                !
 ! A168  A(62,63,64)           123.7578         estimate D2E/DX2                !
 ! A169  A(63,64,101)          107.0578         estimate D2E/DX2                !
 ! A170  A(63,64,102)          110.3369         estimate D2E/DX2                !
 ! A171  A(63,64,103)          110.1432         estimate D2E/DX2                !
 ! A172  A(101,64,102)         110.3709         estimate D2E/DX2                !
 ! A173  A(101,64,103)         111.223          estimate D2E/DX2                !
 ! A174  A(102,64,103)         107.7299         estimate D2E/DX2                !
 ! A175  A(57,65,62)           122.1721         estimate D2E/DX2                !
 ! A176  A(57,65,104)          116.0773         estimate D2E/DX2                !
 ! A177  A(62,65,104)          121.0947         estimate D2E/DX2                !
 ! A178  A(61,66,67)           126.3621         estimate D2E/DX2                !
 ! A179  A(61,66,70)           123.06           estimate D2E/DX2                !
 ! A180  A(67,66,70)           110.5754         estimate D2E/DX2                !
 ! A181  A(66,67,68)           114.1737         estimate D2E/DX2                !
 ! A182  A(66,67,105)          123.849          estimate D2E/DX2                !
 ! A183  A(68,67,105)          121.5532         estimate D2E/DX2                !
 ! A184  A(67,68,69)           110.6158         estimate D2E/DX2                !
 ! A185  A(67,68,106)          126.5155         estimate D2E/DX2                !
 ! A186  A(69,68,106)          122.8541         estimate D2E/DX2                !
 ! A187  A(68,69,70)           110.6107         estimate D2E/DX2                !
 ! A188  A(68,69,107)          129.5392         estimate D2E/DX2                !
 ! A189  A(70,69,107)          119.6846         estimate D2E/DX2                !
 ! A190  A(66,70,69)            94.0035         estimate D2E/DX2                !
 ! D1    D(9,1,2,3)             -0.5519         estimate D2E/DX2                !
 ! D2    D(9,1,2,72)          -176.3732         estimate D2E/DX2                !
 ! D3    D(71,1,2,3)           174.2041         estimate D2E/DX2                !
 ! D4    D(71,1,2,72)           -1.6172         estimate D2E/DX2                !
 ! D5    D(2,1,9,6)             -2.3898         estimate D2E/DX2                !
 ! D6    D(2,1,9,76)          -178.5926         estimate D2E/DX2                !
 ! D7    D(71,1,9,6)          -177.1518         estimate D2E/DX2                !
 ! D8    D(71,1,9,76)            6.6454         estimate D2E/DX2                !
 ! D9    D(1,2,3,4)            179.8307         estimate D2E/DX2                !
 ! D10   D(1,2,3,5)              3.3446         estimate D2E/DX2                !
 ! D11   D(72,2,3,4)            -4.6225         estimate D2E/DX2                !
 ! D12   D(72,2,3,5)           178.8915         estimate D2E/DX2                !
 ! D13   D(2,3,5,6)             -2.8948         estimate D2E/DX2                !
 ! D14   D(2,3,5,10)          -179.2407         estimate D2E/DX2                !
 ! D15   D(4,3,5,6)           -179.5938         estimate D2E/DX2                !
 ! D16   D(4,3,5,10)             4.0602         estimate D2E/DX2                !
 ! D17   D(3,5,6,7)           -177.6118         estimate D2E/DX2                !
 ! D18   D(3,5,6,9)             -0.2654         estimate D2E/DX2                !
 ! D19   D(10,5,6,7)            -1.175          estimate D2E/DX2                !
 ! D20   D(10,5,6,9)           176.1714         estimate D2E/DX2                !
 ! D21   D(3,5,10,11)          122.2117         estimate D2E/DX2                !
 ! D22   D(3,5,10,14)          -63.4727         estimate D2E/DX2                !
 ! D23   D(6,5,10,11)          -54.0312         estimate D2E/DX2                !
 ! D24   D(6,5,10,14)          120.2844         estimate D2E/DX2                !
 ! D25   D(5,6,7,8)            166.1577         estimate D2E/DX2                !
 ! D26   D(9,6,7,8)            -11.1707         estimate D2E/DX2                !
 ! D27   D(5,6,9,1)              2.7407         estimate D2E/DX2                !
 ! D28   D(5,6,9,76)           178.5743         estimate D2E/DX2                !
 ! D29   D(7,6,9,1)           -179.8968         estimate D2E/DX2                !
 ! D30   D(7,6,9,76)            -4.0631         estimate D2E/DX2                !
 ! D31   D(6,7,8,73)          -177.7749         estimate D2E/DX2                !
 ! D32   D(6,7,8,74)            68.0349         estimate D2E/DX2                !
 ! D33   D(6,7,8,75)           -55.7174         estimate D2E/DX2                !
 ! D34   D(5,10,11,12)        -178.9849         estimate D2E/DX2                !
 ! D35   D(5,10,11,77)          -3.6824         estimate D2E/DX2                !
 ! D36   D(14,10,11,12)          6.3516         estimate D2E/DX2                !
 ! D37   D(14,10,11,77)       -178.3459         estimate D2E/DX2                !
 ! D38   D(5,10,14,13)        -177.5437         estimate D2E/DX2                !
 ! D39   D(11,10,14,13)         -2.3407         estimate D2E/DX2                !
 ! D40   D(10,11,12,13)         -8.0003         estimate D2E/DX2                !
 ! D41   D(10,11,12,78)       -177.0058         estimate D2E/DX2                !
 ! D42   D(77,11,12,13)        176.4198         estimate D2E/DX2                !
 ! D43   D(77,11,12,78)          7.4144         estimate D2E/DX2                !
 ! D44   D(11,12,13,14)          5.9861         estimate D2E/DX2                !
 ! D45   D(11,12,13,15)       -179.2263         estimate D2E/DX2                !
 ! D46   D(78,12,13,14)        175.972          estimate D2E/DX2                !
 ! D47   D(78,12,13,15)         -9.2404         estimate D2E/DX2                !
 ! D48   D(12,13,14,10)         -2.2265         estimate D2E/DX2                !
 ! D49   D(15,13,14,10)       -177.3511         estimate D2E/DX2                !
 ! D50   D(12,13,15,16)         57.6787         estimate D2E/DX2                !
 ! D51   D(12,13,15,23)       -119.9841         estimate D2E/DX2                !
 ! D52   D(14,13,15,16)       -128.0872         estimate D2E/DX2                !
 ! D53   D(14,13,15,23)         54.2499         estimate D2E/DX2                !
 ! D54   D(13,15,16,17)       -177.9401         estimate D2E/DX2                !
 ! D55   D(13,15,16,79)         -3.2486         estimate D2E/DX2                !
 ! D56   D(23,15,16,17)         -0.2295         estimate D2E/DX2                !
 ! D57   D(23,15,16,79)        174.4619         estimate D2E/DX2                !
 ! D58   D(13,15,23,20)        176.2747         estimate D2E/DX2                !
 ! D59   D(13,15,23,83)         -0.1558         estimate D2E/DX2                !
 ! D60   D(16,15,23,20)         -1.4399         estimate D2E/DX2                !
 ! D61   D(16,15,23,83)       -177.8705         estimate D2E/DX2                !
 ! D62   D(15,16,17,18)        175.0519         estimate D2E/DX2                !
 ! D63   D(15,16,17,19)          3.5169         estimate D2E/DX2                !
 ! D64   D(79,16,17,18)          0.0471         estimate D2E/DX2                !
 ! D65   D(79,16,17,19)       -171.4878         estimate D2E/DX2                !
 ! D66   D(16,17,19,20)         -5.2108         estimate D2E/DX2                !
 ! D67   D(16,17,19,24)       -179.8481         estimate D2E/DX2                !
 ! D68   D(18,17,19,20)       -176.3397         estimate D2E/DX2                !
 ! D69   D(18,17,19,24)          9.023          estimate D2E/DX2                !
 ! D70   D(17,19,20,21)       -176.394          estimate D2E/DX2                !
 ! D71   D(17,19,20,23)          3.3687         estimate D2E/DX2                !
 ! D72   D(24,19,20,21)         -2.0701         estimate D2E/DX2                !
 ! D73   D(24,19,20,23)        177.6925         estimate D2E/DX2                !
 ! D74   D(17,19,24,25)        117.762          estimate D2E/DX2                !
 ! D75   D(17,19,24,28)        -69.8379         estimate D2E/DX2                !
 ! D76   D(20,19,24,25)        -56.667          estimate D2E/DX2                !
 ! D77   D(20,19,24,28)        115.733          estimate D2E/DX2                !
 ! D78   D(19,20,21,22)        171.8968         estimate D2E/DX2                !
 ! D79   D(23,20,21,22)         -7.8464         estimate D2E/DX2                !
 ! D80   D(19,20,23,15)         -0.2102         estimate D2E/DX2                !
 ! D81   D(19,20,23,83)        175.9757         estimate D2E/DX2                !
 ! D82   D(21,20,23,15)        179.5348         estimate D2E/DX2                !
 ! D83   D(21,20,23,83)         -4.2794         estimate D2E/DX2                !
 ! D84   D(20,21,22,80)        -52.8583         estimate D2E/DX2                !
 ! D85   D(20,21,22,81)        178.7353         estimate D2E/DX2                !
 ! D86   D(20,21,22,82)         69.0849         estimate D2E/DX2                !
 ! D87   D(19,24,25,26)        176.112          estimate D2E/DX2                !
 ! D88   D(19,24,25,84)         -3.3098         estimate D2E/DX2                !
 ! D89   D(28,24,25,26)          3.3362         estimate D2E/DX2                !
 ! D90   D(28,24,25,84)       -176.0857         estimate D2E/DX2                !
 ! D91   D(19,24,28,27)       -177.0141         estimate D2E/DX2                !
 ! D92   D(25,24,28,27)         -3.0725         estimate D2E/DX2                !
 ! D93   D(24,25,26,27)         -1.8129         estimate D2E/DX2                !
 ! D94   D(24,25,26,85)       -177.8608         estimate D2E/DX2                !
 ! D95   D(84,25,26,27)        177.5266         estimate D2E/DX2                !
 ! D96   D(84,25,26,85)          1.4788         estimate D2E/DX2                !
 ! D97   D(25,26,27,28)         -0.4962         estimate D2E/DX2                !
 ! D98   D(25,26,27,29)       -176.3031         estimate D2E/DX2                !
 ! D99   D(85,26,27,28)        175.3434         estimate D2E/DX2                !
 ! D100  D(85,26,27,29)         -0.4635         estimate D2E/DX2                !
 ! D101  D(26,27,28,24)          2.0858         estimate D2E/DX2                !
 ! D102  D(29,27,28,24)        178.6425         estimate D2E/DX2                !
 ! D103  D(26,27,29,30)         47.8571         estimate D2E/DX2                !
 ! D104  D(26,27,29,37)       -123.9366         estimate D2E/DX2                !
 ! D105  D(28,27,29,30)       -127.73           estimate D2E/DX2                !
 ! D106  D(28,27,29,37)         60.4764         estimate D2E/DX2                !
 ! D107  D(27,29,30,31)        177.0661         estimate D2E/DX2                !
 ! D108  D(27,29,30,86)          8.6423         estimate D2E/DX2                !
 ! D109  D(37,29,30,31)        -10.9699         estimate D2E/DX2                !
 ! D110  D(37,29,30,86)       -179.3937         estimate D2E/DX2                !
 ! D111  D(27,29,37,34)        177.5119         estimate D2E/DX2                !
 ! D112  D(27,29,37,90)         -6.173          estimate D2E/DX2                !
 ! D113  D(30,29,37,34)          5.8175         estimate D2E/DX2                !
 ! D114  D(30,29,37,90)       -177.8674         estimate D2E/DX2                !
 ! D115  D(29,30,31,32)       -172.7007         estimate D2E/DX2                !
 ! D116  D(29,30,31,33)          9.0802         estimate D2E/DX2                !
 ! D117  D(86,30,31,32)         -3.9121         estimate D2E/DX2                !
 ! D118  D(86,30,31,33)        177.8688         estimate D2E/DX2                !
 ! D119  D(30,31,33,34)         -2.2943         estimate D2E/DX2                !
 ! D120  D(30,31,33,38)        179.2551         estimate D2E/DX2                !
 ! D121  D(32,31,33,34)        179.5208         estimate D2E/DX2                !
 ! D122  D(32,31,33,38)          1.0702         estimate D2E/DX2                !
 ! D123  D(31,33,34,35)       -177.3505         estimate D2E/DX2                !
 ! D124  D(31,33,34,37)         -2.6984         estimate D2E/DX2                !
 ! D125  D(38,33,34,35)          1.1388         estimate D2E/DX2                !
 ! D126  D(38,33,34,37)        175.7909         estimate D2E/DX2                !
 ! D127  D(31,33,38,39)        112.39           estimate D2E/DX2                !
 ! D128  D(31,33,38,42)        -61.3712         estimate D2E/DX2                !
 ! D129  D(34,33,38,39)        -66.1435         estimate D2E/DX2                !
 ! D130  D(34,33,38,42)        120.0954         estimate D2E/DX2                !
 ! D131  D(33,34,35,36)        170.3975         estimate D2E/DX2                !
 ! D132  D(37,34,35,36)         -3.9267         estimate D2E/DX2                !
 ! D133  D(33,34,37,29)          0.9263         estimate D2E/DX2                !
 ! D134  D(33,34,37,90)       -175.0829         estimate D2E/DX2                !
 ! D135  D(35,34,37,29)        175.0342         estimate D2E/DX2                !
 ! D136  D(35,34,37,90)         -0.9749         estimate D2E/DX2                !
 ! D137  D(34,35,36,87)         62.99           estimate D2E/DX2                !
 ! D138  D(34,35,36,88)       -174.4371         estimate D2E/DX2                !
 ! D139  D(34,35,36,89)        -61.6197         estimate D2E/DX2                !
 ! D140  D(33,38,39,40)       -175.1408         estimate D2E/DX2                !
 ! D141  D(33,38,39,91)         10.1256         estimate D2E/DX2                !
 ! D142  D(42,38,39,40)         -1.1363         estimate D2E/DX2                !
 ! D143  D(42,38,39,91)       -175.8699         estimate D2E/DX2                !
 ! D144  D(33,38,42,41)        173.4912         estimate D2E/DX2                !
 ! D145  D(39,38,42,41)         -1.1693         estimate D2E/DX2                !
 ! D146  D(38,39,40,41)          3.8999         estimate D2E/DX2                !
 ! D147  D(38,39,40,92)       -179.012          estimate D2E/DX2                !
 ! D148  D(91,39,40,41)        179.0957         estimate D2E/DX2                !
 ! D149  D(91,39,40,92)         -3.8161         estimate D2E/DX2                !
 ! D150  D(39,40,41,42)         -4.8974         estimate D2E/DX2                !
 ! D151  D(39,40,41,43)        179.6525         estimate D2E/DX2                !
 ! D152  D(92,40,41,42)        178.29           estimate D2E/DX2                !
 ! D153  D(92,40,41,43)          2.8399         estimate D2E/DX2                !
 ! D154  D(40,41,42,38)          3.5838         estimate D2E/DX2                !
 ! D155  D(43,41,42,38)        179.6992         estimate D2E/DX2                !
 ! D156  D(40,41,43,44)       -135.7144         estimate D2E/DX2                !
 ! D157  D(40,41,43,51)         35.9398         estimate D2E/DX2                !
 ! D158  D(42,41,43,44)         48.9118         estimate D2E/DX2                !
 ! D159  D(42,41,43,51)       -139.4339         estimate D2E/DX2                !
 ! D160  D(41,43,44,45)        175.3019         estimate D2E/DX2                !
 ! D161  D(41,43,44,93)         -6.0651         estimate D2E/DX2                !
 ! D162  D(51,43,44,45)          3.2535         estimate D2E/DX2                !
 ! D163  D(51,43,44,93)       -178.1135         estimate D2E/DX2                !
 ! D164  D(41,43,51,48)       -171.4233         estimate D2E/DX2                !
 ! D165  D(41,43,51,97)          3.4108         estimate D2E/DX2                !
 ! D166  D(44,43,51,48)          1.0095         estimate D2E/DX2                !
 ! D167  D(44,43,51,97)        175.8435         estimate D2E/DX2                !
 ! D168  D(43,44,45,46)       -178.1739         estimate D2E/DX2                !
 ! D169  D(43,44,45,47)         -1.7356         estimate D2E/DX2                !
 ! D170  D(93,44,45,46)          3.208          estimate D2E/DX2                !
 ! D171  D(93,44,45,47)        179.6464         estimate D2E/DX2                !
 ! D172  D(44,45,47,48)         -4.1638         estimate D2E/DX2                !
 ! D173  D(44,45,47,52)       -171.979          estimate D2E/DX2                !
 ! D174  D(46,45,47,48)        171.8558         estimate D2E/DX2                !
 ! D175  D(46,45,47,52)          4.0405         estimate D2E/DX2                !
 ! D176  D(45,47,48,49)        178.0938         estimate D2E/DX2                !
 ! D177  D(45,47,48,51)          8.5507         estimate D2E/DX2                !
 ! D178  D(52,47,48,49)        -14.3094         estimate D2E/DX2                !
 ! D179  D(52,47,48,51)        176.1476         estimate D2E/DX2                !
 ! D180  D(45,47,52,53)        114.5445         estimate D2E/DX2                !
 ! D181  D(45,47,52,56)        -69.4465         estimate D2E/DX2                !
 ! D182  D(48,47,52,53)        -52.8653         estimate D2E/DX2                !
 ! D183  D(48,47,52,56)        123.1437         estimate D2E/DX2                !
 ! D184  D(47,48,49,50)        171.8867         estimate D2E/DX2                !
 ! D185  D(51,48,49,50)        -18.6089         estimate D2E/DX2                !
 ! D186  D(47,48,51,43)         -7.0371         estimate D2E/DX2                !
 ! D187  D(47,48,51,97)        178.5926         estimate D2E/DX2                !
 ! D188  D(49,48,51,43)       -175.9778         estimate D2E/DX2                !
 ! D189  D(49,48,51,97)          9.6519         estimate D2E/DX2                !
 ! D190  D(48,49,50,94)         70.9215         estimate D2E/DX2                !
 ! D191  D(48,49,50,95)        -44.5797         estimate D2E/DX2                !
 ! D192  D(48,49,50,96)       -170.684          estimate D2E/DX2                !
 ! D193  D(47,52,53,54)        179.0578         estimate D2E/DX2                !
 ! D194  D(47,52,53,98)         -5.7974         estimate D2E/DX2                !
 ! D195  D(56,52,53,54)          2.9609         estimate D2E/DX2                !
 ! D196  D(56,52,53,98)        178.1057         estimate D2E/DX2                !
 ! D197  D(47,52,56,55)       -178.3119         estimate D2E/DX2                !
 ! D198  D(53,52,56,55)         -1.547          estimate D2E/DX2                !
 ! D199  D(52,53,54,55)         -3.2544         estimate D2E/DX2                !
 ! D200  D(52,53,54,99)        179.5996         estimate D2E/DX2                !
 ! D201  D(98,53,54,55)       -178.2001         estimate D2E/DX2                !
 ! D202  D(98,53,54,99)          4.6539         estimate D2E/DX2                !
 ! D203  D(53,54,55,56)          2.1136         estimate D2E/DX2                !
 ! D204  D(53,54,55,57)        175.3191         estimate D2E/DX2                !
 ! D205  D(99,54,55,56)        178.9369         estimate D2E/DX2                !
 ! D206  D(99,54,55,57)         -7.8576         estimate D2E/DX2                !
 ! D207  D(54,55,56,52)         -0.3743         estimate D2E/DX2                !
 ! D208  D(57,55,56,52)       -174.0221         estimate D2E/DX2                !
 ! D209  D(54,55,57,58)         40.0417         estimate D2E/DX2                !
 ! D210  D(54,55,57,65)       -145.6052         estimate D2E/DX2                !
 ! D211  D(56,55,57,58)       -147.1724         estimate D2E/DX2                !
 ! D212  D(56,55,57,65)         27.1808         estimate D2E/DX2                !
 ! D213  D(55,57,58,59)        178.5832         estimate D2E/DX2                !
 ! D214  D(55,57,58,100)         0.0986         estimate D2E/DX2                !
 ! D215  D(65,57,58,59)          3.9253         estimate D2E/DX2                !
 ! D216  D(65,57,58,100)      -174.5592         estimate D2E/DX2                !
 ! D217  D(55,57,65,62)       -178.4573         estimate D2E/DX2                !
 ! D218  D(55,57,65,104)        10.7374         estimate D2E/DX2                !
 ! D219  D(58,57,65,62)         -4.1877         estimate D2E/DX2                !
 ! D220  D(58,57,65,104)      -174.993          estimate D2E/DX2                !
 ! D221  D(57,58,59,60)       -179.4287         estimate D2E/DX2                !
 ! D222  D(57,58,59,61)         -3.6834         estimate D2E/DX2                !
 ! D223  D(100,58,59,60)        -0.8606         estimate D2E/DX2                !
 ! D224  D(100,58,59,61)       174.8847         estimate D2E/DX2                !
 ! D225  D(58,59,61,62)          3.3108         estimate D2E/DX2                !
 ! D226  D(58,59,61,66)       -179.094          estimate D2E/DX2                !
 ! D227  D(60,59,61,62)        179.0111         estimate D2E/DX2                !
 ! D228  D(60,59,61,66)         -3.3937         estimate D2E/DX2                !
 ! D229  D(59,61,62,63)       -179.2321         estimate D2E/DX2                !
 ! D230  D(59,61,62,65)         -3.3018         estimate D2E/DX2                !
 ! D231  D(66,61,62,63)          3.2848         estimate D2E/DX2                !
 ! D232  D(66,61,62,65)        179.2152         estimate D2E/DX2                !
 ! D233  D(59,61,66,67)       -124.9051         estimate D2E/DX2                !
 ! D234  D(59,61,66,70)         54.4615         estimate D2E/DX2                !
 ! D235  D(62,61,66,67)         52.5183         estimate D2E/DX2                !
 ! D236  D(62,61,66,70)       -128.1151         estimate D2E/DX2                !
 ! D237  D(61,62,63,64)        172.397          estimate D2E/DX2                !
 ! D238  D(65,62,63,64)         -3.492          estimate D2E/DX2                !
 ! D239  D(61,62,65,57)          3.9116         estimate D2E/DX2                !
 ! D240  D(61,62,65,104)       174.2629         estimate D2E/DX2                !
 ! D241  D(63,62,65,57)        179.7565         estimate D2E/DX2                !
 ! D242  D(63,62,65,104)        -9.8921         estimate D2E/DX2                !
 ! D243  D(62,63,64,101)       -57.371          estimate D2E/DX2                !
 ! D244  D(62,63,64,102)      -177.5064         estimate D2E/DX2                !
 ! D245  D(62,63,64,103)        63.6849         estimate D2E/DX2                !
 ! D246  D(61,66,67,68)       -179.0289         estimate D2E/DX2                !
 ! D247  D(61,66,67,105)        -6.4188         estimate D2E/DX2                !
 ! D248  D(70,66,67,68)          1.5382         estimate D2E/DX2                !
 ! D249  D(70,66,67,105)       174.1483         estimate D2E/DX2                !
 ! D250  D(61,66,70,69)        179.6446         estimate D2E/DX2                !
 ! D251  D(67,66,70,69)         -0.9003         estimate D2E/DX2                !
 ! D252  D(66,67,68,69)         -1.4903         estimate D2E/DX2                !
 ! D253  D(66,67,68,106)       179.8745         estimate D2E/DX2                !
 ! D254  D(105,67,68,69)      -174.2891         estimate D2E/DX2                !
 ! D255  D(105,67,68,106)        7.0757         estimate D2E/DX2                !
 ! D256  D(67,68,69,70)          0.7737         estimate D2E/DX2                !
 ! D257  D(67,68,69,107)       175.9975         estimate D2E/DX2                !
 ! D258  D(106,68,69,70)       179.468          estimate D2E/DX2                !
 ! D259  D(106,68,69,107)       -5.3082         estimate D2E/DX2                !
 ! D260  D(68,69,70,66)          0.0685         estimate D2E/DX2                !
 ! D261  D(107,69,70,66)      -175.6929         estimate D2E/DX2                !
 --------------------------------------------------------------------------------
 Trust Radius=3.00D-01 FncErr=1.00D-07 GrdErr=1.00D-06 EigMax=2.50D+02 EigMin=1.00D-04
 Number of steps in this run=    577 maximum allowed number of steps=    642.
 GradGradGradGradGradGradGradGradGradGradGradGradGradGradGradGradGradGrad

 Leave Link  103 at Sat Jul 25 02:16:49 2020, MaxMem=  4026531840 cpu:               0.2 elap:               0.0
 (Enter /opt/ohpc/pub/libs/gaussian/g16-A.03/sandybridge/g16/l202.exe)
 Stoichiometry    C55H37F5O5S5
 Framework group  C1[X(C55H37F5O5S5)]
 Deg. of freedom   315
 Full point group                 C1      NOp   1
 Largest Abelian subgroup         C1      NOp   1
 Largest concise Abelian subgroup C1      NOp   1
                         Standard orientation:                         
 ---------------------------------------------------------------------
 Center     Atomic      Atomic             Coordinates (Angstroms)
 Number     Number       Type             X           Y           Z
 ---------------------------------------------------------------------
      1          6           0      -18.938839   -1.221237   -0.309636
      2          6           0      -17.960317   -1.780975   -1.177241
      3          6           0      -16.676182   -1.354467   -1.113965
      4          9           0      -15.740113   -1.868399   -1.916680
      5          6           0      -16.177611   -0.396284   -0.167847
      6          6           0      -17.132271    0.194857    0.739331
      7          8           0      -16.754741    1.118004    1.605030
      8          6           0      -17.680858    1.880104    2.266595
      9          6           0      -18.555502   -0.200126    0.652285
     10          6           0      -14.788660    0.040058   -0.153994
     11          6           0      -14.309982    1.270981   -0.271855
     12          6           0      -12.892580    1.337553   -0.237934
     13          6           0      -12.335634    0.064753    0.101801
     14         16           0      -13.548540   -1.101447    0.181522
     15          6           0      -10.918396   -0.276973    0.254517
     16          6           0      -10.138887    0.381534    1.143120
     17          6           0       -8.806533    0.062290    1.227376
     18          9           0       -8.053479    0.838643    2.071776
     19          6           0       -8.194205   -0.884023    0.366380
     20          6           0       -8.969175   -1.589242   -0.517817
     21          8           0       -8.354657   -2.559018   -1.290950
     22          6           0       -9.194778   -3.422577   -2.090518
     23          6           0      -10.319820   -1.278084   -0.566489
     24          6           0       -6.772424   -1.141349    0.555360
     25          6           0       -6.060698   -2.325697    0.916386
     26          6           0       -4.662342   -2.128223    0.896594
     27          6           0       -4.276171   -0.875812    0.504077
     28         16           0       -5.690877    0.105425    0.127428
     29          6           0       -2.951864   -0.256610    0.272156
     30          6           0       -2.015192   -0.957551   -0.504987
     31          6           0       -0.750461   -0.374393   -0.807268
     32          9           0        0.064078   -0.954035   -1.640057
     33          6           0       -0.428280    0.793229   -0.153151
     34          6           0       -1.316956    1.438937    0.751499
     35          8           0       -0.866172    2.619432    1.273653
     36          6           0       -1.870856    3.369688    2.018783
     37          6           0       -2.555121    0.926960    0.949473
     38          6           0        0.889225    1.452424   -0.408107
     39          6           0        1.128595    2.634708   -1.019549
     40          6           0        2.594419    2.844638   -1.159247
     41          6           0        3.293500    1.836892   -0.748742
     42         16           0        2.343977    0.563796   -0.020044
     43          6           0        4.769479    1.646339   -0.723850
     44          6           0        5.442797    0.444463   -1.128675
     45          6           0        6.821118    0.412413   -1.156003
     46          9           0        7.299956   -0.805194   -1.606748
     47          6           0        7.612902    1.469501   -0.852534
     48          6           0        7.000811    2.685009   -0.576756
     49          8           0        7.847903    3.727798   -0.231412
     50          6           0        7.321850    5.055732   -0.101429
     51          6           0        5.654874    2.783412   -0.439038
     52          6           0        9.107361    1.377356   -1.091181
     53          6           0        9.941128    2.058508   -1.955053
     54          6           0       11.318623    1.631264   -1.801786
     55          6           0       11.473832    0.707508   -0.788805
     56         16           0        9.985555    0.270647   -0.022482
     57          6           0       12.711220    0.010076   -0.442376
     58          6           0       13.913878    0.764769   -0.484797
     59          6           0       15.121213    0.130206   -0.127012
     60          9           0       16.194615    0.831021   -0.160807
     61          6           0       15.193727   -1.235684    0.358057
     62          6           0       13.969548   -1.973402    0.399046
     63          8           0       13.987143   -3.212757    0.847330
     64          6           0       12.855738   -3.959815    1.071623
     65          6           0       12.761135   -1.348939    0.046862
     66          6           0       16.433312   -1.774169    0.706415
     67          6           0       17.005959   -2.971422    0.195786
     68          6           0       18.291890   -3.294312    0.754307
     69          6           0       18.704575   -2.286923    1.686317
     70         16           0       17.484282   -1.037991    1.824813
     71          1           0      -19.934497   -1.480203   -0.417343
     72          1           0      -18.312080   -2.494224   -1.915650
     73          1           0      -17.190890    2.612427    2.907722
     74          1           0      -18.278931    1.328565    2.976547
     75          1           0      -18.373161    2.418174    1.623083
     76          1           0      -19.304369    0.148248    1.265835
     77          1           0      -14.933467    2.219313   -0.468429
     78          1           0      -12.252292    2.235381   -0.269845
     79          1           0      -10.500329    1.235087    1.757871
     80          1           0       -9.963596   -3.895569   -1.535639
     81          1           0       -8.528306   -4.059568   -2.606847
     82          1           0       -9.649765   -2.774863   -2.929806
     83          1           0      -11.010571   -1.757164   -1.304115
     84          1           0       -6.600183   -3.172019    1.136960
     85          1           0       -3.980106   -2.957231    1.117500
     86          1           0       -2.289528   -1.836577   -1.026560
     87          1           0       -2.259171    2.863174    2.919419
     88          1           0       -1.447447    4.330570    2.306563
     89          1           0       -2.693623    3.629661    1.331051
     90          1           0       -3.306733    1.396319    1.554699
     91          1           0        0.425884    3.397461   -1.308587
     92          1           0        2.985566    3.816062   -1.646403
     93          1           0        4.865608   -0.430085   -1.386719
     94          1           0        6.672179    5.107811    0.838780
     95          1           0        6.662891    5.267929   -0.927701
     96          1           0        8.063674    5.782913    0.007950
     97          1           0        5.145029    3.705675   -0.203193
     98          1           0        9.581043    2.732181   -2.675108
     99          1           0       12.037543    2.053385   -2.387452
    100          1           0       13.952104    1.827031   -0.759282
    101          1           0       12.227868   -3.392469    1.795353
    102          1           0       13.105728   -4.880269    1.458766
    103          1           0       12.297674   -4.135403    0.087443
    104          1           0       11.839094   -1.911891   -0.017493
    105          1           0       16.465264   -3.682894   -0.484468
    106          1           0       18.873109   -4.114696    0.523106
    107          1           0       19.564416   -2.252354    2.306607
 ---------------------------------------------------------------------
 Rotational constants (GHZ):           0.1102955           0.0038113           0.0037466
 Leave Link  202 at Sat Jul 25 02:16:49 2020, MaxMem=  4026531840 cpu:               0.1 elap:               0.0
 (Enter /opt/ohpc/pub/libs/gaussian/g16-A.03/sandybridge/g16/l301.exe)
 Standard basis: CC-pVDZ (5D, 7F)
 Ernie: Thresh=  0.10000D-02 Tol=  0.10000D-05 Strict=F.
 Ernie:  180 primitive shells out of 1865 were deleted.
 There are  1255 symmetry adapted cartesian basis functions of A   symmetry.
 There are  1185 symmetry adapted basis functions of A   symmetry.
  1185 basis functions,  2759 primitive gaussians,  1255 cartesian basis functions
   266 alpha electrons      266 beta electrons
       nuclear repulsion energy      9779.4891957276 Hartrees.
 IExCor=32609 DFT=T Ex+Corr=LC-wPBE ExCW=0 ScaHFX=  1.000000
 ScaDFX=  1.000000  0.000000  1.000000  1.000000 ScalE2=  1.000000  1.000000
 IRadAn=      5 IRanWt=     -1 IRanGd=            0 ICorTp=0 IEmpDi=  4
 HFx  wShort=  0.000000 wLong=  0.375700 cFull=  0.000000 cShort=  0.000000 cLong=  1.000000
 DFx  wShort=  0.000000 wLong=  0.375700 cFull=  0.000000 cShort=  0.000000 cLong=  1.000000
 NAtoms=  107 NActive=  107 NUniq=  107 SFac= 1.00D+00 NAtFMM=   60 NAOKFM=T Big=T
 Integral buffers will be    131072 words long.
[...]
  Beta virt. eigenvalues --    1.54319   1.54777   1.55178   1.55193   1.55663
  Beta virt. eigenvalues --    1.55698   1.56210   1.56414   1.56550   1.56757
  Beta virt. eigenvalues --    1.57202   1.57386   1.57738   1.57911   1.58071
  Beta virt. eigenvalues --    1.58518   1.58613   1.58740   1.59007   1.59266
  Beta virt. eigenvalues --    1.59505   1.60567   1.60734   1.60896   1.61394
  Beta virt. eigenvalues --    1.61504   1.61649   1.61905   1.61989   1.62413
  Beta virt. eigenvalues --    1.62679   1.62828   1.63187   1.63783   1.63873
  Beta virt. eigenvalues --    1.64120   1.64437   1.64899   1.65012   1.65172
  Beta virt. eigenvalues --    1.65375   1.66241   1.66423   1.66549   1.66872
  Beta virt. eigenvalues --    1.67539   1.67745   1.67972   1.68059   1.68483
  Beta virt. eigenvalues --    1.68772   1.69068   1.69247   1.69356   1.69507
  Beta virt. eigenvalues --    1.69756   1.69920   1.70357   1.70662   1.70726
  Beta virt. eigenvalues --    1.70871   1.71630   1.71690   1.71785   1.71907
  Beta virt. eigenvalues --    1.72116   1.72262   1.72702   1.72895   1.73311
  Beta virt. eigenvalues --    1.73447   1.73491   1.73658   1.73856   1.74034
  Beta virt. eigenvalues --    1.74548   1.74586   1.74844   1.74918   1.75375
  Beta virt. eigenvalues --    1.75545   1.75614   1.75854   1.76120   1.76599
  Beta virt. eigenvalues --    1.76699   1.76761   1.76930   1.77307   1.77633
  Beta virt. eigenvalues --    1.77767   1.77998   1.78287   1.78457   1.78562
  Beta virt. eigenvalues --    1.78679   1.78948   1.79168   1.79289   1.79543
  Beta virt. eigenvalues --    1.79905   1.80198   1.80391   1.80685   1.80893
  Beta virt. eigenvalues --    1.81350   1.81607   1.81831   1.82073   1.82682
  Beta virt. eigenvalues --    1.82936   1.83308   1.83534   1.83625   1.84087
  Beta virt. eigenvalues --    1.84457   1.84484   1.85073   1.85284   1.85369
  Beta virt. eigenvalues --    1.85556   1.86124   1.86160   1.86374   1.86617
  Beta virt. eigenvalues --    1.86845   1.86920   1.87275   1.87439   1.87741
  Beta virt. eigenvalues --    1.87968   1.88186   1.88225   1.89123   1.89907
  Beta virt. eigenvalues --    1.90108   1.90314   1.90897   1.91294   1.91405
  Beta virt. eigenvalues --    1.91621   1.92544   1.92749   1.93148   1.93621
  Beta virt. eigenvalues --    1.94270   1.94491   1.94800   1.95048   1.95080
  Beta virt. eigenvalues --    1.95328   1.95369   1.95905   1.96251   1.96474
  Beta virt. eigenvalues --    1.96670   1.97048   1.97139   1.97430   1.97689
  Beta virt. eigenvalues --    1.97838   1.97928   1.98310   1.98508   1.98852
  Beta virt. eigenvalues --    1.98965   1.99147   1.99290   1.99913   2.00246
  Beta virt. eigenvalues --    2.00488   2.00617   2.00795   2.01313   2.01467
  Beta virt. eigenvalues --    2.01597   2.02069   2.02404   2.02665   2.04452
  Beta virt. eigenvalues --    2.04508   2.05074   2.06021   2.06150   2.06644
  Beta virt. eigenvalues --    2.07132   2.07605   2.08232   2.09037   2.09281
  Beta virt. eigenvalues --    2.09565   2.10077   2.10373   2.10416   2.10627
  Beta virt. eigenvalues --    2.11216   2.11829   2.11895   2.12496   2.13327
  Beta virt. eigenvalues --    2.13542   2.13778   2.13982   2.14055   2.14373
  Beta virt. eigenvalues --    2.14437   2.15058   2.15287   2.15627   2.16145
  Beta virt. eigenvalues --    2.16266   2.16442   2.16584   2.16888   2.18259
  Beta virt. eigenvalues --    2.19383   2.19741   2.19808   2.20055   2.20455
  Beta virt. eigenvalues --    2.20608   2.21277   2.22142   2.22179   2.22859
  Beta virt. eigenvalues --    2.24311   2.24472   2.24534   2.25206   2.25492
  Beta virt. eigenvalues --    2.25987   2.26144   2.26768   2.26969   2.27632
  Beta virt. eigenvalues --    2.27748   2.27970   2.28309   2.28477   2.29389
  Beta virt. eigenvalues --    2.29982   2.30316   2.31340   2.31838   2.32262
  Beta virt. eigenvalues --    2.32417   2.32828   2.33121   2.33335   2.34729
  Beta virt. eigenvalues --    2.35071   2.35386   2.36455   2.36522   2.36949
  Beta virt. eigenvalues --    2.37470   2.37796   2.39251   2.39704   2.40056
  Beta virt. eigenvalues --    2.40464   2.40808   2.41153   2.41963   2.42340
  Beta virt. eigenvalues --    2.43244   2.44489   2.45621   2.46377   2.47267
  Beta virt. eigenvalues --    2.48112   2.48663   2.48959   2.49039   2.49451
  Beta virt. eigenvalues --    2.49612   2.49675   2.49913   2.50104   2.50606
  Beta virt. eigenvalues --    2.51553   2.51794   2.52660   2.52866   2.53614
  Beta virt. eigenvalues --    2.54433   2.54611   2.54927   2.55638   2.56149
  Beta virt. eigenvalues --    2.57181   2.57470   2.57663   2.58216   2.59385
  Beta virt. eigenvalues --    2.59902   2.59931   2.60225   2.60428   2.63242
  Beta virt. eigenvalues --    2.63763   2.63900   2.64122   2.64309   2.64693
  Beta virt. eigenvalues --    2.65063   2.65187   2.65527   2.66860   2.67023
  Beta virt. eigenvalues --    2.67411   2.67736   2.68172   2.69647   2.72003
  Beta virt. eigenvalues --    2.72764   2.73556   2.74156   2.75126   2.75515
  Beta virt. eigenvalues --    2.76066   2.76363   2.77244   2.78737   2.79482
  Beta virt. eigenvalues --    2.80264   2.80644   2.81119   2.81468   2.81973
  Beta virt. eigenvalues --    2.82453   2.83035   2.83359   2.84618   2.88218
  Beta virt. eigenvalues --    2.93281   2.93653   2.94170   2.94410   2.97632
  Beta virt. eigenvalues --    2.97969   2.98162   2.98279   2.98741   3.11700
  Beta virt. eigenvalues --    3.11981   3.12102   3.12250   3.12733   3.13479
  Beta virt. eigenvalues --    3.13829   3.14164   3.14354   3.14912   3.22359
  Beta virt. eigenvalues --    3.23154   3.23500   3.24387   3.28789   3.31381
  Beta virt. eigenvalues --    3.31962   3.32846   3.33252   3.35043   3.50467
  Beta virt. eigenvalues --    3.51176   3.51222   3.51439   3.51944   3.59741
  Beta virt. eigenvalues --    3.60138   3.60591   3.60997   3.62420   3.66331
  Beta virt. eigenvalues --    3.66492   3.66783   3.66924   3.67387   3.71530
  Beta virt. eigenvalues --    3.71701   3.71766   3.71994   3.72446   3.85599
  Beta virt. eigenvalues --    3.85712   3.86054   3.86177   3.86720   4.08574
  Beta virt. eigenvalues --    4.08975   4.09341   4.09423   4.09984   4.28914
  Beta virt. eigenvalues --    4.29048   4.29352   4.29494   4.29978
          Condensed to atoms (all electrons):
          Atomic-Atomic Spin Densities.
 Mulliken charges and spin densities:
               1          2
     1  C    0.025301  -0.000000
     2  C   -0.006164   0.000000
     3  C    0.110122  -0.000000
     4  F   -0.124909   0.000000
     5  C   -0.049374   0.000000
     6  C    0.110145  -0.000000
     7  O   -0.246905  -0.000000
     8  C    0.044643  -0.000000
     9  C   -0.052668  -0.000000
    10  C   -0.133709   0.000000
    11  C    0.056432  -0.000000
    12  C    0.016323   0.000000
    13  C   -0.162477   0.000000
    14  S    0.178298  -0.000000
    15  C    0.065281  -0.000000
    16  C   -0.019561  -0.000000
    17  C    0.117288   0.000000
    18  F   -0.125186   0.000000
    19  C   -0.035233   0.000000
    20  C    0.115610  -0.000000
    21  O   -0.250072   0.000000
    22  C    0.045773   0.000000
    23  C   -0.053288   0.000000
    24  C   -0.135775   0.000000
    25  C    0.052104  -0.000000
    26  C    0.018284   0.000000
    27  C   -0.162785  -0.000000
    28  S    0.175444   0.000000
    29  C    0.065516   0.000000
    30  C   -0.019479   0.000000
    31  C    0.118146  -0.000000
    32  F   -0.123128   0.000000
    33  C   -0.035928  -0.000000
    34  C    0.115241   0.000000
    35  O   -0.250803  -0.000000
    36  C    0.046146   0.000000
    37  C   -0.053737   0.000000
    38  C   -0.137192  -0.000000
    39  C    0.051210   0.000000
    40  C    0.014157  -0.000000
    41  C   -0.161303   0.000000
    42  S    0.186551  -0.000000
    43  C    0.057116  -0.000000
    44  C   -0.013386  -0.000000
    45  C    0.113728   0.000000
    46  F   -0.123677  -0.000000
    47  C   -0.035105   0.000000
    48  C    0.118308  -0.000000
    49  O   -0.249447   0.000000
    50  C    0.048019   0.000000
    51  C   -0.052227   0.000000
    52  C   -0.136348  -0.000000
    53  C    0.051468  -0.000000
    54  C    0.018050   0.000000
    55  C   -0.161740  -0.000000
    56  S    0.177204  -0.000000
    57  C    0.062420  -0.000000
    58  C   -0.022125   0.000000
    59  C    0.122756  -0.000000
    60  F   -0.123585   0.000000
    61  C   -0.038271   0.000000
    62  C    0.118752  -0.000000
    63  O   -0.247929   0.000000
    64  C    0.046036   0.000000
    65  C   -0.055169   0.000000
    66  C   -0.139439  -0.000000
    67  C    0.023230   0.000000
    68  C    0.039414  -0.000000
    69  C   -0.145892  -0.000000
    70  S    0.168929  -0.000000
    71  H    0.011858   0.000000
    72  H    0.014583   0.000000
    73  H    0.064516   0.000000
    74  H    0.054179   0.000000
    75  H    0.052692  -0.000000
    76  H    0.007807   0.000000
    77  H   -0.001613  -0.000000
    78  H    0.002471   0.000000
    79  H    0.004974   0.000000
    80  H    0.055586   0.000000
    81  H    0.063242  -0.000000
    82  H    0.057704  -0.000000
    83  H    0.009840  -0.000000
    84  H   -0.000855   0.000000
    85  H    0.002740   0.000000
    86  H    0.005901  -0.000000
    87  H    0.057583  -0.000000
    88  H    0.061537  -0.000000
    89  H    0.055537   0.000000
    90  H    0.009455  -0.000000
    91  H   -0.002073  -0.000000
    92  H   -0.001993  -0.000000
    93  H    0.015102   0.000000
    94  H    0.056274  -0.000000
    95  H    0.050842   0.000000
    96  H    0.063232   0.000000
    97  H   -0.001435   0.000000
    98  H   -0.002520  -0.000000
    99  H    0.001729   0.000000
   100  H    0.004175  -0.000000
   101  H    0.055723  -0.000000
   102  H    0.061830   0.000000
   103  H    0.055187  -0.000000
   104  H    0.008758   0.000000
   105  H   -0.000992   0.000000
   106  H    0.001804   0.000000
   107  H    0.035190   0.000000
 Sum of Mulliken charges =  -0.00000  -0.00000
 Mulliken charges and spin densities with hydrogens summed into heavy atoms:
               1          2
     1  C    0.037159  -0.000000
     2  C    0.008419   0.000000
     3  C    0.110122  -0.000000
     4  F   -0.124909   0.000000
     5  C   -0.049374   0.000000
     6  C    0.110145  -0.000000
     7  O   -0.246905  -0.000000
     8  C    0.216030  -0.000000
     9  C   -0.044861   0.000000
    10  C   -0.133709   0.000000
    11  C    0.054818  -0.000000
    12  C    0.018794   0.000000
    13  C   -0.162477   0.000000
    14  S    0.178298  -0.000000
    15  C    0.065281  -0.000000
    16  C   -0.014587  -0.000000
    17  C    0.117288   0.000000
    18  F   -0.125186   0.000000
    19  C   -0.035233   0.000000
    20  C    0.115610  -0.000000
    21  O   -0.250072   0.000000
    22  C    0.222304  -0.000000
    23  C   -0.043448   0.000000
    24  C   -0.135775   0.000000
    25  C    0.051249  -0.000000
    26  C    0.021024   0.000000
    27  C   -0.162785  -0.000000
    28  S    0.175444   0.000000
    29  C    0.065516   0.000000
    30  C   -0.013579   0.000000
    31  C    0.118146  -0.000000
    32  F   -0.123128   0.000000
    33  C   -0.035928  -0.000000
    34  C    0.115241   0.000000
    35  O   -0.250803  -0.000000
    36  C    0.220804  -0.000000
    37  C   -0.044282   0.000000
    38  C   -0.137192  -0.000000
    39  C    0.049137   0.000000
    40  C    0.012164  -0.000000
    41  C   -0.161303   0.000000
    42  S    0.186551  -0.000000
    43  C    0.057116  -0.000000
    44  C    0.001716  -0.000000
    45  C    0.113728   0.000000
    46  F   -0.123677  -0.000000
    47  C   -0.035105   0.000000
    48  C    0.118308  -0.000000
    49  O   -0.249447   0.000000
    50  C    0.218368   0.000000
    51  C   -0.053662   0.000000
    52  C   -0.136348  -0.000000
    53  C    0.048949  -0.000000
    54  C    0.019780   0.000000
    55  C   -0.161740  -0.000000
    56  S    0.177204  -0.000000
    57  C    0.062420  -0.000000
    58  C   -0.017950   0.000000
    59  C    0.122756  -0.000000
    60  F   -0.123585   0.000000
    61  C   -0.038271   0.000000
    62  C    0.118752  -0.000000
    63  O   -0.247929   0.000000
    64  C    0.218775   0.000000
    65  C   -0.046411   0.000000
    66  C   -0.139439  -0.000000
    67  C    0.022239   0.000000
    68  C    0.041217  -0.000000
    69  C   -0.110702  -0.000000
    70  S    0.168929  -0.000000
 Electronic spatial extent (au):  <R**2>=         255213.1061
 Charge=             -0.0000 electrons
 Dipole moment (field-independent basis, Debye):
    X=            -12.4336    Y=              2.3802    Z=              1.1064  Tot=             12.7076
 Quadrupole moment (field-independent basis, Debye-Ang):
   XX=           -350.5588   YY=           -363.0954   ZZ=           -432.6986
   XY=             -3.1643   XZ=            -33.0261   YZ=             16.6405
 Traceless Quadrupole moment (field-independent basis, Debye-Ang):
   XX=             31.5588   YY=             19.0222   ZZ=            -50.5810
   XY=             -3.1643   XZ=            -33.0261   YZ=             16.6405
 Octapole moment (field-independent basis, Debye-Ang**2):
  XXX=          -4814.6691  YYY=             82.9667  ZZZ=             22.3272  XYY=            116.4903
  XXY=            -29.5719  XXZ=            390.8757  XZZ=            -90.0511  YZZ=             -1.3566
  YYZ=            -18.3944  XYZ=            -79.4408
 Hexadecapole moment (field-independent basis, Debye-Ang**3):
 XXXX=        -277126.5661 YYYY=         -10570.4739 ZZZZ=          -2473.9900 XXXY=          -5569.4631
 XXXZ=         -11750.7186 YYYX=            510.4403 YYYZ=            413.8593 ZZZX=            -74.0620
 ZZZY=            201.8102 XXYY=         -50426.1693 XXZZ=         -54418.9911 YYZZ=          -2379.5257
 XXYZ=           2186.5407 YYXZ=            -51.8999 ZZXY=           -144.4790
 N-N= 9.785234301907D+03 E-N=-3.128892952543D+04  KE= 4.958556790537D+03
 Leave Link  601 at Sat Jul 25 08:44:04 2020, MaxMem=  4026531840 cpu:              10.6 elap:               1.5
 (Enter /opt/ohpc/pub/libs/gaussian/g16-A.03/sandybridge/g16/l9999.exe)

 Test job not archived.
 1\1\GINC-SKYLAKE018\FOpt\ULC-wPBE\CC-pVDZ\C55H37F5O5S5\RDU230\25-Jul-2
 020\0\\#P uLC-wPBE/cc-pVDZ iop(3/107=0375700000, 3/108=0375700000) opt
 \\H37 C55 S5 O5 F5\\0,1\C,-18.8800263559,-1.9693683103,0.4749845709\C,
 -17.9133602351,-2.6372343754,-0.2556481074\C,-16.648865057,-2.07576232
 26,-0.3284737179\F,-15.7154749691,-2.7345530968,-1.0368894375\C,-16.29
 18698348,-0.8800344846,0.2880498862\C,-17.3053745003,-0.2255230149,1.0
 239082951\O,-16.9507754089,0.9365479116,1.6173160873\C,-17.8982056479,
 1.5909585766,2.4316059268\C,-18.5852310658,-0.7699854581,1.114883874\C
 ,-14.9288199424,-0.3252828373,0.1791634922\C,-14.557059153,0.986508897
 9,0.0488485674\C,-13.1509558793,1.1696539815,0.0075520669\C,-12.453498
 5752,-0.002922934,0.1163847104\S,-13.5306465045,-1.3395790473,0.263423
 5912\C,-10.9935541055,-0.1934709297,0.102302765\C,-10.1568233079,0.800
 2311108,0.5990507012\C,-8.7889547105,0.6009492704,0.5601994616\F,-8.01
 1274522,1.5846395047,1.0458899786\C,-8.1754009527,-0.5451506973,0.0624
 864056\C,-9.0470139433,-1.5430047561,-0.4295474934\O,-8.4584766297,-2.
 657294754,-0.9176875478\C,-9.2750989626,-3.6546037998,-1.4922940944\C,
 -10.42685869,-1.3633986845,-0.4124952281\C,-6.7104051621,-0.7080553077
 ,0.0498811864\C,-5.9832337447,-1.8530421854,0.2457559797\C,-4.58364272
 82,-1.6566292527,0.1274365765\C,-4.2457124787,-0.3636772512,-0.1679110
 132\S,-5.6549335492,0.6194047559,-0.293909884\C,-2.8986206622,0.201335
 4741,-0.3512739897\C,-1.8738847114,-0.5911600115,-0.8573382536\C,-0.61
 47644257,-0.0388960866,-1.0056037705\F,0.3513743712,-0.8353295771,-1.4
 943423405\C,-0.2925415456,1.2784270189,-0.6910554163\C,-1.352157492,2.
 0651928557,-0.1858530592\O,-1.0461493001,3.3448742727,0.1251532773\C,-
 2.0465700222,4.1547313499,0.7032689383\C,-2.6258679952,1.5312627387,-0
 .0163639976\C,1.0671001118,1.8177697887,-0.8745714945\C,1.4319958755,3
 .0807891857,-1.2620576021\C,2.8367938618,3.2710219312,-1.3018255711\C,
 3.5406232623,2.1553945466,-0.9355016334\S,2.4717981658,0.8618857039,-0
 .5482040952\C,5.0017466936,1.9841784151,-0.871912498\C,5.5957856442,0.
 7554819231,-1.1383649341\C,6.9737885378,0.6525528723,-1.0730275577\F,7
 .5128608381,-0.5503621224,-1.3360057756\C,7.8261031352,1.7073777474,-0
 .7610633727\C,7.1981980077,2.9455165612,-0.4947283297\O,8.0213897518,3
 .9721381146,-0.1826535447\C,7.448701141,5.2092151019,0.1779994741\C,5.
 8139925255,3.07464651,-0.544093803\C,9.2901251723,1.5434376738,-0.7073
 935677\C,10.2571724744,2.4412862996,-1.0769744568\C,11.5761763447,1.96
 77713991,-0.8582595707\C,11.6128904484,0.7129516063,-0.3131420086\S,10
 .0180022131,0.1070446071,-0.0741474954\C,12.7974364299,-0.0895301397,0
 .0355871014\C,13.9690584043,0.5393151679,0.4424169713\C,15.071974328,-
 0.2380656241,0.7478621325\F,16.1853506438,0.4034407208,1.1419201731\C,
 15.0930452601,-1.6280489214,0.6882507405\C,13.8893198946,-2.2435988986
 ,0.2786801842\O,13.9055307704,-3.5938858831,0.2130962819\C,12.70755584
 81,-4.2657616506,-0.1082714751\C,12.767525242,-1.4852675252,-0.0430234
 166\C,16.2958023541,-2.4097323791,1.0330648318\C,16.7648817845,-3.5464
 294925,0.4296156005\C,17.9406171968,-4.062298249,1.0412160631\C,18.339
 9979071,-3.3154664722,2.1087311292\S,17.3084031284,-1.9766539572,2.368
 9851484\H,-19.8867214493,-2.3849109121,0.5522693123\H,-18.1087862903,-
 3.5771539621,-0.771563818\H,-17.3893551321,2.4730305041,2.8381614528\H
 ,-18.2279563186,0.9487915528,3.2648471179\H,-18.7775301555,1.917288946
 ,1.8517122103\H,-19.3622872491,-0.2630583718,1.6847467067\H,-15.278978
 0245,1.797748447,-0.0147202845\H,-12.6697071199,2.1385181812,-0.127244
 4212\H,-10.54330126,1.7183658844,1.0403269198\H,-9.9695717783,-4.08719
 27655,-0.7533489775\H,-8.5924159176,-4.4365499343,-1.8452103636\H,-9.8
 493040644,-3.2633829567,-2.3479828248\H,-11.0828383112,-2.1300007266,-
 0.8224047114\H,-6.4463265584,-2.8112920179,0.4693003536\H,-3.846262851
 6,-2.4440725621,0.2845315158\H,-2.0353687356,-1.6240440851,-1.16415397
 76\H,-2.4091551433,3.7324583934,1.6547288771\H,-1.5740573811,5.1248108
 893,0.897853141\H,-2.8992924439,4.2986173571,0.0193830478\H,-3.4240551
 549,2.1429439962,0.4016279093\H,0.7058374019,3.8506964371,-1.512347533
 1\H,3.3128796359,4.1975893756,-1.623506856\H,5.0153103318,-0.123863709
 8,-1.4186468967\H,6.7974381393,5.1113992298,1.062068723\H,6.872609667,
 5.6489985142,-0.6531024803\H,8.2883007746,5.8708105547,0.422129513\H,5
 .34186021,4.0249371304,-0.3021820261\H,10.0226074945,3.4171862516,-1.4
 95849459\H,12.4729940646,2.5282926425,-1.1228813119\H,14.0413076468,1.
 6213299689,0.548108489\H,11.9058352126,-4.0298313463,0.6106004953\H,12
 .9377184383,-5.3363155185,-0.0519005468\H,12.3653287437,-4.0235124061,
 -1.128084462\H,11.855462875,-1.9743422613,-0.3822462218\H,16.271370674
 3,-4.0016906398,-0.4264278786\H,18.4656607339,-4.9538166047,0.69796732
 23\H,19.202782297,-3.4739145813,2.7537383274\\Version=EM64L-G16RevA.03
 \State=1-A\HF=-4981.8287956\S2=0.\S2-1=0.\S2A=0.\RMSD=7.889e-09\RMSF=1
 .891e-06\Dipole=-4.8910555,0.9761635,0.3466373\Quadrupole=23.6133606,1
 5.7242677,-39.3376283,-4.2400068,-24.0742225,8.3766343\PG=C01 [X(C55H3
 7F5O5S5)]\\@


 ACTORS ARE SO FORTUNATE.  THEY CAN CHOOSE WHETHER
 THEY WILL APPEAR IN A TRAGEDY OR IN COMEDY,
 WHETHER THEY WILL SUFFER OF MAKE MERRY,
 LAUGH OR SHED TEARS.  BUT IN REAL LIFE IT IS DIFFERENT.
 MOST MEN AND WOMEN ARE FORCED TO PERFORM
 PARTS FOR WHICH THEY HAVE NO QUALIFICATIONS.
 THE WORLD IS A STAGE, BUT THE PLAY IS BADLY CAST.

                                   -- OSCAR WILDE
 Job cpu time:       2 days  2 hours 45 minutes 50.5 seconds.
 Elapsed time:       0 days  6 hours 27 minutes 12.8 seconds.
 File lengths (MBytes):  RWF=   1588 Int=      0 D2E=      0 Chk=    144 Scr=      8
 Normal termination of Gaussian 16 at Sat Jul 25 08:44:04 2020.
