 Entering Gaussian System, Link 0=g16
 Input=mols_65_3_01_c-c-N_opt_0.gjf
 Output=mols_65_3_01_c-c-N_opt_0.log
 Initial command:
 /opt/ohpc/pub/libs/gaussian/g16-A.03/sandybridge/g16/l1.exe "/mnt/gpfs2_4m/scratch/rdu230/ondemand/projects/dihedral_energies/7trial/wtuning/mols_65_3_01_c-c-N/Gau-42015.inp" -scrdir="/mnt/gpfs2_4m/scratch/rdu230/ondemand/projects/dihedral_energies/7trial/wtuning/mols_65_3_01_c-c-N/"
 Entering Link 1 = /opt/ohpc/pub/libs/gaussian/g16-A.03/sandybridge/g16/l1.exe PID=     42020.
  
 Copyright (c) 1988,1990,1992,1993,1995,1998,2003,2009,2016,
            Gaussian, Inc.  All Rights Reserved.
  
 This is part of the Gaussian(R) 16 program.  It is based on
 the Gaussian(R) 09 system (copyright 2009, Gaussian, Inc.),
 the Gaussian(R) 03 system (copyright 2003, Gaussian, Inc.),
 the Gaussian(R) 98 system (copyright 1998, Gaussian, Inc.),
 the Gaussian(R) 94 system (copyright 1995, Gaussian, Inc.),
 the Gaussian 92(TM) system (copyright 1992, Gaussian, Inc.),
 the Gaussian 90(TM) system (copyright 1990, Gaussian, Inc.),
 the Gaussian 88(TM) system (copyright 1988, Gaussian, Inc.),
 the Gaussian 86(TM) system (copyright 1986, Carnegie Mellon
 University), and the Gaussian 82(TM) system (copyright 1983,
 Carnegie Mellon University). Gaussian is a federally registered
 trademark of Gaussian, Inc.
  
 This software contains proprietary and confidential information,
 including trade secrets, belonging to Gaussian, Inc.
  
 This software is provided under written license and may be
 used, copied, transmitted, or stored only in accord with that
 written license.
  
 The following legend is applicable only to US Government
 contracts under FAR:
  
                    RESTRICTED RIGHTS LEGEND
  
 Use, reproduction and disclosure by the US Government is
 subject to restrictions as set forth in subparagraphs (a)
 and (c) of the Commercial Computer Software - Restricted
 Rights clause in FAR 52.227-19.
  
 Gaussian, Inc.
 340 Quinnipiac St., Bldg. 40, Wallingford CT 06492
  
  
 ---------------------------------------------------------------
 Warning -- This program may not be used in any manner that
 competes with the business of Gaussian, Inc. or will provide
 assistance to any competitor of Gaussian, Inc.  The licensee
 of this program is prohibited from giving any competitor of
 Gaussian, Inc. access to this program.  By using this program,
 the user acknowledges that Gaussian, Inc. is engaged in the
 business of creating and licensing software in the field of
 computational chemistry and represents and warrants to the
 licensee that it is not a competitor of Gaussian, Inc. and that
 it will not use this program in any manner prohibited above.
 ---------------------------------------------------------------
  

 Cite this work as:
 Gaussian 16, Revision A.03,
 M. J. Frisch, G. W. Trucks, H. B. Schlegel, G. E. Scuseria, 
 M. A. Robb, J. R. Cheeseman, G. Scalmani, V. Barone, 
 G. A. Petersson, H. Nakatsuji, X. Li, M. Caricato, A. V. Marenich, 
 J. Bloino, B. G. Janesko, R. Gomperts, B. Mennucci, H. P. Hratchian, 
 J. V. Ortiz, A. F. Izmaylov, J. L. Sonnenberg, D. Williams-Young, 
 F. Ding, F. Lipparini, F. Egidi, J. Goings, B. Peng, A. Petrone, 
 T. Henderson, D. Ranasinghe, V. G. Zakrzewski, J. Gao, N. Rega, 
 G. Zheng, W. Liang, M. Hada, M. Ehara, K. Toyota, R. Fukuda, 
 J. Hasegawa, M. Ishida, T. Nakajima, Y. Honda, O. Kitao, H. Nakai, 
 T. Vreven, K. Throssell, J. A. Montgomery, Jr., J. E. Peralta, 
 F. Ogliaro, M. J. Bearpark, J. J. Heyd, E. N. Brothers, K. N. Kudin, 
 V. N. Staroverov, T. A. Keith, R. Kobayashi, J. Normand, 
 K. Raghavachari, A. P. Rendell, J. C. Burant, S. S. Iyengar, 
 J. Tomasi, M. Cossi, J. M. Millam, M. Klene, C. Adamo, R. Cammi, 
 J. W. Ochterski, R. L. Martin, K. Morokuma, O. Farkas, 
 J. B. Foresman, and D. J. Fox, Gaussian, Inc., Wallingford CT, 2016.
 
 ******************************************
 Gaussian 16:  EM64L-G16RevA.03 25-Dec-2016
                24-Jul-2020 
 ******************************************
 %mem=30GB
 %nproc=8
 Will use up to    8 processors via shared memory.
 ---------------------------------------------------------------
 #P uLC-wPBE/cc-pVDZ iop(3/107=0109200000, 3/108=0109200000) opt
 ---------------------------------------------------------------
 1/18=20,19=15,26=3,38=1/1,3;
 2/9=110,12=2,17=6,18=5,40=1/2;
 3/5=16,11=2,25=1,30=1,71=1,74=-41,107=109200000,108=109200000,116=2/1,2,3;
 4//1;
 5/5=2,38=5/2;
 6/7=2,8=2,9=2,10=2,28=1/1;
 7//1,2,3,16;
 1/18=20,19=15,26=3/3(2);
 2/9=110/2;
 99//99;
 2/9=110/2;
 3/5=16,11=2,25=1,30=1,71=1,74=-41,107=109200000,108=109200000,116=2/1,2,3;
 4/5=5,16=3,69=1/1;
 5/5=2,38=5/2;
 7//1,2,3,16;
 1/18=20,19=15,26=3/3(-5);
 2/9=110/2;
 6/7=2,8=2,9=2,10=2,19=2,28=1/1;
 99/9=1/99;
 Leave Link    1 at Fri Jul 24 14:32:37 2020, MaxMem=  4026531840 cpu:               1.7 elap:               0.3
 (Enter /opt/ohpc/pub/libs/gaussian/g16-A.03/sandybridge/g16/l101.exe)
 -------------
 H17 C27 S3 N3
 -------------
 Symbolic Z-matrix:
 Charge =  0 Multiplicity = 1
 C                     11.53884   0.2841   -0.61814 
 C                     10.53091   1.25072  -0.83042 
 C                     9.22463   1.07358  -0.6699 
 C                     8.76305  -0.27943  -0.24626 
 C                     9.73689  -1.26758  -0.06909 
 C                     11.02909  -0.96382  -0.24219 
 C                     7.31656  -0.57286   0.02644 
 N                     6.84951  -1.76564   0.28675 
 C                     5.52632  -1.71037   0.47101 
 C                     4.83997  -0.56996   0.24852 
 S                     6.0742    0.63854  -0.22559 
 C                     3.44367  -0.26444   0.29412 
 C                     2.54783  -1.08955  -0.21535 
 C                     1.10963  -0.78916  -0.17847 
 C                     0.66678   0.36348   0.41681 
 C                     1.59428   1.28771   0.91159 
 C                     2.96537   0.99989   0.8706 
 C                    -0.71882   0.75312   0.45601 
 N                    -1.21678   1.90165   0.81327 
 C                    -2.60252   1.91174   0.82894 
 C                    -3.23671   0.78466   0.34518 
 S                    -2.05366  -0.3906    0.01326 
 C                    -4.65394   0.51294   0.16414 
 C                    -5.19677  -0.71871   0.53056 
 C                    -6.62168  -0.94883   0.3784 
 C                    -7.41655   0.05136  -0.17883 
 C                    -6.88872   1.25265  -0.49874 
 C                    -5.44442   1.50381  -0.34787 
 C                    -8.85704  -0.14902  -0.37249 
 N                    -9.63799   0.81177  -0.83415 
 C                    -10.96347   0.37021  -0.92812 
 C                    -11.16212  -0.99927  -0.4863 
 S                    -9.71888  -1.58292   0.05721 
 H                     12.55348   0.47395  -0.74681 
 H                     10.88626   2.31537  -1.16326 
 H                     8.54515   1.86615  -0.80772 
 H                     9.42173  -2.20886   0.31557 
 H                     11.7469  -1.77062  -0.07466 
 H                     5.01666  -2.6325    0.71858 
 H                     2.81982  -2.00752  -0.67859 
 H                     0.43257  -1.51835  -0.60718 
 H                     1.2964    2.16193   1.33669 
 H                     3.64525   1.70392   1.28663 
 H                    -3.11008   2.89849   1.14654 
 H                    -4.59006  -1.52276   0.97604 
 H                    -6.97944  -1.94592   0.6938 
 H                    -7.49875   2.07403  -0.94988 
 H                    -5.10376   2.50391  -0.66754 
 H                    -11.75624   1.00531  -1.32107 
 H                    -12.14128  -1.52554  -0.42884 
 
 ITRead=  0  0  0  0  0  0  0  0  0  0  0  0  0  0  0  0  0  0  0  0
 ITRead=  0  0  0  0  0  0  0  0  0  0  0  0  0  0  0  0  0  0  0  0
 ITRead=  0  0  0  0  0  0  0  0  0  0
 MicOpt= -1 -1 -1 -1 -1 -1 -1 -1 -1 -1 -1 -1 -1 -1 -1 -1 -1 -1 -1 -1
 MicOpt= -1 -1 -1 -1 -1 -1 -1 -1 -1 -1 -1 -1 -1 -1 -1 -1 -1 -1 -1 -1
 MicOpt= -1 -1 -1 -1 -1 -1 -1 -1 -1 -1
 NAtoms=     50 NQM=       50 NQMF=       0 NMMI=      0 NMMIF=      0
                NMic=       0 NMicF=      0.
                    Isotopes and Nuclear Properties:
 (Nuclear quadrupole moments (NQMom) in fm**2, nuclear magnetic moments (NMagM)
  in nuclear magnetons)

  Atom         1           2           3           4           5           6           7           8           9          10
 IAtWgt=          12          12          12          12          12          12          12          14          12          12
 AtmWgt=  12.0000000  12.0000000  12.0000000  12.0000000  12.0000000  12.0000000  12.0000000  14.0030740  12.0000000  12.0000000
 NucSpn=           0           0           0           0           0           0           0           2           0           0
 AtZEff=  -0.0000000  -0.0000000  -0.0000000  -0.0000000  -0.0000000  -0.0000000  -0.0000000  -0.0000000  -0.0000000  -0.0000000
 NQMom=    0.0000000   0.0000000   0.0000000   0.0000000   0.0000000   0.0000000   0.0000000   2.0440000   0.0000000   0.0000000
 NMagM=    0.0000000   0.0000000   0.0000000   0.0000000   0.0000000   0.0000000   0.0000000   0.4037610   0.0000000   0.0000000
 AtZNuc=   6.0000000   6.0000000   6.0000000   6.0000000   6.0000000   6.0000000   6.0000000   7.0000000   6.0000000   6.0000000

  Atom        11          12          13          14          15          16          17          18          19          20
 IAtWgt=          32          12          12          12          12          12          12          12          14          12
 AtmWgt=  31.9720718  12.0000000  12.0000000  12.0000000  12.0000000  12.0000000  12.0000000  12.0000000  14.0030740  12.0000000
 NucSpn=           0           0           0           0           0           0           0           0           2           0
 AtZEff=  -0.0000000  -0.0000000  -0.0000000  -0.0000000  -0.0000000  -0.0000000  -0.0000000  -0.0000000  -0.0000000  -0.0000000
 NQMom=    0.0000000   0.0000000   0.0000000   0.0000000   0.0000000   0.0000000   0.0000000   0.0000000   2.0440000   0.0000000
 NMagM=    0.0000000   0.0000000   0.0000000   0.0000000   0.0000000   0.0000000   0.0000000   0.0000000   0.4037610   0.0000000
 AtZNuc=  16.0000000   6.0000000   6.0000000   6.0000000   6.0000000   6.0000000   6.0000000   6.0000000   7.0000000   6.0000000

  Atom        21          22          23          24          25          26          27          28          29          30
 IAtWgt=          12          32          12          12          12          12          12          12          12          14
 AtmWgt=  12.0000000  31.9720718  12.0000000  12.0000000  12.0000000  12.0000000  12.0000000  12.0000000  12.0000000  14.0030740
 NucSpn=           0           0           0           0           0           0           0           0           0           2
 AtZEff=  -0.0000000  -0.0000000  -0.0000000  -0.0000000  -0.0000000  -0.0000000  -0.0000000  -0.0000000  -0.0000000  -0.0000000
 NQMom=    0.0000000   0.0000000   0.0000000   0.0000000   0.0000000   0.0000000   0.0000000   0.0000000   0.0000000   2.0440000
 NMagM=    0.0000000   0.0000000   0.0000000   0.0000000   0.0000000   0.0000000   0.0000000   0.0000000   0.0000000   0.4037610
 AtZNuc=   6.0000000  16.0000000   6.0000000   6.0000000   6.0000000   6.0000000   6.0000000   6.0000000   6.0000000   7.0000000

  Atom        31          32          33          34          35          36          37          38          39          40
 IAtWgt=          12          12          32           1           1           1           1           1           1           1
 AtmWgt=  12.0000000  12.0000000  31.9720718   1.0078250   1.0078250   1.0078250   1.0078250   1.0078250   1.0078250   1.0078250
 NucSpn=           0           0           0           1           1           1           1           1           1           1
 AtZEff=  -0.0000000  -0.0000000  -0.0000000  -0.0000000  -0.0000000  -0.0000000  -0.0000000  -0.0000000  -0.0000000  -0.0000000
 NQMom=    0.0000000   0.0000000   0.0000000   0.0000000   0.0000000   0.0000000   0.0000000   0.0000000   0.0000000   0.0000000
 NMagM=    0.0000000   0.0000000   0.0000000   2.7928460   2.7928460   2.7928460   2.7928460   2.7928460   2.7928460   2.7928460
 AtZNuc=   6.0000000   6.0000000  16.0000000   1.0000000   1.0000000   1.0000000   1.0000000   1.0000000   1.0000000   1.0000000

  Atom        41          42          43          44          45          46          47          48          49          50
 IAtWgt=           1           1           1           1           1           1           1           1           1           1
 AtmWgt=   1.0078250   1.0078250   1.0078250   1.0078250   1.0078250   1.0078250   1.0078250   1.0078250   1.0078250   1.0078250
 NucSpn=           1           1           1           1           1           1           1           1           1           1
 AtZEff=  -0.0000000  -0.0000000  -0.0000000  -0.0000000  -0.0000000  -0.0000000  -0.0000000  -0.0000000  -0.0000000  -0.0000000
 NQMom=    0.0000000   0.0000000   0.0000000   0.0000000   0.0000000   0.0000000   0.0000000   0.0000000   0.0000000   0.0000000
 NMagM=    2.7928460   2.7928460   2.7928460   2.7928460   2.7928460   2.7928460   2.7928460   2.7928460   2.7928460   2.7928460
 AtZNuc=   1.0000000   1.0000000   1.0000000   1.0000000   1.0000000   1.0000000   1.0000000   1.0000000   1.0000000   1.0000000
 Leave Link  101 at Fri Jul 24 14:32:38 2020, MaxMem=  4026531840 cpu:               3.5 elap:               0.5
 (Enter /opt/ohpc/pub/libs/gaussian/g16-A.03/sandybridge/g16/l103.exe)

 GradGradGradGradGradGradGradGradGradGradGradGradGradGradGradGradGradGrad
 Berny optimization.
 Initialization pass.
                           ----------------------------
                           !    Initial Parameters    !
                           ! (Angstroms and Degrees)  !
 --------------------------                            --------------------------
 ! Name  Definition              Value          Derivative Info.                !
 --------------------------------------------------------------------------------
 ! R1    R(1,2)                  1.4126         estimate D2E/DX2                !
 ! R2    R(1,6)                  1.3995         estimate D2E/DX2                !
 ! R3    R(1,34)                 1.0402         estimate D2E/DX2                !
 ! R4    R(2,3)                  1.328          estimate D2E/DX2                !
 ! R5    R(2,35)                 1.1707         estimate D2E/DX2                !
 ! R6    R(3,4)                  1.491          estimate D2E/DX2                !
 ! R7    R(3,36)                 1.053          estimate D2E/DX2                !
 ! R8    R(4,5)                  1.3986         estimate D2E/DX2                !
 ! R9    R(4,7)                  1.5009         estimate D2E/DX2                !
 ! R10   R(5,6)                  1.3387         estimate D2E/DX2                !
 ! R11   R(5,37)                 1.0646         estimate D2E/DX2                !
 ! R12   R(6,38)                 1.0928         estimate D2E/DX2                !
 ! R13   R(7,8)                  1.3071         estimate D2E/DX2                !
 ! R14   R(7,11)                 1.7534         estimate D2E/DX2                !
 ! R15   R(8,9)                  1.3371         estimate D2E/DX2                !
 ! R16   R(9,10)                 1.3495         estimate D2E/DX2                !
 ! R17   R(9,39)                 1.0823         estimate D2E/DX2                !
 ! R18   R(10,11)                1.7912         estimate D2E/DX2                !
 ! R19   R(10,12)                1.4301         estimate D2E/DX2                !
 ! R20   R(12,13)                1.3202         estimate D2E/DX2                !
 ! R21   R(12,17)                1.4696         estimate D2E/DX2                !
 ! R22   R(13,14)                1.4697         estimate D2E/DX2                !
 ! R23   R(13,40)                1.0636         estimate D2E/DX2                !
 ! R24   R(14,15)                1.3708         estimate D2E/DX2                !
 ! R25   R(14,41)                1.0835         estimate D2E/DX2                !
 ! R26   R(15,16)                1.3997         estimate D2E/DX2                !
 ! R27   R(15,18)                1.4399         estimate D2E/DX2                !
 ! R28   R(16,17)                1.4016         estimate D2E/DX2                !
 ! R29   R(16,42)                1.0167         estimate D2E/DX2                !
 ! R30   R(17,43)                1.0635         estimate D2E/DX2                !
 ! R31   R(18,19)                1.3018         estimate D2E/DX2                !
 ! R32   R(18,22)                1.8127         estimate D2E/DX2                !
 ! R33   R(19,20)                1.3859         estimate D2E/DX2                !
 ! R34   R(20,21)                1.3808         estimate D2E/DX2                !
 ! R35   R(20,44)                1.1542         estimate D2E/DX2                !
 ! R36   R(21,22)                1.7003         estimate D2E/DX2                !
 ! R37   R(21,23)                1.4544         estimate D2E/DX2                !
 ! R38   R(23,24)                1.3949         estimate D2E/DX2                !
 ! R39   R(23,28)                1.3671         estimate D2E/DX2                !
 ! R40   R(24,25)                1.4514         estimate D2E/DX2                !
 ! R41   R(24,45)                1.1014         estimate D2E/DX2                !
 ! R42   R(25,26)                1.3938         estimate D2E/DX2                !
 ! R43   R(25,46)                1.1053         estimate D2E/DX2                !
 ! R44   R(26,27)                1.3506         estimate D2E/DX2                !
 ! R45   R(26,29)                1.4672         estimate D2E/DX2                !
 ! R46   R(27,28)                1.4737         estimate D2E/DX2                !
 ! R47   R(27,47)                1.1182         estimate D2E/DX2                !
 ! R48   R(28,48)                1.1038         estimate D2E/DX2                !
 ! R49   R(29,30)                1.3214         estimate D2E/DX2                !
 ! R50   R(29,33)                1.7273         estimate D2E/DX2                !
 ! R51   R(30,31)                1.4003         estimate D2E/DX2                !
 ! R52   R(31,32)                1.4526         estimate D2E/DX2                !
 ! R53   R(31,49)                1.0891         estimate D2E/DX2                !
 ! R54   R(32,33)                1.6489         estimate D2E/DX2                !
 ! R55   R(32,50)                1.1131         estimate D2E/DX2                !
 ! A1    A(2,1,6)              112.9963         estimate D2E/DX2                !
 ! A2    A(2,1,34)             123.539          estimate D2E/DX2                !
 ! A3    A(6,1,34)             123.4534         estimate D2E/DX2                !
 ! A4    A(1,2,3)              126.3302         estimate D2E/DX2                !
 ! A5    A(1,2,35)             116.6444         estimate D2E/DX2                !
 ! A6    A(3,2,35)             117.0174         estimate D2E/DX2                !
 ! A7    A(2,3,4)              117.381          estimate D2E/DX2                !
 ! A8    A(2,3,36)             121.232          estimate D2E/DX2                !
 ! A9    A(4,3,36)             121.3606         estimate D2E/DX2                !
 ! A10   A(3,4,5)              117.4876         estimate D2E/DX2                !
 ! A11   A(3,4,7)              121.8273         estimate D2E/DX2                !
 ! A12   A(5,4,7)              120.6563         estimate D2E/DX2                !
 ! A13   A(4,5,6)              119.6971         estimate D2E/DX2                !
 ! A14   A(4,5,37)             117.6669         estimate D2E/DX2                !
 ! A15   A(6,5,37)             122.217          estimate D2E/DX2                !
 ! A16   A(1,6,5)              126.0635         estimate D2E/DX2                !
 ! A17   A(1,6,38)             117.4041         estimate D2E/DX2                !
 ! A18   A(5,6,38)             116.5322         estimate D2E/DX2                !
 ! A19   A(4,7,8)              123.9808         estimate D2E/DX2                !
 ! A20   A(4,7,11)             121.4438         estimate D2E/DX2                !
 ! A21   A(8,7,11)             113.9472         estimate D2E/DX2                !
 ! A22   A(7,8,9)              110.0786         estimate D2E/DX2                !
 ! A23   A(8,9,10)             121.0327         estimate D2E/DX2                !
 ! A24   A(8,9,39)             117.5367         estimate D2E/DX2                !
 ! A25   A(10,9,39)            121.2122         estimate D2E/DX2                !
 ! A26   A(9,10,11)            105.2679         estimate D2E/DX2                !
 ! A27   A(9,10,12)            132.2126         estimate D2E/DX2                !
 ! A28   A(11,10,12)           122.4842         estimate D2E/DX2                !
 ! A29   A(7,11,10)             89.086          estimate D2E/DX2                !
 ! A30   A(10,12,13)           121.1127         estimate D2E/DX2                !
 ! A31   A(10,12,17)           120.937          estimate D2E/DX2                !
 ! A32   A(13,12,17)           117.92           estimate D2E/DX2                !
 ! A33   A(12,13,14)           121.776          estimate D2E/DX2                !
 ! A34   A(12,13,40)           122.2738         estimate D2E/DX2                !
 ! A35   A(14,13,40)           115.95           estimate D2E/DX2                !
 ! A36   A(13,14,15)           119.9275         estimate D2E/DX2                !
 ! A37   A(13,14,41)           117.6466         estimate D2E/DX2                !
 ! A38   A(15,14,41)           122.4018         estimate D2E/DX2                !
 ! A39   A(14,15,16)           119.6463         estimate D2E/DX2                !
 ! A40   A(14,15,18)           123.3844         estimate D2E/DX2                !
 ! A41   A(16,15,18)           116.7014         estimate D2E/DX2                !
 ! A42   A(15,16,17)           120.151          estimate D2E/DX2                !
 ! A43   A(15,16,42)           121.4266         estimate D2E/DX2                !
 ! A44   A(17,16,42)           118.3863         estimate D2E/DX2                !
 ! A45   A(12,17,16)           120.4334         estimate D2E/DX2                !
 ! A46   A(12,17,43)           120.9932         estimate D2E/DX2                !
 ! A47   A(16,17,43)           118.5559         estimate D2E/DX2                !
 ! A48   A(15,18,19)           127.9019         estimate D2E/DX2                !
 ! A49   A(15,18,22)           122.0887         estimate D2E/DX2                !
 ! A50   A(19,18,22)           109.9992         estimate D2E/DX2                !
 ! A51   A(18,19,20)           113.0793         estimate D2E/DX2                !
 ! A52   A(19,20,21)           116.7026         estimate D2E/DX2                !
 ! A53   A(19,20,44)           116.6824         estimate D2E/DX2                !
 ! A54   A(21,20,44)           126.3188         estimate D2E/DX2                !
 ! A55   A(20,21,22)           108.2417         estimate D2E/DX2                !
 ! A56   A(20,21,23)           130.0683         estimate D2E/DX2                !
 ! A57   A(22,21,23)           121.6402         estimate D2E/DX2                !
 ! A58   A(18,22,21)            91.6371         estimate D2E/DX2                !
 ! A59   A(21,23,24)           120.762          estimate D2E/DX2                !
 ! A60   A(21,23,28)           118.3382         estimate D2E/DX2                !
 ! A61   A(24,23,28)           120.8862         estimate D2E/DX2                !
 ! A62   A(23,24,25)           119.6368         estimate D2E/DX2                !
 ! A63   A(23,24,45)           122.4426         estimate D2E/DX2                !
 ! A64   A(25,24,45)           117.8705         estimate D2E/DX2                !
 ! A65   A(24,25,26)           119.2109         estimate D2E/DX2                !
 ! A66   A(24,25,46)           115.5244         estimate D2E/DX2                !
 ! A67   A(26,25,46)           125.2287         estimate D2E/DX2                !
 ! A68   A(25,26,27)           120.6702         estimate D2E/DX2                !
 ! A69   A(25,26,29)           120.9753         estimate D2E/DX2                !
 ! A70   A(27,26,29)           118.2892         estimate D2E/DX2                !
 ! A71   A(26,27,28)           120.6875         estimate D2E/DX2                !
 ! A72   A(26,27,47)           122.3935         estimate D2E/DX2                !
 ! A73   A(28,27,47)           116.7937         estimate D2E/DX2                !
 ! A74   A(23,28,27)           118.7841         estimate D2E/DX2                !
 ! A75   A(23,28,48)           125.9246         estimate D2E/DX2                !
 ! A76   A(27,28,48)           115.2911         estimate D2E/DX2                !
 ! A77   A(26,29,30)           121.8062         estimate D2E/DX2                !
 ! A78   A(26,29,33)           124.7795         estimate D2E/DX2                !
 ! A79   A(30,29,33)           113.3053         estimate D2E/DX2                !
 ! A80   A(29,30,31)           110.7074         estimate D2E/DX2                !
 ! A81   A(30,31,32)           113.9744         estimate D2E/DX2                !
 ! A82   A(30,31,49)           121.9605         estimate D2E/DX2                !
 ! A83   A(32,31,49)           124.0517         estimate D2E/DX2                !
 ! A84   A(31,32,33)           108.3162         estimate D2E/DX2                !
 ! A85   A(31,32,50)           125.5716         estimate D2E/DX2                !
 ! A86   A(33,32,50)           125.8427         estimate D2E/DX2                !
 ! A87   A(29,33,32)            93.4902         estimate D2E/DX2                !
 ! D1    D(6,1,2,3)              1.9447         estimate D2E/DX2                !
 ! D2    D(6,1,2,35)          -179.1271         estimate D2E/DX2                !
 ! D3    D(34,1,2,3)          -179.2472         estimate D2E/DX2                !
 ! D4    D(34,1,2,35)           -0.3189         estimate D2E/DX2                !
 ! D5    D(2,1,6,5)             -0.8082         estimate D2E/DX2                !
 ! D6    D(2,1,6,38)           179.0571         estimate D2E/DX2                !
 ! D7    D(34,1,6,5)          -179.6176         estimate D2E/DX2                !
 ! D8    D(34,1,6,38)            0.2477         estimate D2E/DX2                !
 ! D9    D(1,2,3,4)             -1.083          estimate D2E/DX2                !
 ! D10   D(1,2,3,36)           177.0723         estimate D2E/DX2                !
 ! D11   D(35,2,3,4)           179.9922         estimate D2E/DX2                !
 ! D12   D(35,2,3,36)           -1.8524         estimate D2E/DX2                !
 ! D13   D(2,3,4,5)             -0.9597         estimate D2E/DX2                !
 ! D14   D(2,3,4,7)            177.1005         estimate D2E/DX2                !
 ! D15   D(36,3,4,5)          -179.1125         estimate D2E/DX2                !
 ! D16   D(36,3,4,7)            -1.0523         estimate D2E/DX2                !
 ! D17   D(3,4,5,6)              1.9796         estimate D2E/DX2                !
 ! D18   D(3,4,5,37)           174.7171         estimate D2E/DX2                !
 ! D19   D(7,4,5,6)           -176.1046         estimate D2E/DX2                !
 ! D20   D(7,4,5,37)            -3.367          estimate D2E/DX2                !
 ! D21   D(3,4,7,8)            173.8486         estimate D2E/DX2                !
 ! D22   D(3,4,7,11)             3.4914         estimate D2E/DX2                !
 ! D23   D(5,4,7,8)             -8.1518         estimate D2E/DX2                !
 ! D24   D(5,4,7,11)          -178.509          estimate D2E/DX2                !
 ! D25   D(4,5,6,1)             -1.1037         estimate D2E/DX2                !
 ! D26   D(4,5,6,38)           179.03           estimate D2E/DX2                !
 ! D27   D(37,5,6,1)          -173.4991         estimate D2E/DX2                !
 ! D28   D(37,5,6,38)            6.6346         estimate D2E/DX2                !
 ! D29   D(4,7,8,9)           -179.3581         estimate D2E/DX2                !
 ! D30   D(11,7,8,9)            -8.3542         estimate D2E/DX2                !
 ! D31   D(4,7,11,10)          177.6793         estimate D2E/DX2                !
 ! D32   D(8,7,11,10)            6.4211         estimate D2E/DX2                !
 ! D33   D(7,8,9,10)             6.7454         estimate D2E/DX2                !
 ! D34   D(7,8,9,39)          -178.5625         estimate D2E/DX2                !
 ! D35   D(8,9,10,11)           -1.8383         estimate D2E/DX2                !
 ! D36   D(8,9,10,12)          175.9756         estimate D2E/DX2                !
 ! D37   D(39,9,10,11)        -176.3346         estimate D2E/DX2                !
 ! D38   D(39,9,10,12)           1.4794         estimate D2E/DX2                !
 ! D39   D(9,10,11,7)           -2.4478         estimate D2E/DX2                !
 ! D40   D(12,10,11,7)         179.4716         estimate D2E/DX2                !
 ! D41   D(9,10,12,13)         -42.6237         estimate D2E/DX2                !
 ! D42   D(9,10,12,17)         139.4193         estimate D2E/DX2                !
 ! D43   D(11,10,12,13)        134.876          estimate D2E/DX2                !
 ! D44   D(11,10,12,17)        -43.0809         estimate D2E/DX2                !
 ! D45   D(10,12,13,14)       -179.8975         estimate D2E/DX2                !
 ! D46   D(10,12,13,40)         -0.0819         estimate D2E/DX2                !
 ! D47   D(17,12,13,14)         -1.8808         estimate D2E/DX2                !
 ! D48   D(17,12,13,40)        177.9349         estimate D2E/DX2                !
 ! D49   D(10,12,17,16)       -179.9102         estimate D2E/DX2                !
 ! D50   D(10,12,17,43)         -1.4556         estimate D2E/DX2                !
 ! D51   D(13,12,17,16)          2.0694         estimate D2E/DX2                !
 ! D52   D(13,12,17,43)       -179.476          estimate D2E/DX2                !
 ! D53   D(12,13,14,15)         -1.1183         estimate D2E/DX2                !
 ! D54   D(12,13,14,41)       -179.3748         estimate D2E/DX2                !
 ! D55   D(40,13,14,15)        179.055          estimate D2E/DX2                !
 ! D56   D(40,13,14,41)          0.7986         estimate D2E/DX2                !
 ! D57   D(13,14,15,16)          4.001          estimate D2E/DX2                !
 ! D58   D(13,14,15,18)        177.8543         estimate D2E/DX2                !
 ! D59   D(41,14,15,16)       -177.8283         estimate D2E/DX2                !
 ! D60   D(41,14,15,18)         -3.975          estimate D2E/DX2                !
 ! D61   D(14,15,16,17)         -3.7959         estimate D2E/DX2                !
 ! D62   D(14,15,16,42)        178.4245         estimate D2E/DX2                !
 ! D63   D(18,15,16,17)       -178.0521         estimate D2E/DX2                !
 ! D64   D(18,15,16,42)          4.1683         estimate D2E/DX2                !
 ! D65   D(14,15,18,19)       -168.9164         estimate D2E/DX2                !
 ! D66   D(14,15,18,22)         12.3672         estimate D2E/DX2                !
 ! D67   D(16,15,18,19)          5.1044         estimate D2E/DX2                !
 ! D68   D(16,15,18,22)       -173.612          estimate D2E/DX2                !
 ! D69   D(15,16,17,12)          0.7638         estimate D2E/DX2                !
 ! D70   D(15,16,17,43)       -177.728          estimate D2E/DX2                !
 ! D71   D(42,16,17,12)        178.6102         estimate D2E/DX2                !
 ! D72   D(42,16,17,43)          0.1184         estimate D2E/DX2                !
 ! D73   D(15,18,19,20)       -175.5103         estimate D2E/DX2                !
 ! D74   D(22,18,19,20)          3.3324         estimate D2E/DX2                !
 ! D75   D(15,18,22,21)        178.9754         estimate D2E/DX2                !
 ! D76   D(19,18,22,21)          0.0532         estimate D2E/DX2                !
 ! D77   D(18,19,20,21)         -6.3784         estimate D2E/DX2                !
 ! D78   D(18,19,20,44)        179.472          estimate D2E/DX2                !
 ! D79   D(19,20,21,22)          6.1164         estimate D2E/DX2                !
 ! D80   D(19,20,21,23)       -176.4695         estimate D2E/DX2                !
 ! D81   D(44,20,21,22)        179.6261         estimate D2E/DX2                !
 ! D82   D(44,20,21,23)         -2.9598         estimate D2E/DX2                !
 ! D83   D(20,21,22,18)         -3.3279         estimate D2E/DX2                !
 ! D84   D(23,21,22,18)        178.9964         estimate D2E/DX2                !
 ! D85   D(20,21,23,24)       -136.648          estimate D2E/DX2                !
 ! D86   D(20,21,23,28)         42.0213         estimate D2E/DX2                !
 ! D87   D(22,21,23,24)         40.467          estimate D2E/DX2                !
 ! D88   D(22,21,23,28)       -140.8636         estimate D2E/DX2                !
 ! D89   D(21,23,24,25)        178.0634         estimate D2E/DX2                !
 ! D90   D(21,23,24,45)          0.6945         estimate D2E/DX2                !
 ! D91   D(28,23,24,25)         -0.5719         estimate D2E/DX2                !
 ! D92   D(28,23,24,45)       -177.9408         estimate D2E/DX2                !
 ! D93   D(21,23,28,27)       -178.2396         estimate D2E/DX2                !
 ! D94   D(21,23,28,48)          1.5941         estimate D2E/DX2                !
 ! D95   D(24,23,28,27)          0.4281         estimate D2E/DX2                !
 ! D96   D(24,23,28,48)       -179.7382         estimate D2E/DX2                !
 ! D97   D(23,24,25,26)          2.3422         estimate D2E/DX2                !
 ! D98   D(23,24,25,46)       -179.726          estimate D2E/DX2                !
 ! D99   D(45,24,25,26)        179.8305         estimate D2E/DX2                !
 ! D100  D(45,24,25,46)         -2.2378         estimate D2E/DX2                !
 ! D101  D(24,25,26,27)         -4.0832         estimate D2E/DX2                !
 ! D102  D(24,25,26,29)        178.9075         estimate D2E/DX2                !
 ! D103  D(46,25,26,27)        178.2018         estimate D2E/DX2                !
 ! D104  D(46,25,26,29)          1.1925         estimate D2E/DX2                !
 ! D105  D(25,26,27,28)          4.0014         estimate D2E/DX2                !
 ! D106  D(25,26,27,47)        179.7998         estimate D2E/DX2                !
 ! D107  D(29,26,27,28)       -178.9106         estimate D2E/DX2                !
 ! D108  D(29,26,27,47)         -3.1121         estimate D2E/DX2                !
 ! D109  D(25,26,29,30)        176.4157         estimate D2E/DX2                !
 ! D110  D(25,26,29,33)          0.4716         estimate D2E/DX2                !
 ! D111  D(27,26,29,30)         -0.6631         estimate D2E/DX2                !
 ! D112  D(27,26,29,33)       -176.6072         estimate D2E/DX2                !
 ! D113  D(26,27,28,23)         -2.1495         estimate D2E/DX2                !
 ! D114  D(26,27,28,48)        177.9994         estimate D2E/DX2                !
 ! D115  D(47,27,28,23)       -178.1755         estimate D2E/DX2                !
 ! D116  D(47,27,28,48)          1.9735         estimate D2E/DX2                !
 ! D117  D(26,29,30,31)        179.9369         estimate D2E/DX2                !
 ! D118  D(33,29,30,31)         -3.6898         estimate D2E/DX2                !
 ! D119  D(26,29,33,32)       -179.2465         estimate D2E/DX2                !
 ! D120  D(30,29,33,32)          4.5061         estimate D2E/DX2                !
 ! D121  D(29,30,31,32)          0.896          estimate D2E/DX2                !
 ! D122  D(29,30,31,49)       -177.8235         estimate D2E/DX2                !
 ! D123  D(30,31,32,33)          2.3431         estimate D2E/DX2                !
 ! D124  D(30,31,32,50)        176.6516         estimate D2E/DX2                !
 ! D125  D(49,31,32,33)       -178.9681         estimate D2E/DX2                !
 ! D126  D(49,31,32,50)         -4.6597         estimate D2E/DX2                !
 ! D127  D(31,32,33,29)         -3.645          estimate D2E/DX2                !
 ! D128  D(50,32,33,29)       -177.934          estimate D2E/DX2                !
 --------------------------------------------------------------------------------
 Trust Radius=3.00D-01 FncErr=1.00D-07 GrdErr=1.00D-06 EigMax=2.50D+02 EigMin=1.00D-04
 Number of steps in this run=    280 maximum allowed number of steps=    300.
 GradGradGradGradGradGradGradGradGradGradGradGradGradGradGradGradGradGrad

 Leave Link  103 at Fri Jul 24 14:32:38 2020, MaxMem=  4026531840 cpu:               0.1 elap:               0.1
 (Enter /opt/ohpc/pub/libs/gaussian/g16-A.03/sandybridge/g16/l202.exe)
                          Input orientation:                          
 ---------------------------------------------------------------------
 Center     Atomic      Atomic             Coordinates (Angstroms)
 Number     Number       Type             X           Y           Z
 ---------------------------------------------------------------------
      1          6           0       11.538835    0.284098   -0.618141
      2          6           0       10.530908    1.250722   -0.830424
      3          6           0        9.224628    1.073577   -0.669896
      4          6           0        8.763052   -0.279433   -0.246261
      5          6           0        9.736885   -1.267579   -0.069094
      6          6           0       11.029089   -0.963820   -0.242193
      7          6           0        7.316557   -0.572857    0.026438
      8          7           0        6.849510   -1.765642    0.286748
      9          6           0        5.526324   -1.710371    0.471010
     10          6           0        4.839966   -0.569962    0.248523
     11         16           0        6.074195    0.638538   -0.225587
     12          6           0        3.443666   -0.264442    0.294115
     13          6           0        2.547828   -1.089551   -0.215351
     14          6           0        1.109629   -0.789159   -0.178466
     15          6           0        0.666777    0.363479    0.416811
     16          6           0        1.594276    1.287714    0.911588
     17          6           0        2.965365    0.999894    0.870603
     18          6           0       -0.718817    0.753122    0.456008
     19          7           0       -1.216778    1.901648    0.813269
     20          6           0       -2.602518    1.911736    0.828937
     21          6           0       -3.236708    0.784664    0.345177
     22         16           0       -2.053660   -0.390600    0.013261
     23          6           0       -4.653939    0.512936    0.164138
     24          6           0       -5.196768   -0.718705    0.530557
     25          6           0       -6.621682   -0.948827    0.378395
     26          6           0       -7.416553    0.051363   -0.178828
     27          6           0       -6.888721    1.252649   -0.498744
     28          6           0       -5.444421    1.503808   -0.347865
     29          6           0       -8.857041   -0.149022   -0.372486
     30          7           0       -9.637992    0.811772   -0.834147
     31          6           0      -10.963474    0.370208   -0.928115
     32          6           0      -11.162116   -0.999267   -0.486302
     33         16           0       -9.718879   -1.582921    0.057213
     34          1           0       12.553475    0.473953   -0.746806
     35          1           0       10.886263    2.315372   -1.163258
     36          1           0        8.545146    1.866145   -0.807719
     37          1           0        9.421725   -2.208860    0.315570
     38          1           0       11.746900   -1.770620   -0.074660
     39          1           0        5.016658   -2.632496    0.718582
     40          1           0        2.819824   -2.007524   -0.678588
     41          1           0        0.432567   -1.518346   -0.607184
     42          1           0        1.296396    2.161929    1.336686
     43          1           0        3.645252    1.703923    1.286629
     44          1           0       -3.110076    2.898490    1.146542
     45          1           0       -4.590056   -1.522755    0.976040
     46          1           0       -6.979442   -1.945918    0.693801
     47          1           0       -7.498747    2.074031   -0.949880
     48          1           0       -5.103757    2.503910   -0.667543
     49          1           0      -11.756235    1.005310   -1.321073
     50          1           0      -12.141285   -1.525539   -0.428837
 ---------------------------------------------------------------------
                    Distance matrix (angstroms):
                    1          2          3          4          5
     1  C    0.000000
     2  C    1.412566   0.000000
     3  C    2.445713   1.327975   0.000000
     4  C    2.856717   2.409966   1.491025   0.000000
     5  C    2.440528   2.748079   2.470705   1.398632   0.000000
     6  C    1.399456   2.344866   2.754995   2.367135   1.338665
     7  C    4.356316   3.793640   2.614644   1.500936   2.519872
     8  N    5.197117   4.888682   3.823286   2.480838   2.951546
     9  C    6.427631   5.958831   4.767545   3.610882   4.268091
    10  C    6.808478   6.071724   4.771789   3.964823   4.956548
    11  S    5.490175   4.539040   3.211214   2.841311   4.131957
    12  C    8.164856   7.334120   6.011583   5.346784   6.383009
    13  C    9.104249   8.341748   7.033164   6.267875   7.192748
    14  C   10.493500   9.661608   8.340533   7.670678   8.641203
    15  C   10.921496   9.982178   8.655749   8.148783   9.228397
    16  C   10.111457   9.104909   7.795461   7.428857   8.590305
    17  C    8.731157   7.758469   6.446467   6.041294   7.202635
    18  C   12.313562  11.333968  10.012115   9.563744  10.662114
    19  N   12.937197  11.879965  10.578679  10.270186  11.437014
    20  C   14.308078  13.254331  11.951167  11.624692  12.774012
    21  C   14.815371  13.825574  12.505948  12.061357  13.141440
    22  S   13.623869  12.719162  11.393432  10.820396  11.823402
    23  C   16.213274  15.235257  13.914904  13.446632  14.502429
    24  C   16.804926  15.908825  14.581839  13.988316  14.955763
    25  C   18.229579  17.335242  16.009203  15.411954  16.367790
    26  C   18.961906  17.999289  16.679777  16.183127  17.204421
    27  C   18.453378  17.422787  16.115253  15.728605  16.821026
    28  C   17.029143  15.984619  14.678890  14.319307  15.434713
    29  C   20.401953  19.443805  18.125395  17.621028  18.630011
    30  N   21.184501  20.173676  18.865152  18.442743  19.501150
    31  C   22.504609  21.512631  20.202002  19.748995  20.782808
    32  C   22.737581  21.812110  20.492675  19.939611  20.904887
    33  S   21.350229  20.466346  19.142678  18.530325  19.458729
    34  H    1.040237   2.168211   3.383295   3.896850   3.380149
    35  H    2.202062   1.170699   2.132250   3.475906   3.918648
    36  H    3.391310   2.079065   1.053022   2.228502   3.433079
    37  H    3.401295   3.809501   3.432839   2.114756   1.064567
    38  H    2.135539   3.343400   3.847807   3.340125   2.072014
    39  H    7.268572   6.919953   5.776665   4.528056   4.976342
    40  H    9.015339   8.372577   7.107375   6.204447   6.983175
    41  H   11.251583  10.473493   9.166370   8.429837   9.323238
    42  H   10.595053   9.529054   8.250318   8.013546   9.218438
    43  H    8.243343   7.218003   5.945987   5.698713   6.912004
    44  H   14.984650  13.881642  12.600582  12.369732  13.560174
    45  H   16.307889  15.478987  14.152581  13.466453  14.367277
    46  H   18.698148  17.864885  16.539314  15.858342  16.747470
    47  H   19.124420  18.048838  16.755613  16.446276  17.578656
    48  H   16.790053  15.685655  14.399600  14.149660  15.324064
    49  H   23.316830  22.293894  20.991077  20.587543  21.649196
    50  H   23.749920  22.845070  21.524771  20.942240  21.882648
                    6          7          8          9         10
     6  C    0.000000
     7  C    3.742714   0.000000
     8  N    4.288540   1.307146   0.000000
     9  C    5.598787   2.167145   1.337097   0.000000
    10  C    6.221026   2.486530   2.338670   1.349489   0.000000
    11  S    5.207572   1.753413   2.577534   2.510535   1.791249
    12  C    7.636452   3.894362   3.722019   2.541548   1.430061
    13  C    8.482235   4.802730   4.383340   3.118966   2.395631
    14  C    9.921202   6.214075   5.840905   4.558250   3.761088
    15  C   10.467737   6.726715   6.540356   5.283842   4.279619
    16  C    9.768127   6.081917   6.109901   4.964234   3.798041
    17  C    8.373657   4.703088   4.803713   3.750163   2.523006
    18  C   11.893219   8.155365   7.978245   6.713480   5.717838
    19  N   12.620862   8.919646   8.876443   7.657235   6.565968
    20  C   13.972718  10.256961  10.156668   8.906506   7.866783
    21  C   14.384546  10.644992  10.403810   9.112177   8.190056
    22  S   13.097792   9.371999   9.012878   7.707625   6.899971
    23  C   15.757642  12.020428  11.727587  10.424731   9.555837
    24  C   16.246097  12.524325  12.094145  10.769013  10.041798
    25  C   17.661684  13.947750  13.496244  12.172205  11.468643
    26  C   18.473666  14.747756  14.388844  13.078381  12.279696
    27  C   18.056203  14.331720  14.087799  12.800518  11.892957
    28  C   16.657637  12.934265  12.737063  11.461184  10.508321
    29  C   19.903242  16.184068  15.803284  14.492429  13.717538
    30  N   20.751660  17.032749  16.725346  15.427933  14.583985
    31  C   22.043660  18.329214  17.981661  16.679322  15.875047
    32  C   22.192576  18.490703  18.044490  16.730994  16.024697
    33  S   20.759362  17.065382  16.570986  15.251350  14.595296
    34  H    2.155360   5.396205   6.214438   7.458901   7.847207
    35  H    3.409085   4.743421   5.920521   6.899738   6.846604
    36  H    3.807689   2.855517   4.154867   4.851794   4.558358
    37  H    2.108280   2.681760   2.610280   3.930242   4.866518
    38  H    1.092816   4.590512   4.910710   6.244754   7.017960
    39  H    6.313232   3.163971   2.072984   1.082297   2.122786
    40  H    8.286844   4.772414   4.150753   2.955506   2.647091
    41  H   10.617297   6.977445   6.483628   5.210157   4.588772
    42  H   10.343524   6.740782   6.882242   5.799689   4.604804
    43  H    7.998450   4.500032   4.827516   3.982596   2.770480
    44  H   14.722840  11.046246  11.031171   9.812510   8.720078
    45  H   15.676549  11.982132  11.462887  10.130716   9.505914
    46  H   18.059562  14.377283  13.836116  12.509968  11.907558
    47  H   18.788562  15.081527  14.904523  13.637929  12.675595
    48  H   16.506811  12.814535  12.728721  11.491522  10.448229
    49  H   22.895686  19.185354  18.879539  17.586169  16.744522
    50  H   23.177933  19.486470  19.005789  17.691475  17.021599
                   11         12         13         14         15
    11  S    0.000000
    12  C    2.829337   0.000000
    13  C    3.927042   1.320184   0.000000
    14  C    5.165990   2.438522   1.469698   0.000000
    15  C    5.452385   2.849641   2.459528   1.370783   0.000000
    16  C    4.667362   2.492129   2.798328   2.395100   1.399739
    17  C    3.316178   1.469577   2.391530   2.782986   2.427850
    18  C    6.828083   4.288113   3.810136   2.474753   1.439871
    19  N    7.472145   5.165385   4.917071   3.692716   2.463924
    20  C    8.832803   6.448110   6.051803   4.699971   3.640774
    21  C    9.329525   6.762442   6.106368   4.652071   3.926796
    22  S    8.196231   5.505941   4.659881   3.194058   2.851713
    23  C   10.735945   8.135872   7.387654   5.918745   5.328808
    24  C   11.377542   8.655597   7.789267   6.346520   5.963658
    25  C   12.808974  10.088940   9.189791   7.752984   7.405758
    26  C   13.503601  10.875098  10.029552   8.567512   8.111253
    27  C   12.980329  10.473224   9.727007   8.261063   7.662533
    28  C   11.551717   9.084984   8.403518   6.945644   6.263531
    29  C   14.952713  12.319297  11.444664   9.989091   9.570201
    30  N   15.724922  13.174255  12.348771  10.885966  10.390098
    31  C   17.054258  14.472813  13.608608  12.151787  11.707759
    32  C   17.315912  14.645064  13.712918  12.277403  11.941332
    33  S   15.951051  13.230537  12.279650  10.860119  10.572589
    34  H    6.502294   9.198770  10.141004  11.527362  11.944028
    35  H    5.181409   8.010719   9.056574  10.304878  10.523516
    36  H    2.819840   5.637246   6.712292   7.920449   8.113333
    37  H    4.427921   6.286367   6.984640   8.446926   9.125584
    38  H    6.164933   8.446790   9.225322  10.682957  11.294470
    39  H    3.565039   2.874397   3.057455   4.412195   5.290406
    40  H    4.218742   2.091331   1.063600   2.158542   3.384844
    41  H    6.051920   3.383982   2.193565   1.083479   2.155153
    42  H    5.252502   3.403674   3.814056   3.322572   2.115895
    43  H    3.053131   2.213635   3.356156   3.845952   3.380042
    44  H    9.557246   7.326821   7.054864   5.758499   4.606887
    45  H   10.947207   8.160212   7.249584   5.861523   5.612923
    46  H   13.338745  10.565429   9.608787   8.217786   7.992165
    47  H   13.667845  11.258436  10.558478   9.104783   8.453970
    48  H   11.341144   9.035873   8.465471   7.049090   6.249506
    49  H   17.867816  15.338125  14.498872  13.040557  12.560391
    50  H   18.344706  15.652595  14.697132  13.273721  12.974204
                   16         17         18         19         20
    16  C    0.000000
    17  C    1.401572   0.000000
    18  C    2.417383   3.715640   0.000000
    19  N    2.878994   4.278641   1.301811   0.000000
    20  C    4.243738   5.642208   2.242720   1.385865   0.000000
    21  C    4.890019   6.228010   2.520526   2.355182   1.380765
    22  S    4.114750   5.278174   1.812714   2.568031   2.503462
    23  C    6.340280   7.667465   3.953234   3.763505   2.570394
    24  C    7.091486   8.348031   4.714221   4.773520   3.706533
    25  C    8.531610   9.795471   6.143816   6.125954   4.953735
    26  C    9.160383  10.477845   6.764255   6.545611   5.258470
    27  C    8.599506   9.951985   6.263289   5.857774   4.535269
    28  C    7.153752   8.512526   4.851915   4.402212   3.102850
    29  C   10.627468  11.942971   8.229882   7.999055   6.693967
    30  N   11.377080  12.719519   9.012193   8.649778   7.312569
    31  C   12.724913  14.058608  10.344826  10.018773   8.681539
    32  C   13.034950  14.332605  10.631148  10.440974   9.136220
    33  S   11.702905  12.970065   9.306839   9.219521   7.965600
    34  H   11.113799   9.737786  13.329607  13.931691  15.305369
    35  H    9.576121   8.282976  11.821190  12.270348  13.641077
    36  H    7.183675   5.890765   9.415776   9.895657  11.267259
    37  H    8.593615   7.231096  10.565210  11.415854  12.721056
    38  H   10.649031   9.256599  12.729689  13.502997  14.841901
    39  H    5.207494   4.174347   6.665360   7.708641   8.872095
    40  H    3.858655   3.386110   4.629304   5.813899   6.858208
    41  H    3.395616   3.865288   2.759643   4.053934   4.799963
    42  H    1.016707   2.086388   2.611784   2.580263   3.939789
    43  H    2.126120   1.063476   4.543022   4.889018   6.267958
    44  H    4.978025   6.371169   3.285964   2.165489   1.154197
    45  H    6.793295   7.966132   4.520679   4.809577   3.970853
    46  H    9.165830  10.373440   6.821788   6.930103   5.835856
    47  H    9.314850  10.675466   7.049026   6.526986   5.211870
    48  H    6.988307   8.350969   4.853383   4.202872   2.974276
    49  H   13.538858  14.883850  11.182406  10.790690   9.446411
    50  H   14.084629  15.371312  11.681097  11.516653  10.216894
                   21         22         23         24         25
    21  C    0.000000
    22  S    1.700299   0.000000
    23  C    1.454357   2.756917   0.000000
    24  C    2.477160   3.202245   1.394943   0.000000
    25  C    3.803175   4.616467   2.460624   1.451375   0.000000
    26  C    4.275911   5.384501   2.821828   2.454318   1.393807
    27  C    3.777355   5.132273   2.445575   2.794352   2.384781
    28  C    2.423112   3.900827   1.367054   2.402607   2.815815
    29  C    5.742382   6.818589   4.288615   3.812824   2.490048
    30  N    6.509069   7.725664   5.091823   4.891753   3.697038
    31  C    7.841936   8.991652   6.404968   6.047177   4.722074
    32  C    8.166141   9.142429   6.713136   6.057895   4.622314
    33  S    6.907020   7.757522   5.482487   4.628219   3.177713
    34  H   15.830946  14.652425  17.231553  17.836065  19.260764
    35  H   14.285543  13.272079  15.700593  16.454134  17.876236
    36  H   11.887424  10.867456  13.303816  14.046802  15.471380
    37  H   13.007613  11.622475  14.337204  14.695820  16.092934
    38  H   15.205731  13.869666  16.560772  16.987074  18.392537
    39  H    8.940608   7.450703  10.184380  10.392883  11.764414
    40  H    6.747295   5.181114   7.932215   8.209070   9.559293
    41  H    4.435586   2.799659   5.531147   5.798560   7.145498
    42  H    4.840349   4.414718   6.284945   7.149061   8.561021
    43  H    7.006621   6.203716   8.459019   9.199027  10.642927
    44  H    2.264174   3.635719   3.006576   4.221116   5.265290
    45  H    2.748403   2.939732   2.192556   1.101386   2.194101
    46  H    4.646039   5.210132   3.425561   2.170398   1.105289
    47  H    4.637307   6.054009   3.430887   3.910265   3.416318
    48  H    2.732633   4.259668   2.204089   3.439381   3.914010
    49  H    8.683744   9.892875   7.272612   7.030460   5.750694
    50  H    9.231881  10.160891   7.782503   7.056751   5.608051
                   26         27         28         29         30
    26  C    0.000000
    27  C    1.350571   0.000000
    28  C    2.455092   1.473719   0.000000
    29  C    1.467196   2.419691   3.791890   0.000000
    30  N    2.437715   2.804525   4.278016   1.321416   0.000000
    31  C    3.639195   4.191262   5.664070   2.239505   1.400254
    32  C    3.902257   4.830444   6.243123   2.459521   2.392449
    33  S    2.833250   4.044668   5.288003   1.727273   2.556486
    34  H   19.982572  19.459365  18.031750  21.422848  22.194210
    35  H   18.468566  17.819119  16.371156  19.912223  20.581889
    36  H   16.076840  15.449145  14.001812  17.523882  18.213701
    37  H   16.996489  16.693586  15.337091  18.407326  19.331810
    38  H   19.250153  18.884024  17.502515  20.669801  21.553635
    39  H   12.751203  12.582300  11.299579  14.136393  15.133827
    40  H   10.453334  10.242896   8.985353  11.827802  12.773794
    41  H    8.015994   7.828884   6.613596   9.392920  10.339106
    42  H    9.092126   8.437519   6.979216  10.552443  11.229260
    43  H   11.280162  10.693727   9.237628  12.747290  13.481031
    44  H    5.329961   4.437783   3.102830   6.679999   7.133807
    45  H    3.435208   3.893805   3.412147   4.681114   5.848799
    46  H    2.222989   3.414854   3.916882   2.809125   4.123999
    47  H    2.166209   1.118179   2.215363   2.668391   2.486576
    48  H    3.406296   2.186377   1.103834   4.605676   4.842559
    49  H    4.587764   4.942681   6.405828   3.261537   2.182088
    50  H    4.987205   5.942444   7.350611   3.561493   3.448735
                   31         32         33         34         35
    31  C    0.000000
    32  C    1.452625   0.000000
    33  S    2.516863   1.648937   0.000000
    34  H   23.517877  23.762733  22.381576   0.000000
    35  H   21.937410  22.306414  21.006145   2.518700   0.000000
    36  H   19.566261  19.917080  18.606955   4.243655   2.410195
    37  H   20.585303  20.634937  19.152579   4.258402   4.980008
    38  H   22.827015  22.925694  21.467005   2.477993   4.315214
    39  H   16.342964  16.305579  14.787666   8.282572   7.904112
    40  H   13.989109  14.019565  12.567449  10.045215   9.164593
    41  H   11.555924  11.606926  10.173370  12.284346  11.148380
    42  H   12.595396  12.981948  11.704582  11.572037   9.911550
    43  H   14.835726  15.156143  13.817192   9.219768   7.668641
    44  H    8.507189   9.093626   8.058906  15.962768  14.197630
    45  H    6.915893   6.753107   5.210824  17.345192  16.088016
    46  H    4.885444   4.447871   2.835758  19.734892  18.460517
    47  H    3.861065   4.804200   4.395056  20.116985  18.387832
    48  H    6.241544   7.000629   6.206997  17.773712  15.998813
    49  H    1.089147   2.251255   3.570635  24.322297  22.680915
    50  H    2.287001   1.113120   2.471354  24.777616  23.357225
                   36         37         38         39         40
    36  H    0.000000
    37  H    4.316924   0.000000
    38  H    4.900476   2.398077   0.000000
    39  H    5.917566   4.443704   6.831414   0.000000
    40  H    6.913848   6.679370   8.950617   2.677453   0.000000
    41  H    8.792550   9.062739  11.329667   4.900293   2.437907
    42  H    7.565074   9.282642  11.254771   6.099911   4.875090
    43  H    5.331188   7.044180   8.919768   4.583444   4.279982
    44  H   11.862928  13.558082  15.621193   9.839653   7.909727
    45  H   13.682104  14.044108  16.372585   9.674025   7.607833
    46  H   16.056127  16.407635  18.742923  12.015757   9.895093
    47  H   16.045870  17.499911  19.645414  13.474811  11.099802
    48  H   13.664514  15.302495  17.394475  11.433583   9.117911
    49  H   20.326107  21.482911  23.699297  17.283627  14.898035
    50  H   20.966056  21.586673  23.892067  17.231858  14.970954
                   41         42         43         44         45
    41  H    0.000000
    42  H    4.250795   0.000000
    43  H    4.928579   2.393616   0.000000
    44  H    5.927421   4.471652   6.861565   0.000000
    45  H    5.266247   6.953940   8.850323   4.665492   0.000000
    46  H    7.537457   9.261598  11.249751   6.216531   2.442927
    47  H    8.713688   9.087940  11.372232   4.933067   5.010641
    48  H    6.843469   6.715344   9.000218   2.724218   4.379416
    49  H   12.467773  13.370588  15.636303   9.188543   7.938637
    50  H   12.575119  14.045845  16.204536  10.179223   7.680804
                   46         47         48         49         50
    46  H    0.000000
    47  H    4.373940   0.000000
    48  H    5.017212   2.449589   0.000000
    49  H    5.965502   4.405242   6.850428   0.000000
    50  H    5.299213   5.897588   8.112967   2.711004   0.000000
 Stoichiometry    C27H17N3S3
 Framework group  C1[X(C27H17N3S3)]
 Deg. of freedom   144
 Full point group                 C1      NOp   1
 Largest Abelian subgroup         C1      NOp   1
 Largest concise Abelian subgroup C1      NOp   1
                         Standard orientation:                         
 ---------------------------------------------------------------------
 Center     Atomic      Atomic             Coordinates (Angstroms)
 Number     Number       Type             X           Y           Z
 ---------------------------------------------------------------------
      1          6           0       11.544779    0.282762   -0.623963
      2          6           0       10.537151    1.251051   -0.829989
      3          6           0        9.230947    1.073750   -0.669017
      4          6           0        8.769088   -0.281262   -0.252143
      5          6           0        9.742573   -1.270866   -0.081311
      6          6           0       11.034756   -0.966878   -0.254160
      7          6           0        7.322725   -0.575366    0.020525
      8          7           0        6.855308   -1.769277    0.274941
      9          6           0        5.532350   -1.714284    0.460909
     10          6           0        4.846374   -0.572331    0.245266
     11         16           0        6.080753    0.638028   -0.223681
     12          6           0        3.450289   -0.266310    0.293985
     13          6           0        2.553462   -1.088197   -0.218936
     14          6           0        1.115466   -0.787235   -0.178907
     15          6           0        0.673874    0.362435    0.423007
     16          6           0        1.602400    1.283509    0.921737
     17          6           0        2.973288    0.995176    0.877747
     18          6           0       -0.711466    0.752607    0.465770
     19          7           0       -1.208423    1.899470    0.829709
     20          6           0       -2.594140    1.910217    0.846911
     21          6           0       -3.229456    0.786094    0.357798
     22         16           0       -2.047400   -0.388011    0.018329
     23          6           0       -4.647027    0.516100    0.176820
     24          6           0       -5.190133   -0.717194    0.537216
     25          6           0       -6.615333   -0.945733    0.385345
     26          6           0       -7.410254    0.057854   -0.165664
     27          6           0       -6.882112    1.260553   -0.479704
     28          6           0       -5.437516    1.510125   -0.329024
     29          6           0       -8.851056   -0.140717   -0.358854
     30          7           0       -9.631977    0.822955   -0.814528
     31          6           0      -10.957798    0.382613   -0.909445
     32          6           0      -11.156712   -0.989103   -0.474761
     33         16           0       -9.713214   -1.576434    0.064079
     34          1           0       12.559384    0.472759   -0.752692
     35          1           0       10.892729    2.317277   -1.157495
     36          1           0        8.551748    1.867409   -0.801868
     37          1           0        9.427312   -2.214024    0.298642
     38          1           0       11.752307   -1.774949   -0.091717
     39          1           0        5.022447   -2.637448    0.704083
     40          1           0        2.824466   -2.003822   -0.687374
     41          1           0        0.437552   -1.513751   -0.610802
     42          1           0        1.305447    2.155594    1.351829
     43          1           0        3.654000    1.696601    1.296812
     44          1           0       -3.100824    2.895528    1.170338
     45          1           0       -4.583384   -1.523945    0.977738
     46          1           0       -6.973298   -1.944307    0.695788
     47          1           0       -7.492172    2.084667   -0.925783
     48          1           0       -5.096650    2.511742   -0.643705
     49          1           0      -11.750632    1.020236   -1.298149
     50          1           0      -12.136105   -1.515149   -0.419070
 ---------------------------------------------------------------------
 Rotational constants (GHZ):           0.7331247           0.0215666           0.0211590
 Leave Link  202 at Fri Jul 24 14:32:38 2020, MaxMem=  4026531840 cpu:               0.3 elap:               0.1
 (Enter /opt/ohpc/pub/libs/gaussian/g16-A.03/sandybridge/g16/l301.exe)
 Standard basis: CC-pVDZ (5D, 7F)
 Ernie: Thresh=  0.10000D-02 Tol=  0.10000D-05 Strict=F.
 Ernie:  90 primitive shells out of 895 were deleted.
 There are   592 symmetry adapted cartesian basis functions of A   symmetry.
 There are   559 symmetry adapted basis functions of A   symmetry.
   559 basis functions,  1322 primitive gaussians,   592 cartesian basis functions
   124 alpha electrons      124 beta electrons
       nuclear repulsion energy      3076.5746105782 Hartrees.
 IExCor=32609 DFT=T Ex+Corr=LC-wPBE ExCW=0 ScaHFX=  1.000000
 ScaDFX=  1.000000  0.000000  1.000000  1.000000 ScalE2=  1.000000  1.000000
 IRadAn=      5 IRanWt=     -1 IRanGd=            0 ICorTp=0 IEmpDi=  4
 HFx  wShort=  0.000000 wLong=  0.109200 cFull=  0.000000 cShort=  0.000000 cLong=  1.000000
 DFx  wShort=  0.000000 wLong=  0.109200 cFull=  0.000000 cShort=  0.000000 cLong=  1.000000
 NAtoms=   50 NActive=   50 NUniq=   50 SFac= 1.00D+00 NAtFMM=   60 NAOKFM=F Big=F
 Integral buffers will be    131072 words long.
 Raffenetti 2 integral format.
 Two-electron integral symmetry is turned on.
 Leave Link  301 at Fri Jul 24 14:32:38 2020, MaxMem=  4026531840 cpu:               0.4 elap:               0.1
 (Enter /opt/ohpc/pub/libs/gaussian/g16-A.03/sandybridge/g16/l302.exe)
 NPDir=0 NMtPBC=     1 NCelOv=     1 NCel=       1 NClECP=     1 NCelD=      1
         NCelK=      1 NCelE2=     1 NClLst=     1 CellRange=     0.0.
 One-electron integrals computed using PRISM.
 One-electron integral symmetry used in STVInt
 NBasis=   559 RedAO= T EigKep=  2.76D-04  NBF=   559
 NBsUse=   559 1.00D-06 EigRej= -1.00D+00 NBFU=   559
 Precomputing XC quadrature grid using
 IXCGrd= 4 IRadAn=           5 IRanWt=          -1 IRanGd=           0 AccXCQ= 0.00D+00.
 Generated NRdTot=       0 NPtTot=           0 NUsed=           0 NTot=          32
 NSgBfM=   515   515   515   515   515 MxSgAt=    50 MxSgA2=    50.
 Leave Link  302 at Fri Jul 24 14:32:39 2020, MaxMem=  4026531840 cpu:               8.2 elap:               1.1
 (Enter /opt/ohpc/pub/libs/gaussian/g16-A.03/sandybridge/g16/l303.exe)
 DipDrv:  MaxL=1.
 Leave Link  303 at Fri Jul 24 14:32:39 2020, MaxMem=  4026531840 cpu:               0.8 elap:               0.1
 (Enter /opt/ohpc/pub/libs/gaussian/g16-A.03/sandybridge/g16/l401.exe)
 ExpMin= 1.22D-01 ExpMax= 1.11D+05 ExpMxC= 1.07D+03 IAcc=3 IRadAn=         5 AccDes= 0.00D+00
 Harris functional with IExCor=32609 and IRadAn=       5 diagonalized for initial guess.
 HarFok:  IExCor=32609 AccDes= 0.00D+00 IRadAn=         5 IDoV= 1 UseB2=F ITyADJ=14
 ICtDFT=  3500011 ScaDFX=  1.000000  1.000000  1.000000  1.000000
 FoFCou: FMM=F IPFlag=           0 FMFlag=      100000 FMFlg1=           0
         NFxFlg=           0 DoJE=T BraDBF=F KetDBF=T FulRan=T
         wScrn=  0.000000 ICntrl=       500 IOpCl=  0 I1Cent=   200000004 NGrid=           0
         NMat0=    1 NMatS0=      1 NMatT0=    0 NMatD0=    1 NMtDS0=    0 NMtDT0=    0
 Petite list used in FoFCou.
 Harris En= -2396.41644297202    
 JPrj=0 DoOrth=F DoCkMO=F.
 Initial guess <Sx>= 0.0000 <Sy>= 0.0000 <Sz>= 0.0000 <S**2>=-0.0000 S=-0.0000
 Leave Link  401 at Fri Jul 24 14:32:44 2020, MaxMem=  4026531840 cpu:              37.2 elap:               4.7
 (Enter /opt/ohpc/pub/libs/gaussian/g16-A.03/sandybridge/g16/l502.exe)
 Integral symmetry usage will be decided dynamically.
 UHF open shell SCF:
 Using DIIS extrapolation, IDIIS=  1040.
 NGot=  4026531840 LenX=  4025820188 LenY=  4025469132
 Requested convergence on RMS density matrix=1.00D-08 within 128 cycles.
 Requested convergence on MAX density matrix=1.00D-06.
 Requested convergence on             energy=1.00D-06.
 No special actions if energy rises.
 Fock matrices will be formed incrementally for  20 cycles.
 Integral accuracy reduced to 1.0D-05 until final iterations.

 Cycle   1  Pass 0  IDiag  1:
 FoFJK:  IHMeth= 1 ICntrl=       0 DoSepK=T KAlg= 0 I1Cent=           0 FoldK=F
 IRaf=         1 NMat=       1 IRICut=       1 DoRegI=T DoRafI=F ISym2E= 0 IDoP0=0 IntGTp=1.
 FoFCou: FMM=F IPFlag=           0 FMFlag=      100000 FMFlg1=           0
         NFxFlg=           0 DoJE=T BraDBF=F KetDBF=F FulRan=T
         wScrn=  0.000000 ICntrl=       500 IOpCl=  0 I1Cent=           0 NGrid=           0
         NMat0=    1 NMatS0=      1 NMatT0=    0 NMatD0=    1 NMtDS0=    0 NMtDT0=    0
 Symmetry not used in FoFCou.
 E= -2395.64498891436    
 DIIS: error= 2.42D-02 at cycle   1 NSaved=   1.
 NSaved= 1 IEnMin= 1 EnMin= -2395.64498891436     IErMin= 1 ErrMin= 2.42D-02
 ErrMax= 2.42D-02  0.00D+00 EMaxC= 1.00D-01 BMatC= 2.22D+00 BMatP= 2.22D+00
 IDIUse=3 WtCom= 7.58D-01 WtEn= 2.42D-01
 Coeff-Com:  0.100D+01
 Coeff-En:   0.100D+01
 Coeff:      0.100D+01
 Gap=     0.243 Goal=   None    Shift=    0.000
 Gap=     0.243 Goal=   None    Shift=    0.000
 GapD=    0.243 DampG=1.000 DampE=0.500 DampFc=0.5000 IDamp=-1.
 Damping current iteration by 5.00D-01
 RMSDP=4.26D-03 MaxDP=1.94D-01              OVMax= 2.42D-01

 Cycle   2  Pass 0  IDiag  1:
 RMSU=  2.12D-03    CP:  9.85D-01
 E= -2395.84449907498     Delta-E=       -0.199510160613 Rises=F Damp=T
 DIIS: error= 6.76D-03 at cycle   2 NSaved=   2.
 NSaved= 2 IEnMin= 2 EnMin= -2395.84449907498     IErMin= 2 ErrMin= 6.76D-03
 ErrMax= 6.76D-03  0.00D+00 EMaxC= 1.00D-01 BMatC= 2.92D-01 BMatP= 2.22D+00
 IDIUse=3 WtCom= 9.32D-01 WtEn= 6.76D-02
 Coeff-Com:  0.208D+00 0.792D+00
 Coeff-En:   0.325D+00 0.675D+00
 Coeff:      0.216D+00 0.784D+00
 Gap=     0.251 Goal=   None    Shift=    0.000
 Gap=     0.251 Goal=   None    Shift=    0.000
 RMSDP=1.22D-03 MaxDP=4.86D-02 DE=-2.00D-01 OVMax= 2.04D-01

 Cycle   3  Pass 0  IDiag  1:
 RMSU=  1.02D-03    CP:  9.78D-01  6.90D-01
 E= -2396.26013154956     Delta-E=       -0.415632474582 Rises=F Damp=F
 DIIS: error= 7.25D-03 at cycle   3 NSaved=   3.
 NSaved= 3 IEnMin= 3 EnMin= -2396.26013154956     IErMin= 2 ErrMin= 6.76D-03
 ErrMax= 7.25D-03  0.00D+00 EMaxC= 1.00D-01 BMatC= 2.40D-01 BMatP= 2.92D-01
 IDIUse=3 WtCom= 9.28D-01 WtEn= 7.25D-02
 Coeff-Com:  0.818D-01 0.474D+00 0.444D+00
 Coeff-En:   0.000D+00 0.000D+00 0.100D+01
 Coeff:      0.759D-01 0.440D+00 0.484D+00
 Gap=     0.193 Goal=   None    Shift=    0.000
 Gap=     0.193 Goal=   None    Shift=    0.000
 RMSDP=5.79D-04 MaxDP=3.75D-02 DE=-4.16D-01 OVMax= 5.32D-02

 Cycle   4  Pass 0  IDiag  1:
 RMSU=  4.01D-04    CP:  9.82D-01  7.71D-01  6.32D-01
 E= -2396.31490173453     Delta-E=       -0.054770184972 Rises=F Damp=F
 DIIS: error= 2.22D-03 at cycle   4 NSaved=   4.
 NSaved= 4 IEnMin= 4 EnMin= -2396.31490173453     IErMin= 4 ErrMin= 2.22D-03
 ErrMax= 2.22D-03  0.00D+00 EMaxC= 1.00D-01 BMatC= 2.32D-02 BMatP= 2.40D-01
 IDIUse=3 WtCom= 9.78D-01 WtEn= 2.22D-02
 Coeff-Com:  0.159D-01 0.101D+00 0.253D+00 0.630D+00
 Coeff-En:   0.000D+00 0.000D+00 0.548D-01 0.945D+00
 Coeff:      0.155D-01 0.984D-01 0.249D+00 0.637D+00
 Gap=     0.192 Goal=   None    Shift=    0.000
 Gap=     0.192 Goal=   None    Shift=    0.000
 RMSDP=1.63D-04 MaxDP=9.03D-03 DE=-5.48D-02 OVMax= 1.27D-02

 Cycle   5  Pass 0  IDiag  1:
 RMSU=  1.03D-04    CP:  9.81D-01  7.52D-01  6.98D-01  7.52D-01
 E= -2396.32020015656     Delta-E=       -0.005298422027 Rises=F Damp=F
 DIIS: error= 4.83D-04 at cycle   5 NSaved=   5.
 NSaved= 5 IEnMin= 5 EnMin= -2396.32020015656     IErMin= 5 ErrMin= 4.83D-04
 ErrMax= 4.83D-04  0.00D+00 EMaxC= 1.00D-01 BMatC= 1.20D-03 BMatP= 2.32D-02
 IDIUse=3 WtCom= 9.95D-01 WtEn= 4.83D-03
 Coeff-Com:  0.281D-02 0.289D-02 0.661D-01 0.273D+00 0.655D+00
 Coeff-En:   0.000D+00 0.000D+00 0.000D+00 0.000D+00 0.100D+01
 Coeff:      0.280D-02 0.287D-02 0.658D-01 0.272D+00 0.657D+00
 Gap=     0.193 Goal=   None    Shift=    0.000
 Gap=     0.193 Goal=   None    Shift=    0.000
 RMSDP=5.29D-05 MaxDP=2.82D-03 DE=-5.30D-03 OVMax= 4.56D-03

 Cycle   6  Pass 0  IDiag  1:
 RMSU=  4.20D-05    CP:  9.81D-01  7.50D-01  7.09D-01  8.10D-01  8.20D-01
 E= -2396.32044663623     Delta-E=       -0.000246479670 Rises=F Damp=F
 DIIS: error= 3.82D-04 at cycle   6 NSaved=   6.
 NSaved= 6 IEnMin= 6 EnMin= -2396.32044663623     IErMin= 6 ErrMin= 3.82D-04
 ErrMax= 3.82D-04  0.00D+00 EMaxC= 1.00D-01 BMatC= 4.12D-04 BMatP= 1.20D-03
 IDIUse=3 WtCom= 9.96D-01 WtEn= 3.82D-03
 Coeff-Com:  0.263D-03-0.130D-01 0.900D-02 0.919D-01 0.417D+00 0.494D+00
 Coeff-En:   0.000D+00 0.000D+00 0.000D+00 0.000D+00 0.176D+00 0.824D+00
 Coeff:      0.262D-03-0.129D-01 0.896D-02 0.915D-01 0.416D+00 0.496D+00
 Gap=     0.193 Goal=   None    Shift=    0.000
 Gap=     0.193 Goal=   None    Shift=    0.000
 RMSDP=2.46D-05 MaxDP=1.11D-03 DE=-2.46D-04 OVMax= 2.10D-03

 Cycle   7  Pass 0  IDiag  1:
 RMSU=  1.75D-05    CP:  9.81D-01  7.47D-01  7.12D-01  8.21D-01  9.13D-01
                    CP:  7.23D-01
 E= -2396.32055377265     Delta-E=       -0.000107136427 Rises=F Damp=F
 DIIS: error= 9.20D-05 at cycle   7 NSaved=   7.
 NSaved= 7 IEnMin= 7 EnMin= -2396.32055377265     IErMin= 7 ErrMin= 9.20D-05
 ErrMax= 9.20D-05  0.00D+00 EMaxC= 1.00D-01 BMatC= 3.79D-05 BMatP= 4.12D-04
 IDIUse=1 WtCom= 1.00D+00 WtEn= 0.00D+00
 Coeff-Com:  0.828D-04-0.810D-02-0.339D-02 0.135D-01 0.131D+00 0.265D+00
 Coeff-Com:  0.602D+00
 Coeff:      0.828D-04-0.810D-02-0.339D-02 0.135D-01 0.131D+00 0.265D+00
 Coeff:      0.602D+00
 Gap=     0.193 Goal=   None    Shift=    0.000
 Gap=     0.193 Goal=   None    Shift=    0.000
 RMSDP=8.55D-06 MaxDP=3.68D-04 DE=-1.07D-04 OVMax= 9.57D-04

 Initial convergence to 1.0D-05 achieved.  Increase integral accuracy.
 Cycle   8  Pass 1  IDiag  1:
 E= -2396.32013282734     Delta-E=        0.000420945312 Rises=F Damp=F
 DIIS: error= 1.29D-04 at cycle   1 NSaved=   1.
 NSaved= 1 IEnMin= 1 EnMin= -2396.32013282734     IErMin= 1 ErrMin= 1.29D-04
 ErrMax= 1.29D-04  0.00D+00 EMaxC= 1.00D-01 BMatC= 3.27D-05 BMatP= 3.27D-05
 IDIUse=3 WtCom= 9.99D-01 WtEn= 1.29D-03
 Coeff-Com:  0.100D+01
 Coeff-En:   0.100D+01
 Coeff:      0.100D+01
 Gap=     0.193 Goal=   None    Shift=    0.000
 Gap=     0.193 Goal=   None    Shift=    0.000
 RMSDP=8.55D-06 MaxDP=3.68D-04 DE= 4.21D-04 OVMax= 7.39D-04

 Cycle   9  Pass 1  IDiag  1:
 RMSU=  9.64D-05    CP:  1.00D+00
 E= -2396.32013523350     Delta-E=       -0.000002406157 Rises=F Damp=F
 DIIS: error= 7.37D-05 at cycle   2 NSaved=   2.
 NSaved= 2 IEnMin= 2 EnMin= -2396.32013523350     IErMin= 2 ErrMin= 7.37D-05
 ErrMax= 7.37D-05  0.00D+00 EMaxC= 1.00D-01 BMatC= 2.15D-05 BMatP= 3.27D-05
 IDIUse=1 WtCom= 1.00D+00 WtEn= 0.00D+00
 Coeff-Com:  0.425D+00 0.575D+00
 Coeff:      0.425D+00 0.575D+00
 Gap=     0.193 Goal=   None    Shift=    0.000
 Gap=     0.193 Goal=   None    Shift=    0.000
 RMSDP=7.92D-06 MaxDP=3.37D-04 DE=-2.41D-06 OVMax= 7.41D-04

 Cycle  10  Pass 1  IDiag  1:
 RMSU=  7.64D-06    CP:  1.00D+00  1.02D+00
 E= -2396.32013809408     Delta-E=       -0.000002860576 Rises=F Damp=F
 DIIS: error= 5.46D-05 at cycle   3 NSaved=   3.
 NSaved= 3 IEnMin= 3 EnMin= -2396.32013809408     IErMin= 3 ErrMin= 5.46D-05
 ErrMax= 5.46D-05  0.00D+00 EMaxC= 1.00D-01 BMatC= 1.18D-05 BMatP= 2.15D-05
 IDIUse=1 WtCom= 1.00D+00 WtEn= 0.00D+00
 Coeff-Com:  0.411D-02 0.424D+00 0.572D+00
 Coeff:      0.411D-02 0.424D+00 0.572D+00
 Gap=     0.193 Goal=   None    Shift=    0.000
 Gap=     0.193 Goal=   None    Shift=    0.000
 RMSDP=4.21D-06 MaxDP=2.02D-04 DE=-2.86D-06 OVMax= 3.56D-04

 Cycle  11  Pass 1  IDiag  1:
 RMSU=  1.61D-06    CP:  1.00D+00  1.04D+00  5.80D-01
 E= -2396.32014095837     Delta-E=       -0.000002864297 Rises=F Damp=F
 DIIS: error= 7.83D-06 at cycle   4 NSaved=   4.
 NSaved= 4 IEnMin= 4 EnMin= -2396.32014095837     IErMin= 4 ErrMin= 7.83D-06
 ErrMax= 7.83D-06  0.00D+00 EMaxC= 1.00D-01 BMatC= 7.83D-07 BMatP= 1.18D-05
 IDIUse=1 WtCom= 1.00D+00 WtEn= 0.00D+00
 Coeff-Com: -0.162D-01 0.243D+00 0.359D+00 0.415D+00
 Coeff:     -0.162D-01 0.243D+00 0.359D+00 0.415D+00
 Gap=     0.193 Goal=   None    Shift=    0.000
 Gap=     0.193 Goal=   None    Shift=    0.000
 RMSDP=8.22D-07 MaxDP=5.69D-05 DE=-2.86D-06 OVMax= 8.47D-05

 Cycle  12  Pass 1  IDiag  1:
 RMSU=  6.06D-07    CP:  1.00D+00  1.05D+00  6.10D-01  7.01D-01
 E= -2396.32014115303     Delta-E=       -0.000000194661 Rises=F Damp=F
 DIIS: error= 9.81D-07 at cycle   5 NSaved=   5.
 NSaved= 5 IEnMin= 5 EnMin= -2396.32014115303     IErMin= 5 ErrMin= 9.81D-07
 ErrMax= 9.81D-07  0.00D+00 EMaxC= 1.00D-01 BMatC= 7.80D-09 BMatP= 7.83D-07
 IDIUse=1 WtCom= 1.00D+00 WtEn= 0.00D+00
 Coeff-Com: -0.318D-02 0.234D-01 0.341D-01 0.858D-01 0.860D+00
 Coeff:     -0.318D-02 0.234D-01 0.341D-01 0.858D-01 0.860D+00
 Gap=     0.193 Goal=   None    Shift=    0.000
 Gap=     0.193 Goal=   None    Shift=    0.000
 RMSDP=2.36D-07 MaxDP=1.17D-05 DE=-1.95D-07 OVMax= 3.91D-05

 Cycle  13  Pass 1  IDiag  1:
 RMSU=  1.64D-07    CP:  1.00D+00  1.05D+00  6.11D-01  7.87D-01  1.14D+00
 E= -2396.32014106696     Delta-E=        0.000000086076 Rises=F Damp=F
 DIIS: error= 1.02D-06 at cycle   6 NSaved=   6.
 NSaved= 6 IEnMin= 5 EnMin= -2396.32014115303     IErMin= 5 ErrMin= 9.81D-07
 ErrMax= 1.02D-06  0.00D+00 EMaxC= 1.00D-01 BMatC= 4.56D-09 BMatP= 7.80D-09
 IDIUse=1 WtCom= 1.00D+00 WtEn= 0.00D+00
 Coeff-Com:  0.229D-02-0.489D-01-0.739D-01-0.539D-01 0.509D+00 0.665D+00
 Coeff:      0.229D-02-0.489D-01-0.739D-01-0.539D-01 0.509D+00 0.665D+00
 Gap=     0.193 Goal=   None    Shift=    0.000
 Gap=     0.193 Goal=   None    Shift=    0.000
 RMSDP=1.31D-07 MaxDP=6.01D-06 DE= 8.61D-08 OVMax= 2.38D-05

 Cycle  14  Pass 1  IDiag  1:
 RMSU=  8.45D-08    CP:  1.00D+00  1.05D+00  6.11D-01  8.20D-01  1.28D+00
                    CP:  1.01D+00
 E= -2396.32014106887     Delta-E=       -0.000000001916 Rises=F Damp=F
 DIIS: error= 3.67D-07 at cycle   7 NSaved=   7.
 NSaved= 7 IEnMin= 5 EnMin= -2396.32014115303     IErMin= 7 ErrMin= 3.67D-07
 ErrMax= 3.67D-07  0.00D+00 EMaxC= 1.00D-01 BMatC= 6.87D-10 BMatP= 4.56D-09
 IDIUse=1 WtCom= 1.00D+00 WtEn= 0.00D+00
 Coeff-Com:  0.171D-02-0.311D-01-0.472D-01-0.409D-01 0.193D+00 0.382D+00
 Coeff-Com:  0.542D+00
 Coeff:      0.171D-02-0.311D-01-0.472D-01-0.409D-01 0.193D+00 0.382D+00
 Coeff:      0.542D+00
 Gap=     0.193 Goal=   None    Shift=    0.000
 Gap=     0.193 Goal=   None    Shift=    0.000
 RMSDP=3.88D-08 MaxDP=1.75D-06 DE=-1.92D-09 OVMax= 5.87D-06

 Cycle  15  Pass 1  IDiag  1:
 RMSU=  2.87D-08    CP:  1.00D+00  1.05D+00  6.11D-01  8.28D-01  1.30D+00
                    CP:  1.13D+00  9.54D-01
 E= -2396.32014106902     Delta-E=       -0.000000000148 Rises=F Damp=F
 DIIS: error= 1.73D-07 at cycle   8 NSaved=   8.
 NSaved= 8 IEnMin= 5 EnMin= -2396.32014115303     IErMin= 8 ErrMin= 1.73D-07
 ErrMax= 1.73D-07  0.00D+00 EMaxC= 1.00D-01 BMatC= 9.82D-11 BMatP= 6.87D-10
 IDIUse=1 WtCom= 1.00D+00 WtEn= 0.00D+00
 Coeff-Com:  0.652D-03-0.108D-01-0.165D-01-0.152D-01 0.406D-01 0.127D+00
 Coeff-Com:  0.314D+00 0.560D+00
 Coeff:      0.652D-03-0.108D-01-0.165D-01-0.152D-01 0.406D-01 0.127D+00
 Coeff:      0.314D+00 0.560D+00
 Gap=     0.193 Goal=   None    Shift=    0.000
 Gap=     0.193 Goal=   None    Shift=    0.000
 RMSDP=1.45D-08 MaxDP=7.39D-07 DE=-1.48D-10 OVMax= 2.42D-06

 Cycle  16  Pass 1  IDiag  1:
 RMSU=  8.81D-09    CP:  1.00D+00  1.05D+00  6.11D-01  8.28D-01  1.30D+00
                    CP:  1.15D+00  1.04D+00  7.80D-01
 E= -2396.32014106908     Delta-E=       -0.000000000057 Rises=F Damp=F
 DIIS: error= 6.59D-08 at cycle   9 NSaved=   9.
 NSaved= 9 IEnMin= 5 EnMin= -2396.32014115303     IErMin= 9 ErrMin= 6.59D-08
 ErrMax= 6.59D-08  0.00D+00 EMaxC= 1.00D-01 BMatC= 1.20D-11 BMatP= 9.82D-11
 IDIUse=1 WtCom= 1.00D+00 WtEn= 0.00D+00
 Coeff-Com:  0.157D-04 0.235D-03 0.272D-03-0.622D-04-0.158D-01-0.618D-02
 Coeff-Com:  0.556D-01 0.293D+00 0.673D+00
 Coeff:      0.157D-04 0.235D-03 0.272D-03-0.622D-04-0.158D-01-0.618D-02
 Coeff:      0.556D-01 0.293D+00 0.673D+00
 Gap=     0.193 Goal=   None    Shift=    0.000
 Gap=     0.193 Goal=   None    Shift=    0.000
 RMSDP=6.33D-09 MaxDP=1.77D-07 DE=-5.73D-11 OVMax= 1.04D-06

 SCF Done:  E(ULC-wPBE) =  -2396.32014107     A.U. after   16 cycles
            NFock= 16  Conv=0.63D-08     -V/T= 2.0040
 <Sx>= 0.0000 <Sy>= 0.0000 <Sz>= 0.0000 <S**2>=-0.0000 S=-0.0000
 <L.S>= 0.000000000000E+00
 KE= 2.386700926265D+03 PE=-1.178359971062D+04 EE= 3.924004032705D+03
 Annihilation of the first spin contaminant:
 S**2 before annihilation    -0.0000,   after     0.0000
 Leave Link  502 at Fri Jul 24 14:38:35 2020, MaxMem=  4026531840 cpu:            2801.2 elap:             351.3
 (Enter /opt/ohpc/pub/libs/gaussian/g16-A.03/sandybridge/g16/l601.exe)
 Copying SCF densities to generalized density rwf, IOpCl= 1 IROHF=0.

 **********************************************************************

            Population analysis using the SCF density.

 **********************************************************************

 Orbital symmetries:
 Alpha Orbitals:
       Occupied  (A) (A) (A) (A) (A) (A) (A) (A) (A) (A) (A) (A)
                 (A) (A) (A) (A) (A) (A) (A) (A) (A) (A) (A) (A)
                 (A) (A) (A) (A) (A) (A) (A) (A) (A) (A) (A) (A)
                 (A) (A) (A) (A) (A) (A) (A) (A) (A) (A) (A) (A)
                 (A) (A) (A) (A) (A) (A) (A) (A) (A) (A) (A) (A)
[...]
    39   Atom       -0.000000     -0.000000      0.000000
    40   Atom       -0.000000      0.000000     -0.000000
    41   Atom        0.000000     -0.000000      0.000000
    42   Atom        0.000000     -0.000000      0.000000
    43   Atom        0.000000     -0.000000     -0.000000
    44   Atom       -0.000000     -0.000000      0.000000
    45   Atom        0.000000     -0.000000     -0.000000
    46   Atom       -0.000000      0.000000     -0.000000
    47   Atom        0.000000     -0.000000      0.000000
    48   Atom       -0.000000      0.000000     -0.000000
    49   Atom        0.000000      0.000000     -0.000000
    50   Atom        0.000000     -0.000000     -0.000000
 --------------------------------------------------------
                        XY            XZ            YZ
 --------------------------------------------------------
     1   Atom       -0.000000      0.000000     -0.000000
     2   Atom       -0.000000      0.000000     -0.000000
     3   Atom       -0.000000      0.000000      0.000000
     4   Atom        0.000000     -0.000000      0.000000
     5   Atom        0.000000     -0.000000      0.000000
     6   Atom        0.000000      0.000000     -0.000000
     7   Atom       -0.000000     -0.000000     -0.000000
     8   Atom        0.000000      0.000000     -0.000000
     9   Atom       -0.000000      0.000000      0.000000
    10   Atom        0.000000     -0.000000     -0.000000
    11   Atom        0.000000     -0.000000     -0.000000
    12   Atom        0.000000      0.000000      0.000000
    13   Atom       -0.000000     -0.000000      0.000000
    14   Atom        0.000000      0.000000     -0.000000
    15   Atom       -0.000000     -0.000000     -0.000000
    16   Atom        0.000000     -0.000000     -0.000000
    17   Atom       -0.000000     -0.000000      0.000000
    18   Atom        0.000000      0.000000      0.000000
    19   Atom        0.000000      0.000000     -0.000000
    20   Atom       -0.000000     -0.000000     -0.000000
    21   Atom        0.000000     -0.000000      0.000000
    22   Atom       -0.000000     -0.000000      0.000000
    23   Atom       -0.000000      0.000000     -0.000000
    24   Atom       -0.000000      0.000000     -0.000000
    25   Atom        0.000000     -0.000000      0.000000
    26   Atom        0.000000     -0.000000      0.000000
    27   Atom        0.000000     -0.000000      0.000000
    28   Atom       -0.000000     -0.000000      0.000000
    29   Atom        0.000000     -0.000000      0.000000
    30   Atom       -0.000000      0.000000      0.000000
    31   Atom        0.000000      0.000000     -0.000000
    32   Atom       -0.000000     -0.000000     -0.000000
    33   Atom        0.000000     -0.000000     -0.000000
    34   Atom       -0.000000     -0.000000      0.000000
    35   Atom        0.000000     -0.000000     -0.000000
    36   Atom        0.000000     -0.000000     -0.000000
    37   Atom       -0.000000      0.000000      0.000000
    38   Atom       -0.000000     -0.000000      0.000000
    39   Atom        0.000000     -0.000000     -0.000000
    40   Atom       -0.000000     -0.000000      0.000000
    41   Atom       -0.000000     -0.000000     -0.000000
    42   Atom        0.000000      0.000000     -0.000000
    43   Atom       -0.000000      0.000000      0.000000
    44   Atom        0.000000      0.000000     -0.000000
    45   Atom       -0.000000      0.000000     -0.000000
    46   Atom       -0.000000      0.000000     -0.000000
    47   Atom        0.000000     -0.000000      0.000000
    48   Atom        0.000000      0.000000     -0.000000
    49   Atom       -0.000000      0.000000     -0.000000
    50   Atom        0.000000      0.000000      0.000000
 --------------------------------------------------------


 ---------------------------------------------------------------------------------
              Anisotropic Spin Dipole Couplings in Principal Axis System
 ---------------------------------------------------------------------------------

       Atom             a.u.   MegaHertz   Gauss  10(-4) cm-1        Axes

              Baa    -0.0000    -0.000    -0.000    -0.000  0.9834  0.1339 -0.1221
     1 C(13)  Bbb     0.0000     0.000     0.000     0.000  0.1098  0.0958  0.9893
              Bcc     0.0000     0.000     0.000     0.000 -0.1441  0.9864 -0.0795
 
              Baa    -0.0000    -0.000    -0.000    -0.000  0.4048  0.9121  0.0645
     2 C(13)  Bbb    -0.0000    -0.000    -0.000    -0.000 -0.0412 -0.0523  0.9978
              Bcc     0.0000     0.000     0.000     0.000  0.9135 -0.4065  0.0164
 
              Baa    -0.0000    -0.000    -0.000    -0.000  0.1251  0.9632 -0.2380
     3 C(13)  Bbb     0.0000     0.000     0.000     0.000  0.9885 -0.1416 -0.0536
              Bcc     0.0000     0.000     0.000     0.000  0.0853  0.2286  0.9698
 
              Baa    -0.0000    -0.000    -0.000    -0.000 -0.1343  0.9854 -0.1043
     4 C(13)  Bbb     0.0000     0.000     0.000     0.000  0.9813  0.1469  0.1247
              Bcc     0.0000     0.000     0.000     0.000 -0.1382  0.0856  0.9867
 
              Baa    -0.0000    -0.000    -0.000    -0.000 -0.2620  0.9564 -0.1291
     5 C(13)  Bbb     0.0000     0.000     0.000     0.000  0.3561  0.2202  0.9082
              Bcc     0.0000     0.000     0.000     0.000  0.8970  0.1920 -0.3982
 
              Baa    -0.0000    -0.000    -0.000    -0.000  0.9625 -0.2457 -0.1153
     6 C(13)  Bbb     0.0000     0.000     0.000     0.000  0.2693  0.9168  0.2948
              Bcc     0.0000     0.000     0.000     0.000  0.0333 -0.3148  0.9486
 
              Baa    -0.0000    -0.000    -0.000    -0.000  0.1083  0.9940  0.0154
     7 C(13)  Bbb    -0.0000    -0.000    -0.000    -0.000  0.0079 -0.0164  0.9998
              Bcc     0.0000     0.000     0.000     0.000  0.9941 -0.1082 -0.0096
 
              Baa    -0.0000    -0.000    -0.000    -0.000 -0.0100  0.0297  0.9995
     8 N(14)  Bbb    -0.0000    -0.000    -0.000    -0.000 -0.0651  0.9974 -0.0303
              Bcc     0.0000     0.000     0.000     0.000  0.9978  0.0654  0.0081
 
              Baa    -0.0000    -0.000    -0.000    -0.000 -0.1750 -0.2922  0.9402
     9 C(13)  Bbb    -0.0000    -0.000    -0.000    -0.000  0.4877  0.8038  0.3406
              Bcc     0.0000     0.000     0.000     0.000  0.8553 -0.5182 -0.0018
 
              Baa    -0.0000    -0.000    -0.000    -0.000  0.9879 -0.1344  0.0768
    10 C(13)  Bbb    -0.0000    -0.000    -0.000    -0.000 -0.0650  0.0901  0.9938
              Bcc     0.0000     0.000     0.000     0.000  0.1404  0.9868 -0.0802
 
              Baa    -0.0000    -0.000    -0.000    -0.000 -0.1757  0.9827  0.0585
    11 S(33)  Bbb     0.0000     0.000     0.000     0.000  0.2568 -0.0116  0.9664
              Bcc     0.0000     0.000     0.000     0.000  0.9503  0.1848 -0.2504
 
              Baa    -0.0000    -0.000    -0.000    -0.000  0.9713 -0.2376  0.0122
    12 C(13)  Bbb     0.0000     0.000     0.000     0.000 -0.0445 -0.1308  0.9904
              Bcc     0.0000     0.000     0.000     0.000  0.2337  0.9625  0.1376
 
              Baa    -0.0000    -0.000    -0.000    -0.000  0.5750  0.5702  0.5868
    13 C(13)  Bbb    -0.0000    -0.000    -0.000    -0.000 -0.2928 -0.5264  0.7983
              Bcc     0.0000     0.000     0.000     0.000  0.7640 -0.6308 -0.1357
 
              Baa    -0.0000    -0.000    -0.000    -0.000 -0.2270  0.9695  0.0920
    14 C(13)  Bbb     0.0000     0.000     0.000     0.000  0.9738  0.2245  0.0367
              Bcc     0.0000     0.000     0.000     0.000 -0.0150 -0.0979  0.9951
 
              Baa    -0.0000    -0.000    -0.000    -0.000  0.3146  0.8367  0.4482
    15 C(13)  Bbb    -0.0000    -0.000    -0.000    -0.000 -0.1962 -0.4047  0.8931
              Bcc     0.0000     0.000     0.000     0.000  0.9287 -0.3690  0.0369
 
              Baa    -0.0000    -0.000    -0.000    -0.000  0.9633  0.0058  0.2683
    16 C(13)  Bbb     0.0000     0.000     0.000     0.000 -0.0789  0.9617  0.2625
              Bcc     0.0000     0.000     0.000     0.000 -0.2565 -0.2740  0.9269
 
              Baa    -0.0000    -0.000    -0.000    -0.000  0.5900  0.5546  0.5868
    17 C(13)  Bbb    -0.0000    -0.000    -0.000    -0.000 -0.3167 -0.5096  0.8000
              Bcc     0.0000     0.000     0.000     0.000  0.7427 -0.6578 -0.1250
 
              Baa    -0.0000    -0.000    -0.000    -0.000 -0.3301 -0.1538  0.9313
    18 C(13)  Bbb     0.0000     0.000     0.000     0.000 -0.5474  0.8350 -0.0561
              Bcc     0.0000     0.000     0.000     0.000  0.7691  0.5283  0.3598
 
              Baa    -0.0000    -0.000    -0.000    -0.000 -0.3567  0.9199  0.1631
    19 N(14)  Bbb    -0.0000    -0.000    -0.000    -0.000 -0.1022 -0.2120  0.9719
              Bcc     0.0000     0.000     0.000     0.000  0.9286  0.3300  0.1696
 
              Baa    -0.0000    -0.000    -0.000    -0.000  0.2017  0.9497  0.2397
    20 C(13)  Bbb     0.0000     0.000     0.000     0.000  0.9351 -0.2596  0.2415
              Bcc     0.0000     0.000     0.000     0.000 -0.2915 -0.1755  0.9403
 
              Baa    -0.0000    -0.000    -0.000    -0.000  0.6537 -0.5808  0.4850
    21 C(13)  Bbb    -0.0000    -0.000    -0.000    -0.000 -0.3107  0.3784  0.8719
              Bcc     0.0000     0.000     0.000     0.000  0.6900  0.7207 -0.0669
 
              Baa    -0.0000    -0.000    -0.000    -0.000 -0.1704 -0.5569  0.8129
    22 S(33)  Bbb    -0.0000    -0.000    -0.000    -0.000  0.4774  0.6751  0.5625
              Bcc     0.0000     0.000     0.000     0.000  0.8620 -0.4839 -0.1508
 
              Baa    -0.0000    -0.000    -0.000    -0.000 -0.0617  0.1484  0.9870
    23 C(13)  Bbb     0.0000     0.000     0.000     0.000  0.3870  0.9151 -0.1134
              Bcc     0.0000     0.000     0.000     0.000  0.9200 -0.3750  0.1139
 
              Baa    -0.0000    -0.000    -0.000    -0.000  0.9691  0.2465 -0.0134
    24 C(13)  Bbb    -0.0000    -0.000    -0.000    -0.000 -0.0312  0.1762  0.9839
              Bcc     0.0000     0.000     0.000     0.000 -0.2448  0.9530 -0.1784
 
              Baa    -0.0000    -0.000    -0.000    -0.000 -0.5909  0.7937 -0.1448
    25 C(13)  Bbb     0.0000     0.000     0.000     0.000  0.6386  0.5698  0.5173
              Bcc     0.0000     0.000     0.000     0.000 -0.4931 -0.2132  0.8435
 
              Baa    -0.0000    -0.000    -0.000    -0.000 -0.5107  0.8230 -0.2486
    26 C(13)  Bbb     0.0000     0.000     0.000     0.000 -0.0727  0.2468  0.9663
              Bcc     0.0000     0.000     0.000     0.000  0.8567  0.5116 -0.0662
 
              Baa    -0.0000    -0.000    -0.000    -0.000  0.8534 -0.5095  0.1102
    27 C(13)  Bbb    -0.0000    -0.000    -0.000    -0.000  0.5210  0.8405 -0.1490
              Bcc     0.0000     0.000     0.000     0.000 -0.0167  0.1846  0.9827
 
              Baa    -0.0000    -0.000    -0.000    -0.000  0.9368  0.3489  0.0255
    28 C(13)  Bbb     0.0000     0.000     0.000     0.000  0.2030 -0.6017  0.7725
              Bcc     0.0000     0.000     0.000     0.000 -0.2849  0.7185  0.6345
 
              Baa    -0.0000    -0.000    -0.000    -0.000 -0.4046  0.8789 -0.2525
    29 C(13)  Bbb    -0.0000    -0.000    -0.000    -0.000 -0.0658  0.2474  0.9667
              Bcc     0.0000     0.000     0.000     0.000  0.9121  0.4077 -0.0423
 
              Baa    -0.0000    -0.000    -0.000    -0.000  0.4667  0.8814 -0.0721
    30 N(14)  Bbb     0.0000     0.000     0.000     0.000  0.0149  0.0736  0.9972
              Bcc     0.0000     0.000     0.000     0.000  0.8843 -0.4665  0.0212
 
              Baa    -0.0000    -0.000    -0.000    -0.000 -0.1324  0.1984  0.9711
    31 C(13)  Bbb    -0.0000    -0.000    -0.000    -0.000  0.0136  0.9800 -0.1983
              Bcc     0.0000     0.000     0.000     0.000  0.9911  0.0130  0.1324
 
              Baa    -0.0000    -0.000    -0.000    -0.000  0.0809  0.1210  0.9894
    32 C(13)  Bbb     0.0000     0.000     0.000     0.000  0.4239  0.8942 -0.1440
              Bcc     0.0000     0.000     0.000     0.000  0.9021 -0.4311 -0.0210
 
              Baa    -0.0000    -0.000    -0.000    -0.000 -0.2164  0.5333  0.8178
    33 S(33)  Bbb    -0.0000    -0.000    -0.000    -0.000  0.7418 -0.4547  0.4929
              Bcc     0.0000     0.000     0.000     0.000  0.6347  0.7133 -0.2972
 
              Baa    -0.0000    -0.000    -0.000    -0.000  0.9693  0.2453  0.0182
    34 H(1)   Bbb     0.0000     0.000     0.000     0.000  0.0645 -0.3248  0.9436
              Bcc     0.0000     0.000     0.000     0.000 -0.2374  0.9134  0.3307
 
              Baa    -0.0000    -0.000    -0.000    -0.000  0.9901 -0.1374  0.0291
    35 H(1)   Bbb    -0.0000    -0.000    -0.000    -0.000 -0.0040  0.1797  0.9837
              Bcc     0.0000     0.000     0.000     0.000  0.1404  0.9741 -0.1774
 
              Baa    -0.0000    -0.000    -0.000    -0.000  0.9540 -0.2989 -0.0257
    36 H(1)   Bbb     0.0000     0.000     0.000     0.000  0.0923  0.2109  0.9731
              Bcc     0.0000     0.000     0.000     0.000  0.2854  0.9307 -0.2287
 
              Baa    -0.0000    -0.000    -0.000    -0.000  0.5389  0.8308 -0.1395
    37 H(1)   Bbb    -0.0000    -0.000    -0.000    -0.000  0.0521  0.1323  0.9898
              Bcc     0.0000     0.000     0.000     0.000  0.8408 -0.5407  0.0280
 
              Baa    -0.0000    -0.000    -0.000    -0.000  0.1924  0.9463 -0.2597
    38 H(1)   Bbb     0.0000     0.000     0.000     0.000  0.8359 -0.0194  0.5486
              Bcc     0.0000     0.000     0.000     0.000 -0.5141  0.3227  0.7947
 
              Baa    -0.0000    -0.000    -0.000    -0.000  0.7293 -0.6598  0.1811
    39 H(1)   Bbb    -0.0000    -0.000    -0.000    -0.000  0.5159  0.7042  0.4878
              Bcc     0.0000     0.000     0.000     0.000 -0.4494 -0.2623  0.8540
 
              Baa    -0.0000    -0.000    -0.000    -0.000  0.9852  0.0617  0.1602
    40 H(1)   Bbb    -0.0000    -0.000    -0.000    -0.000 -0.1427 -0.2245  0.9640
              Bcc     0.0000     0.000     0.000     0.000 -0.0955  0.9725  0.2124
 
              Baa    -0.0000    -0.000    -0.000    -0.000  0.2236  0.9727  0.0622
    41 H(1)   Bbb     0.0000     0.000     0.000     0.000 -0.0172 -0.0599  0.9981
              Bcc     0.0000     0.000     0.000     0.000  0.9745 -0.2242  0.0034
 
              Baa    -0.0000    -0.000    -0.000    -0.000 -0.0737  0.9838  0.1635
    42 H(1)   Bbb     0.0000     0.000     0.000     0.000  0.9726  0.1071 -0.2065
              Bcc     0.0000     0.000     0.000     0.000  0.2207 -0.1438  0.9647
 
              Baa    -0.0000    -0.000    -0.000    -0.000  0.3018  0.9036 -0.3040
    43 H(1)   Bbb    -0.0000    -0.000    -0.000    -0.000 -0.1057  0.3486  0.9313
              Bcc     0.0000     0.000     0.000     0.000  0.9475 -0.2490  0.2007
 
              Baa    -0.0000    -0.000    -0.000    -0.000 -0.6276  0.6680  0.4000
    44 H(1)   Bbb     0.0000     0.000     0.000     0.000  0.6638  0.1906  0.7232
              Bcc     0.0000     0.000     0.000     0.000  0.4068  0.7194 -0.5631
 
              Baa    -0.0000    -0.000    -0.000    -0.000  0.3768  0.9232 -0.0756
    45 H(1)   Bbb    -0.0000    -0.000    -0.000    -0.000 -0.1684  0.1485  0.9745
              Bcc     0.0000     0.000     0.000     0.000  0.9109 -0.3544  0.2115
 
              Baa    -0.0000    -0.000    -0.000    -0.000  0.1083  0.2959  0.9490
    46 H(1)   Bbb    -0.0000    -0.000    -0.000    -0.000  0.9420  0.2745 -0.1931
              Bcc     0.0000     0.000     0.000     0.000 -0.3177  0.9149 -0.2490
 
              Baa    -0.0000    -0.000    -0.000    -0.000 -0.4011  0.8946 -0.1970
    47 H(1)   Bbb     0.0000     0.000     0.000     0.000  0.0985  0.2559  0.9617
              Bcc     0.0000     0.000     0.000     0.000  0.9107  0.3663 -0.1907
 
              Baa    -0.0000    -0.000    -0.000    -0.000 -0.5186  0.2671  0.8122
    48 H(1)   Bbb    -0.0000    -0.000    -0.000    -0.000  0.7495 -0.3151  0.5822
              Bcc     0.0000     0.000     0.000     0.000  0.4115  0.9107 -0.0368
 
              Baa    -0.0000    -0.000    -0.000    -0.000 -0.1427  0.5439  0.8269
    49 H(1)   Bbb     0.0000     0.000     0.000     0.000  0.8091  0.5453 -0.2190
              Bcc     0.0000     0.000     0.000     0.000 -0.5700  0.6378 -0.5179
 
              Baa    -0.0000    -0.000    -0.000    -0.000 -0.1350  0.9854  0.1035
    50 H(1)   Bbb    -0.0000    -0.000    -0.000    -0.000 -0.1491 -0.1235  0.9811
              Bcc     0.0000     0.000     0.000     0.000  0.9796  0.1170  0.1636
 

 ---------------------------------------------------------------------------------

 No NMR shielding tensors so no spin-rotation constants.
 Leave Link  601 at Fri Jul 24 16:19:05 2020, MaxMem=  4026531840 cpu:               4.6 elap:               0.6
 (Enter /opt/ohpc/pub/libs/gaussian/g16-A.03/sandybridge/g16/l9999.exe)

 Test job not archived.
 1\1\GINC-SKYLAKE039\FOpt\ULC-wPBE\CC-pVDZ\C27H17N3S3\RDU230\24-Jul-202
 0\0\\#P uLC-wPBE/cc-pVDZ iop(3/107=0109200000, 3/108=0109200000) opt\\
 H17 C27 S3 N3\\0,1\C,11.5785630463,0.24171848,-0.3094635767\C,10.66732
 51809,1.3025771918,-0.4235910244\C,9.2918836287,1.0634810013,-0.323205
 3691\C,8.8069158137,-0.2437100562,-0.1075112347\C,9.7307694249,-1.3065
 031004,0.0066456433\C,11.103853106,-1.0620554947,-0.0938478788\C,7.371
 1359724,-0.5407839021,0.0029419249\N,6.8829281504,-1.7479920576,0.2199
 343818\C,5.5180072315,-1.7285276367,0.2748454283\C,4.8923623656,-0.500
 8696635,0.1012847299\S,6.1317408095,0.7123052407,-0.1516869667\C,3.461
 3329762,-0.1817424481,0.1155020834\C,2.5010244523,-1.1912834732,-0.131
 2633895\C,1.1355806448,-0.9069444158,-0.1006088609\C,0.6730866277,0.39
 97559878,0.165054841\C,1.6274085714,1.4140219074,0.4020896685\C,2.9913
 64762,1.1262331479,0.3803163947\C,-0.7531179233,0.7429318984,0.1995646
 698\N,-1.2123733164,1.9562659721,0.4464676256\C,-2.5775239489,1.985099
 7978,0.4160384024\C,-3.2328770859,0.7910928417,0.1431719482\S,-2.02263
 83217,-0.4543141396,-0.0936525259\C,-4.6723800096,0.5265180339,0.05300
 17837\C,-5.2020932795,-0.7722543543,0.2280263512\C,-6.575952033,-1.006
 9985165,0.1510738249\C,-7.4764500374,0.0491767269,-0.0978848588\C,-6.9
 530719942,1.3497250049,-0.274614083\C,-5.5803749426,1.5815612059,-0.20
 63777008\C,-8.9293892724,-0.1513177914,-0.1842076514\N,-9.7928153843,0
 .8193870404,-0.4120736047\C,-11.0790667872,0.343928107,-0.4400153263\C
 ,-11.2316624229,-1.0098393443,-0.2329558078\S,-9.6813779934,-1.7446686
 65,0.0122739597\H,12.6585165643,0.4314740438,-0.3882592864\H,11.030189
 4179,2.3264578744,-0.5917848658\H,8.5876303047,1.9043987178,-0.4128516
 626\H,9.3396134045,-2.3186202494,0.1749344905\H,11.812403841,-1.897881
 8147,-0.0031736127\H,4.9819985397,-2.6650700105,0.4769461407\H,2.83198
 1447,-2.2109807497,-0.3709726091\H,0.4172689081,-1.716331771,-0.299527
 489\H,1.266494527,2.4298257123,0.6100528227\H,3.7136589944,1.929540676
 9,0.5874431769\H,-3.0933756459,2.9301139115,0.6303193885\H,-4.52418482
 8,-1.6109430254,0.4434400804\H,-6.9515828208,-2.0310184721,0.295233377
 3\H,-7.6551834204,2.1688805502,-0.4784268994\H,-5.1986059681,2.5976078
 289,-0.3776196427\H,-11.9065190375,1.0422804753,-0.6206959881\H,-12.15
 03912396,-1.6049332246,-0.2111382231\\Version=EM64L-G16RevA.03\State=1
 -A\HF=-2396.4039251\S2=0.\S2-1=0.\S2A=0.\RMSD=7.328e-09\RMSF=2.266e-06
 \Dipole=-0.394099,-0.347247,-0.0675242\Quadrupole=21.8092855,-2.981812
 2,-18.8274734,12.5330077,-1.4670263,-0.6992484\PG=C01 [X(C27H17N3S3)]\
 \@


 IN-LAWS ARE LIKE SEEDS. YOU DON'T NEED THEM
 BUT THEY COME WITH THE TOMATO.
 Job cpu time:       0 days 14 hours  6 minutes 15.6 seconds.
 Elapsed time:       0 days  1 hours 46 minutes 27.1 seconds.
 File lengths (MBytes):  RWF=    404 Int=      0 D2E=      0 Chk=     36 Scr=      8
 Normal termination of Gaussian 16 at Fri Jul 24 16:19:05 2020.
