 Entering Gaussian System, Link 0=g16
 Input=mols_65_5_28_cF-cF-C_opt_0.gjf
 Output=mols_65_5_28_cF-cF-C_opt_0.log
 Initial command:
 /opt/ohpc/pub/libs/gaussian/g16-A.03/sandybridge/g16/l1.exe "/mnt/gpfs2_4m/scratch/rdu230/ondemand/projects/dihedral_energies/7trial/wtuning/mols_65_5_28_cF-cF-C/Gau-307950.inp" -scrdir="/mnt/gpfs2_4m/scratch/rdu230/ondemand/projects/dihedral_energies/7trial/wtuning/mols_65_5_28_cF-cF-C/"
 Entering Link 1 = /opt/ohpc/pub/libs/gaussian/g16-A.03/sandybridge/g16/l1.exe PID=    307951.
  
 Copyright (c) 1988,1990,1992,1993,1995,1998,2003,2009,2016,
            Gaussian, Inc.  All Rights Reserved.
  
 This is part of the Gaussian(R) 16 program.  It is based on
 the Gaussian(R) 09 system (copyright 2009, Gaussian, Inc.),
 the Gaussian(R) 03 system (copyright 2003, Gaussian, Inc.),
 the Gaussian(R) 98 system (copyright 1998, Gaussian, Inc.),
 the Gaussian(R) 94 system (copyright 1995, Gaussian, Inc.),
 the Gaussian 92(TM) system (copyright 1992, Gaussian, Inc.),
 the Gaussian 90(TM) system (copyright 1990, Gaussian, Inc.),
 the Gaussian 88(TM) system (copyright 1988, Gaussian, Inc.),
 the Gaussian 86(TM) system (copyright 1986, Carnegie Mellon
 University), and the Gaussian 82(TM) system (copyright 1983,
 Carnegie Mellon University). Gaussian is a federally registered
 trademark of Gaussian, Inc.
  
 This software contains proprietary and confidential information,
 including trade secrets, belonging to Gaussian, Inc.
  
 This software is provided under written license and may be
 used, copied, transmitted, or stored only in accord with that
 written license.
  
 The following legend is applicable only to US Government
 contracts under FAR:
  
                    RESTRICTED RIGHTS LEGEND
  
 Use, reproduction and disclosure by the US Government is
 subject to restrictions as set forth in subparagraphs (a)
 and (c) of the Commercial Computer Software - Restricted
 Rights clause in FAR 52.227-19.
  
 Gaussian, Inc.
 340 Quinnipiac St., Bldg. 40, Wallingford CT 06492
  
  
 ---------------------------------------------------------------
 Warning -- This program may not be used in any manner that
 competes with the business of Gaussian, Inc. or will provide
 assistance to any competitor of Gaussian, Inc.  The licensee
 of this program is prohibited from giving any competitor of
 Gaussian, Inc. access to this program.  By using this program,
 the user acknowledges that Gaussian, Inc. is engaged in the
 business of creating and licensing software in the field of
 computational chemistry and represents and warrants to the
 licensee that it is not a competitor of Gaussian, Inc. and that
 it will not use this program in any manner prohibited above.
 ---------------------------------------------------------------
  

 Cite this work as:
 Gaussian 16, Revision A.03,
 M. J. Frisch, G. W. Trucks, H. B. Schlegel, G. E. Scuseria, 
 M. A. Robb, J. R. Cheeseman, G. Scalmani, V. Barone, 
 G. A. Petersson, H. Nakatsuji, X. Li, M. Caricato, A. V. Marenich, 
 J. Bloino, B. G. Janesko, R. Gomperts, B. Mennucci, H. P. Hratchian, 
 J. V. Ortiz, A. F. Izmaylov, J. L. Sonnenberg, D. Williams-Young, 
 F. Ding, F. Lipparini, F. Egidi, J. Goings, B. Peng, A. Petrone, 
 T. Henderson, D. Ranasinghe, V. G. Zakrzewski, J. Gao, N. Rega, 
 G. Zheng, W. Liang, M. Hada, M. Ehara, K. Toyota, R. Fukuda, 
 J. Hasegawa, M. Ishida, T. Nakajima, Y. Honda, O. Kitao, H. Nakai, 
 T. Vreven, K. Throssell, J. A. Montgomery, Jr., J. E. Peralta, 
 F. Ogliaro, M. J. Bearpark, J. J. Heyd, E. N. Brothers, K. N. Kudin, 
 V. N. Staroverov, T. A. Keith, R. Kobayashi, J. Normand, 
 K. Raghavachari, A. P. Rendell, J. C. Burant, S. S. Iyengar, 
 J. Tomasi, M. Cossi, J. M. Millam, M. Klene, C. Adamo, R. Cammi, 
 J. W. Ochterski, R. L. Martin, K. Morokuma, O. Farkas, 
 J. B. Foresman, and D. J. Fox, Gaussian, Inc., Wallingford CT, 2016.
 
 ******************************************
 Gaussian 16:  EM64L-G16RevA.03 25-Dec-2016
                25-Jul-2020 
 ******************************************
 %mem=30GB
 %nproc=8
 Will use up to    8 processors via shared memory.
 ---------------------------------------------------------------
 #P uLC-wPBE/cc-pVDZ iop(3/107=0073400000, 3/108=0073400000) opt
 ---------------------------------------------------------------
 1/18=20,19=15,26=3,38=1/1,3;
 2/9=110,12=2,17=6,18=5,40=1/2;
 3/5=16,11=2,25=1,30=1,71=1,74=-41,107=73400000,108=73400000,116=2/1,2,3;
 4//1;
 5/5=2,38=5/2;
 6/7=2,8=2,9=2,10=2,28=1/1;
 7//1,2,3,16;
 1/18=20,19=15,26=3/3(2);
 2/9=110/2;
 99//99;
 2/9=110/2;
 3/5=16,11=2,25=1,30=1,71=1,74=-41,107=73400000,108=73400000,116=2/1,2,3;
 4/5=5,16=3,69=1/1;
 5/5=2,38=5/2;
 7//1,2,3,16;
 1/18=20,19=15,26=3/3(-5);
 2/9=110/2;
 6/7=2,8=2,9=2,10=2,19=2,28=1/1;
 99/9=1/99;
 Leave Link    1 at Sat Jul 25 11:00:04 2020, MaxMem=  4026531840 cpu:               2.0 elap:               0.3
 (Enter /opt/ohpc/pub/libs/gaussian/g16-A.03/sandybridge/g16/l101.exe)
 --------------
 H22 C50 S5 F10
 --------------
 Symbolic Z-matrix:
 Charge =  0 Multiplicity = 1
 C                    -18.93465  -1.95662  -0.34264 
 C                    -18.35948  -0.7743    0.23108 
 C                    -16.94166  -0.78471   0.53521 
 F                    -16.44089   0.28479   1.05093 
 C                    -16.10736  -1.82311   0.14736 
 C                    -16.77414  -3.00662  -0.33773 
 F                    -15.97685  -4.10512  -0.70306 
 C                    -18.12991  -2.99562  -0.60019 
 C                    -14.69361  -1.8286    0.45722 
 C                    -13.94077  -2.78476   1.02637 
 C                    -12.50454  -2.40332   1.0684 
 C                    -12.26403  -1.21452   0.40641 
 S                    -13.75693  -0.53459  -0.18386 
 C                    -11.0519  -0.50418   0.25221 
 C                    -10.84331   0.76587   0.67051 
 C                    -9.57768   1.46091   0.52902 
 F                    -9.56465   2.71229   0.90507 
 C                    -8.50506   0.84422  -0.04515 
 C                    -8.72008  -0.5067   -0.53503 
 F                    -7.67022  -1.17582  -1.07364 
 C                    -9.95431  -1.20641  -0.29765 
 C                    -7.3001    1.52029  -0.29239 
 C                    -7.0694    2.81265  -0.78572 
 C                    -5.66322   3.18365  -0.85208 
 C                    -4.87132   2.13026  -0.43645 
 S                    -5.71408   0.83687   0.09254 
 C                    -3.38831   2.20691  -0.39146 
 C                    -2.71262   3.28395   0.13976 
 C                    -1.24699   3.31483   0.11895 
 F                    -0.65588   4.43479   0.58227 
 C                    -0.53596   2.18618  -0.42321 
 C                    -1.26      1.15109  -0.87129 
 F                    -0.59203   0.09825  -1.37089 
 C                    -2.6169    1.08948  -0.89769 
 C                     0.89837   2.28486  -0.45955 
 C                     1.69707   3.34347  -0.90391 
 C                     3.1415    2.99137  -0.79893 
 C                     3.33497   1.80532  -0.21443 
 S                     1.88585   1.02905   0.2011 
 C                     4.6398    1.14409  -0.04731 
 C                     5.68372   1.83535   0.51016 
 C                     7.0137    1.23372   0.69077 
 F                     7.93421   2.05053   1.19765 
 C                     7.17733  -0.04058   0.36268 
 C                     6.13822  -0.78239  -0.17683 
 F                     6.25367  -2.11231  -0.42909 
 C                     4.87998  -0.17283  -0.31027 
 C                     8.52638  -0.71115   0.5919 
 C                     8.8343   -1.97005   1.03243 
 C                     10.26549  -2.2568    1.0574 
 C                     10.98984  -1.21592   0.45082 
 S                     9.99251   0.07797  -0.03617 
 C                     12.3853  -1.1589    0.32135 
 C                     13.09397   0.00963   0.6062 
 C                     14.56611   0.05241   0.43781 
 F                     15.21856   1.16169   0.71983 
 C                     15.26207  -1.01542  -0.07035 
 C                     14.48461  -2.24399  -0.41378 
 F                     15.10824  -3.32787  -0.91018 
 C                     13.10239  -2.2879   -0.24879 
 C                     16.72036  -0.95879  -0.2829 
 C                     17.40069  -0.02293  -0.89476 
 C                     18.86244  -0.24952  -0.85862 
 C                     19.14079  -1.40899  -0.09426 
 S                     17.72265  -2.14341   0.49827 
 H                    -19.95318  -1.97663  -0.51045 
 H                    -18.90419   0.08574   0.50622 
 H                    -18.56619  -3.97366  -1.07879 
 H                    -14.30378  -3.70033   1.38185 
 H                    -11.71936  -3.10128   1.49495 
 H                    -11.61343   1.34568   1.13286 
 H                    -9.98552  -2.23493  -0.61602 
 H                    -7.88743   3.53504  -1.04066 
 H                    -5.29379   4.17443  -1.17083 
 H                    -3.21673   4.18202   0.46455 
 H                    -3.12588   0.1416   -1.27302 
 H                     1.30988   4.20354  -1.26866 
 H                     3.90348   3.75401  -1.10712 
 H                     5.56305   2.90642   0.77949 
 H                     4.11209  -0.85362  -0.77811 
 H                     8.10635  -2.59661   1.4979 
 H                     10.6481  -3.18297   1.38387 
 H                     12.6341   0.85295   0.98877 
 H                     12.59399  -3.14751  -0.44558 
 H                     17.02972   0.83158  -1.41068 
 H                     19.56349   0.32908  -1.28218 
 H                     20.08175  -1.81787   0.11361 
 
 ITRead=  0  0  0  0  0  0  0  0  0  0  0  0  0  0  0  0  0  0  0  0
 ITRead=  0  0  0  0  0  0  0  0  0  0  0  0  0  0  0  0  0  0  0  0
 ITRead=  0  0  0  0  0  0  0  0  0  0  0  0  0  0  0  0  0  0  0  0
 ITRead=  0  0  0  0  0  0  0  0  0  0  0  0  0  0  0  0  0  0  0  0
 ITRead=  0  0  0  0  0  0  0
 MicOpt= -1 -1 -1 -1 -1 -1 -1 -1 -1 -1 -1 -1 -1 -1 -1 -1 -1 -1 -1 -1
 MicOpt= -1 -1 -1 -1 -1 -1 -1 -1 -1 -1 -1 -1 -1 -1 -1 -1 -1 -1 -1 -1
 MicOpt= -1 -1 -1 -1 -1 -1 -1 -1 -1 -1 -1 -1 -1 -1 -1 -1 -1 -1 -1 -1
 MicOpt= -1 -1 -1 -1 -1 -1 -1 -1 -1 -1 -1 -1 -1 -1 -1 -1 -1 -1 -1 -1
 MicOpt= -1 -1 -1 -1 -1 -1 -1
 NAtoms=     87 NQM=       87 NQMF=       0 NMMI=      0 NMMIF=      0
                NMic=       0 NMicF=      0.
                    Isotopes and Nuclear Properties:
 (Nuclear quadrupole moments (NQMom) in fm**2, nuclear magnetic moments (NMagM)
  in nuclear magnetons)

  Atom         1           2           3           4           5           6           7           8           9          10
 IAtWgt=          12          12          12          19          12          12          19          12          12          12
 AtmWgt=  12.0000000  12.0000000  12.0000000  18.9984033  12.0000000  12.0000000  18.9984033  12.0000000  12.0000000  12.0000000
 NucSpn=           0           0           0           1           0           0           1           0           0           0
 AtZEff=  -0.0000000  -0.0000000  -0.0000000  -0.0000000  -0.0000000  -0.0000000  -0.0000000  -0.0000000  -0.0000000  -0.0000000
 NQMom=    0.0000000   0.0000000   0.0000000   0.0000000   0.0000000   0.0000000   0.0000000   0.0000000   0.0000000   0.0000000
 NMagM=    0.0000000   0.0000000   0.0000000   2.6288670   0.0000000   0.0000000   2.6288670   0.0000000   0.0000000   0.0000000
 AtZNuc=   6.0000000   6.0000000   6.0000000   9.0000000   6.0000000   6.0000000   9.0000000   6.0000000   6.0000000   6.0000000

  Atom        11          12          13          14          15          16          17          18          19          20
 IAtWgt=          12          12          32          12          12          12          19          12          12          19
 AtmWgt=  12.0000000  12.0000000  31.9720718  12.0000000  12.0000000  12.0000000  18.9984033  12.0000000  12.0000000  18.9984033
 NucSpn=           0           0           0           0           0           0           1           0           0           1
 AtZEff=  -0.0000000  -0.0000000  -0.0000000  -0.0000000  -0.0000000  -0.0000000  -0.0000000  -0.0000000  -0.0000000  -0.0000000
 NQMom=    0.0000000   0.0000000   0.0000000   0.0000000   0.0000000   0.0000000   0.0000000   0.0000000   0.0000000   0.0000000
 NMagM=    0.0000000   0.0000000   0.0000000   0.0000000   0.0000000   0.0000000   2.6288670   0.0000000   0.0000000   2.6288670
 AtZNuc=   6.0000000   6.0000000  16.0000000   6.0000000   6.0000000   6.0000000   9.0000000   6.0000000   6.0000000   9.0000000

  Atom        21          22          23          24          25          26          27          28          29          30
 IAtWgt=          12          12          12          12          12          32          12          12          12          19
 AtmWgt=  12.0000000  12.0000000  12.0000000  12.0000000  12.0000000  31.9720718  12.0000000  12.0000000  12.0000000  18.9984033
 NucSpn=           0           0           0           0           0           0           0           0           0           1
 AtZEff=  -0.0000000  -0.0000000  -0.0000000  -0.0000000  -0.0000000  -0.0000000  -0.0000000  -0.0000000  -0.0000000  -0.0000000
 NQMom=    0.0000000   0.0000000   0.0000000   0.0000000   0.0000000   0.0000000   0.0000000   0.0000000   0.0000000   0.0000000
 NMagM=    0.0000000   0.0000000   0.0000000   0.0000000   0.0000000   0.0000000   0.0000000   0.0000000   0.0000000   2.6288670
 AtZNuc=   6.0000000   6.0000000   6.0000000   6.0000000   6.0000000  16.0000000   6.0000000   6.0000000   6.0000000   9.0000000

  Atom        31          32          33          34          35          36          37          38          39          40
 IAtWgt=          12          12          19          12          12          12          12          12          32          12
 AtmWgt=  12.0000000  12.0000000  18.9984033  12.0000000  12.0000000  12.0000000  12.0000000  12.0000000  31.9720718  12.0000000
 NucSpn=           0           0           1           0           0           0           0           0           0           0
 AtZEff=  -0.0000000  -0.0000000  -0.0000000  -0.0000000  -0.0000000  -0.0000000  -0.0000000  -0.0000000  -0.0000000  -0.0000000
 NQMom=    0.0000000   0.0000000   0.0000000   0.0000000   0.0000000   0.0000000   0.0000000   0.0000000   0.0000000   0.0000000
 NMagM=    0.0000000   0.0000000   2.6288670   0.0000000   0.0000000   0.0000000   0.0000000   0.0000000   0.0000000   0.0000000
 AtZNuc=   6.0000000   6.0000000   9.0000000   6.0000000   6.0000000   6.0000000   6.0000000   6.0000000  16.0000000   6.0000000

  Atom        41          42          43          44          45          46          47          48          49          50
 IAtWgt=          12          12          19          12          12          19          12          12          12          12
 AtmWgt=  12.0000000  12.0000000  18.9984033  12.0000000  12.0000000  18.9984033  12.0000000  12.0000000  12.0000000  12.0000000
 NucSpn=           0           0           1           0           0           1           0           0           0           0
 AtZEff=  -0.0000000  -0.0000000  -0.0000000  -0.0000000  -0.0000000  -0.0000000  -0.0000000  -0.0000000  -0.0000000  -0.0000000
 NQMom=    0.0000000   0.0000000   0.0000000   0.0000000   0.0000000   0.0000000   0.0000000   0.0000000   0.0000000   0.0000000
 NMagM=    0.0000000   0.0000000   2.6288670   0.0000000   0.0000000   2.6288670   0.0000000   0.0000000   0.0000000   0.0000000
 AtZNuc=   6.0000000   6.0000000   9.0000000   6.0000000   6.0000000   9.0000000   6.0000000   6.0000000   6.0000000   6.0000000

  Atom        51          52          53          54          55          56          57          58          59          60
 IAtWgt=          12          32          12          12          12          19          12          12          19          12
 AtmWgt=  12.0000000  31.9720718  12.0000000  12.0000000  12.0000000  18.9984033  12.0000000  12.0000000  18.9984033  12.0000000
 NucSpn=           0           0           0           0           0           1           0           0           1           0
 AtZEff=  -0.0000000  -0.0000000  -0.0000000  -0.0000000  -0.0000000  -0.0000000  -0.0000000  -0.0000000  -0.0000000  -0.0000000
 NQMom=    0.0000000   0.0000000   0.0000000   0.0000000   0.0000000   0.0000000   0.0000000   0.0000000   0.0000000   0.0000000
 NMagM=    0.0000000   0.0000000   0.0000000   0.0000000   0.0000000   2.6288670   0.0000000   0.0000000   2.6288670   0.0000000
 AtZNuc=   6.0000000  16.0000000   6.0000000   6.0000000   6.0000000   9.0000000   6.0000000   6.0000000   9.0000000   6.0000000

  Atom        61          62          63          64          65          66          67          68          69          70
 IAtWgt=          12          12          12          12          32           1           1           1           1           1
 AtmWgt=  12.0000000  12.0000000  12.0000000  12.0000000  31.9720718   1.0078250   1.0078250   1.0078250   1.0078250   1.0078250
 NucSpn=           0           0           0           0           0           1           1           1           1           1
 AtZEff=  -0.0000000  -0.0000000  -0.0000000  -0.0000000  -0.0000000  -0.0000000  -0.0000000  -0.0000000  -0.0000000  -0.0000000
 NQMom=    0.0000000   0.0000000   0.0000000   0.0000000   0.0000000   0.0000000   0.0000000   0.0000000   0.0000000   0.0000000
 NMagM=    0.0000000   0.0000000   0.0000000   0.0000000   0.0000000   2.7928460   2.7928460   2.7928460   2.7928460   2.7928460
 AtZNuc=   6.0000000   6.0000000   6.0000000   6.0000000  16.0000000   1.0000000   1.0000000   1.0000000   1.0000000   1.0000000

  Atom        71          72          73          74          75          76          77          78          79          80
 IAtWgt=           1           1           1           1           1           1           1           1           1           1
 AtmWgt=   1.0078250   1.0078250   1.0078250   1.0078250   1.0078250   1.0078250   1.0078250   1.0078250   1.0078250   1.0078250
 NucSpn=           1           1           1           1           1           1           1           1           1           1
 AtZEff=  -0.0000000  -0.0000000  -0.0000000  -0.0000000  -0.0000000  -0.0000000  -0.0000000  -0.0000000  -0.0000000  -0.0000000
 NQMom=    0.0000000   0.0000000   0.0000000   0.0000000   0.0000000   0.0000000   0.0000000   0.0000000   0.0000000   0.0000000
 NMagM=    2.7928460   2.7928460   2.7928460   2.7928460   2.7928460   2.7928460   2.7928460   2.7928460   2.7928460   2.7928460
 AtZNuc=   1.0000000   1.0000000   1.0000000   1.0000000   1.0000000   1.0000000   1.0000000   1.0000000   1.0000000   1.0000000

  Atom        81          82          83          84          85          86          87
 IAtWgt=           1           1           1           1           1           1           1
 AtmWgt=   1.0078250   1.0078250   1.0078250   1.0078250   1.0078250   1.0078250   1.0078250
 NucSpn=           1           1           1           1           1           1           1
 AtZEff=  -0.0000000  -0.0000000  -0.0000000  -0.0000000  -0.0000000  -0.0000000  -0.0000000
 NQMom=    0.0000000   0.0000000   0.0000000   0.0000000   0.0000000   0.0000000   0.0000000
 NMagM=    2.7928460   2.7928460   2.7928460   2.7928460   2.7928460   2.7928460   2.7928460
 AtZNuc=   1.0000000   1.0000000   1.0000000   1.0000000   1.0000000   1.0000000   1.0000000
 Leave Link  101 at Sat Jul 25 11:00:05 2020, MaxMem=  4026531840 cpu:               3.3 elap:               0.4
 (Enter /opt/ohpc/pub/libs/gaussian/g16-A.03/sandybridge/g16/l103.exe)

 GradGradGradGradGradGradGradGradGradGradGradGradGradGradGradGradGradGrad
 Berny optimization.
 Initialization pass.
                           ----------------------------
                           !    Initial Parameters    !
                           ! (Angstroms and Degrees)  !
 --------------------------                            --------------------------
 ! Name  Definition              Value          Derivative Info.                !
 --------------------------------------------------------------------------------
 ! R1    R(1,2)                  1.4345         estimate D2E/DX2                !
 ! R2    R(1,8)                  1.3392         estimate D2E/DX2                !
 ! R3    R(1,66)                 1.0325         estimate D2E/DX2                !
 ! R4    R(2,3)                  1.4501         estimate D2E/DX2                !
 ! R5    R(2,67)                 1.0545         estimate D2E/DX2                !
 ! R6    R(3,4)                  1.2886         estimate D2E/DX2                !
 ! R7    R(3,5)                  1.3874         estimate D2E/DX2                !
 ! R8    R(5,6)                  1.4424         estimate D2E/DX2                !
 ! R9    R(5,9)                  1.4473         estimate D2E/DX2                !
 ! R10   R(6,7)                  1.4056         estimate D2E/DX2                !
 ! R11   R(6,8)                  1.381          estimate D2E/DX2                !
 ! R12   R(8,68)                 1.173          estimate D2E/DX2                !
 ! R13   R(9,10)                 1.3435         estimate D2E/DX2                !
 ! R14   R(9,13)                 1.7213         estimate D2E/DX2                !
 ! R15   R(10,11)                1.4866         estimate D2E/DX2                !
 ! R16   R(10,69)                1.0471         estimate D2E/DX2                !
 ! R17   R(11,12)                1.3818         estimate D2E/DX2                !
 ! R18   R(11,70)                1.1339         estimate D2E/DX2                !
 ! R19   R(12,13)                1.7434         estimate D2E/DX2                !
 ! R20   R(12,14)                1.4134         estimate D2E/DX2                !
 ! R21   R(14,15)                1.3533         estimate D2E/DX2                !
 ! R22   R(14,21)                1.4143         estimate D2E/DX2                !
 ! R23   R(15,16)                1.4508         estimate D2E/DX2                !
 ! R24   R(15,71)                1.0691         estimate D2E/DX2                !
 ! R25   R(16,17)                1.3067         estimate D2E/DX2                !
 ! R26   R(16,18)                1.364          estimate D2E/DX2                !
 ! R27   R(18,19)                1.453          estimate D2E/DX2                !
 ! R28   R(18,22)                1.4036         estimate D2E/DX2                !
 ! R29   R(19,20)                1.3565         estimate D2E/DX2                !
 ! R30   R(19,21)                1.4385         estimate D2E/DX2                !
 ! R31   R(21,72)                1.0771         estimate D2E/DX2                !
 ! R32   R(22,23)                1.4024         estimate D2E/DX2                !
 ! R33   R(22,26)                1.7694         estimate D2E/DX2                !
 ! R34   R(23,24)                1.4558         estimate D2E/DX2                !
 ! R35   R(23,73)                1.1207         estimate D2E/DX2                !
 ! R36   R(24,25)                1.3818         estimate D2E/DX2                !
 ! R37   R(24,74)                1.1044         estimate D2E/DX2                !
 ! R38   R(25,26)                1.6319         estimate D2E/DX2                !
 ! R39   R(25,27)                1.4857         estimate D2E/DX2                !
 ! R40   R(27,28)                1.378          estimate D2E/DX2                !
 ! R41   R(27,34)                1.4491         estimate D2E/DX2                !
 ! R42   R(28,29)                1.4661         estimate D2E/DX2                !
 ! R43   R(28,75)                1.0799         estimate D2E/DX2                !
 ! R44   R(29,30)                1.3485         estimate D2E/DX2                !
 ! R45   R(29,31)                1.4399         estimate D2E/DX2                !
 ! R46   R(31,32)                1.3403         estimate D2E/DX2                !
 ! R47   R(31,35)                1.4382         estimate D2E/DX2                !
 ! R48   R(32,33)                1.3432         estimate D2E/DX2                !
 ! R49   R(32,34)                1.3586         estimate D2E/DX2                !
 ! R50   R(34,76)                1.1395         estimate D2E/DX2                !
 ! R51   R(35,36)                1.3986         estimate D2E/DX2                !
 ! R52   R(35,39)                1.7288         estimate D2E/DX2                !
 ! R53   R(36,37)                1.4904         estimate D2E/DX2                !
 ! R54   R(36,77)                1.0113         estimate D2E/DX2                !
 ! R55   R(37,38)                1.3363         estimate D2E/DX2                !
 ! R56   R(37,78)                1.1213         estimate D2E/DX2                !
 ! R57   R(38,39)                1.6956         estimate D2E/DX2                !
 ! R58   R(38,40)                1.4723         estimate D2E/DX2                !
 ! R59   R(40,41)                1.3705         estimate D2E/DX2                !
 ! R60   R(40,47)                1.3642         estimate D2E/DX2                !
 ! R61   R(41,42)                1.4709         estimate D2E/DX2                !
 ! R62   R(41,79)                1.111          estimate D2E/DX2                !
 ! R63   R(42,43)                1.331          estimate D2E/DX2                !
 ! R64   R(42,44)                1.326          estimate D2E/DX2                !
 ! R65   R(44,45)                1.386          estimate D2E/DX2                !
 ! R66   R(44,48)                1.5239         estimate D2E/DX2                !
 ! R67   R(45,46)                1.3585         estimate D2E/DX2                !
 ! R68   R(45,47)                1.4045         estimate D2E/DX2                !
 ! R69   R(47,80)                1.1278         estimate D2E/DX2                !
 ! R70   R(48,49)                1.3688         estimate D2E/DX2                !
 ! R71   R(48,52)                1.7795         estimate D2E/DX2                !
 ! R72   R(49,50)                1.4598         estimate D2E/DX2                !
 ! R73   R(49,81)                1.0673         estimate D2E/DX2                !
 ! R74   R(50,51)                1.4057         estimate D2E/DX2                !
 ! R75   R(50,82)                1.0539         estimate D2E/DX2                !
 ! R76   R(51,52)                1.7047         estimate D2E/DX2                !
 ! R77   R(51,53)                1.4026         estimate D2E/DX2                !
 ! R78   R(53,54)                1.396          estimate D2E/DX2                !
 ! R79   R(53,60)                1.4539         estimate D2E/DX2                !
 ! R80   R(54,55)                1.4824         estimate D2E/DX2                !
 ! R81   R(54,83)                1.0339         estimate D2E/DX2                !
 ! R82   R(55,56)                1.3175         estimate D2E/DX2                !
 ! R83   R(55,57)                1.3722         estimate D2E/DX2                !
 ! R84   R(57,58)                1.4939         estimate D2E/DX2                !
 ! R85   R(57,61)                1.4748         estimate D2E/DX2                !
 ! R86   R(58,59)                1.3454         estimate D2E/DX2                !
 ! R87   R(58,60)                1.3927         estimate D2E/DX2                !
 ! R88   R(60,84)                1.0179         estimate D2E/DX2                !
 ! R89   R(61,62)                1.3088         estimate D2E/DX2                !
 ! R90   R(61,65)                1.7373         estimate D2E/DX2                !
 ! R91   R(62,63)                1.4796         estimate D2E/DX2                !
 ! R92   R(62,85)                1.0649         estimate D2E/DX2                !
 ! R93   R(63,64)                1.4164         estimate D2E/DX2                !
 ! R94   R(63,86)                1.0028         estimate D2E/DX2                !
 ! R95   R(64,65)                1.7034         estimate D2E/DX2                !
 ! R96   R(64,87)                1.0468         estimate D2E/DX2                !
 ! A1    A(2,1,8)              118.3866         estimate D2E/DX2                !
 ! A2    A(2,1,66)             118.4579         estimate D2E/DX2                !
 ! A3    A(8,1,66)             123.1282         estimate D2E/DX2                !
 ! A4    A(1,2,3)              118.0327         estimate D2E/DX2                !
 ! A5    A(1,2,67)             124.7093         estimate D2E/DX2                !
 ! A6    A(3,2,67)             117.1403         estimate D2E/DX2                !
 ! A7    A(2,3,4)              117.2536         estimate D2E/DX2                !
 ! A8    A(2,3,5)              122.3245         estimate D2E/DX2                !
 ! A9    A(4,3,5)              119.9593         estimate D2E/DX2                !
 ! A10   A(3,5,6)              115.4772         estimate D2E/DX2                !
 ! A11   A(3,5,9)              122.0324         estimate D2E/DX2                !
 ! A12   A(6,5,9)              121.3609         estimate D2E/DX2                !
 ! A13   A(5,6,7)              117.8021         estimate D2E/DX2                !
 ! A14   A(5,6,8)              120.7437         estimate D2E/DX2                !
 ! A15   A(7,6,8)              120.9093         estimate D2E/DX2                !
 ! A16   A(1,8,6)              124.0262         estimate D2E/DX2                !
 ! A17   A(1,8,68)             120.1226         estimate D2E/DX2                !
 ! A18   A(6,8,68)             115.8512         estimate D2E/DX2                !
 ! A19   A(5,9,10)             129.8487         estimate D2E/DX2                !
 ! A20   A(5,9,13)             116.6774         estimate D2E/DX2                !
 ! A21   A(10,9,13)            112.8228         estimate D2E/DX2                !
 ! A22   A(9,10,11)            111.7609         estimate D2E/DX2                !
 ! A23   A(9,10,69)            124.8803         estimate D2E/DX2                !
 ! A24   A(11,10,69)           123.3456         estimate D2E/DX2                !
 ! A25   A(10,11,12)           112.0467         estimate D2E/DX2                !
 ! A26   A(10,11,70)           121.4469         estimate D2E/DX2                !
 ! A27   A(12,11,70)           126.1075         estimate D2E/DX2                !
 ! A28   A(11,12,13)           110.4073         estimate D2E/DX2                !
 ! A29   A(11,12,14)           129.3409         estimate D2E/DX2                !
 ! A30   A(13,12,14)           120.0954         estimate D2E/DX2                !
 ! A31   A(9,13,12)             92.6765         estimate D2E/DX2                !
 ! A32   A(12,14,15)           124.7588         estimate D2E/DX2                !
 ! A33   A(12,14,21)           117.2869         estimate D2E/DX2                !
 ! A34   A(15,14,21)           117.809          estimate D2E/DX2                !
 ! A35   A(14,15,16)           123.6346         estimate D2E/DX2                !
 ! A36   A(14,15,71)           122.113          estimate D2E/DX2                !
 ! A37   A(16,15,71)           114.2513         estimate D2E/DX2                !
 ! A38   A(15,16,17)           116.0657         estimate D2E/DX2                !
 ! A39   A(15,16,18)           120.694          estimate D2E/DX2                !
 ! A40   A(17,16,18)           123.1117         estimate D2E/DX2                !
 ! A41   A(16,18,19)           116.4815         estimate D2E/DX2                !
 ! A42   A(16,18,22)           122.1042         estimate D2E/DX2                !
 ! A43   A(19,18,22)           121.0295         estimate D2E/DX2                !
 ! A44   A(18,19,20)           118.5525         estimate D2E/DX2                !
 ! A45   A(18,19,21)           121.5728         estimate D2E/DX2                !
 ! A46   A(20,19,21)           119.3168         estimate D2E/DX2                !
 ! A47   A(14,21,19)           119.2428         estimate D2E/DX2                !
 ! A48   A(14,21,72)           124.5101         estimate D2E/DX2                !
 ! A49   A(19,21,72)           116.1398         estimate D2E/DX2                !
 ! A50   A(18,22,23)           130.3191         estimate D2E/DX2                !
 ! A51   A(18,22,26)           123.0348         estimate D2E/DX2                !
 ! A52   A(23,22,26)           106.5594         estimate D2E/DX2                !
 ! A53   A(22,23,24)           114.1906         estimate D2E/DX2                !
 ! A54   A(22,23,73)           123.6377         estimate D2E/DX2                !
 ! A55   A(24,23,73)           122.0317         estimate D2E/DX2                !
 ! A56   A(23,24,25)           110.2159         estimate D2E/DX2                !
 ! A57   A(23,24,74)           124.3944         estimate D2E/DX2                !
 ! A58   A(25,24,74)           125.3789         estimate D2E/DX2                !
 ! A59   A(24,25,26)           113.9371         estimate D2E/DX2                !
 ! A60   A(24,25,27)           122.8084         estimate D2E/DX2                !
 ! A61   A(26,25,27)           123.1339         estimate D2E/DX2                !
 ! A62   A(22,26,25)            94.9491         estimate D2E/DX2                !
 ! A63   A(25,27,28)           122.7844         estimate D2E/DX2                !
 ! A64   A(25,27,34)           118.7513         estimate D2E/DX2                !
 ! A65   A(28,27,34)           118.4474         estimate D2E/DX2                !
 ! A66   A(27,28,29)           120.0787         estimate D2E/DX2                !
 ! A67   A(27,28,75)           122.4838         estimate D2E/DX2                !
 ! A68   A(29,28,75)           116.9638         estimate D2E/DX2                !
 ! A69   A(28,29,30)           116.7967         estimate D2E/DX2                !
 ! A70   A(28,29,31)           118.8475         estimate D2E/DX2                !
 ! A71   A(30,29,31)           124.3265         estimate D2E/DX2                !
 ! A72   A(29,31,32)           117.6751         estimate D2E/DX2                !
 ! A73   A(29,31,35)           116.6292         estimate D2E/DX2                !
 ! A74   A(32,31,35)           125.683          estimate D2E/DX2                !
 ! A75   A(31,32,33)           117.4533         estimate D2E/DX2                !
 ! A76   A(31,32,34)           125.5253         estimate D2E/DX2                !
 ! A77   A(33,32,34)           116.9953         estimate D2E/DX2                !
 ! A78   A(27,34,32)           119.3353         estimate D2E/DX2                !
 ! A79   A(27,34,76)           121.247          estimate D2E/DX2                !
 ! A80   A(32,34,76)           119.3578         estimate D2E/DX2                !
 ! A81   A(31,35,36)           129.0141         estimate D2E/DX2                !
 ! A82   A(31,35,39)           120.6753         estimate D2E/DX2                !
 ! A83   A(36,35,39)           110.1855         estimate D2E/DX2                !
 ! A84   A(35,36,37)           110.6255         estimate D2E/DX2                !
 ! A85   A(35,36,77)           122.6628         estimate D2E/DX2                !
 ! A86   A(37,36,77)           126.6822         estimate D2E/DX2                !
 ! A87   A(36,37,38)           112.3824         estimate D2E/DX2                !
 ! A88   A(36,37,78)           118.5913         estimate D2E/DX2                !
 ! A89   A(38,37,78)           128.7201         estimate D2E/DX2                !
 ! A90   A(37,38,39)           112.9407         estimate D2E/DX2                !
 ! A91   A(37,38,40)           125.2082         estimate D2E/DX2                !
 ! A92   A(39,38,40)           121.5993         estimate D2E/DX2                !
 ! A93   A(35,39,38)            93.5517         estimate D2E/DX2                !
 ! A94   A(38,40,41)           119.6493         estimate D2E/DX2                !
 ! A95   A(38,40,47)           124.5889         estimate D2E/DX2                !
 ! A96   A(41,40,47)           115.5425         estimate D2E/DX2                !
 ! A97   A(40,41,42)           122.1661         estimate D2E/DX2                !
 ! A98   A(40,41,79)           120.1402         estimate D2E/DX2                !
 ! A99   A(42,41,79)           117.567          estimate D2E/DX2                !
 ! A100  A(41,42,43)           114.9049         estimate D2E/DX2                !
 ! A101  A(41,42,44)           118.3129         estimate D2E/DX2                !
 ! A102  A(43,42,44)           126.7741         estimate D2E/DX2                !
 ! A103  A(42,44,45)           121.2072         estimate D2E/DX2                !
 ! A104  A(42,44,48)           119.6647         estimate D2E/DX2                !
 ! A105  A(45,44,48)           119.1258         estimate D2E/DX2                !
 ! A106  A(44,45,46)           122.1741         estimate D2E/DX2                !
 ! A107  A(44,45,47)           118.4463         estimate D2E/DX2                !
 ! A108  A(46,45,47)           118.905          estimate D2E/DX2                !
 ! A109  A(40,47,45)           123.9438         estimate D2E/DX2                !
 ! A110  A(40,47,80)           122.873          estimate D2E/DX2                !
 ! A111  A(45,47,80)           112.7927         estimate D2E/DX2                !
 ! A112  A(44,48,49)           130.7127         estimate D2E/DX2                !
 ! A113  A(44,48,52)           118.7602         estimate D2E/DX2                !
 ! A114  A(49,48,52)           109.6383         estimate D2E/DX2                !
 ! A115  A(48,49,50)           113.9974         estimate D2E/DX2                !
 ! A116  A(48,49,81)           121.7906         estimate D2E/DX2                !
 ! A117  A(50,49,81)           123.0852         estimate D2E/DX2                !
 ! A118  A(49,50,51)           110.6306         estimate D2E/DX2                !
 ! A119  A(49,50,82)           122.2638         estimate D2E/DX2                !
 ! A120  A(51,50,82)           126.677          estimate D2E/DX2                !
 ! A121  A(50,51,52)           112.5707         estimate D2E/DX2                !
 ! A122  A(50,51,53)           125.6329         estimate D2E/DX2                !
 ! A123  A(52,51,53)           121.6577         estimate D2E/DX2                !
 ! A124  A(48,52,51)            92.5567         estimate D2E/DX2                !
 ! A125  A(51,53,54)           121.349          estimate D2E/DX2                !
 ! A126  A(51,53,60)           119.6908         estimate D2E/DX2                !
 ! A127  A(54,53,60)           118.6612         estimate D2E/DX2                !
 ! A128  A(53,54,55)           120.3395         estimate D2E/DX2                !
 ! A129  A(53,54,83)           122.1706         estimate D2E/DX2                !
 ! A130  A(55,54,83)           117.4006         estimate D2E/DX2                !
 ! A131  A(54,55,56)           119.459          estimate D2E/DX2                !
 ! A132  A(54,55,57)           121.5547         estimate D2E/DX2                !
 ! A133  A(56,55,57)           118.9026         estimate D2E/DX2                !
 ! A134  A(55,57,58)           117.4622         estimate D2E/DX2                !
 ! A135  A(55,57,61)           121.6692         estimate D2E/DX2                !
 ! A136  A(58,57,61)           120.867          estimate D2E/DX2                !
 ! A137  A(57,58,59)           120.4054         estimate D2E/DX2                !
 ! A138  A(57,58,60)           121.01           estimate D2E/DX2                !
 ! A139  A(59,58,60)           118.577          estimate D2E/DX2                !
 ! A140  A(53,60,58)           120.7611         estimate D2E/DX2                !
 ! A141  A(53,60,84)           119.0281         estimate D2E/DX2                !
 ! A142  A(58,60,84)           119.9611         estimate D2E/DX2                !
 ! A143  A(57,61,62)           127.5041         estimate D2E/DX2                !
 ! A144  A(57,61,65)           118.652          estimate D2E/DX2                !
 ! A145  A(62,61,65)           113.4457         estimate D2E/DX2                !
 ! A146  A(61,62,63)           113.116          estimate D2E/DX2                !
 ! A147  A(61,62,85)           128.2559         estimate D2E/DX2                !
 ! A148  A(63,62,85)           118.612          estimate D2E/DX2                !
 ! A149  A(62,63,64)           109.4324         estimate D2E/DX2                !
 ! A150  A(62,63,86)           126.295          estimate D2E/DX2                !
 ! A151  A(64,63,86)           124.2548         estimate D2E/DX2                !
 ! A152  A(63,64,65)           112.1512         estimate D2E/DX2                !
 ! A153  A(63,64,87)           127.1259         estimate D2E/DX2                !
 ! A154  A(65,64,87)           120.7224         estimate D2E/DX2                !
 ! A155  A(61,65,64)            91.7141         estimate D2E/DX2                !
 ! D1    D(8,1,2,3)             -1.6966         estimate D2E/DX2                !
 ! D2    D(8,1,2,67)          -177.6315         estimate D2E/DX2                !
 ! D3    D(66,1,2,3)           176.4641         estimate D2E/DX2                !
 ! D4    D(66,1,2,67)            0.5292         estimate D2E/DX2                !
 ! D5    D(2,1,8,6)              0.5321         estimate D2E/DX2                !
 ! D6    D(2,1,8,68)          -179.4073         estimate D2E/DX2                !
 ! D7    D(66,1,8,6)          -177.5369         estimate D2E/DX2                !
 ! D8    D(66,1,8,68)            2.5236         estimate D2E/DX2                !
 ! D9    D(1,2,3,4)           -179.9546         estimate D2E/DX2                !
 ! D10   D(1,2,3,5)              7.8614         estimate D2E/DX2                !
 ! D11   D(67,2,3,4)            -3.7094         estimate D2E/DX2                !
 ! D12   D(67,2,3,5)          -175.8934         estimate D2E/DX2                !
 ! D13   D(2,3,5,6)            -11.8451         estimate D2E/DX2                !
 ! D14   D(2,3,5,9)           -179.8423         estimate D2E/DX2                !
 ! D15   D(4,3,5,6)            176.1762         estimate D2E/DX2                !
 ! D16   D(4,3,5,9)              8.1789         estimate D2E/DX2                !
 ! D17   D(3,5,6,7)           -177.9758         estimate D2E/DX2                !
 ! D18   D(3,5,6,8)             10.4141         estimate D2E/DX2                !
 ! D19   D(9,5,6,7)             -9.8907         estimate D2E/DX2                !
 ! D20   D(9,5,6,8)            178.4991         estimate D2E/DX2                !
 ! D21   D(3,5,9,10)           129.2033         estimate D2E/DX2                !
 ! D22   D(3,5,9,13)           -60.8097         estimate D2E/DX2                !
 ! D23   D(6,5,9,10)           -38.0961         estimate D2E/DX2                !
 ! D24   D(6,5,9,13)           131.8909         estimate D2E/DX2                !
 ! D25   D(5,6,8,1)             -5.0705         estimate D2E/DX2                !
 ! D26   D(5,6,8,68)           174.8714         estimate D2E/DX2                !
 ! D27   D(7,6,8,1)           -176.4187         estimate D2E/DX2                !
 ! D28   D(7,6,8,68)             3.5231         estimate D2E/DX2                !
 ! D29   D(5,9,10,11)          175.9253         estimate D2E/DX2                !
 ! D30   D(5,9,10,69)           -2.7879         estimate D2E/DX2                !
 ! D31   D(13,9,10,11)           5.6294         estimate D2E/DX2                !
 ! D32   D(13,9,10,69)        -173.0839         estimate D2E/DX2                !
 ! D33   D(5,9,13,12)         -175.205          estimate D2E/DX2                !
 ! D34   D(10,9,13,12)          -3.5323         estimate D2E/DX2                !
 ! D35   D(9,10,11,12)          -5.4817         estimate D2E/DX2                !
 ! D36   D(9,10,11,70)        -178.6522         estimate D2E/DX2                !
 ! D37   D(69,10,11,12)        173.2547         estimate D2E/DX2                !
 ! D38   D(69,10,11,70)          0.0842         estimate D2E/DX2                !
 ! D39   D(10,11,12,13)          2.7863         estimate D2E/DX2                !
 ! D40   D(10,11,12,14)        178.1613         estimate D2E/DX2                !
 ! D41   D(70,11,12,13)        175.5727         estimate D2E/DX2                !
 ! D42   D(70,11,12,14)         -9.0524         estimate D2E/DX2                !
 ! D43   D(11,12,13,9)           0.2321         estimate D2E/DX2                !
 ! D44   D(14,12,13,9)        -175.6345         estimate D2E/DX2                !
 ! D45   D(11,12,14,15)       -120.7349         estimate D2E/DX2                !
 ! D46   D(11,12,14,21)         54.7728         estimate D2E/DX2                !
 ! D47   D(13,12,14,15)         54.254          estimate D2E/DX2                !
 ! D48   D(13,12,14,21)       -130.2383         estimate D2E/DX2                !
 ! D49   D(12,14,15,16)        178.4211         estimate D2E/DX2                !
 ! D50   D(12,14,15,71)         -1.9736         estimate D2E/DX2                !
 ! D51   D(21,14,15,16)          2.9349         estimate D2E/DX2                !
 ! D52   D(21,14,15,71)       -177.4598         estimate D2E/DX2                !
 ! D53   D(12,14,21,19)        176.9316         estimate D2E/DX2                !
 ! D54   D(12,14,21,72)          0.8487         estimate D2E/DX2                !
 ! D55   D(15,14,21,19)         -7.2404         estimate D2E/DX2                !
 ! D56   D(15,14,21,72)        176.6766         estimate D2E/DX2                !
 ! D57   D(14,15,16,17)        175.7158         estimate D2E/DX2                !
 ! D58   D(14,15,16,18)         -0.2867         estimate D2E/DX2                !
 ! D59   D(71,15,16,17)         -3.9176         estimate D2E/DX2                !
 ! D60   D(71,15,16,18)       -179.9201         estimate D2E/DX2                !
 ! D61   D(15,16,18,19)          1.954          estimate D2E/DX2                !
 ! D62   D(15,16,18,22)        174.8967         estimate D2E/DX2                !
 ! D63   D(17,16,18,19)       -173.7583         estimate D2E/DX2                !
 ! D64   D(17,16,18,22)         -0.8156         estimate D2E/DX2                !
 ! D65   D(16,18,19,20)       -177.8447         estimate D2E/DX2                !
 ! D66   D(16,18,19,21)         -6.4712         estimate D2E/DX2                !
 ! D67   D(22,18,19,20)          9.1313         estimate D2E/DX2                !
 ! D68   D(22,18,19,21)       -179.4953         estimate D2E/DX2                !
 ! D69   D(16,18,22,23)        -41.586          estimate D2E/DX2                !
 ! D70   D(16,18,22,26)        134.5536         estimate D2E/DX2                !
 ! D71   D(19,18,22,23)        131.0406         estimate D2E/DX2                !
 ! D72   D(19,18,22,26)        -52.8198         estimate D2E/DX2                !
 ! D73   D(18,19,21,14)          9.2851         estimate D2E/DX2                !
 ! D74   D(18,19,21,72)       -174.31           estimate D2E/DX2                !
 ! D75   D(20,19,21,14)       -179.4058         estimate D2E/DX2                !
 ! D76   D(20,19,21,72)         -3.0008         estimate D2E/DX2                !
 ! D77   D(18,22,23,24)        177.507          estimate D2E/DX2                !
 ! D78   D(18,22,23,73)          1.737          estimate D2E/DX2                !
 ! D79   D(26,22,23,24)          0.8828         estimate D2E/DX2                !
 ! D80   D(26,22,23,73)       -174.8872         estimate D2E/DX2                !
 ! D81   D(18,22,26,25)       -179.5374         estimate D2E/DX2                !
 ! D82   D(23,22,26,25)         -2.6073         estimate D2E/DX2                !
 ! D83   D(22,23,24,25)          1.7062         estimate D2E/DX2                !
 ! D84   D(22,23,24,74)       -177.1549         estimate D2E/DX2                !
 ! D85   D(73,23,24,25)        177.5522         estimate D2E/DX2                !
 ! D86   D(73,23,24,74)         -1.3089         estimate D2E/DX2                !
 ! D87   D(23,24,25,26)         -3.7902         estimate D2E/DX2                !
 ! D88   D(23,24,25,27)       -179.9108         estimate D2E/DX2                !
 ! D89   D(74,24,25,26)        175.0571         estimate D2E/DX2                !
 ! D90   D(74,24,25,27)         -1.0635         estimate D2E/DX2                !
 ! D91   D(24,25,26,22)          3.8108         estimate D2E/DX2                !
 ! D92   D(27,25,26,22)        179.917          estimate D2E/DX2                !
 ! D93   D(24,25,27,28)         45.8411         estimate D2E/DX2                !
 ! D94   D(24,25,27,34)       -135.6788         estimate D2E/DX2                !
 ! D95   D(26,25,27,28)       -129.9241         estimate D2E/DX2                !
 ! D96   D(26,25,27,34)         48.5561         estimate D2E/DX2                !
 ! D97   D(25,27,28,29)       -178.2447         estimate D2E/DX2                !
 ! D98   D(25,27,28,75)         -6.3837         estimate D2E/DX2                !
 ! D99   D(34,27,28,29)          3.2708         estimate D2E/DX2                !
 ! D100  D(34,27,28,75)        175.1318         estimate D2E/DX2                !
 ! D101  D(25,27,34,32)        179.5221         estimate D2E/DX2                !
 ! D102  D(25,27,34,76)         -3.3103         estimate D2E/DX2                !
 ! D103  D(28,27,34,32)         -1.9311         estimate D2E/DX2                !
 ! D104  D(28,27,34,76)        175.2365         estimate D2E/DX2                !
 ! D105  D(27,28,29,30)        176.1017         estimate D2E/DX2                !
 ! D106  D(27,28,29,31)         -2.0186         estimate D2E/DX2                !
 ! D107  D(75,28,29,30)          3.8019         estimate D2E/DX2                !
 ! D108  D(75,28,29,31)       -174.3184         estimate D2E/DX2                !
 ! D109  D(28,29,31,32)         -0.7056         estimate D2E/DX2                !
 ! D110  D(28,29,31,35)        178.0672         estimate D2E/DX2                !
 ! D111  D(30,29,31,32)       -178.6739         estimate D2E/DX2                !
 ! D112  D(30,29,31,35)          0.099          estimate D2E/DX2                !
 ! D113  D(29,31,32,33)       -179.7243         estimate D2E/DX2                !
 ! D114  D(29,31,32,34)          2.1975         estimate D2E/DX2                !
 ! D115  D(35,31,32,33)          1.6262         estimate D2E/DX2                !
 ! D116  D(35,31,32,34)       -176.4519         estimate D2E/DX2                !
 ! D117  D(29,31,35,36)        -46.9858         estimate D2E/DX2                !
 ! D118  D(29,31,35,39)        128.5268         estimate D2E/DX2                !
 ! D119  D(32,31,35,36)        131.6763         estimate D2E/DX2                !
 ! D120  D(32,31,35,39)        -52.8112         estimate D2E/DX2                !
 ! D121  D(31,32,34,27)         -0.9238         estimate D2E/DX2                !
 ! D122  D(31,32,34,76)       -178.1456         estimate D2E/DX2                !
 ! D123  D(33,32,34,27)       -179.0099         estimate D2E/DX2                !
 ! D124  D(33,32,34,76)          3.7684         estimate D2E/DX2                !
 ! D125  D(31,35,36,37)       -178.1381         estimate D2E/DX2                !
 ! D126  D(31,35,36,77)          0.0079         estimate D2E/DX2                !
 ! D127  D(39,35,36,37)          5.9733         estimate D2E/DX2                !
 ! D128  D(39,35,36,77)       -175.8807         estimate D2E/DX2                !
 ! D129  D(31,35,39,38)        179.1474         estimate D2E/DX2                !
 ! D130  D(36,35,39,38)         -4.5663         estimate D2E/DX2                !
 ! D131  D(35,36,37,38)         -4.9068         estimate D2E/DX2                !
 ! D132  D(35,36,37,78)       -179.1039         estimate D2E/DX2                !
 ! D133  D(77,36,37,38)        177.0395         estimate D2E/DX2                !
 ! D134  D(77,36,37,78)          2.8424         estimate D2E/DX2                !
 ! D135  D(36,37,38,39)          1.4715         estimate D2E/DX2                !
 ! D136  D(36,37,38,40)        175.759          estimate D2E/DX2                !
 ! D137  D(78,37,38,39)        174.9379         estimate D2E/DX2                !
 ! D138  D(78,37,38,40)        -10.7746         estimate D2E/DX2                !
 ! D139  D(37,38,39,35)          1.7297         estimate D2E/DX2                !
 ! D140  D(40,38,39,35)       -172.7911         estimate D2E/DX2                !
 ! D141  D(37,38,40,41)         51.2269         estimate D2E/DX2                !
 ! D142  D(37,38,40,47)       -134.4026         estimate D2E/DX2                !
 ! D143  D(39,38,40,41)       -134.9513         estimate D2E/DX2                !
 ! D144  D(39,38,40,47)         39.4192         estimate D2E/DX2                !
 ! D145  D(38,40,41,42)       -179.3794         estimate D2E/DX2                !
 ! D146  D(38,40,41,79)         -3.5727         estimate D2E/DX2                !
 ! D147  D(47,40,41,42)          5.7556         estimate D2E/DX2                !
 ! D148  D(47,40,41,79)       -178.4377         estimate D2E/DX2                !
 ! D149  D(38,40,47,45)        178.395          estimate D2E/DX2                !
 ! D150  D(38,40,47,80)          6.0904         estimate D2E/DX2                !
 ! D151  D(41,40,47,45)         -7.0268         estimate D2E/DX2                !
 ! D152  D(41,40,47,80)       -179.3313         estimate D2E/DX2                !
 ! D153  D(40,41,42,43)        177.4707         estimate D2E/DX2                !
 ! D154  D(40,41,42,44)         -3.4979         estimate D2E/DX2                !
 ! D155  D(79,41,42,43)          1.5613         estimate D2E/DX2                !
 ! D156  D(79,41,42,44)       -179.4073         estimate D2E/DX2                !
 ! D157  D(41,42,44,45)          2.0095         estimate D2E/DX2                !
 ! D158  D(41,42,44,48)       -177.4395         estimate D2E/DX2                !
 ! D159  D(43,42,44,45)       -179.0873         estimate D2E/DX2                !
 ! D160  D(43,42,44,48)          1.4638         estimate D2E/DX2                !
 ! D161  D(42,44,45,46)       -175.0845         estimate D2E/DX2                !
 ! D162  D(42,44,45,47)         -3.0796         estimate D2E/DX2                !
 ! D163  D(48,44,45,46)          4.3674         estimate D2E/DX2                !
 ! D164  D(48,44,45,47)        176.3722         estimate D2E/DX2                !
 ! D165  D(42,44,48,49)        140.6255         estimate D2E/DX2                !
 ! D166  D(42,44,48,52)        -51.3948         estimate D2E/DX2                !
 ! D167  D(45,44,48,49)        -38.835          estimate D2E/DX2                !
 ! D168  D(45,44,48,52)        129.1447         estimate D2E/DX2                !
 ! D169  D(44,45,47,40)          5.8249         estimate D2E/DX2                !
 ! D170  D(44,45,47,80)        178.8178         estimate D2E/DX2                !
 ! D171  D(46,45,47,40)        178.0961         estimate D2E/DX2                !
 ! D172  D(46,45,47,80)         -8.9109         estimate D2E/DX2                !
 ! D173  D(44,48,49,50)        177.1968         estimate D2E/DX2                !
 ! D174  D(44,48,49,81)        -14.5891         estimate D2E/DX2                !
 ! D175  D(52,48,49,50)          8.374          estimate D2E/DX2                !
 ! D176  D(52,48,49,81)        176.5881         estimate D2E/DX2                !
 ! D177  D(44,48,52,51)       -175.8313         estimate D2E/DX2                !
 ! D178  D(49,48,52,51)         -5.48           estimate D2E/DX2                !
 ! D179  D(48,49,50,51)         -7.714          estimate D2E/DX2                !
 ! D180  D(48,49,50,82)        179.3356         estimate D2E/DX2                !
 ! D181  D(81,49,50,51)       -175.7551         estimate D2E/DX2                !
 ! D182  D(81,49,50,82)         11.2945         estimate D2E/DX2                !
 ! D183  D(49,50,51,52)          3.2716         estimate D2E/DX2                !
 ! D184  D(49,50,51,53)        179.0259         estimate D2E/DX2                !
 ! D185  D(82,50,51,52)        175.8368         estimate D2E/DX2                !
 ! D186  D(82,50,51,53)         -8.4088         estimate D2E/DX2                !
 ! D187  D(50,51,52,48)          1.1268         estimate D2E/DX2                !
 ! D188  D(53,51,52,48)       -174.8195         estimate D2E/DX2                !
 ! D189  D(50,51,53,54)       -134.9338         estimate D2E/DX2                !
 ! D190  D(50,51,53,60)         51.4311         estimate D2E/DX2                !
 ! D191  D(52,51,53,54)         40.4596         estimate D2E/DX2                !
 ! D192  D(52,51,53,60)       -133.1755         estimate D2E/DX2                !
 ! D193  D(51,53,54,55)       -178.8726         estimate D2E/DX2                !
 ! D194  D(51,53,54,83)          4.6535         estimate D2E/DX2                !
 ! D195  D(60,53,54,55)         -5.1737         estimate D2E/DX2                !
 ! D196  D(60,53,54,83)        178.3524         estimate D2E/DX2                !
 ! D197  D(51,53,60,58)        178.6331         estimate D2E/DX2                !
 ! D198  D(51,53,60,84)         -7.1103         estimate D2E/DX2                !
 ! D199  D(54,53,60,58)          4.8272         estimate D2E/DX2                !
 ! D200  D(54,53,60,84)        179.0838         estimate D2E/DX2                !
 ! D201  D(53,54,55,56)       -179.5697         estimate D2E/DX2                !
 ! D202  D(53,54,55,57)          3.7918         estimate D2E/DX2                !
 ! D203  D(83,54,55,56)         -2.9314         estimate D2E/DX2                !
 ! D204  D(83,54,55,57)       -179.5699         estimate D2E/DX2                !
 ! D205  D(54,55,57,58)         -1.7035         estimate D2E/DX2                !
 ! D206  D(54,55,57,61)        177.8333         estimate D2E/DX2                !
 ! D207  D(56,55,57,58)       -178.3602         estimate D2E/DX2                !
 ! D208  D(56,55,57,61)          1.1766         estimate D2E/DX2                !
 ! D209  D(55,57,58,59)       -179.6916         estimate D2E/DX2                !
 ! D210  D(55,57,58,60)          1.3237         estimate D2E/DX2                !
 ! D211  D(61,57,58,59)          0.7677         estimate D2E/DX2                !
 ! D212  D(61,57,58,60)       -178.217          estimate D2E/DX2                !
 ! D213  D(55,57,61,62)        -49.4084         estimate D2E/DX2                !
 ! D214  D(55,57,61,65)        122.8381         estimate D2E/DX2                !
 ! D215  D(58,57,61,62)        130.1128         estimate D2E/DX2                !
 ! D216  D(58,57,61,65)        -57.6408         estimate D2E/DX2                !
 ! D217  D(57,58,60,53)         -2.8763         estimate D2E/DX2                !
 ! D218  D(57,58,60,84)       -177.0796         estimate D2E/DX2                !
 ! D219  D(59,58,60,53)        178.1209         estimate D2E/DX2                !
 ! D220  D(59,58,60,84)          3.9176         estimate D2E/DX2                !
 ! D221  D(57,61,62,63)        176.7369         estimate D2E/DX2                !
 ! D222  D(57,61,62,85)         -4.762          estimate D2E/DX2                !
 ! D223  D(65,61,62,63)          4.1514         estimate D2E/DX2                !
 ! D224  D(65,61,62,85)       -177.3475         estimate D2E/DX2                !
 ! D225  D(57,61,65,64)       -176.5529         estimate D2E/DX2                !
 ! D226  D(62,61,65,64)         -3.2522         estimate D2E/DX2                !
 ! D227  D(61,62,63,64)         -3.0638         estimate D2E/DX2                !
 ! D228  D(61,62,63,86)        178.427          estimate D2E/DX2                !
 ! D229  D(85,62,63,64)        178.2769         estimate D2E/DX2                !
 ! D230  D(85,62,63,86)         -0.2322         estimate D2E/DX2                !
 ! D231  D(62,63,64,65)          0.5977         estimate D2E/DX2                !
 ! D232  D(62,63,64,87)       -179.652          estimate D2E/DX2                !
 ! D233  D(86,63,64,65)        179.1439         estimate D2E/DX2                !
 ! D234  D(86,63,64,87)         -1.1057         estimate D2E/DX2                !
 ! D235  D(63,64,65,61)          1.3382         estimate D2E/DX2                !
 ! D236  D(87,64,65,61)       -178.4303         estimate D2E/DX2                !
 --------------------------------------------------------------------------------
 Trust Radius=3.00D-01 FncErr=1.00D-07 GrdErr=1.00D-06 EigMax=2.50D+02 EigMin=1.00D-04
 Number of steps in this run=    497 maximum allowed number of steps=    522.
 GradGradGradGradGradGradGradGradGradGradGradGradGradGradGradGradGradGrad

 Leave Link  103 at Sat Jul 25 11:00:05 2020, MaxMem=  4026531840 cpu:               0.3 elap:               0.1
 (Enter /opt/ohpc/pub/libs/gaussian/g16-A.03/sandybridge/g16/l202.exe)
 Stoichiometry    C50H22F10S5
 Framework group  C1[X(C50H22F10S5)]
 Deg. of freedom   255
 Full point group                 C1      NOp   1
 Largest Abelian subgroup         C1      NOp   1
 Largest concise Abelian subgroup C1      NOp   1
                         Standard orientation:                         
 ---------------------------------------------------------------------
 Center     Atomic      Atomic             Coordinates (Angstroms)
 Number     Number       Type             X           Y           Z
 ---------------------------------------------------------------------
      1          6           0       18.937498   -1.958051    0.339883
      2          6           0       18.361972   -0.777470   -0.237063
      3          6           0       16.944043   -0.788948   -0.540647
      4          9           0       16.442944    0.278987   -1.059296
      5          6           0       16.110017   -1.826324   -0.149484
      6          6           0       16.777123   -3.008335    0.338799
      7          9           0       15.980107   -4.105868    0.707605
      8          6           0       18.132986   -2.996394    0.600741
      9          6           0       14.696153   -1.832895   -0.458821
     10          6           0       13.943234   -2.790806   -1.024912
     11          6           0       12.506937   -2.409666   -1.067535
     12          6           0       12.266516   -1.218980   -0.408915
     13         16           0       13.759534   -0.537152    0.178837
     14          6           0       11.054349   -0.508351   -0.256346
     15          6           0       10.845443    0.760444   -0.678254
     16          6           0        9.579770    1.455731   -0.538328
     17          9           0        9.566449    2.706018   -0.918009
     18          6           0        8.507441    0.840574    0.038014
     19          6           0        8.722811   -0.508885    0.531736
     20          9           0        7.673230   -1.176578    1.072664
     21          6           0        9.957041   -1.209126    0.295946
     22          6           0        7.302478    1.517206    0.283721
     23          6           0        7.071789    2.810959    0.773382
     24          6           0        5.665589    3.181978    0.839171
     25          6           0        4.873669    2.127284    0.426883
     26         16           0        5.716413    0.832469   -0.098646
     27          6           0        3.390636    2.203611    0.382203
     28          6           0        2.714616    3.279017   -0.151890
     29          6           0        1.248991    3.309764   -0.130647
     30          9           0        0.657573    4.428295   -0.597002
     31          6           0        0.538300    2.182608    0.415045
     32          6           0        1.262637    1.148908    0.865865
     33          9           0        0.594978    0.097447    1.368761
     34          6           0        2.619552    1.087553    0.891956
     35          6           0       -0.896030    2.281209    0.451617
     36          6           0       -1.694701    3.341000    0.893182
     37          6           0       -3.139128    2.988410    0.789745
     38          6           0       -3.332650    1.800637    0.208761
     39         16           0       -1.883579    1.023351   -0.205031
     40          6           0       -4.637456    1.138756    0.044035
     41          6           0       -5.681673    1.828262   -0.515066
     42          6           0       -7.011636    1.225944   -0.693448
     43          9           0       -7.932433    2.041161   -1.202360
     44          6           0       -7.174984   -0.047419   -0.361601
     45          6           0       -6.135582   -0.787530    0.179690
     46          9           0       -6.250765   -2.116720    0.435850
     47          6           0       -4.877375   -0.177421    0.310908
     48          6           0       -8.524027   -0.718830   -0.588386
     49          6           0       -8.831947   -1.979043   -1.025141
     50          6           0      -10.263106   -2.266049   -1.048769
     51          6           0      -10.987374   -1.223498   -0.444947
     52         16           0       -9.990033    0.071930    0.037917
     53          6           0      -12.382795   -1.166281   -0.315143
     54          6           0      -13.091719    0.001322   -0.603133
     55          6           0      -14.563801    0.044403   -0.434332
     56          9           0      -15.216501    1.152774   -0.719340
     57          6           0      -15.259441   -1.022036    0.077178
     58          6           0      -14.481697   -2.249509    0.423889
     59          9           0      -15.105007   -3.332021    0.923661
     60          6           0      -13.099533   -2.293719    0.258527
     61          6           0      -16.717659   -0.964973    0.290085
     62          6           0      -17.397895   -0.027427    0.899462
     63          6           0      -18.859620   -0.254318    0.864515
     64          6           0      -19.138099   -1.416039    0.103624
     65         16           0      -17.720079   -2.151990   -0.487276
     66          1           0       19.956089   -1.977442    0.507383
     67          1           0       18.906471    0.081833   -0.514890
     68          1           0       18.569559   -3.972985    1.082028
     69          1           0       14.306231   -3.707357   -1.377863
     70          1           0       11.721693   -3.108973   -1.491773
     71          1           0       11.615321    1.339011   -1.142568
     72          1           0        9.988505   -2.236712    0.617292
     73          1           0        7.889816    3.534195    1.025925
     74          1           0        5.296141    4.173625    1.155170
     75          1           0        3.218496    4.176197   -0.479476
     76          1           0        3.128796    0.140834    1.269853
     77          1           0       -1.307498    4.202170    1.255299
     78          1           0       -3.901091    3.751841    1.096001
     79          1           0       -5.561234    2.898564   -0.787542
     80          1           0       -4.109223   -0.856750    0.780451
     81          1           0       -8.104079   -2.606852   -1.489050
     82          1           0      -10.645709   -3.193214   -1.372402
     83          1           0      -12.632091    0.843583   -0.988314
     84          1           0      -12.590949   -3.152690    0.457633
     85          1           0      -17.026846    0.828621    1.412773
     86          1           0      -19.560593    0.325427    1.286645
     87          1           0      -20.079082   -1.825641   -0.102714
 ---------------------------------------------------------------------
 Rotational constants (GHZ):           0.1234398           0.0040515           0.0039470
 Leave Link  202 at Sat Jul 25 11:00:05 2020, MaxMem=  4026531840 cpu:               0.1 elap:               0.0
 (Enter /opt/ohpc/pub/libs/gaussian/g16-A.03/sandybridge/g16/l301.exe)
 Standard basis: CC-pVDZ (5D, 7F)
 Ernie: Thresh=  0.10000D-02 Tol=  0.10000D-05 Strict=F.
 Ernie:  170 primitive shells out of 1680 were deleted.
 There are  1105 symmetry adapted cartesian basis functions of A   symmetry.
 There are  1040 symmetry adapted basis functions of A   symmetry.
  1040 basis functions,  2489 primitive gaussians,  1105 cartesian basis functions
   246 alpha electrons      246 beta electrons
       nuclear repulsion energy      8537.7465568278 Hartrees.
 IExCor=32609 DFT=T Ex+Corr=LC-wPBE ExCW=0 ScaHFX=  1.000000
 ScaDFX=  1.000000  0.000000  1.000000  1.000000 ScalE2=  1.000000  1.000000
 IRadAn=      5 IRanWt=     -1 IRanGd=            0 ICorTp=0 IEmpDi=  4
 HFx  wShort=  0.000000 wLong=  0.073400 cFull=  0.000000 cShort=  0.000000 cLong=  1.000000
 DFx  wShort=  0.000000 wLong=  0.073400 cFull=  0.000000 cShort=  0.000000 cLong=  1.000000
 NAtoms=   87 NActive=   87 NUniq=   87 SFac= 1.00D+00 NAtFMM=   60 NAOKFM=T Big=T
 Integral buffers will be    131072 words long.
 Raffenetti 2 integral format.
 Two-electron integral symmetry is turned on.
 Leave Link  301 at Sat Jul 25 11:00:05 2020, MaxMem=  4026531840 cpu:               0.5 elap:               0.1
 (Enter /opt/ohpc/pub/libs/gaussian/g16-A.03/sandybridge/g16/l302.exe)
 NPDir=0 NMtPBC=     1 NCelOv=     1 NCel=       1 NClECP=     1 NCelD=      1
         NCelK=      1 NCelE2=     1 NClLst=     1 CellRange=     0.0.
 One-electron integrals computed using PRISM.
 One-electron integral symmetry used in STVInt
 NBasis=  1040 RedAO= T EigKep=  3.43D-04  NBF=  1040
 NBsUse=  1040 1.00D-06 EigRej= -1.00D+00 NBFU=  1040
 Precomputing XC quadrature grid using
 IXCGrd= 4 IRadAn=           5 IRanWt=          -1 IRanGd=           0 AccXCQ= 0.00D+00.
 Generated NRdTot=       0 NPtTot=           0 NUsed=           0 NTot=          32
 NSgBfM=   635   635   635   635   635 MxSgAt=    87 MxSgA2=    75.
 Leave Link  302 at Sat Jul 25 11:00:08 2020, MaxMem=  4026531840 cpu:              27.4 elap:               3.5
 (Enter /opt/ohpc/pub/libs/gaussian/g16-A.03/sandybridge/g16/l303.exe)
 DipDrv:  MaxL=1.
 Leave Link  303 at Sat Jul 25 11:00:09 2020, MaxMem=  4026531840 cpu:               1.8 elap:               0.3
 (Enter /opt/ohpc/pub/libs/gaussian/g16-A.03/sandybridge/g16/l401.exe)
 ExpMin= 1.22D-01 ExpMax= 1.11D+05 ExpMxC= 1.07D+03 IAcc=3 IRadAn=         5 AccDes= 0.00D+00
 Harris functional with IExCor=32609 and IRadAn=       5 diagonalized for initial guess.
 HarFok:  IExCor=32609 AccDes= 0.00D+00 IRadAn=         5 IDoV= 1 UseB2=F ITyADJ=14
 ICtDFT=  3500011 ScaDFX=  1.000000  1.000000  1.000000  1.000000
 FoFCou: FMM=F IPFlag=           0 FMFlag=      100000 FMFlg1=        2001
         NFxFlg=           0 DoJE=T BraDBF=F KetDBF=T FulRan=T
         wScrn=  0.000000 ICntrl=       500 IOpCl=  0 I1Cent=   200000004 NGrid=           0
         NMat0=    1 NMatS0=      1 NMatT0=    0 NMatD0=    1 NMtDS0=    0 NMtDT0=    0
 Petite list used in FoFCou.
 Harris En= -4904.65702259939    
 JPrj=0 DoOrth=F DoCkMO=F.
 Initial guess <Sx>= 0.0000 <Sy>= 0.0000 <Sz>= 0.0000 <S**2>=-0.0000 S=-0.0000
 Leave Link  401 at Sat Jul 25 11:00:20 2020, MaxMem=  4026531840 cpu:              91.7 elap:              11.6
 (Enter /opt/ohpc/pub/libs/gaussian/g16-A.03/sandybridge/g16/l502.exe)
 Integral symmetry usage will be decided dynamically.
 UHF open shell SCF:
 Using DIIS extrapolation, IDIIS=  1040.
 NGot=  4026531840 LenX=  4024070119 LenY=  4022847989
 Requested convergence on RMS density matrix=1.00D-08 within 128 cycles.
 Requested convergence on MAX density matrix=1.00D-06.
 Requested convergence on             energy=1.00D-06.
 No special actions if energy rises.
 Fock matrices will be formed incrementally for  20 cycles.
 Integral accuracy reduced to 1.0D-05 until final iterations.

 Cycle   1  Pass 0  IDiag  1:
 FoFJK:  IHMeth= 1 ICntrl=       0 DoSepK=T KAlg= 0 I1Cent=           0 FoldK=F
 IRaf=         1 NMat=       1 IRICut=       1 DoRegI=T DoRafI=F ISym2E= 0 IDoP0=0 IntGTp=1.
 FoFCou: FMM=T IPFlag=           0 FMFlag=      100000 FMFlg1=        2001
         NFxFlg=           0 DoJE=T BraDBF=F KetDBF=F FulRan=T
         wScrn=  0.000000 ICntrl=       500 IOpCl=  0 I1Cent=           0 NGrid=           0
         NMat0=    1 NMatS0=      1 NMatT0=    0 NMatD0=    1 NMtDS0=    0 NMtDT0=    0
 Symmetry not used in FoFCou.
 FMM levels:  10  Number of levels for PrismC:   9
 E= -4903.10827367835    
 DIIS: error= 1.41D-02 at cycle   1 NSaved=   1.
 NSaved= 1 IEnMin= 1 EnMin= -4903.10827367835     IErMin= 1 ErrMin= 1.41D-02
 ErrMax= 1.41D-02  0.00D+00 EMaxC= 1.00D-01 BMatC= 4.53D+00 BMatP= 4.53D+00
 IDIUse=3 WtCom= 8.59D-01 WtEn= 1.41D-01
 Coeff-Com:  0.100D+01
 Coeff-En:   0.100D+01
 Coeff:      0.100D+01
 Gap=     0.202 Goal=   None    Shift=    0.000
 Gap=     0.202 Goal=   None    Shift=    0.000
 GapD=    0.202 DampG=1.000 DampE=0.500 DampFc=0.5000 IDamp=-1.
 Damping current iteration by 5.00D-01
 RMSDP=3.01D-03 MaxDP=1.86D-01              OVMax= 3.23D-01

 Cycle   2  Pass 0  IDiag  1:
 RMSU=  1.50D-03    CP:  9.93D-01
 E= -4903.42252064493     Delta-E=       -0.314246966587 Rises=F Damp=T
 DIIS: error= 6.18D-03 at cycle   2 NSaved=   2.
 NSaved= 2 IEnMin= 2 EnMin= -4903.42252064493     IErMin= 2 ErrMin= 6.18D-03
 ErrMax= 6.18D-03  0.00D+00 EMaxC= 1.00D-01 BMatC= 6.53D-01 BMatP= 4.53D+00
 IDIUse=3 WtCom= 9.38D-01 WtEn= 6.18D-02
 Coeff-Com:  0.235D+00 0.765D+00
 Coeff-En:   0.380D+00 0.620D+00
 Coeff:      0.244D+00 0.756D+00
 Gap=     0.249 Goal=   None    Shift=    0.000
 Gap=     0.249 Goal=   None    Shift=    0.000
 RMSDP=9.81D-04 MaxDP=4.59D-02 DE=-3.14D-01 OVMax= 2.92D-01

 Cycle   3  Pass 0  IDiag  1:
 RMSU=  8.84D-04    CP:  9.96D-01  7.18D-01
 E= -4904.32555596794     Delta-E=       -0.903035323008 Rises=F Damp=F
 DIIS: error= 3.51D-03 at cycle   3 NSaved=   3.
 NSaved= 3 IEnMin= 3 EnMin= -4904.32555596794     IErMin= 3 ErrMin= 3.51D-03
 ErrMax= 3.51D-03  0.00D+00 EMaxC= 1.00D-01 BMatC= 3.08D-01 BMatP= 6.53D-01
 IDIUse=3 WtCom= 9.65D-01 WtEn= 3.51D-02
 Coeff-Com:  0.994D-01 0.423D+00 0.478D+00
 Coeff-En:   0.000D+00 0.000D+00 0.100D+01
 Coeff:      0.959D-01 0.408D+00 0.496D+00
 Gap=     0.175 Goal=   None    Shift=    0.000
 Gap=     0.175 Goal=   None    Shift=    0.000
 RMSDP=4.05D-04 MaxDP=2.99D-02 DE=-9.03D-01 OVMax= 5.74D-02

 Cycle   4  Pass 0  IDiag  1:
 RMSU=  2.91D-04    CP:  9.97D-01  7.76D-01  6.98D-01
 E= -4904.39435785900     Delta-E=       -0.068801891061 Rises=F Damp=F
 DIIS: error= 1.64D-03 at cycle   4 NSaved=   4.
 NSaved= 4 IEnMin= 4 EnMin= -4904.39435785900     IErMin= 4 ErrMin= 1.64D-03
 ErrMax= 1.64D-03  0.00D+00 EMaxC= 1.00D-01 BMatC= 5.65D-02 BMatP= 3.08D-01
 IDIUse=3 WtCom= 9.84D-01 WtEn= 1.64D-02
 Coeff-Com:  0.343D-01 0.150D+00 0.306D+00 0.509D+00
 Coeff-En:   0.000D+00 0.000D+00 0.153D+00 0.847D+00
 Coeff:      0.337D-01 0.148D+00 0.303D+00 0.515D+00
 Gap=     0.174 Goal=   None    Shift=    0.000
 Gap=     0.174 Goal=   None    Shift=    0.000
 RMSDP=1.60D-04 MaxDP=1.38D-02 DE=-6.88D-02 OVMax= 2.38D-02

 Cycle   5  Pass 0  IDiag  1:
 RMSU=  1.09D-04    CP:  9.96D-01  7.61D-01  7.17D-01  6.10D-01
 E= -4904.40679819788     Delta-E=       -0.012440338882 Rises=F Damp=F
 DIIS: error= 5.29D-04 at cycle   5 NSaved=   5.
 NSaved= 5 IEnMin= 5 EnMin= -4904.40679819788     IErMin= 5 ErrMin= 5.29D-04
 ErrMax= 5.29D-04  0.00D+00 EMaxC= 1.00D-01 BMatC= 9.53D-03 BMatP= 5.65D-02
 IDIUse=3 WtCom= 9.95D-01 WtEn= 5.29D-03
 Coeff-Com:  0.875D-02 0.288D-01 0.118D+00 0.336D+00 0.509D+00
 Coeff-En:   0.000D+00 0.000D+00 0.000D+00 0.142D+00 0.858D+00
 Coeff:      0.870D-02 0.286D-01 0.118D+00 0.334D+00 0.511D+00
 Gap=     0.175 Goal=   None    Shift=    0.000
 Gap=     0.175 Goal=   None    Shift=    0.000
 RMSDP=6.10D-05 MaxDP=5.13D-03 DE=-1.24D-02 OVMax= 9.51D-03

 Cycle   6  Pass 0  IDiag  1:
 RMSU=  3.74D-05    CP:  9.96D-01  7.60D-01  7.30D-01  6.95D-01  6.33D-01
 E= -4904.40896905769     Delta-E=       -0.002170859801 Rises=F Damp=F
 DIIS: error= 1.77D-04 at cycle   6 NSaved=   6.
 NSaved= 6 IEnMin= 6 EnMin= -4904.40896905769     IErMin= 6 ErrMin= 1.77D-04
 ErrMax= 1.77D-04  0.00D+00 EMaxC= 1.00D-01 BMatC= 9.43D-04 BMatP= 9.53D-03
 IDIUse=3 WtCom= 9.98D-01 WtEn= 1.77D-03
 Coeff-Com:  0.249D-02-0.137D-02 0.364D-01 0.146D+00 0.305D+00 0.512D+00
 Coeff-En:   0.000D+00 0.000D+00 0.000D+00 0.000D+00 0.357D-01 0.964D+00
 Coeff:      0.248D-02-0.137D-02 0.363D-01 0.146D+00 0.305D+00 0.512D+00
 Gap=     0.175 Goal=   None    Shift=    0.000
 Gap=     0.175 Goal=   None    Shift=    0.000
 RMSDP=2.50D-05 MaxDP=1.68D-03 DE=-2.17D-03 OVMax= 3.15D-03

 Cycle   7  Pass 0  IDiag  1:
 RMSU=  2.21D-05    CP:  9.96D-01  7.59D-01  7.35D-01  6.96D-01  6.98D-01
                    CP:  7.80D-01
 E= -4904.40918450142     Delta-E=       -0.000215443735 Rises=F Damp=F
 DIIS: error= 7.47D-05 at cycle   7 NSaved=   7.
 NSaved= 7 IEnMin= 7 EnMin= -4904.40918450142     IErMin= 7 ErrMin= 7.47D-05
 ErrMax= 7.47D-05  0.00D+00 EMaxC= 1.00D-01 BMatC= 1.29D-04 BMatP= 9.43D-04
 IDIUse=1 WtCom= 1.00D+00 WtEn= 0.00D+00
 Coeff-Com:  0.713D-03-0.574D-02 0.555D-02 0.424D-01 0.113D+00 0.308D+00
 Coeff-Com:  0.536D+00
 Coeff:      0.713D-03-0.574D-02 0.555D-02 0.424D-01 0.113D+00 0.308D+00
 Coeff:      0.536D+00
 Gap=     0.175 Goal=   None    Shift=    0.000
 Gap=     0.175 Goal=   None    Shift=    0.000
 RMSDP=2.08D-05 MaxDP=7.09D-04 DE=-2.15D-04 OVMax= 9.65D-04

 Cycle   8  Pass 0  IDiag  1:
 RMSU=  1.86D-05    CP:  9.96D-01  7.58D-01  7.35D-01  7.01D-01  7.07D-01
                    CP:  9.81D-01  1.20D+00
 E= -4904.40921536656     Delta-E=       -0.000030865136 Rises=F Damp=F
 DIIS: error= 7.42D-05 at cycle   8 NSaved=   8.
 NSaved= 8 IEnMin= 8 EnMin= -4904.40921536656     IErMin= 8 ErrMin= 7.42D-05
 ErrMax= 7.42D-05  0.00D+00 EMaxC= 1.00D-01 BMatC= 3.25D-05 BMatP= 1.29D-04
 IDIUse=1 WtCom= 1.00D+00 WtEn= 0.00D+00
 Coeff-Com:  0.546D-03-0.424D-02 0.363D-02 0.281D-01 0.747D-01 0.210D+00
 Coeff-Com:  0.391D+00 0.296D+00
 Coeff:      0.546D-03-0.424D-02 0.363D-02 0.281D-01 0.747D-01 0.210D+00
 Coeff:      0.391D+00 0.296D+00
 Gap=     0.175 Goal=   None    Shift=    0.000
 Gap=     0.175 Goal=   None    Shift=    0.000
 RMSDP=1.47D-05 MaxDP=5.48D-04 DE=-3.09D-05 OVMax= 2.01D-04

 Cycle   9  Pass 0  IDiag  1:
 RMSU=  9.81D-06    CP:  9.96D-01  7.58D-01  7.36D-01  7.03D-01  7.14D-01
                    CP:  1.06D+00  1.59D+00  1.32D+00
 E= -4904.40921780233     Delta-E=       -0.000002435769 Rises=F Damp=F
 DIIS: error= 1.04D-04 at cycle   9 NSaved=   9.
 NSaved= 9 IEnMin= 9 EnMin= -4904.40921780233     IErMin= 8 ErrMin= 7.42D-05
 ErrMax= 1.04D-04  0.00D+00 EMaxC= 1.00D-01 BMatC= 4.35D-05 BMatP= 3.25D-05
 IDIUse=1 WtCom= 1.00D+00 WtEn= 0.00D+00
 Coeff-Com:  0.552D-03-0.470D-02 0.323D-02 0.280D-01 0.762D-01 0.223D+00
 Coeff-Com:  0.442D+00 0.589D+00-0.357D+00
 Coeff:      0.552D-03-0.470D-02 0.323D-02 0.280D-01 0.762D-01 0.223D+00
 Coeff:      0.442D+00 0.589D+00-0.357D+00
 Gap=     0.175 Goal=   None    Shift=    0.000
 Gap=     0.175 Goal=   None    Shift=    0.000
 RMSDP=1.43D-05 MaxDP=4.68D-04 DE=-2.44D-06 OVMax= 6.18D-05

 Cycle  10  Pass 0  IDiag  1:
 RMSU=  9.66D-06    CP:  9.96D-01  7.58D-01  7.36D-01  7.02D-01  7.10D-01
                    CP:  9.90D-01  1.35D+00  8.97D-01  6.11D-01
 E= -4904.40921720945     Delta-E=        0.000000592874 Rises=F Damp=F
 DIIS: error= 9.77D-05 at cycle  10 NSaved=  10.
 NSaved=10 IEnMin= 9 EnMin= -4904.40921780233     IErMin= 8 ErrMin= 7.42D-05
 ErrMax= 9.77D-05  0.00D+00 EMaxC= 1.00D-01 BMatC= 3.88D-05 BMatP= 3.25D-05
 IDIUse=1 WtCom= 1.00D+00 WtEn= 0.00D+00
 Coeff-Com:  0.498D-03-0.423D-02 0.259D-02 0.233D-01 0.637D-01 0.191D+00
 Coeff-Com:  0.393D+00 0.672D+00-0.698D+00 0.356D+00
 Coeff:      0.498D-03-0.423D-02 0.259D-02 0.233D-01 0.637D-01 0.191D+00
 Coeff:      0.393D+00 0.672D+00-0.698D+00 0.356D+00
 Gap=     0.175 Goal=   None    Shift=    0.000
 Gap=     0.175 Goal=   None    Shift=    0.000
 RMSDP=1.26D-05 MaxDP=4.38D-04 DE= 5.93D-07 OVMax= 4.45D-05

 Cycle  11  Pass 0  IDiag  1:
 RMSU=  1.02D-05    CP:  9.96D-01  7.58D-01  7.35D-01  7.02D-01  7.09D-01
                    CP:  9.68D-01  1.27D+00  8.20D-01 -9.06D-02  1.13D+00
 E= -4904.40921751697     Delta-E=       -0.000000307517 Rises=F Damp=F
[...]
    28 C(13)  Bbb     0.0000     0.000     0.000     0.000  0.0462 -0.4044  0.9134
              Bcc     0.0000     0.000     0.000     0.000 -0.0321  0.9133  0.4060
 
              Baa    -0.0000    -0.000    -0.000    -0.000  0.9984 -0.0468 -0.0317
    29 C(13)  Bbb     0.0000     0.000     0.000     0.000  0.0354  0.0797  0.9962
              Bcc     0.0000     0.000     0.000     0.000  0.0441  0.9957 -0.0813
 
              Baa    -0.0000    -0.000    -0.000    -0.000  0.0695  0.9971 -0.0299
    30 F(19)  Bbb     0.0000     0.000     0.000     0.000  0.8631 -0.0752 -0.4995
              Bcc     0.0000     0.000     0.000     0.000  0.5003 -0.0089  0.8658
 
              Baa    -0.0000    -0.000    -0.000    -0.000  0.0442  0.9971 -0.0624
    31 C(13)  Bbb    -0.0000    -0.000    -0.000    -0.000  0.9982 -0.0416  0.0429
              Bcc     0.0000     0.000     0.000     0.000 -0.0402  0.0642  0.9971
 
              Baa    -0.0000    -0.000    -0.000    -0.000  0.8423 -0.5335  0.0770
    32 C(13)  Bbb     0.0000     0.000     0.000     0.000  0.3817  0.6911  0.6137
              Bcc     0.0000     0.000     0.000     0.000 -0.3806 -0.4876  0.7858
 
              Baa    -0.0000    -0.000    -0.000    -0.000  0.5810  0.7980 -0.1603
    33 F(19)  Bbb     0.0000     0.000     0.000     0.000  0.7986 -0.5209  0.3013
              Bcc     0.0000     0.000     0.000     0.000 -0.1569  0.3031  0.9400
 
              Baa    -0.0000    -0.000    -0.000    -0.000  0.9962  0.0664 -0.0564
    34 C(13)  Bbb     0.0000     0.000     0.000     0.000  0.0485  0.1153  0.9921
              Bcc     0.0000     0.000     0.000     0.000 -0.0724  0.9911 -0.1116
 
              Baa    -0.0000    -0.000    -0.000    -0.000 -0.0140 -0.0001  0.9999
    35 C(13)  Bbb    -0.0000    -0.000    -0.000    -0.000 -0.0596  0.9982 -0.0007
              Bcc     0.0000     0.000     0.000     0.000  0.9981  0.0596  0.0140
 
              Baa    -0.0000    -0.000    -0.000    -0.000 -0.6890  0.7166 -0.1082
    36 C(13)  Bbb     0.0000     0.000     0.000     0.000  0.7216  0.6644 -0.1948
              Bcc     0.0000     0.000     0.000     0.000  0.0677  0.2123  0.9749
 
              Baa    -0.0000    -0.000    -0.000    -0.000  0.8434  0.5366  0.0263
    37 C(13)  Bbb     0.0000     0.000     0.000     0.000 -0.0220 -0.0143  0.9997
              Bcc     0.0000     0.000     0.000     0.000 -0.5368  0.8437  0.0003
 
              Baa    -0.0000    -0.000    -0.000    -0.000  0.2258  0.9742 -0.0070
    38 C(13)  Bbb     0.0000     0.000     0.000     0.000  0.8786 -0.2005  0.4333
              Bcc     0.0000     0.000     0.000     0.000 -0.4207  0.1040  0.9012
 
              Baa    -0.0000    -0.000    -0.000    -0.000  0.8017 -0.4715 -0.3674
    39 S(33)  Bbb    -0.0000    -0.000    -0.000    -0.000  0.3419 -0.1426  0.9289
              Bcc     0.0000     0.000     0.000     0.000  0.4904  0.8702 -0.0469
 
              Baa    -0.0000    -0.000    -0.000    -0.000  0.9739  0.2268  0.0109
    40 C(13)  Bbb     0.0000     0.000     0.000     0.000 -0.2180  0.9472 -0.2350
              Bcc     0.0000     0.000     0.000     0.000 -0.0636  0.2265  0.9719
 
              Baa    -0.0000    -0.000    -0.000    -0.000  0.2461  0.9595 -0.1368
    41 C(13)  Bbb     0.0000     0.000     0.000     0.000  0.7632 -0.1048  0.6376
              Bcc     0.0000     0.000     0.000     0.000 -0.5975  0.2613  0.7581
 
              Baa    -0.0000    -0.000    -0.000    -0.000 -0.1358  0.2693  0.9534
    42 C(13)  Bbb    -0.0000    -0.000    -0.000    -0.000  0.8367 -0.4841  0.2559
              Bcc     0.0000     0.000     0.000     0.000  0.5305  0.8325 -0.1596
 
              Baa    -0.0000    -0.000    -0.000    -0.000 -0.4105  0.8820 -0.2314
    43 F(19)  Bbb    -0.0000    -0.000    -0.000    -0.000 -0.0504  0.2314  0.9716
              Bcc     0.0000     0.000     0.000     0.000  0.9105  0.4105 -0.0505
 
              Baa    -0.0000    -0.000    -0.000    -0.000  0.9574  0.2855  0.0438
    44 C(13)  Bbb    -0.0000    -0.000    -0.000    -0.000 -0.1070  0.2095  0.9719
              Bcc     0.0000     0.000     0.000     0.000 -0.2683  0.9352 -0.2311
 
              Baa    -0.0000    -0.000    -0.000    -0.000 -0.1957  0.7208 -0.6649
    45 C(13)  Bbb    -0.0000    -0.000    -0.000    -0.000 -0.1172  0.6560  0.7456
              Bcc     0.0000     0.000     0.000     0.000  0.9736  0.2238 -0.0439
 
              Baa    -0.0000    -0.000    -0.000    -0.000  0.7567 -0.6087 -0.2387
    46 F(19)  Bbb    -0.0000    -0.000    -0.000    -0.000  0.3947  0.1343  0.9089
              Bcc     0.0000     0.000     0.000     0.000  0.5212  0.7820 -0.3418
 
              Baa    -0.0000    -0.000    -0.000    -0.000  0.3416  0.8709 -0.3533
    47 C(13)  Bbb     0.0000     0.000     0.000     0.000 -0.0626  0.3961  0.9161
              Bcc     0.0000     0.000     0.000     0.000  0.9377 -0.2908  0.1899
 
              Baa    -0.0000    -0.000    -0.000    -0.000  0.9225  0.3778 -0.0793
    48 C(13)  Bbb     0.0000     0.000     0.000     0.000 -0.3441  0.7117 -0.6124
              Bcc     0.0000     0.000     0.000     0.000 -0.1749  0.5922  0.7866
 
              Baa    -0.0000    -0.000    -0.000    -0.000  0.0538  0.3901  0.9192
    49 C(13)  Bbb    -0.0000    -0.000    -0.000    -0.000  0.8799  0.4167 -0.2284
              Bcc     0.0000     0.000     0.000     0.000 -0.4722  0.8211 -0.3208
 
              Baa    -0.0000    -0.000    -0.000    -0.000 -0.1069  0.2317  0.9669
    50 C(13)  Bbb     0.0000     0.000     0.000     0.000  0.9017 -0.3872  0.1924
              Bcc     0.0000     0.000     0.000     0.000  0.4190  0.8924 -0.1675
 
              Baa    -0.0000    -0.000    -0.000    -0.000  0.9801 -0.1194  0.1588
    51 C(13)  Bbb     0.0000     0.000     0.000     0.000  0.1631  0.9399 -0.2998
              Bcc     0.0000     0.000     0.000     0.000 -0.1135  0.3197  0.9407
 
              Baa    -0.0000    -0.000    -0.000    -0.000  0.9450 -0.2965 -0.1380
    52 S(33)  Bbb    -0.0000    -0.000    -0.000    -0.000  0.1190 -0.0811  0.9896
              Bcc     0.0000     0.000     0.000     0.000  0.3046  0.9516  0.0413
 
              Baa    -0.0000    -0.000    -0.000    -0.000  0.6648  0.7470 -0.0023
    53 C(13)  Bbb     0.0000     0.000     0.000     0.000  0.7216 -0.6430 -0.2565
              Bcc     0.0000     0.000     0.000     0.000  0.1930 -0.1689  0.9665
 
              Baa    -0.0000    -0.000    -0.000    -0.000 -0.0241  0.8922 -0.4510
    54 C(13)  Bbb     0.0000     0.000     0.000     0.000  0.9987  0.0417  0.0290
              Bcc     0.0000     0.000     0.000     0.000 -0.0447  0.4497  0.8921
 
              Baa    -0.0000    -0.000    -0.000    -0.000  0.9122 -0.1282  0.3892
    55 C(13)  Bbb    -0.0000    -0.000    -0.000    -0.000 -0.3455  0.2703  0.8987
              Bcc     0.0000     0.000     0.000     0.000  0.2204  0.9542 -0.2023
 
              Baa    -0.0000    -0.000    -0.000    -0.000 -0.3996 -0.5718  0.7165
    56 F(19)  Bbb    -0.0000    -0.000    -0.000    -0.000  0.2365  0.6908  0.6833
              Bcc     0.0000     0.000     0.000     0.000  0.8857 -0.4424  0.1408
 
              Baa    -0.0000    -0.000    -0.000    -0.000 -0.0355  0.5033  0.8634
    57 C(13)  Bbb    -0.0000    -0.000    -0.000    -0.000  0.5670  0.7215 -0.3974
              Bcc     0.0000     0.000     0.000     0.000  0.8230 -0.4754  0.3110
 
              Baa    -0.0000    -0.000    -0.000    -0.000 -0.2107  0.4261  0.8798
    58 C(13)  Bbb    -0.0000    -0.000    -0.000    -0.000  0.6306  0.7470 -0.2107
              Bcc     0.0000     0.000     0.000     0.000  0.7470 -0.5104  0.4260
 
              Baa    -0.0000    -0.000    -0.000    -0.000  0.8083 -0.4859  0.3326
    59 F(19)  Bbb     0.0000     0.000     0.000     0.000 -0.1627  0.3584  0.9193
              Bcc     0.0000     0.000     0.000     0.000  0.5659  0.7971 -0.2107
 
              Baa    -0.0000    -0.000    -0.000    -0.000  0.0266 -0.0662  0.9974
    60 C(13)  Bbb    -0.0000    -0.000    -0.000    -0.000 -0.1773  0.9817  0.0699
              Bcc     0.0000     0.000     0.000     0.000  0.9838  0.1787 -0.0143
 
              Baa    -0.0000    -0.000    -0.000    -0.000 -0.0999  0.7920 -0.6023
    61 C(13)  Bbb    -0.0000    -0.000    -0.000    -0.000 -0.1039  0.5937  0.7979
              Bcc     0.0000     0.000     0.000     0.000  0.9896  0.1423  0.0230
 
              Baa    -0.0000    -0.000    -0.000    -0.000  0.7188  0.3891 -0.5761
    62 C(13)  Bbb     0.0000     0.000     0.000     0.000  0.0943  0.7664  0.6353
              Bcc     0.0000     0.000     0.000     0.000  0.6888 -0.5110  0.5142
 
              Baa    -0.0000    -0.000    -0.000    -0.000  0.0857  0.4074  0.9092
    63 C(13)  Bbb    -0.0000    -0.000    -0.000    -0.000  0.9001  0.3596 -0.2459
              Bcc     0.0000     0.000     0.000     0.000 -0.4271  0.8395 -0.3359
 
              Baa    -0.0000    -0.000    -0.000    -0.000 -0.1481  0.3846  0.9111
    64 C(13)  Bbb    -0.0000    -0.000    -0.000    -0.000  0.9007 -0.3279  0.2849
              Bcc     0.0000     0.000     0.000     0.000  0.4083  0.8629 -0.2979
 
              Baa    -0.0000    -0.000    -0.000    -0.000  0.8513  0.1521  0.5022
    65 S(33)  Bbb    -0.0000    -0.000    -0.000    -0.000 -0.5149  0.4268  0.7435
              Bcc     0.0000     0.000     0.000     0.000  0.1012  0.8915 -0.4416
 
              Baa    -0.0000    -0.000    -0.000    -0.000 -0.1947 -0.1934  0.9616
    66 H(1)   Bbb     0.0000     0.000     0.000     0.000  0.9664 -0.2056  0.1543
              Bcc     0.0000     0.000     0.000     0.000  0.1679  0.9593  0.2269
 
              Baa    -0.0000    -0.000    -0.000    -0.000  0.9180 -0.3599 -0.1666
    67 H(1)   Bbb    -0.0000    -0.000    -0.000    -0.000  0.0390 -0.3359  0.9411
              Bcc     0.0000     0.000     0.000     0.000  0.3947  0.8704  0.2943
 
              Baa    -0.0000    -0.000    -0.000    -0.000  0.1854 -0.3152  0.9307
    68 H(1)   Bbb    -0.0000    -0.000    -0.000    -0.000  0.9754  0.1743 -0.1353
              Bcc     0.0000     0.000     0.000     0.000 -0.1196  0.9329  0.3398
 
              Baa    -0.0000    -0.000    -0.000    -0.000 -0.2666  0.4759  0.8381
    69 H(1)   Bbb    -0.0000    -0.000    -0.000    -0.000 -0.2232  0.8155 -0.5341
              Bcc     0.0000     0.000     0.000     0.000  0.9376  0.3294  0.1112
 
              Baa    -0.0000    -0.000    -0.000    -0.000  0.4838  0.7632  0.4283
    70 H(1)   Bbb     0.0000     0.000     0.000     0.000  0.3928 -0.6267  0.6731
              Bcc     0.0000     0.000     0.000     0.000  0.7821 -0.1574 -0.6029
 
              Baa    -0.0000    -0.000    -0.000    -0.000 -0.0146 -0.0476  0.9988
    71 H(1)   Bbb    -0.0000    -0.000    -0.000    -0.000 -0.6534  0.7565  0.0265
              Bcc     0.0000     0.000     0.000     0.000  0.7568  0.6522  0.0421
 
              Baa    -0.0000    -0.000    -0.000    -0.000  0.9701  0.0261  0.2413
    72 H(1)   Bbb    -0.0000    -0.000    -0.000    -0.000 -0.2361 -0.1282  0.9632
              Bcc     0.0000     0.000     0.000     0.000 -0.0561  0.9914  0.1182
 
              Baa    -0.0000    -0.000    -0.000    -0.000  0.8271  0.5602  0.0463
    73 H(1)   Bbb     0.0000     0.000     0.000     0.000 -0.5593  0.8119  0.1673
              Bcc     0.0000     0.000     0.000     0.000  0.0561 -0.1643  0.9848
 
              Baa    -0.0000    -0.000    -0.000    -0.000 -0.3294  0.9241  0.1937
    74 H(1)   Bbb     0.0000     0.000     0.000     0.000 -0.1031 -0.2391  0.9655
              Bcc     0.0000     0.000     0.000     0.000  0.9385  0.2981  0.1740
 
              Baa    -0.0000    -0.000    -0.000    -0.000 -0.2462  0.2458  0.9375
    75 H(1)   Bbb     0.0000     0.000     0.000     0.000 -0.5749  0.7417 -0.3455
              Bcc     0.0000     0.000     0.000     0.000  0.7803  0.6241  0.0413
 
              Baa    -0.0000    -0.000    -0.000    -0.000  0.1269  0.0144  0.9918
    76 H(1)   Bbb     0.0000     0.000     0.000     0.000 -0.1615  0.9869  0.0063
              Bcc     0.0000     0.000     0.000     0.000  0.9787  0.1610 -0.1275
 
              Baa    -0.0000    -0.000    -0.000    -0.000  0.1595  0.0980  0.9823
    77 H(1)   Bbb    -0.0000    -0.000    -0.000    -0.000  0.9428  0.2798 -0.1810
              Bcc     0.0000     0.000     0.000     0.000 -0.2926  0.9550 -0.0478
 
              Baa    -0.0000    -0.000    -0.000    -0.000  0.2034  0.2026  0.9579
    78 H(1)   Bbb    -0.0000    -0.000    -0.000    -0.000  0.4394  0.8554 -0.2743
              Bcc     0.0000     0.000     0.000     0.000  0.8750 -0.4767 -0.0850
 
              Baa    -0.0000    -0.000    -0.000    -0.000 -0.3017  0.2731  0.9135
    79 H(1)   Bbb    -0.0000    -0.000    -0.000    -0.000  0.9511  0.1531  0.2683
              Bcc     0.0000     0.000     0.000     0.000 -0.0666  0.9497 -0.3059
 
              Baa    -0.0000    -0.000    -0.000    -0.000  0.9517 -0.2548  0.1714
    80 H(1)   Bbb    -0.0000    -0.000    -0.000    -0.000  0.2890  0.9318 -0.2196
              Bcc     0.0000     0.000     0.000     0.000 -0.1038  0.2585  0.9604
 
              Baa    -0.0000    -0.000    -0.000    -0.000  0.7055  0.7060 -0.0628
    81 H(1)   Bbb    -0.0000    -0.000    -0.000    -0.000 -0.0886  0.1757  0.9805
              Bcc     0.0000     0.000     0.000     0.000  0.7032 -0.6861  0.1865
 
              Baa    -0.0000    -0.000    -0.000    -0.000  0.0751  0.1584  0.9845
    82 H(1)   Bbb    -0.0000    -0.000    -0.000    -0.000  0.9736 -0.2251 -0.0381
              Bcc     0.0000     0.000     0.000     0.000  0.2156  0.9614 -0.1711
 
              Baa    -0.0000    -0.000    -0.000    -0.000  0.6262  0.7618 -0.1657
    83 H(1)   Bbb    -0.0000    -0.000    -0.000    -0.000 -0.3874  0.4885  0.7818
              Bcc     0.0000     0.000     0.000     0.000  0.6766 -0.4254  0.6011
 
              Baa    -0.0000    -0.000    -0.000    -0.000 -0.5624  0.8266  0.0211
    84 H(1)   Bbb    -0.0000    -0.000    -0.000    -0.000  0.2383  0.1376  0.9614
              Bcc     0.0000     0.000     0.000     0.000  0.7918  0.5457 -0.2743
 
              Baa    -0.0000    -0.000    -0.000    -0.000  0.5034  0.7610 -0.4092
    85 H(1)   Bbb    -0.0000    -0.000    -0.000    -0.000  0.8631 -0.4200  0.2805
              Bcc     0.0000     0.000     0.000     0.000 -0.0416  0.4944  0.8682
 
              Baa    -0.0000    -0.000    -0.000    -0.000 -0.1142  0.4603  0.8804
    86 H(1)   Bbb    -0.0000    -0.000    -0.000    -0.000  0.6127  0.7302 -0.3023
              Bcc     0.0000     0.000     0.000     0.000  0.7820 -0.5049  0.3654
 
              Baa    -0.0000    -0.000    -0.000    -0.000 -0.0279  0.5445  0.8383
    87 H(1)   Bbb    -0.0000    -0.000    -0.000    -0.000 -0.3472  0.7811 -0.5189
              Bcc     0.0000     0.000     0.000     0.000  0.9374  0.3055 -0.1673
 

 ---------------------------------------------------------------------------------

 No NMR shielding tensors so no spin-rotation constants.
 Leave Link  601 at Sat Jul 25 17:08:05 2020, MaxMem=  4026531840 cpu:              19.0 elap:               4.0
 (Enter /opt/ohpc/pub/libs/gaussian/g16-A.03/sandybridge/g16/l9999.exe)

 Test job not archived.
 1\1\GINC-SKYLAKE039\FOpt\ULC-wPBE\CC-pVDZ\C50H22F10S5\RDU230\25-Jul-20
 20\0\\#P uLC-wPBE/cc-pVDZ iop(3/107=0073400000, 3/108=0073400000) opt\
 \H22 C50 S5 F10\\0,1\C,-19.1307543378,-2.194861203,0.0928485097\C,-18.
 4596817408,-1.014656066,-0.249934833\C,-17.0717466212,-0.9667202694,-0
 .1311307357\F,-16.4567439989,0.197070628,-0.4757758251\C,-16.265773080
 9,-2.0431489301,0.3209011741\C,-17.0116196938,-3.2069897522,0.64913098
 88\F,-16.3545961287,-4.3112397683,1.0924481678\C,-18.3990754286,-3.300
 0222386,0.5458155473\C,-14.8066590243,-1.9689725897,0.441076976\C,-13.
 9183723258,-2.9401973494,0.9110535269\C,-12.5624666387,-2.5379613766,0
 .8856828927\C,-12.3688615978,-1.2495644133,0.3981178361\S,-13.90384217
 44,-0.5307820144,-0.040984505\C,-11.1149346469,-0.5137209596,0.2361132
 033\C,-11.0903342657,0.8790666917,0.0002086115\C,-9.8813417401,1.54893
 65051,-0.1473954341\F,-9.9524372285,2.8884629372,-0.3663356762\C,-8.60
 52638972,0.9285483186,-0.0736877284\C,-8.6888376849,-0.467738703,0.167
 6654673\F,-7.5286372905,-1.1738105992,0.2544218443\C,-9.8715819525,-1.
 1804828686,0.3154367767\C,-7.3467640238,1.656071192,-0.2316984465\C,-7
 .1504124331,3.0110626549,-0.5163653489\C,-5.7901130769,3.3893476563,-0
 .5922725006\C,-4.9022146298,2.3410959225,-0.3701821201\S,-5.7811413441
 ,0.8589276969,-0.0566565951\C,-3.4400431707,2.3668198727,-0.3753666273
 \C,-2.7397396408,3.5947826515,-0.3565870201\C,-1.3507005536,3.61374732
 83,-0.3675902326\F,-0.7607044983,4.8386396447,-0.3423907889\C,-0.52966
 54911,2.4534765926,-0.3919154602\C,-1.2829504281,1.2512379265,-0.40432
 61426\F,-0.6070134633,0.0707913273,-0.4292948289\C,-2.6706755108,1.182
 4674584,-0.4000681986\C,0.9315895346,2.5021058565,-0.4020318045\C,1.76
 88483817,3.6217234409,-0.4356186015\C,3.147353658,3.3069607365,-0.4279
 980936\C,3.4115320558,1.9412514872,-0.3895938962\S,1.9131404302,1.0350
 160747,-0.3571833292\C,4.7068578862,1.2624204085,-0.3750368091\C,5.895
 8544301,1.9815359807,-0.1176689074\C,7.1197278453,1.3251661955,-0.1136
 442912\F,8.2227519868,2.0801102259,0.1432986878\C,7.2992931744,-0.0635
 022838,-0.3469360544\C,6.0744359427,-0.7387463242,-0.5973119298\F,6.09
 62008408,-2.0750359026,-0.8457334357\C,4.8277416425,-0.124287962,-0.61
 74847261\C,8.5989246081,-0.7332280749,-0.3309398347\C,8.8854945303,-2.
 0899266863,-0.5110481271\C,10.2636338572,-2.3993882714,-0.4390596717\C
 ,11.0757472393,-1.2950063102,-0.2011163573\S,10.1030067566,0.155443706
 7,-0.071592268\C,12.531525273,-1.2443881865,-0.0635811005\C,13.1941190
 947,-0.1151538233,0.4663248113\C,14.5795849129,-0.1003625794,0.5849482
 889\F,15.1299749199,1.0269948824,1.1094167376\C,15.4305388096,-1.17298
 6574,0.2078274755\C,14.7130068214,-2.2800266252,-0.3146011358\F,15.420
 5008269,-3.3707683141,-0.71824716\C,13.3323753881,-2.3392106665,-0.458
 346793\C,16.8879277341,-1.1334826169,0.3448106671\C,17.6918806809,-0.0
 949112891,0.8194701426\C,19.0808035487,-0.397802586,0.8204092066\C,19.
 3505967508,-1.6665490289,0.3489826394\S,17.9079697378,-2.5076894597,-0
 .10473324\H,-20.2238591734,-2.2541159342,0.0065321949\H,-18.9864738733
 ,-0.1220949272,-0.6104015561\H,-18.8798563988,-4.2463126649,0.82476722
 84\H,-14.2472465781,-3.9178049419,1.2717255893\H,-11.7438834733,-3.176
 3601249,1.2405443981\H,-12.0124972827,1.4724629611,-0.0578273239\H,-9.
 8009914507,-2.2631266666,0.4755659001\H,-7.9774684786,3.7080677674,-0.
 6723157519\H,-5.4674030374,4.4112318235,-0.8271496817\H,-3.2610213594,
 4.5589104147,-0.3148519261\H,-3.1355124207,0.1881723746,-0.4298784482\
 H,1.3864261138,4.6447649011,-0.4720922408\H,3.9340520525,4.0703464098,
 -0.4719961177\H,5.8902581794,3.0563350102,0.1003693584\H,3.9541700778,
 -0.7508095031,-0.841672458\H,8.1096318112,-2.8399173168,-0.6836416457\
 H,10.6523179113,-3.4205637164,-0.5378241491\H,12.6431845435,0.76978574
 18,0.8117870382\H,12.9014779276,-3.2463035639,-0.8992741716\H,17.28328
 60602,0.860961975,1.1569219657\H,19.8556406015,0.3013094719,1.15914615
 52\H,20.3212957107,-2.1622238257,0.2380680781\\Version=EM64L-G16RevA.0
 3\State=1-A\HF=-4904.6015133\S2=0.\S2-1=0.\S2A=0.\RMSD=3.875e-09\RMSF=
 1.116e-06\Dipole=-3.1503624,-0.0031954,0.0413597\Quadrupole=46.4296074
 ,-10.7972886,-35.6323187,14.7335121,0.450693,-1.31997\PG=C01 [X(C50H22
 F10S5)]\\@


 Sacred cows make the best hamburger.
                               -- Mark Twain
 Job cpu time:       2 days  0 hours  8 minutes  8.0 seconds.
 Elapsed time:       0 days  6 hours  7 minutes 58.0 seconds.
 File lengths (MBytes):  RWF=   1236 Int=      0 D2E=      0 Chk=    112 Scr=      8
 Normal termination of Gaussian 16 at Sat Jul 25 17:08:06 2020.
