 Entering Gaussian System, Link 0=g16
 Input=mols_65_3_08_c-cF-C_opt_0.gjf
 Output=mols_65_3_08_c-cF-C_opt_0.log
 Initial command:
 /opt/ohpc/pub/libs/gaussian/g16-A.03/sandybridge/g16/l1.exe "/mnt/gpfs2_4m/scratch/rdu230/ondemand/projects/dihedral_energies/7trial/wtuning/mols_65_3_08_c-cF-C/Gau-339149.inp" -scrdir="/mnt/gpfs2_4m/scratch/rdu230/ondemand/projects/dihedral_energies/7trial/wtuning/mols_65_3_08_c-cF-C/"
 Entering Link 1 = /opt/ohpc/pub/libs/gaussian/g16-A.03/sandybridge/g16/l1.exe PID=    339150.
  
 Copyright (c) 1988,1990,1992,1993,1995,1998,2003,2009,2016,
            Gaussian, Inc.  All Rights Reserved.
  
 This is part of the Gaussian(R) 16 program.  It is based on
 the Gaussian(R) 09 system (copyright 2009, Gaussian, Inc.),
 the Gaussian(R) 03 system (copyright 2003, Gaussian, Inc.),
 the Gaussian(R) 98 system (copyright 1998, Gaussian, Inc.),
 the Gaussian(R) 94 system (copyright 1995, Gaussian, Inc.),
 the Gaussian 92(TM) system (copyright 1992, Gaussian, Inc.),
 the Gaussian 90(TM) system (copyright 1990, Gaussian, Inc.),
 the Gaussian 88(TM) system (copyright 1988, Gaussian, Inc.),
 the Gaussian 86(TM) system (copyright 1986, Carnegie Mellon
 University), and the Gaussian 82(TM) system (copyright 1983,
 Carnegie Mellon University). Gaussian is a federally registered
 trademark of Gaussian, Inc.
  
 This software contains proprietary and confidential information,
 including trade secrets, belonging to Gaussian, Inc.
  
 This software is provided under written license and may be
 used, copied, transmitted, or stored only in accord with that
 written license.
  
 The following legend is applicable only to US Government
 contracts under FAR:
  
                    RESTRICTED RIGHTS LEGEND
  
 Use, reproduction and disclosure by the US Government is
 subject to restrictions as set forth in subparagraphs (a)
 and (c) of the Commercial Computer Software - Restricted
 Rights clause in FAR 52.227-19.
  
 Gaussian, Inc.
 340 Quinnipiac St., Bldg. 40, Wallingford CT 06492
  
  
 ---------------------------------------------------------------
 Warning -- This program may not be used in any manner that
 competes with the business of Gaussian, Inc. or will provide
 assistance to any competitor of Gaussian, Inc.  The licensee
 of this program is prohibited from giving any competitor of
 Gaussian, Inc. access to this program.  By using this program,
 the user acknowledges that Gaussian, Inc. is engaged in the
 business of creating and licensing software in the field of
 computational chemistry and represents and warrants to the
 licensee that it is not a competitor of Gaussian, Inc. and that
 it will not use this program in any manner prohibited above.
 ---------------------------------------------------------------
  

 Cite this work as:
 Gaussian 16, Revision A.03,
 M. J. Frisch, G. W. Trucks, H. B. Schlegel, G. E. Scuseria, 
 M. A. Robb, J. R. Cheeseman, G. Scalmani, V. Barone, 
 G. A. Petersson, H. Nakatsuji, X. Li, M. Caricato, A. V. Marenich, 
 J. Bloino, B. G. Janesko, R. Gomperts, B. Mennucci, H. P. Hratchian, 
 J. V. Ortiz, A. F. Izmaylov, J. L. Sonnenberg, D. Williams-Young, 
 F. Ding, F. Lipparini, F. Egidi, J. Goings, B. Peng, A. Petrone, 
 T. Henderson, D. Ranasinghe, V. G. Zakrzewski, J. Gao, N. Rega, 
 G. Zheng, W. Liang, M. Hada, M. Ehara, K. Toyota, R. Fukuda, 
 J. Hasegawa, M. Ishida, T. Nakajima, Y. Honda, O. Kitao, H. Nakai, 
 T. Vreven, K. Throssell, J. A. Montgomery, Jr., J. E. Peralta, 
 F. Ogliaro, M. J. Bearpark, J. J. Heyd, E. N. Brothers, K. N. Kudin, 
 V. N. Staroverov, T. A. Keith, R. Kobayashi, J. Normand, 
 K. Raghavachari, A. P. Rendell, J. C. Burant, S. S. Iyengar, 
 J. Tomasi, M. Cossi, J. M. Millam, M. Klene, C. Adamo, R. Cammi, 
 J. W. Ochterski, R. L. Martin, K. Morokuma, O. Farkas, 
 J. B. Foresman, and D. J. Fox, Gaussian, Inc., Wallingford CT, 2016.
 
 ******************************************
 Gaussian 16:  EM64L-G16RevA.03 25-Dec-2016
                24-Jul-2020 
 ******************************************
 %mem=30GB
 %nproc=8
 Will use up to    8 processors via shared memory.
 ---------------------------------------------------------------
 #P uLC-wPBE/cc-pVDZ iop(3/107=0178000000, 3/108=0178000000) opt
 ---------------------------------------------------------------
 1/18=20,19=15,26=3,38=1/1,3;
 2/9=110,12=2,17=6,18=5,40=1/2;
 3/5=16,11=2,25=1,30=1,71=1,74=-41,107=178000000,108=178000000,116=2/1,2,3;
 4//1;
 5/5=2,38=5/2;
 6/7=2,8=2,9=2,10=2,28=1/1;
 7//1,2,3,16;
 1/18=20,19=15,26=3/3(2);
 2/9=110/2;
 99//99;
 2/9=110/2;
 3/5=16,11=2,25=1,30=1,71=1,74=-41,107=178000000,108=178000000,116=2/1,2,3;
 4/5=5,16=3,69=1/1;
 5/5=2,38=5/2;
 7//1,2,3,16;
 1/18=20,19=15,26=3/3(-5);
 2/9=110/2;
 6/7=2,8=2,9=2,10=2,19=2,28=1/1;
 99/9=1/99;
 Leave Link    1 at Fri Jul 24 21:41:42 2020, MaxMem=  4026531840 cpu:               1.6 elap:               0.2
 (Enter /opt/ohpc/pub/libs/gaussian/g16-A.03/sandybridge/g16/l101.exe)
 -------------
 H17 C30 S3 F3
 -------------
 Symbolic Z-matrix:
 Charge =  0 Multiplicity = 1
 C                     10.57035  -2.43773  -0.64086 
 C                     10.42287  -1.34629  -1.47633 
 C                     9.32566  -0.50758  -1.32567 
 C                     8.28864  -0.78195  -0.34032 
 C                     8.44884  -1.89032   0.40845 
 F                     7.57404  -2.17956   1.36098 
 C                     9.63907  -2.75389   0.24887 
 C                     7.18627   0.19321  -0.1806 
 C                     7.17544   1.53966  -0.1164 
 C                     5.88041   2.05791   0.08735 
 C                     4.87261   1.07489  -0.05603 
 S                     5.60329  -0.50756  -0.21216 
 C                     3.44128   1.20497   0.0895 
 C                     2.79177   2.2379   -0.76329 
 C                     1.41485   2.32509  -0.65703 
 C                     0.58913   1.60872   0.16006 
 C                     1.22975   0.67027   1.0302 
 F                     0.58098  -0.08854   1.94664 
 C                     2.64233   0.52741   0.92627 
 C                    -0.78166   1.77952   0.25706 
 C                    -1.50508   2.95905   0.40729 
 C                    -2.96594   2.79001   0.45607 
 C                    -3.31064   1.45558   0.14424 
 S                    -1.93657   0.46397   0.01769 
 C                    -4.59982   0.90237   0.04216 
 C                    -5.56464   1.46342  -0.71832 
 C                    -6.85548   0.99761  -0.84994 
 C                    -7.24897  -0.26593  -0.16893 
 C                    -6.31126  -0.82064   0.64293 
 F                    -6.51083  -1.96223   1.32867 
 C                    -5.00882  -0.30189   0.7172 
 C                    -8.55095  -0.76436  -0.26872 
 C                    -9.81851  -0.09034  -0.12623 
 C                    -10.86872  -0.95595  -0.3335 
 C                    -10.50247  -2.2587   -0.74008 
 S                    -8.80458  -2.32982  -0.83887 
 H                     11.40161  -3.05664  -0.85248 
 H                     11.14127  -1.02042  -2.21855 
 H                     9.2503    0.45115  -1.96543 
 H                     9.71204  -3.61971   0.94626 
 H                     8.0763    2.08788  -0.07721 
 H                     5.59793   3.12705   0.16027 
 H                     3.36564   2.77683  -1.49833 
 H                     0.91344   3.13726  -1.36112 
 H                     3.1505   -0.23943   1.6506 
 H                    -1.0058    3.90614   0.61948 
 H                    -3.69713   3.5451    0.58992 
 H                    -5.38077   2.44162  -1.24948 
 H                    -7.61439   1.41202  -1.46662 
 H                    -4.30615  -0.7811    1.38136 
 H                    -9.92333   0.91671   0.22581 
 H                    -11.99902  -0.6799   -0.24109 
 H                    -11.15002  -3.0897   -1.05499 
 
 ITRead=  0  0  0  0  0  0  0  0  0  0  0  0  0  0  0  0  0  0  0  0
 ITRead=  0  0  0  0  0  0  0  0  0  0  0  0  0  0  0  0  0  0  0  0
 ITRead=  0  0  0  0  0  0  0  0  0  0  0  0  0
 MicOpt= -1 -1 -1 -1 -1 -1 -1 -1 -1 -1 -1 -1 -1 -1 -1 -1 -1 -1 -1 -1
 MicOpt= -1 -1 -1 -1 -1 -1 -1 -1 -1 -1 -1 -1 -1 -1 -1 -1 -1 -1 -1 -1
 MicOpt= -1 -1 -1 -1 -1 -1 -1 -1 -1 -1 -1 -1 -1
 NAtoms=     53 NQM=       53 NQMF=       0 NMMI=      0 NMMIF=      0
                NMic=       0 NMicF=      0.
                    Isotopes and Nuclear Properties:
 (Nuclear quadrupole moments (NQMom) in fm**2, nuclear magnetic moments (NMagM)
  in nuclear magnetons)

  Atom         1           2           3           4           5           6           7           8           9          10
 IAtWgt=          12          12          12          12          12          19          12          12          12          12
 AtmWgt=  12.0000000  12.0000000  12.0000000  12.0000000  12.0000000  18.9984033  12.0000000  12.0000000  12.0000000  12.0000000
 NucSpn=           0           0           0           0           0           1           0           0           0           0
 AtZEff=  -0.0000000  -0.0000000  -0.0000000  -0.0000000  -0.0000000  -0.0000000  -0.0000000  -0.0000000  -0.0000000  -0.0000000
 NQMom=    0.0000000   0.0000000   0.0000000   0.0000000   0.0000000   0.0000000   0.0000000   0.0000000   0.0000000   0.0000000
 NMagM=    0.0000000   0.0000000   0.0000000   0.0000000   0.0000000   2.6288670   0.0000000   0.0000000   0.0000000   0.0000000
 AtZNuc=   6.0000000   6.0000000   6.0000000   6.0000000   6.0000000   9.0000000   6.0000000   6.0000000   6.0000000   6.0000000

  Atom        11          12          13          14          15          16          17          18          19          20
 IAtWgt=          12          32          12          12          12          12          12          19          12          12
 AtmWgt=  12.0000000  31.9720718  12.0000000  12.0000000  12.0000000  12.0000000  12.0000000  18.9984033  12.0000000  12.0000000
 NucSpn=           0           0           0           0           0           0           0           1           0           0
 AtZEff=  -0.0000000  -0.0000000  -0.0000000  -0.0000000  -0.0000000  -0.0000000  -0.0000000  -0.0000000  -0.0000000  -0.0000000
 NQMom=    0.0000000   0.0000000   0.0000000   0.0000000   0.0000000   0.0000000   0.0000000   0.0000000   0.0000000   0.0000000
 NMagM=    0.0000000   0.0000000   0.0000000   0.0000000   0.0000000   0.0000000   0.0000000   2.6288670   0.0000000   0.0000000
 AtZNuc=   6.0000000  16.0000000   6.0000000   6.0000000   6.0000000   6.0000000   6.0000000   9.0000000   6.0000000   6.0000000

  Atom        21          22          23          24          25          26          27          28          29          30
 IAtWgt=          12          12          12          32          12          12          12          12          12          19
 AtmWgt=  12.0000000  12.0000000  12.0000000  31.9720718  12.0000000  12.0000000  12.0000000  12.0000000  12.0000000  18.9984033
 NucSpn=           0           0           0           0           0           0           0           0           0           1
 AtZEff=  -0.0000000  -0.0000000  -0.0000000  -0.0000000  -0.0000000  -0.0000000  -0.0000000  -0.0000000  -0.0000000  -0.0000000
 NQMom=    0.0000000   0.0000000   0.0000000   0.0000000   0.0000000   0.0000000   0.0000000   0.0000000   0.0000000   0.0000000
 NMagM=    0.0000000   0.0000000   0.0000000   0.0000000   0.0000000   0.0000000   0.0000000   0.0000000   0.0000000   2.6288670
 AtZNuc=   6.0000000   6.0000000   6.0000000  16.0000000   6.0000000   6.0000000   6.0000000   6.0000000   6.0000000   9.0000000

  Atom        31          32          33          34          35          36          37          38          39          40
 IAtWgt=          12          12          12          12          12          32           1           1           1           1
 AtmWgt=  12.0000000  12.0000000  12.0000000  12.0000000  12.0000000  31.9720718   1.0078250   1.0078250   1.0078250   1.0078250
 NucSpn=           0           0           0           0           0           0           1           1           1           1
 AtZEff=  -0.0000000  -0.0000000  -0.0000000  -0.0000000  -0.0000000  -0.0000000  -0.0000000  -0.0000000  -0.0000000  -0.0000000
 NQMom=    0.0000000   0.0000000   0.0000000   0.0000000   0.0000000   0.0000000   0.0000000   0.0000000   0.0000000   0.0000000
 NMagM=    0.0000000   0.0000000   0.0000000   0.0000000   0.0000000   0.0000000   2.7928460   2.7928460   2.7928460   2.7928460
 AtZNuc=   6.0000000   6.0000000   6.0000000   6.0000000   6.0000000  16.0000000   1.0000000   1.0000000   1.0000000   1.0000000

  Atom        41          42          43          44          45          46          47          48          49          50
 IAtWgt=           1           1           1           1           1           1           1           1           1           1
 AtmWgt=   1.0078250   1.0078250   1.0078250   1.0078250   1.0078250   1.0078250   1.0078250   1.0078250   1.0078250   1.0078250
 NucSpn=           1           1           1           1           1           1           1           1           1           1
 AtZEff=  -0.0000000  -0.0000000  -0.0000000  -0.0000000  -0.0000000  -0.0000000  -0.0000000  -0.0000000  -0.0000000  -0.0000000
 NQMom=    0.0000000   0.0000000   0.0000000   0.0000000   0.0000000   0.0000000   0.0000000   0.0000000   0.0000000   0.0000000
 NMagM=    2.7928460   2.7928460   2.7928460   2.7928460   2.7928460   2.7928460   2.7928460   2.7928460   2.7928460   2.7928460
 AtZNuc=   1.0000000   1.0000000   1.0000000   1.0000000   1.0000000   1.0000000   1.0000000   1.0000000   1.0000000   1.0000000

  Atom        51          52          53
 IAtWgt=           1           1           1
 AtmWgt=   1.0078250   1.0078250   1.0078250
 NucSpn=           1           1           1
 AtZEff=  -0.0000000  -0.0000000  -0.0000000
 NQMom=    0.0000000   0.0000000   0.0000000
 NMagM=    2.7928460   2.7928460   2.7928460
 AtZNuc=   1.0000000   1.0000000   1.0000000
 Leave Link  101 at Fri Jul 24 21:41:43 2020, MaxMem=  4026531840 cpu:               2.9 elap:               0.4
 (Enter /opt/ohpc/pub/libs/gaussian/g16-A.03/sandybridge/g16/l103.exe)

 GradGradGradGradGradGradGradGradGradGradGradGradGradGradGradGradGradGrad
 Berny optimization.
 Initialization pass.
                           ----------------------------
                           !    Initial Parameters    !
                           ! (Angstroms and Degrees)  !
 --------------------------                            --------------------------
 ! Name  Definition              Value          Derivative Info.                !
 --------------------------------------------------------------------------------
 ! R1    R(1,2)                  1.3824         estimate D2E/DX2                !
 ! R2    R(1,7)                  1.3262         estimate D2E/DX2                !
 ! R3    R(1,37)                 1.0577         estimate D2E/DX2                !
 ! R4    R(2,3)                  1.3892         estimate D2E/DX2                !
 ! R5    R(2,38)                 1.0831         estimate D2E/DX2                !
 ! R6    R(3,4)                  1.4566         estimate D2E/DX2                !
 ! R7    R(3,39)                 1.155          estimate D2E/DX2                !
 ! R8    R(4,5)                  1.3471         estimate D2E/DX2                !
 ! R9    R(4,8)                  1.4804         estimate D2E/DX2                !
 ! R10   R(5,6)                  1.3252         estimate D2E/DX2                !
 ! R11   R(5,7)                  1.4791         estimate D2E/DX2                !
 ! R12   R(7,40)                 1.1142         estimate D2E/DX2                !
 ! R13   R(8,9)                  1.348          estimate D2E/DX2                !
 ! R14   R(8,12)                 1.7314         estimate D2E/DX2                !
 ! R15   R(9,10)                 1.4097         estimate D2E/DX2                !
 ! R16   R(9,41)                 1.0553         estimate D2E/DX2                !
 ! R17   R(10,11)                1.4151         estimate D2E/DX2                !
 ! R18   R(10,42)                1.1082         estimate D2E/DX2                !
 ! R19   R(11,12)                1.75           estimate D2E/DX2                !
 ! R20   R(11,13)                1.4446         estimate D2E/DX2                !
 ! R21   R(13,14)                1.4886         estimate D2E/DX2                !
 ! R22   R(13,19)                1.3407         estimate D2E/DX2                !
 ! R23   R(14,15)                1.3838         estimate D2E/DX2                !
 ! R24   R(14,43)                1.0771         estimate D2E/DX2                !
 ! R25   R(15,16)                1.3648         estimate D2E/DX2                !
 ! R26   R(15,44)                1.1861         estimate D2E/DX2                !
 ! R27   R(16,17)                1.4312         estimate D2E/DX2                !
 ! R28   R(16,20)                1.3848         estimate D2E/DX2                !
 ! R29   R(17,18)                1.3552         estimate D2E/DX2                !
 ! R30   R(17,19)                1.4236         estimate D2E/DX2                !
 ! R31   R(19,45)                1.1709         estimate D2E/DX2                !
 ! R32   R(20,21)                1.3918         estimate D2E/DX2                !
 ! R33   R(20,24)                1.7669         estimate D2E/DX2                !
 ! R34   R(21,22)                1.4714         estimate D2E/DX2                !
 ! R35   R(21,46)                1.0915         estimate D2E/DX2                !
 ! R36   R(22,23)                1.4131         estimate D2E/DX2                !
 ! R37   R(22,47)                1.0596         estimate D2E/DX2                !
 ! R38   R(23,24)                1.6992         estimate D2E/DX2                !
 ! R39   R(23,25)                1.4066         estimate D2E/DX2                !
 ! R40   R(25,26)                1.3505         estimate D2E/DX2                !
 ! R41   R(25,31)                1.4399         estimate D2E/DX2                !
 ! R42   R(26,27)                1.3786         estimate D2E/DX2                !
 ! R43   R(26,48)                1.1282         estimate D2E/DX2                !
 ! R44   R(27,28)                1.4883         estimate D2E/DX2                !
 ! R45   R(27,49)                1.0621         estimate D2E/DX2                !
 ! R46   R(28,29)                1.3587         estimate D2E/DX2                !
 ! R47   R(28,32)                1.3977         estimate D2E/DX2                !
 ! R48   R(29,30)                1.3466         estimate D2E/DX2                !
 ! R49   R(29,31)                1.4039         estimate D2E/DX2                !
 ! R50   R(31,50)                1.0791         estimate D2E/DX2                !
 ! R51   R(32,33)                1.4427         estimate D2E/DX2                !
 ! R52   R(32,36)                1.6852         estimate D2E/DX2                !
 ! R53   R(33,34)                1.3767         estimate D2E/DX2                !
 ! R54   R(33,51)                1.0719         estimate D2E/DX2                !
 ! R55   R(34,35)                1.413          estimate D2E/DX2                !
 ! R56   R(34,52)                1.1672         estimate D2E/DX2                !
 ! R57   R(35,36)                1.7022         estimate D2E/DX2                !
 ! R58   R(35,53)                1.0996         estimate D2E/DX2                !
 ! A1    A(2,1,7)              121.2483         estimate D2E/DX2                !
 ! A2    A(2,1,37)             115.1445         estimate D2E/DX2                !
 ! A3    A(7,1,37)             123.1333         estimate D2E/DX2                !
 ! A4    A(1,2,3)              119.6945         estimate D2E/DX2                !
 ! A5    A(1,2,38)             125.5148         estimate D2E/DX2                !
 ! A6    A(3,2,38)             114.6149         estimate D2E/DX2                !
 ! A7    A(2,3,4)              121.4622         estimate D2E/DX2                !
 ! A8    A(2,3,39)             119.5095         estimate D2E/DX2                !
 ! A9    A(4,3,39)             118.9861         estimate D2E/DX2                !
 ! A10   A(3,4,5)              116.5079         estimate D2E/DX2                !
 ! A11   A(3,4,8)              118.6232         estimate D2E/DX2                !
 ! A12   A(5,4,8)              124.7876         estimate D2E/DX2                !
 ! A13   A(4,5,6)              120.0379         estimate D2E/DX2                !
 ! A14   A(4,5,7)              121.069          estimate D2E/DX2                !
 ! A15   A(6,5,7)              118.7702         estimate D2E/DX2                !
 ! A16   A(1,7,5)              119.8846         estimate D2E/DX2                !
 ! A17   A(1,7,40)             123.9996         estimate D2E/DX2                !
 ! A18   A(5,7,40)             116.0322         estimate D2E/DX2                !
 ! A19   A(4,8,9)              131.9944         estimate D2E/DX2                !
 ! A20   A(4,8,12)             114.3441         estimate D2E/DX2                !
 ! A21   A(9,8,12)             113.4393         estimate D2E/DX2                !
 ! A22   A(8,9,10)             112.4248         estimate D2E/DX2                !
 ! A23   A(8,9,41)             120.9172         estimate D2E/DX2                !
 ! A24   A(10,9,41)            126.0071         estimate D2E/DX2                !
 ! A25   A(9,10,11)            112.5958         estimate D2E/DX2                !
 ! A26   A(9,10,42)            126.7508         estimate D2E/DX2                !
 ! A27   A(11,10,42)           119.6894         estimate D2E/DX2                !
 ! A28   A(10,11,12)           109.8674         estimate D2E/DX2                !
 ! A29   A(10,11,13)           129.2631         estimate D2E/DX2                !
 ! A30   A(12,11,13)           120.2727         estimate D2E/DX2                !
 ! A31   A(8,12,11)             90.809          estimate D2E/DX2                !
 ! A32   A(11,13,14)           115.9178         estimate D2E/DX2                !
 ! A33   A(11,13,19)           127.4304         estimate D2E/DX2                !
 ! A34   A(14,13,19)           116.6278         estimate D2E/DX2                !
 ! A35   A(13,14,15)           115.7143         estimate D2E/DX2                !
 ! A36   A(13,14,43)           120.3762         estimate D2E/DX2                !
 ! A37   A(15,14,43)           123.4393         estimate D2E/DX2                !
 ! A38   A(14,15,16)           127.9465         estimate D2E/DX2                !
 ! A39   A(14,15,44)           114.7217         estimate D2E/DX2                !
 ! A40   A(16,15,44)           117.3268         estimate D2E/DX2                !
 ! A41   A(15,16,17)           115.9363         estimate D2E/DX2                !
 ! A42   A(15,16,20)           125.1765         estimate D2E/DX2                !
 ! A43   A(17,16,20)           118.776          estimate D2E/DX2                !
 ! A44   A(16,17,18)           124.3338         estimate D2E/DX2                !
 ! A45   A(16,17,19)           117.7478         estimate D2E/DX2                !
 ! A46   A(18,17,19)           117.9183         estimate D2E/DX2                !
 ! A47   A(13,19,17)           125.8835         estimate D2E/DX2                !
 ! A48   A(13,19,45)           117.287          estimate D2E/DX2                !
 ! A49   A(17,19,45)           116.8215         estimate D2E/DX2                !
 ! A50   A(16,20,21)           128.7995         estimate D2E/DX2                !
 ! A51   A(16,20,24)           123.0736         estimate D2E/DX2                !
 ! A52   A(21,20,24)           107.8108         estimate D2E/DX2                !
 ! A53   A(20,21,22)           114.9773         estimate D2E/DX2                !
 ! A54   A(20,21,46)           121.2375         estimate D2E/DX2                !
 ! A55   A(22,21,46)           123.1889         estimate D2E/DX2                !
 ! A56   A(21,22,23)           110.0818         estimate D2E/DX2                !
 ! A57   A(21,22,47)           127.405          estimate D2E/DX2                !
 ! A58   A(23,22,47)           122.1752         estimate D2E/DX2                !
 ! A59   A(22,23,24)           111.7318         estimate D2E/DX2                !
 ! A60   A(22,23,25)           127.663          estimate D2E/DX2                !
 ! A61   A(24,23,25)           120.413          estimate D2E/DX2                !
 ! A62   A(20,24,23)            94.8173         estimate D2E/DX2                !
 ! A63   A(23,25,26)           122.1573         estimate D2E/DX2                !
 ! A64   A(23,25,31)           123.7295         estimate D2E/DX2                !
 ! A65   A(26,25,31)           114.1113         estimate D2E/DX2                !
 ! A66   A(25,26,27)           125.6129         estimate D2E/DX2                !
 ! A67   A(25,26,48)           120.5883         estimate D2E/DX2                !
 ! A68   A(27,26,48)           113.6167         estimate D2E/DX2                !
 ! A69   A(26,27,28)           119.3873         estimate D2E/DX2                !
 ! A70   A(26,27,49)           126.3465         estimate D2E/DX2                !
 ! A71   A(28,27,49)           114.0809         estimate D2E/DX2                !
 ! A72   A(27,28,29)           115.9471         estimate D2E/DX2                !
 ! A73   A(27,28,32)           121.0882         estimate D2E/DX2                !
 ! A74   A(29,28,32)           122.6803         estimate D2E/DX2                !
 ! A75   A(28,29,30)           123.2372         estimate D2E/DX2                !
 ! A76   A(28,29,31)           121.4005         estimate D2E/DX2                !
 ! A77   A(30,29,31)           115.0752         estimate D2E/DX2                !
 ! A78   A(25,31,29)           123.2139         estimate D2E/DX2                !
 ! A79   A(25,31,50)           118.3584         estimate D2E/DX2                !
 ! A80   A(29,31,50)           118.2011         estimate D2E/DX2                !
 ! A81   A(28,32,33)           130.1497         estimate D2E/DX2                !
 ! A82   A(28,32,36)           119.71           estimate D2E/DX2                !
 ! A83   A(33,32,36)           109.5833         estimate D2E/DX2                !
 ! A84   A(32,33,34)           111.2004         estimate D2E/DX2                !
 ! A85   A(32,33,51)           123.8674         estimate D2E/DX2                !
 ! A86   A(34,33,51)           124.441          estimate D2E/DX2                !
 ! A87   A(33,34,35)           115.1695         estimate D2E/DX2                !
 ! A88   A(33,34,52)           125.3193         estimate D2E/DX2                !
 ! A89   A(35,34,52)           119.4617         estimate D2E/DX2                !
 ! A90   A(34,35,36)           108.2858         estimate D2E/DX2                !
 ! A91   A(34,35,53)           128.795          estimate D2E/DX2                !
 ! A92   A(36,35,53)           122.6298         estimate D2E/DX2                !
 ! A93   A(32,36,35)            95.2596         estimate D2E/DX2                !
 ! D1    D(7,1,2,3)              4.4612         estimate D2E/DX2                !
 ! D2    D(7,1,2,38)           179.3722         estimate D2E/DX2                !
 ! D3    D(37,1,2,3)           176.7999         estimate D2E/DX2                !
 ! D4    D(37,1,2,38)           -8.2891         estimate D2E/DX2                !
 ! D5    D(2,1,7,5)             -3.2355         estimate D2E/DX2                !
 ! D6    D(2,1,7,40)          -179.775          estimate D2E/DX2                !
 ! D7    D(37,1,7,5)          -174.9494         estimate D2E/DX2                !
 ! D8    D(37,1,7,40)            8.5111         estimate D2E/DX2                !
 ! D9    D(1,2,3,4)             -2.6736         estimate D2E/DX2                !
 ! D10   D(1,2,3,39)           174.9381         estimate D2E/DX2                !
 ! D11   D(38,2,3,4)          -178.1185         estimate D2E/DX2                !
 ! D12   D(38,2,3,39)           -0.5068         estimate D2E/DX2                !
 ! D13   D(2,3,4,5)             -0.2605         estimate D2E/DX2                !
 ! D14   D(2,3,4,8)            176.6178         estimate D2E/DX2                !
 ! D15   D(39,3,4,5)          -177.8844         estimate D2E/DX2                !
 ! D16   D(39,3,4,8)            -1.0061         estimate D2E/DX2                !
 ! D17   D(3,4,5,6)            177.417          estimate D2E/DX2                !
 ! D18   D(3,4,5,7)              1.4959         estimate D2E/DX2                !
 ! D19   D(8,4,5,6)              0.7537         estimate D2E/DX2                !
 ! D20   D(8,4,5,7)           -175.1674         estimate D2E/DX2                !
 ! D21   D(3,4,8,9)            -43.8187         estimate D2E/DX2                !
 ! D22   D(3,4,8,12)           130.3079         estimate D2E/DX2                !
 ! D23   D(5,4,8,9)            132.7795         estimate D2E/DX2                !
 ! D24   D(5,4,8,12)           -53.0939         estimate D2E/DX2                !
 ! D25   D(4,5,7,1)              0.1777         estimate D2E/DX2                !
 ! D26   D(4,5,7,40)           176.9852         estimate D2E/DX2                !
 ! D27   D(6,5,7,1)           -175.7941         estimate D2E/DX2                !
 ! D28   D(6,5,7,40)             1.0134         estimate D2E/DX2                !
 ! D29   D(4,8,9,10)          -178.0114         estimate D2E/DX2                !
 ! D30   D(4,8,9,41)            -6.724          estimate D2E/DX2                !
 ! D31   D(12,8,9,10)            7.8209         estimate D2E/DX2                !
 ! D32   D(12,8,9,41)          179.1082         estimate D2E/DX2                !
 ! D33   D(4,8,12,11)         -177.8572         estimate D2E/DX2                !
 ! D34   D(9,8,12,11)           -2.6121         estimate D2E/DX2                !
 ! D35   D(8,9,10,11)          -10.3565         estimate D2E/DX2                !
 ! D36   D(8,9,10,42)         -178.9757         estimate D2E/DX2                !
 ! D37   D(41,9,10,11)         178.8881         estimate D2E/DX2                !
 ! D38   D(41,9,10,42)          10.2689         estimate D2E/DX2                !
 ! D39   D(9,10,11,12)           8.1649         estimate D2E/DX2                !
 ! D40   D(9,10,11,13)         179.1635         estimate D2E/DX2                !
 ! D41   D(42,10,11,12)        177.6786         estimate D2E/DX2                !
 ! D42   D(42,10,11,13)        -11.3228         estimate D2E/DX2                !
 ! D43   D(10,11,12,8)          -3.2255         estimate D2E/DX2                !
 ! D44   D(13,11,12,8)        -175.1624         estimate D2E/DX2                !
 ! D45   D(10,11,13,14)         55.9552         estimate D2E/DX2                !
 ! D46   D(10,11,13,19)       -122.1904         estimate D2E/DX2                !
 ! D47   D(12,11,13,14)       -133.8548         estimate D2E/DX2                !
 ! D48   D(12,11,13,19)         47.9997         estimate D2E/DX2                !
 ! D49   D(11,13,14,15)        177.6967         estimate D2E/DX2                !
 ! D50   D(11,13,14,43)          5.2977         estimate D2E/DX2                !
 ! D51   D(19,13,14,15)         -3.9506         estimate D2E/DX2                !
 ! D52   D(19,13,14,43)       -176.3496         estimate D2E/DX2                !
 ! D53   D(11,13,19,17)       -179.1298         estimate D2E/DX2                !
 ! D54   D(11,13,19,45)          1.9289         estimate D2E/DX2                !
 ! D55   D(14,13,19,17)          2.7361         estimate D2E/DX2                !
 ! D56   D(14,13,19,45)       -176.2053         estimate D2E/DX2                !
 ! D57   D(13,14,15,16)          2.0998         estimate D2E/DX2                !
 ! D58   D(13,14,15,44)       -178.7352         estimate D2E/DX2                !
 ! D59   D(43,14,15,16)        174.2399         estimate D2E/DX2                !
 ! D60   D(43,14,15,44)         -6.5951         estimate D2E/DX2                !
 ! D61   D(14,15,16,17)          1.2519         estimate D2E/DX2                !
 ! D62   D(14,15,16,20)        177.3534         estimate D2E/DX2                !
 ! D63   D(44,15,16,17)       -177.8943         estimate D2E/DX2                !
 ! D64   D(44,15,16,20)         -1.7928         estimate D2E/DX2                !
 ! D65   D(15,16,17,18)        177.2221         estimate D2E/DX2                !
 ! D66   D(15,16,17,19)         -2.6684         estimate D2E/DX2                !
 ! D67   D(20,16,17,18)          0.8573         estimate D2E/DX2                !
 ! D68   D(20,16,17,19)       -179.0332         estimate D2E/DX2                !
 ! D69   D(15,16,20,21)        -47.9419         estimate D2E/DX2                !
 ! D70   D(15,16,20,24)        124.7891         estimate D2E/DX2                !
 ! D71   D(17,16,20,21)        128.0581         estimate D2E/DX2                !
 ! D72   D(17,16,20,24)        -59.2109         estimate D2E/DX2                !
 ! D73   D(16,17,19,13)          0.6583         estimate D2E/DX2                !
 ! D74   D(16,17,19,45)        179.604          estimate D2E/DX2                !
 ! D75   D(18,17,19,13)       -179.2394         estimate D2E/DX2                !
 ! D76   D(18,17,19,45)         -0.2937         estimate D2E/DX2                !
 ! D77   D(16,20,21,22)        179.0311         estimate D2E/DX2                !
 ! D78   D(16,20,21,46)         -9.552          estimate D2E/DX2                !
 ! D79   D(24,20,21,22)          5.4251         estimate D2E/DX2                !
 ! D80   D(24,20,21,46)        176.842          estimate D2E/DX2                !
 ! D81   D(16,20,24,23)       -175.0019         estimate D2E/DX2                !
 ! D82   D(21,20,24,23)         -0.9468         estimate D2E/DX2                !
 ! D83   D(20,21,22,23)         -8.3614         estimate D2E/DX2                !
 ! D84   D(20,21,22,47)        178.2651         estimate D2E/DX2                !
 ! D85   D(46,21,22,23)       -179.5906         estimate D2E/DX2                !
 ! D86   D(46,21,22,47)          7.0358         estimate D2E/DX2                !
 ! D87   D(21,22,23,24)          7.2859         estimate D2E/DX2                !
 ! D88   D(21,22,23,25)       -177.7961         estimate D2E/DX2                !
 ! D89   D(47,22,23,24)       -178.9313         estimate D2E/DX2                !
 ! D90   D(47,22,23,25)         -4.0133         estimate D2E/DX2                !
 ! D91   D(22,23,24,20)         -3.8311         estimate D2E/DX2                !
 ! D92   D(25,23,24,20)       -179.1671         estimate D2E/DX2                !
 ! D93   D(22,23,25,26)         51.3035         estimate D2E/DX2                !
 ! D94   D(22,23,25,31)       -129.231          estimate D2E/DX2                !
 ! D95   D(24,23,25,26)       -134.1718         estimate D2E/DX2                !
 ! D96   D(24,23,25,31)         45.2937         estimate D2E/DX2                !
 ! D97   D(23,25,26,27)       -178.7046         estimate D2E/DX2                !
 ! D98   D(23,25,26,48)         -3.9313         estimate D2E/DX2                !
 ! D99   D(31,25,26,27)          1.7824         estimate D2E/DX2                !
 ! D100  D(31,25,26,48)        176.5557         estimate D2E/DX2                !
 ! D101  D(23,25,31,29)        177.8304         estimate D2E/DX2                !
 ! D102  D(23,25,31,50)          3.4047         estimate D2E/DX2                !
 ! D103  D(26,25,31,29)         -2.6653         estimate D2E/DX2                !
 ! D104  D(26,25,31,50)       -177.091          estimate D2E/DX2                !
 ! D105  D(25,26,27,28)         -3.2763         estimate D2E/DX2                !
 ! D106  D(25,26,27,49)       -178.0211         estimate D2E/DX2                !
 ! D107  D(48,26,27,28)       -178.3665         estimate D2E/DX2                !
 ! D108  D(48,26,27,49)          6.8887         estimate D2E/DX2                !
 ! D109  D(26,27,28,29)          5.4008         estimate D2E/DX2                !
 ! D110  D(26,27,28,32)        179.4348         estimate D2E/DX2                !
 ! D111  D(49,27,28,29)       -179.234          estimate D2E/DX2                !
 ! D112  D(49,27,28,32)         -5.2001         estimate D2E/DX2                !
 ! D113  D(27,28,29,30)       -179.9388         estimate D2E/DX2                !
 ! D114  D(27,28,29,31)         -6.3989         estimate D2E/DX2                !
 ! D115  D(32,28,29,30)          6.1317         estimate D2E/DX2                !
 ! D116  D(32,28,29,31)        179.6715         estimate D2E/DX2                !
 ! D117  D(27,28,32,33)        -46.3165         estimate D2E/DX2                !
 ! D118  D(27,28,32,36)        124.1642         estimate D2E/DX2                !
 ! D119  D(29,28,32,33)        127.3082         estimate D2E/DX2                !
 ! D120  D(29,28,32,36)        -62.2111         estimate D2E/DX2                !
 ! D121  D(28,29,31,25)          5.3926         estimate D2E/DX2                !
 ! D122  D(28,29,31,50)        179.8265         estimate D2E/DX2                !
 ! D123  D(30,29,31,25)        179.4289         estimate D2E/DX2                !
 ! D124  D(30,29,31,50)         -6.1372         estimate D2E/DX2                !
 ! D125  D(28,32,33,34)        178.6468         estimate D2E/DX2                !
 ! D126  D(28,32,33,51)         -9.0912         estimate D2E/DX2                !
 ! D127  D(36,32,33,34)          7.4162         estimate D2E/DX2                !
 ! D128  D(36,32,33,51)        179.6782         estimate D2E/DX2                !
 ! D129  D(28,32,36,35)       -178.6881         estimate D2E/DX2                !
 ! D130  D(33,32,36,35)         -6.3988         estimate D2E/DX2                !
 ! D131  D(32,33,34,35)         -4.9103         estimate D2E/DX2                !
 ! D132  D(32,33,34,52)        177.6771         estimate D2E/DX2                !
 ! D133  D(51,33,34,35)       -177.1193         estimate D2E/DX2                !
 ! D134  D(51,33,34,52)          5.4681         estimate D2E/DX2                !
 ! D135  D(33,34,35,36)          0.1685         estimate D2E/DX2                !
 ! D136  D(33,34,35,53)       -173.6898         estimate D2E/DX2                !
 ! D137  D(52,34,35,36)        177.7439         estimate D2E/DX2                !
 ! D138  D(52,34,35,53)          3.8855         estimate D2E/DX2                !
 ! D139  D(34,35,36,32)          3.7036         estimate D2E/DX2                !
 ! D140  D(53,35,36,32)        178.0213         estimate D2E/DX2                !
 --------------------------------------------------------------------------------
 Trust Radius=3.00D-01 FncErr=1.00D-07 GrdErr=1.00D-06 EigMax=2.50D+02 EigMin=1.00D-04
 Number of steps in this run=    301 maximum allowed number of steps=    318.
 GradGradGradGradGradGradGradGradGradGradGradGradGradGradGradGradGradGrad

 Leave Link  103 at Fri Jul 24 21:41:43 2020, MaxMem=  4026531840 cpu:               0.1 elap:               0.0
 (Enter /opt/ohpc/pub/libs/gaussian/g16-A.03/sandybridge/g16/l202.exe)
 Stoichiometry    C30H17F3S3
 Framework group  C1[X(C30H17F3S3)]
 Deg. of freedom   153
 Full point group                 C1      NOp   1
 Largest Abelian subgroup         C1      NOp   1
 Largest concise Abelian subgroup C1      NOp   1
                         Standard orientation:                         
 ---------------------------------------------------------------------
 Center     Atomic      Atomic             Coordinates (Angstroms)
 Number     Number       Type             X           Y           Z
 ---------------------------------------------------------------------
      1          6           0       10.571501   -2.423932   -0.642056
      2          6           0       10.423032   -1.332099   -1.476844
      3          6           0        9.325071   -0.494467   -1.325660
      4          6           0        8.288299   -0.770389   -0.340481
      5          6           0        8.449491   -1.879088    0.407591
      6          9           0        7.574950   -2.169708    1.359942
      7          6           0        9.640498   -2.741483    0.247468
      8          6           0        7.185055    0.203682   -0.180155
      9          6           0        7.173010    1.550081   -0.115105
     10          6           0        5.877514    2.067032    0.088964
     11          6           0        4.870606    1.083205   -0.055026
     12         16           0        5.602699   -0.498490   -0.212153
     13          6           0        3.439151    1.211905    0.090576
     14          6           0        2.788715    2.244783   -0.761560
     15          6           0        1.411717    2.330671   -0.655246
     16          6           0        0.586645    1.613045    0.161387
     17          6           0        1.228111    0.674627    1.030939
     18          9           0        0.580015   -0.085338    1.946899
     19          6           0        2.640819    0.533101    0.926920
     20          6           0       -0.784298    1.782554    0.258498
     21          6           0       -1.508780    2.961333    0.409461
     22          6           0       -2.969484    2.790957    0.458133
     23          6           0       -3.312991    1.456411    0.145470
     24         16           0       -1.938026    0.466117    0.018293
     25          6           0       -4.601671    0.902102    0.043037
     26          6           0       -5.566994    1.462763   -0.717084
     27          6           0       -6.857414    0.995878   -0.849000
     28          6           0       -7.249763   -0.268441   -0.168787
     29          6           0       -6.311555   -0.822820    0.642725
     30          9           0       -6.510104   -1.965017    1.327748
     31          6           0       -5.009592   -0.302946    0.717326
     32          6           0       -8.551300   -0.767981   -0.268888
     33          6           0       -9.819467   -0.095182   -0.125978
     34          6           0      -10.868897   -0.961604   -0.333789
     35          6           0      -10.501474   -2.263774   -0.741184
     36         16           0       -8.803526   -2.333308   -0.840024
     37          1           0       11.403318   -3.041960   -0.854064
     38          1           0       11.141145   -1.005121   -2.218861
     39          1           0        9.248853    0.464590   -1.964816
     40          1           0        9.714251   -3.607678    0.944317
     41          1           0        8.073380    2.099086   -0.075572
     42          1           0        5.594075    3.135881    0.162558
     43          1           0        3.362100    2.784693   -1.496259
     44          1           0        0.909585    3.142829   -1.358833
     45          1           0        3.149671   -0.233737    1.650767
     46          1           0       -1.010348    3.908738    0.622246
     47          1           0       -3.701349    3.545302    0.592455
     48          1           0       -5.383998    2.441463   -1.247629
     49          1           0       -7.616696    1.409993   -1.465420
     50          1           0       -4.306486   -0.781936    1.381179
     51          1           0       -9.925194    0.911552    0.226694
     52          1           0      -11.999447   -0.686630   -0.241206
     53          1           0      -11.148281   -3.095157   -1.056622
 ---------------------------------------------------------------------
 Rotational constants (GHZ):           0.2990790           0.0216829           0.0207533
 Leave Link  202 at Fri Jul 24 21:41:43 2020, MaxMem=  4026531840 cpu:               0.1 elap:               0.0
 (Enter /opt/ohpc/pub/libs/gaussian/g16-A.03/sandybridge/g16/l301.exe)
 Standard basis: CC-pVDZ (5D, 7F)
 Ernie: Thresh=  0.10000D-02 Tol=  0.10000D-05 Strict=F.
 Ernie:  96 primitive shells out of 961 were deleted.
 There are   637 symmetry adapted cartesian basis functions of A   symmetry.
 There are   601 symmetry adapted basis functions of A   symmetry.
   601 basis functions,  1421 primitive gaussians,   637 cartesian basis functions
   136 alpha electrons      136 beta electrons
       nuclear repulsion energy      3658.6108883458 Hartrees.
 IExCor=32609 DFT=T Ex+Corr=LC-wPBE ExCW=0 ScaHFX=  1.000000
 ScaDFX=  1.000000  0.000000  1.000000  1.000000 ScalE2=  1.000000  1.000000
 IRadAn=      5 IRanWt=     -1 IRanGd=            0 ICorTp=0 IEmpDi=  4
 HFx  wShort=  0.000000 wLong=  0.178000 cFull=  0.000000 cShort=  0.000000 cLong=  1.000000
 DFx  wShort=  0.000000 wLong=  0.178000 cFull=  0.000000 cShort=  0.000000 cLong=  1.000000
 NAtoms=   53 NActive=   53 NUniq=   53 SFac= 1.00D+00 NAtFMM=   60 NAOKFM=F Big=F
 Integral buffers will be    131072 words long.
 Raffenetti 2 integral format.
 Two-electron integral symmetry is turned on.
 Leave Link  301 at Fri Jul 24 21:41:43 2020, MaxMem=  4026531840 cpu:               0.4 elap:               0.1
 (Enter /opt/ohpc/pub/libs/gaussian/g16-A.03/sandybridge/g16/l302.exe)
 NPDir=0 NMtPBC=     1 NCelOv=     1 NCel=       1 NClECP=     1 NCelD=      1
         NCelK=      1 NCelE2=     1 NClLst=     1 CellRange=     0.0.
 One-electron integrals computed using PRISM.
 One-electron integral symmetry used in STVInt
 NBasis=   601 RedAO= T EigKep=  3.14D-04  NBF=   601
 NBsUse=   601 1.00D-06 EigRej= -1.00D+00 NBFU=   601
 Precomputing XC quadrature grid using
 IXCGrd= 4 IRadAn=           5 IRanWt=          -1 IRanGd=           0 AccXCQ= 0.00D+00.
 Generated NRdTot=       0 NPtTot=           0 NUsed=           0 NTot=          32
 NSgBfM=   547   547   547   547   547 MxSgAt=    53 MxSgA2=    53.
 Leave Link  302 at Fri Jul 24 21:41:44 2020, MaxMem=  4026531840 cpu:               9.7 elap:               1.2
 (Enter /opt/ohpc/pub/libs/gaussian/g16-A.03/sandybridge/g16/l303.exe)
 DipDrv:  MaxL=1.
 Leave Link  303 at Fri Jul 24 21:41:44 2020, MaxMem=  4026531840 cpu:               0.9 elap:               0.1
 (Enter /opt/ohpc/pub/libs/gaussian/g16-A.03/sandybridge/g16/l401.exe)
 ExpMin= 1.22D-01 ExpMax= 1.11D+05 ExpMxC= 1.07D+03 IAcc=3 IRadAn=         5 AccDes= 0.00D+00
 Harris functional with IExCor=32609 and IRadAn=       5 diagonalized for initial guess.
 HarFok:  IExCor=32609 AccDes= 0.00D+00 IRadAn=         5 IDoV= 1 UseB2=F ITyADJ=14
 ICtDFT=  3500011 ScaDFX=  1.000000  1.000000  1.000000  1.000000
 FoFCou: FMM=F IPFlag=           0 FMFlag=      100000 FMFlg1=           0
         NFxFlg=           0 DoJE=T BraDBF=F KetDBF=T FulRan=T
         wScrn=  0.000000 ICntrl=       500 IOpCl=  0 I1Cent=   200000004 NGrid=           0
         NMat0=    1 NMatS0=      1 NMatT0=    0 NMatD0=    1 NMtDS0=    0 NMtDT0=    0
 Petite list used in FoFCou.
 Harris En= -2645.81921148756    
 JPrj=0 DoOrth=F DoCkMO=F.
 Initial guess <Sx>= 0.0000 <Sy>= 0.0000 <Sz>= 0.0000 <S**2>=-0.0000 S=-0.0000
 Leave Link  401 at Fri Jul 24 21:41:50 2020, MaxMem=  4026531840 cpu:              43.4 elap:               5.5
 (Enter /opt/ohpc/pub/libs/gaussian/g16-A.03/sandybridge/g16/l502.exe)
 Integral symmetry usage will be decided dynamically.
 UHF open shell SCF:
 Using DIIS extrapolation, IDIIS=  1040.
 NGot=  4026531840 LenX=  4025708801 LenY=  4025302395
 Requested convergence on RMS density matrix=1.00D-08 within 128 cycles.
 Requested convergence on MAX density matrix=1.00D-06.
 Requested convergence on             energy=1.00D-06.
 No special actions if energy rises.
 Fock matrices will be formed incrementally for  20 cycles.
 Integral accuracy reduced to 1.0D-05 until final iterations.

 Cycle   1  Pass 0  IDiag  1:
 FoFJK:  IHMeth= 1 ICntrl=       0 DoSepK=T KAlg= 0 I1Cent=           0 FoldK=F
 IRaf=         1 NMat=       1 IRICut=       1 DoRegI=T DoRafI=F ISym2E= 0 IDoP0=0 IntGTp=1.
 FoFCou: FMM=F IPFlag=           0 FMFlag=      100000 FMFlg1=           0
         NFxFlg=           0 DoJE=T BraDBF=F KetDBF=F FulRan=T
         wScrn=  0.000000 ICntrl=       500 IOpCl=  0 I1Cent=           0 NGrid=           0
         NMat0=    1 NMatS0=      1 NMatT0=    0 NMatD0=    1 NMtDS0=    0 NMtDT0=    0
 Symmetry not used in FoFCou.
 E= -2644.98304176849    
 DIIS: error= 1.52D-02 at cycle   1 NSaved=   1.
 NSaved= 1 IEnMin= 1 EnMin= -2644.98304176849     IErMin= 1 ErrMin= 1.52D-02
 ErrMax= 1.52D-02  0.00D+00 EMaxC= 1.00D-01 BMatC= 2.76D+00 BMatP= 2.76D+00
 IDIUse=3 WtCom= 8.48D-01 WtEn= 1.52D-01
 Coeff-Com:  0.100D+01
 Coeff-En:   0.100D+01
 Coeff:      0.100D+01
 Gap=     0.295 Goal=   None    Shift=    0.000
 Gap=     0.295 Goal=   None    Shift=    0.000
 GapD=    0.295 DampG=1.000 DampE=0.500 DampFc=0.5000 IDamp=-1.
 Damping current iteration by 5.00D-01
 RMSDP=3.50D-03 MaxDP=1.76D-01              OVMax= 2.41D-01

 Cycle   2  Pass 0  IDiag  1:
 RMSU=  1.74D-03    CP:  9.88D-01
 E= -2645.31799388492     Delta-E=       -0.334952116429 Rises=F Damp=T
 DIIS: error= 4.03D-03 at cycle   2 NSaved=   2.
 NSaved= 2 IEnMin= 2 EnMin= -2645.31799388492     IErMin= 2 ErrMin= 4.03D-03
 ErrMax= 4.03D-03  0.00D+00 EMaxC= 1.00D-01 BMatC= 1.71D-01 BMatP= 2.76D+00
 IDIUse=3 WtCom= 9.60D-01 WtEn= 4.03D-02
 Coeff-Com:  0.111D+00 0.889D+00
 Coeff-En:   0.180D+00 0.820D+00
 Coeff:      0.114D+00 0.886D+00
 Gap=     0.323 Goal=   None    Shift=    0.000
 Gap=     0.323 Goal=   None    Shift=    0.000
 RMSDP=1.02D-03 MaxDP=3.10D-02 DE=-3.35D-01 OVMax= 1.97D-01

 Cycle   3  Pass 0  IDiag  1:
 RMSU=  9.91D-04    CP:  9.86D-01  8.67D-01
 E= -2645.77418522614     Delta-E=       -0.456191341224 Rises=F Damp=F
 DIIS: error= 2.62D-03 at cycle   3 NSaved=   3.
 NSaved= 3 IEnMin= 3 EnMin= -2645.77418522614     IErMin= 3 ErrMin= 2.62D-03
 ErrMax= 2.62D-03  0.00D+00 EMaxC= 1.00D-01 BMatC= 8.47D-02 BMatP= 1.71D-01
 IDIUse=3 WtCom= 9.74D-01 WtEn= 2.62D-02
 Coeff-Com:  0.232D-01 0.403D+00 0.574D+00
 Coeff-En:   0.000D+00 0.000D+00 0.100D+01
 Coeff:      0.226D-01 0.392D+00 0.585D+00
 Gap=     0.240 Goal=   None    Shift=    0.000
 Gap=     0.240 Goal=   None    Shift=    0.000
 RMSDP=3.63D-04 MaxDP=1.36D-02 DE=-4.56D-01 OVMax= 3.58D-02

 Cycle   4  Pass 0  IDiag  1:
 RMSU=  2.61D-04    CP:  9.86D-01  9.17D-01  7.62D-01
 E= -2645.79538141519     Delta-E=       -0.021196189051 Rises=F Damp=F
 DIIS: error= 9.86D-04 at cycle   4 NSaved=   4.
 NSaved= 4 IEnMin= 4 EnMin= -2645.79538141519     IErMin= 4 ErrMin= 9.86D-04
 ErrMax= 9.86D-04  0.00D+00 EMaxC= 1.00D-01 BMatC= 8.88D-03 BMatP= 8.47D-02
 IDIUse=3 WtCom= 9.90D-01 WtEn= 9.86D-03
 Coeff-Com:  0.523D-02 0.625D-01 0.253D+00 0.679D+00
 Coeff-En:   0.000D+00 0.000D+00 0.000D+00 0.100D+01
 Coeff:      0.518D-02 0.619D-01 0.250D+00 0.683D+00
 Gap=     0.241 Goal=   None    Shift=    0.000
 Gap=     0.241 Goal=   None    Shift=    0.000
 RMSDP=1.05D-04 MaxDP=5.18D-03 DE=-2.12D-02 OVMax= 1.06D-02

 Cycle   5  Pass 0  IDiag  1:
 RMSU=  8.15D-05    CP:  9.86D-01  9.05D-01  8.06D-01  8.24D-01
 E= -2645.79763587452     Delta-E=       -0.002254459331 Rises=F Damp=F
 DIIS: error= 3.54D-04 at cycle   5 NSaved=   5.
 NSaved= 5 IEnMin= 5 EnMin= -2645.79763587452     IErMin= 5 ErrMin= 3.54D-04
 ErrMax= 3.54D-04  0.00D+00 EMaxC= 1.00D-01 BMatC= 1.26D-03 BMatP= 8.88D-03
 IDIUse=3 WtCom= 9.96D-01 WtEn= 3.54D-03
 Coeff-Com:  0.275D-02-0.119D-01 0.677D-01 0.333D+00 0.609D+00
 Coeff-En:   0.000D+00 0.000D+00 0.000D+00 0.000D+00 0.100D+01
 Coeff:      0.274D-02-0.119D-01 0.674D-01 0.332D+00 0.610D+00
 Gap=     0.242 Goal=   None    Shift=    0.000
 Gap=     0.242 Goal=   None    Shift=    0.000
 RMSDP=4.24D-05 MaxDP=2.22D-03 DE=-2.25D-03 OVMax= 3.38D-03

 Cycle   6  Pass 0  IDiag  1:
 RMSU=  3.25D-05    CP:  9.86D-01  9.02D-01  8.23D-01  8.86D-01  8.37D-01
 E= -2645.79794494996     Delta-E=       -0.000309075432 Rises=F Damp=F
 DIIS: error= 1.76D-04 at cycle   6 NSaved=   6.
 NSaved= 6 IEnMin= 6 EnMin= -2645.79794494996     IErMin= 6 ErrMin= 1.76D-04
 ErrMax= 1.76D-04  0.00D+00 EMaxC= 1.00D-01 BMatC= 2.03D-04 BMatP= 1.26D-03
 IDIUse=3 WtCom= 9.98D-01 WtEn= 1.76D-03
 Coeff-Com:  0.180D-02-0.185D-01-0.306D-02 0.699D-01 0.309D+00 0.641D+00
 Coeff-En:   0.000D+00 0.000D+00 0.000D+00 0.000D+00 0.000D+00 0.100D+01
 Coeff:      0.180D-02-0.184D-01-0.306D-02 0.697D-01 0.308D+00 0.642D+00
 Gap=     0.243 Goal=   None    Shift=    0.000
 Gap=     0.243 Goal=   None    Shift=    0.000
 RMSDP=1.96D-05 MaxDP=9.48D-04 DE=-3.09D-04 OVMax= 1.83D-03

 Cycle   7  Pass 0  IDiag  1:
 RMSU=  1.40D-05    CP:  9.86D-01  8.99D-01  8.27D-01  9.00D-01  9.71D-01
                    CP:  8.76D-01
 E= -2645.79800459462     Delta-E=       -0.000059644668 Rises=F Damp=F
 DIIS: error= 8.91D-05 at cycle   7 NSaved=   7.
 NSaved= 7 IEnMin= 7 EnMin= -2645.79800459462     IErMin= 7 ErrMin= 8.91D-05
 ErrMax= 8.91D-05  0.00D+00 EMaxC= 1.00D-01 BMatC= 3.68D-05 BMatP= 2.03D-04
 IDIUse=1 WtCom= 1.00D+00 WtEn= 0.00D+00
 Coeff-Com:  0.875D-03-0.849D-02-0.105D-01-0.137D-01 0.555D-01 0.333D+00
 Coeff-Com:  0.643D+00
 Coeff:      0.875D-03-0.849D-02-0.105D-01-0.137D-01 0.555D-01 0.333D+00
 Coeff:      0.643D+00
 Gap=     0.243 Goal=   None    Shift=    0.000
 Gap=     0.243 Goal=   None    Shift=    0.000
 RMSDP=8.18D-06 MaxDP=3.97D-04 DE=-5.96D-05 OVMax= 8.98D-04

 Initial convergence to 1.0D-05 achieved.  Increase integral accuracy.
 Cycle   8  Pass 1  IDiag  1:
 E= -2645.79749389996     Delta-E=        0.000510694659 Rises=F Damp=F
 DIIS: error= 1.57D-04 at cycle   1 NSaved=   1.
 NSaved= 1 IEnMin= 1 EnMin= -2645.79749389996     IErMin= 1 ErrMin= 1.57D-04
 ErrMax= 1.57D-04  0.00D+00 EMaxC= 1.00D-01 BMatC= 4.48D-05 BMatP= 4.48D-05
 IDIUse=3 WtCom= 9.98D-01 WtEn= 1.57D-03
 Coeff-Com:  0.100D+01
 Coeff-En:   0.100D+01
 Coeff:      0.100D+01
 Gap=     0.243 Goal=   None    Shift=    0.000
 Gap=     0.243 Goal=   None    Shift=    0.000
 RMSDP=8.18D-06 MaxDP=3.97D-04 DE= 5.11D-04 OVMax= 5.91D-04

 Cycle   9  Pass 1  IDiag  1:
 RMSU=  1.23D-04    CP:  1.00D+00
 E= -2645.79750192257     Delta-E=       -0.000008022605 Rises=F Damp=F
 DIIS: error= 3.73D-05 at cycle   2 NSaved=   2.
 NSaved= 2 IEnMin= 2 EnMin= -2645.79750192257     IErMin= 2 ErrMin= 3.73D-05
 ErrMax= 3.73D-05  0.00D+00 EMaxC= 1.00D-01 BMatC= 1.03D-05 BMatP= 4.48D-05
 IDIUse=1 WtCom= 1.00D+00 WtEn= 0.00D+00
 Coeff-Com:  0.233D+00 0.767D+00
 Coeff:      0.233D+00 0.767D+00
 Gap=     0.243 Goal=   None    Shift=    0.000
 Gap=     0.243 Goal=   None    Shift=    0.000
 RMSDP=7.30D-06 MaxDP=3.69D-04 DE=-8.02D-06 OVMax= 5.60D-04

 Cycle  10  Pass 1  IDiag  1:
 RMSU=  5.84D-06    CP:  1.00D+00  1.04D+00
 E= -2645.79750171772     Delta-E=        0.000000204845 Rises=F Damp=F
 DIIS: error= 4.12D-05 at cycle   3 NSaved=   3.
 NSaved= 3 IEnMin= 2 EnMin= -2645.79750192257     IErMin= 2 ErrMin= 3.73D-05
 ErrMax= 4.12D-05  0.00D+00 EMaxC= 1.00D-01 BMatC= 1.15D-05 BMatP= 1.03D-05
 IDIUse=1 WtCom= 1.00D+00 WtEn= 0.00D+00
 Coeff-Com: -0.167D-01 0.518D+00 0.499D+00
 Coeff:     -0.167D-01 0.518D+00 0.499D+00
 Gap=     0.243 Goal=   None    Shift=    0.000
 Gap=     0.243 Goal=   None    Shift=    0.000
 RMSDP=3.47D-06 MaxDP=2.08D-04 DE= 2.05D-07 OVMax= 3.41D-04

 Cycle  11  Pass 1  IDiag  1:
 RMSU=  1.55D-06    CP:  1.00D+00  1.05D+00  5.58D-01
 E= -2645.79750466274     Delta-E=       -0.000002945018 Rises=F Damp=F
 DIIS: error= 6.03D-06 at cycle   4 NSaved=   4.
 NSaved= 4 IEnMin= 4 EnMin= -2645.79750466274     IErMin= 4 ErrMin= 6.03D-06
 ErrMax= 6.03D-06  0.00D+00 EMaxC= 1.00D-01 BMatC= 2.88D-07 BMatP= 1.03D-05
 IDIUse=1 WtCom= 1.00D+00 WtEn= 0.00D+00
 Coeff-Com: -0.158D-01 0.270D+00 0.279D+00 0.467D+00
 Coeff:     -0.158D-01 0.270D+00 0.279D+00 0.467D+00
 Gap=     0.243 Goal=   None    Shift=    0.000
 Gap=     0.243 Goal=   None    Shift=    0.000
 RMSDP=5.30D-07 MaxDP=3.07D-05 DE=-2.95D-06 OVMax= 4.75D-05

 Cycle  12  Pass 1  IDiag  1:
 RMSU=  4.97D-07    CP:  1.00D+00  1.05D+00  5.77D-01  9.24D-01
 E= -2645.79750474127     Delta-E=       -0.000000078529 Rises=F Damp=F
 DIIS: error= 1.19D-06 at cycle   5 NSaved=   5.
 NSaved= 5 IEnMin= 5 EnMin= -2645.79750474127     IErMin= 5 ErrMin= 1.19D-06
 ErrMax= 1.19D-06  0.00D+00 EMaxC= 1.00D-01 BMatC= 1.24D-08 BMatP= 2.88D-07
 IDIUse=1 WtCom= 1.00D+00 WtEn= 0.00D+00
 Coeff-Com:  0.254D-02-0.930D-01-0.886D-01 0.133D-01 0.117D+01
 Coeff:      0.254D-02-0.930D-01-0.886D-01 0.133D-01 0.117D+01
 Gap=     0.243 Goal=   None    Shift=    0.000
 Gap=     0.243 Goal=   None    Shift=    0.000
 RMSDP=4.07D-07 MaxDP=2.55D-05 DE=-7.85D-08 OVMax= 6.05D-05

 Cycle  13  Pass 1  IDiag  1:
 RMSU=  2.39D-07    CP:  1.00D+00  1.05D+00  5.89D-01  1.11D+00  1.25D+00
 E= -2645.79750475703     Delta-E=       -0.000000015759 Rises=F Damp=F
 DIIS: error= 1.04D-06 at cycle   6 NSaved=   6.
 NSaved= 6 IEnMin= 6 EnMin= -2645.79750475703     IErMin= 6 ErrMin= 1.04D-06
 ErrMax= 1.04D-06  0.00D+00 EMaxC= 1.00D-01 BMatC= 5.77D-09 BMatP= 1.24D-08
 IDIUse=1 WtCom= 1.00D+00 WtEn= 0.00D+00
 Coeff-Com:  0.389D-02-0.924D-01-0.918D-01-0.730D-01 0.631D+00 0.623D+00
 Coeff:      0.389D-02-0.924D-01-0.918D-01-0.730D-01 0.631D+00 0.623D+00
 Gap=     0.243 Goal=   None    Shift=    0.000
 Gap=     0.243 Goal=   None    Shift=    0.000
 RMSDP=1.30D-07 MaxDP=7.89D-06 DE=-1.58D-08 OVMax= 2.27D-05

 Cycle  14  Pass 1  IDiag  1:
 RMSU=  8.98D-08    CP:  1.00D+00  1.05D+00  5.91D-01  1.14D+00  1.39D+00
                    CP:  1.11D+00
 E= -2645.79750475152     Delta-E=        0.000000005510 Rises=F Damp=F
 DIIS: error= 3.51D-07 at cycle   7 NSaved=   7.
 NSaved= 7 IEnMin= 6 EnMin= -2645.79750475703     IErMin= 7 ErrMin= 3.51D-07
 ErrMax= 3.51D-07  0.00D+00 EMaxC= 1.00D-01 BMatC= 4.37D-10 BMatP= 5.77D-09
 IDIUse=1 WtCom= 1.00D+00 WtEn= 0.00D+00
 Coeff-Com:  0.145D-02-0.310D-01-0.311D-01-0.354D-01 0.145D+00 0.271D+00
 Coeff-Com:  0.680D+00
 Coeff:      0.145D-02-0.310D-01-0.311D-01-0.354D-01 0.145D+00 0.271D+00
 Coeff:      0.680D+00
 Gap=     0.243 Goal=   None    Shift=    0.000
 Gap=     0.243 Goal=   None    Shift=    0.000
 RMSDP=3.89D-08 MaxDP=1.58D-06 DE= 5.51D-09 OVMax= 5.48D-06

 Cycle  15  Pass 1  IDiag  1:
 RMSU=  2.17D-08    CP:  1.00D+00  1.05D+00  5.91D-01  1.15D+00  1.41D+00
                    CP:  1.23D+00  9.64D-01
 E= -2645.79750475170     Delta-E=       -0.000000000176 Rises=F Damp=F
 DIIS: error= 8.61D-08 at cycle   8 NSaved=   8.
 NSaved= 8 IEnMin= 6 EnMin= -2645.79750475703     IErMin= 8 ErrMin= 8.61D-08
 ErrMax= 8.61D-08  0.00D+00 EMaxC= 1.00D-01 BMatC= 5.33D-11 BMatP= 4.37D-10
 IDIUse=1 WtCom= 1.00D+00 WtEn= 0.00D+00
 Coeff-Com:  0.138D-04 0.110D-02 0.996D-03-0.277D-02-0.292D-01 0.211D-01
 Coeff-Com:  0.286D+00 0.723D+00
 Coeff:      0.138D-04 0.110D-02 0.996D-03-0.277D-02-0.292D-01 0.211D-01
 Coeff:      0.286D+00 0.723D+00
 Gap=     0.243 Goal=   None    Shift=    0.000
 Gap=     0.243 Goal=   None    Shift=    0.000
 RMSDP=1.40D-08 MaxDP=5.40D-07 DE=-1.76D-10 OVMax= 1.58D-06

 Cycle  16  Pass 1  IDiag  1:
 RMSU=  7.51D-09    CP:  1.00D+00  1.05D+00  5.91D-01  1.14D+00  1.41D+00
                    CP:  1.25D+00  1.02D+00  8.53D-01
 E= -2645.79750475145     Delta-E=        0.000000000248 Rises=F Damp=F
 DIIS: error= 2.19D-08 at cycle   9 NSaved=   9.
 NSaved= 9 IEnMin= 6 EnMin= -2645.79750475703     IErMin= 9 ErrMin= 2.19D-08
 ErrMax= 2.19D-08  0.00D+00 EMaxC= 1.00D-01 BMatC= 5.88D-12 BMatP= 5.33D-11
 IDIUse=1 WtCom= 1.00D+00 WtEn= 0.00D+00
 Coeff-Com: -0.120D-03 0.314D-02 0.312D-02 0.183D-02-0.267D-01-0.175D-01
 Coeff-Com:  0.660D-01 0.305D+00 0.665D+00
 Coeff:     -0.120D-03 0.314D-02 0.312D-02 0.183D-02-0.267D-01-0.175D-01
 Coeff:      0.660D-01 0.305D+00 0.665D+00
 Gap=     0.243 Goal=   None    Shift=    0.000
 Gap=     0.243 Goal=   None    Shift=    0.000
 RMSDP=4.05D-09 MaxDP=2.13D-07 DE= 2.48D-10 OVMax= 6.45D-07

 SCF Done:  E(ULC-wPBE) =  -2645.79750475     A.U. after   16 cycles
            NFock= 16  Conv=0.40D-08     -V/T= 2.0042
 <Sx>= 0.0000 <Sy>= 0.0000 <Sz>= 0.0000 <S**2>=-0.0000 S=-0.0000
 <L.S>= 0.000000000000E+00
 KE= 2.634678832590D+03 PE=-1.354344480567D+04 EE= 4.604357579979D+03
 Annihilation of the first spin contaminant:
 S**2 before annihilation    -0.0000,   after     0.0000
 Leave Link  502 at Fri Jul 24 21:48:47 2020, MaxMem=  4026531840 cpu:            3326.1 elap:             417.4
 (Enter /opt/ohpc/pub/libs/gaussian/g16-A.03/sandybridge/g16/l601.exe)
 Copying SCF densities to generalized density rwf, IOpCl= 1 IROHF=0.

 **********************************************************************

            Population analysis using the SCF density.

 **********************************************************************

 Orbital symmetries:
 Alpha Orbitals:
       Occupied  (A) (A) (A) (A) (A) (A) (A) (A) (A) (A) (A) (A)
                 (A) (A) (A) (A) (A) (A) (A) (A) (A) (A) (A) (A)
                 (A) (A) (A) (A) (A) (A) (A) (A) (A) (A) (A) (A)
                 (A) (A) (A) (A) (A) (A) (A) (A) (A) (A) (A) (A)
                 (A) (A) (A) (A) (A) (A) (A) (A) (A) (A) (A) (A)
                 (A) (A) (A) (A) (A) (A) (A) (A) (A) (A) (A) (A)
                 (A) (A) (A) (A) (A) (A) (A) (A) (A) (A) (A) (A)
                 (A) (A) (A) (A) (A) (A) (A) (A) (A) (A) (A) (A)
                 (A) (A) (A) (A) (A) (A) (A) (A) (A) (A) (A) (A)
                 (A) (A) (A) (A) (A) (A) (A) (A) (A) (A) (A) (A)
                 (A) (A) (A) (A) (A) (A) (A) (A) (A) (A) (A) (A)
                 (A) (A) (A) (A)
       Virtual   (A) (A) (A) (A) (A) (A) (A) (A) (A) (A) (A) (A)
                 (A) (A) (A) (A) (A) (A) (A) (A) (A) (A) (A) (A)
                 (A) (A) (A) (A) (A) (A) (A) (A) (A) (A) (A) (A)
                 (A) (A) (A) (A) (A) (A) (A) (A) (A) (A) (A) (A)
                 (A) (A) (A) (A) (A) (A) (A) (A) (A) (A) (A) (A)
                 (A) (A) (A) (A) (A) (A) (A) (A) (A) (A) (A) (A)
                 (A) (A) (A) (A) (A) (A) (A) (A) (A) (A) (A) (A)
                 (A) (A) (A) (A) (A) (A) (A) (A) (A) (A) (A) (A)
                 (A) (A) (A) (A) (A) (A) (A) (A) (A) (A) (A) (A)
                 (A) (A) (A) (A) (A) (A) (A) (A) (A) (A) (A) (A)
                 (A) (A) (A) (A) (A) (A) (A) (A) (A) (A) (A) (A)
                 (A) (A) (A) (A) (A) (A) (A) (A) (A) (A) (A) (A)
                 (A) (A) (A) (A) (A) (A) (A) (A) (A) (A) (A) (A)
                 (A) (A) (A) (A) (A) (A) (A) (A) (A) (A) (A) (A)
                 (A) (A) (A) (A) (A) (A) (A) (A) (A) (A) (A) (A)
                 (A) (A) (A) (A) (A) (A) (A) (A) (A) (A) (A) (A)
                 (A) (A) (A) (A) (A) (A) (A) (A) (A) (A) (A) (A)
                 (A) (A) (A) (A) (A) (A) (A) (A) (A) (A) (A) (A)
                 (A) (A) (A) (A) (A) (A) (A) (A) (A) (A) (A) (A)
                 (A) (A) (A) (A) (A) (A) (A) (A) (A) (A) (A) (A)
                 (A) (A) (A) (A) (A) (A) (A) (A) (A) (A) (A) (A)
                 (A) (A) (A) (A) (A) (A) (A) (A) (A) (A) (A) (A)
                 (A) (A) (A) (A) (A) (A) (A) (A) (A) (A) (A) (A)
                 (A) (A) (A) (A) (A) (A) (A) (A) (A) (A) (A) (A)
                 (A) (A) (A) (A) (A) (A) (A) (A) (A) (A) (A) (A)
                 (A) (A) (A) (A) (A) (A) (A) (A) (A) (A) (A) (A)
                 (A) (A) (A) (A) (A) (A) (A) (A) (A) (A) (A) (A)
                 (A) (A) (A) (A) (A) (A) (A) (A) (A) (A) (A) (A)
                 (A) (A) (A) (A) (A) (A) (A) (A) (A) (A) (A) (A)
                 (A) (A) (A) (A) (A) (A) (A) (A) (A) (A) (A) (A)
                 (A) (A) (A) (A) (A) (A) (A) (A) (A) (A) (A) (A)
                 (A) (A) (A) (A) (A) (A) (A) (A) (A) (A) (A) (A)
                 (A) (A) (A) (A) (A) (A) (A) (A) (A) (A) (A) (A)
                 (A) (A) (A) (A) (A) (A) (A) (A) (A) (A) (A) (A)
                 (A) (A) (A) (A) (A) (A) (A) (A) (A) (A) (A) (A)
                 (A) (A) (A) (A) (A) (A) (A) (A) (A) (A) (A) (A)
                 (A) (A) (A) (A) (A) (A) (A) (A) (A) (A) (A) (A)
                 (A) (A) (A) (A) (A) (A) (A) (A) (A) (A) (A) (A)
                 (A) (A) (A) (A) (A) (A) (A) (A) (A)
 Beta  Orbitals:
       Occupied  (A) (A) (A) (A) (A) (A) (A) (A) (A) (A) (A) (A)
                 (A) (A) (A) (A) (A) (A) (A) (A) (A) (A) (A) (A)
                 (A) (A) (A) (A) (A) (A) (A) (A) (A) (A) (A) (A)
                 (A) (A) (A) (A) (A) (A) (A) (A) (A) (A) (A) (A)
                 (A) (A) (A) (A) (A) (A) (A) (A) (A) (A) (A) (A)
                 (A) (A) (A) (A) (A) (A) (A) (A) (A) (A) (A) (A)
                 (A) (A) (A) (A) (A) (A) (A) (A) (A) (A) (A) (A)
                 (A) (A) (A) (A) (A) (A) (A) (A) (A) (A) (A) (A)
                 (A) (A) (A) (A) (A) (A) (A) (A) (A) (A) (A) (A)
                 (A) (A) (A) (A) (A) (A) (A) (A) (A) (A) (A) (A)
                 (A) (A) (A) (A) (A) (A) (A) (A) (A) (A) (A) (A)
                 (A) (A) (A) (A)
       Virtual   (A) (A) (A) (A) (A) (A) (A) (A) (A) (A) (A) (A)
                 (A) (A) (A) (A) (A) (A) (A) (A) (A) (A) (A) (A)
                 (A) (A) (A) (A) (A) (A) (A) (A) (A) (A) (A) (A)
                 (A) (A) (A) (A) (A) (A) (A) (A) (A) (A) (A) (A)
                 (A) (A) (A) (A) (A) (A) (A) (A) (A) (A) (A) (A)
                 (A) (A) (A) (A) (A) (A) (A) (A) (A) (A) (A) (A)
                 (A) (A) (A) (A) (A) (A) (A) (A) (A) (A) (A) (A)
                 (A) (A) (A) (A) (A) (A) (A) (A) (A) (A) (A) (A)
                 (A) (A) (A) (A) (A) (A) (A) (A) (A) (A) (A) (A)
                 (A) (A) (A) (A) (A) (A) (A) (A) (A) (A) (A) (A)
                 (A) (A) (A) (A) (A) (A) (A) (A) (A) (A) (A) (A)
                 (A) (A) (A) (A) (A) (A) (A) (A) (A) (A) (A) (A)
                 (A) (A) (A) (A) (A) (A) (A) (A) (A) (A) (A) (A)
                 (A) (A) (A) (A) (A) (A) (A) (A) (A) (A) (A) (A)
                 (A) (A) (A) (A) (A) (A) (A) (A) (A) (A) (A) (A)
                 (A) (A) (A) (A) (A) (A) (A) (A) (A) (A) (A) (A)
                 (A) (A) (A) (A) (A) (A) (A) (A) (A) (A) (A) (A)
                 (A) (A) (A) (A) (A) (A) (A) (A) (A) (A) (A) (A)
                 (A) (A) (A) (A) (A) (A) (A) (A) (A) (A) (A) (A)
                 (A) (A) (A) (A) (A) (A) (A) (A) (A) (A) (A) (A)
                 (A) (A) (A) (A) (A) (A) (A) (A) (A) (A) (A) (A)
                 (A) (A) (A) (A) (A) (A) (A) (A) (A) (A) (A) (A)
                 (A) (A) (A) (A) (A) (A) (A) (A) (A) (A) (A) (A)
                 (A) (A) (A) (A) (A) (A) (A) (A) (A) (A) (A) (A)
                 (A) (A) (A) (A) (A) (A) (A) (A) (A) (A) (A) (A)
                 (A) (A) (A) (A) (A) (A) (A) (A) (A) (A) (A) (A)
                 (A) (A) (A) (A) (A) (A) (A) (A) (A) (A) (A) (A)
                 (A) (A) (A) (A) (A) (A) (A) (A) (A) (A) (A) (A)
                 (A) (A) (A) (A) (A) (A) (A) (A) (A) (A) (A) (A)
                 (A) (A) (A) (A) (A) (A) (A) (A) (A) (A) (A) (A)
                 (A) (A) (A) (A) (A) (A) (A) (A) (A) (A) (A) (A)
                 (A) (A) (A) (A) (A) (A) (A) (A) (A) (A) (A) (A)
                 (A) (A) (A) (A) (A) (A) (A) (A) (A) (A) (A) (A)
                 (A) (A) (A) (A) (A) (A) (A) (A) (A) (A) (A) (A)
                 (A) (A) (A) (A) (A) (A) (A) (A) (A) (A) (A) (A)
                 (A) (A) (A) (A) (A) (A) (A) (A) (A) (A) (A) (A)
                 (A) (A) (A) (A) (A) (A) (A) (A) (A) (A) (A) (A)
                 (A) (A) (A) (A) (A) (A) (A) (A) (A) (A) (A) (A)
                 (A) (A) (A) (A) (A) (A) (A) (A) (A)
 The electronic state is 1-A.
 Alpha  occ. eigenvalues --  -88.20180 -88.20168 -88.20105 -24.39986 -24.39744
 Alpha  occ. eigenvalues --  -24.38834 -10.09672 -10.08934 -10.08272 -10.03813
 Alpha  occ. eigenvalues --  -10.03594 -10.03567 -10.03540 -10.03119 -10.03013
 Alpha  occ. eigenvalues --  -10.02607 -10.02596 -10.02522 -10.02419 -10.02316
 Alpha  occ. eigenvalues --  -10.02182 -10.02072 -10.01797 -10.01709 -10.01659
 Alpha  occ. eigenvalues --  -10.01539 -10.01432 -10.01346 -10.01241 -10.01222
 Alpha  occ. eigenvalues --  -10.01026 -10.00778 -10.00553 -10.00534 -10.00505
 Alpha  occ. eigenvalues --  -10.00419  -7.80663  -7.80575  -7.80495  -5.82643
 Alpha  occ. eigenvalues --   -5.82605  -5.82510  -5.82162  -5.82122  -5.82061
 Alpha  occ. eigenvalues --   -5.81930  -5.81765  -5.81698  -1.24236  -1.23157
 Alpha  occ. eigenvalues --   -1.22671  -0.92985  -0.92648  -0.92325  -0.90553
 Alpha  occ. eigenvalues --   -0.89606  -0.88855  -0.84805  -0.82900  -0.81419
 Alpha  occ. eigenvalues --   -0.78699  -0.78612  -0.78327  -0.77945  -0.77619
 Alpha  occ. eigenvalues --   -0.77263  -0.76807  -0.75123  -0.72821  -0.69350
 Alpha  occ. eigenvalues --   -0.67379  -0.66898  -0.66511  -0.65965  -0.65303
 Alpha  occ. eigenvalues --   -0.61683  -0.61383  -0.60771  -0.60667  -0.60476
 Alpha  occ. eigenvalues --   -0.59747  -0.58116  -0.57097  -0.56887  -0.56002
 Alpha  occ. eigenvalues --   -0.55453  -0.54731  -0.54390  -0.54299  -0.54084
 Alpha  occ. eigenvalues --   -0.52992  -0.52240  -0.51612  -0.51029  -0.50700
 Alpha  occ. eigenvalues --   -0.49625  -0.48670  -0.47860  -0.47260  -0.46658
 Alpha  occ. eigenvalues --   -0.46424  -0.46117  -0.45918  -0.45625  -0.45411
 Alpha  occ. eigenvalues --   -0.45156  -0.44880  -0.44643  -0.44537  -0.44260
 Alpha  occ. eigenvalues --   -0.43745  -0.43403  -0.43107  -0.42586  -0.42006
 Alpha  occ. eigenvalues --   -0.41057  -0.40993  -0.40444  -0.40266  -0.39923
 Alpha  occ. eigenvalues --   -0.39119  -0.39046  -0.38815  -0.37978  -0.34732
 Alpha  occ. eigenvalues --   -0.33682  -0.33180  -0.31707  -0.31481  -0.31302
 Alpha  occ. eigenvalues --   -0.31116  -0.30926  -0.30800  -0.28927  -0.27555
 Alpha  occ. eigenvalues --   -0.26115
 Alpha virt. eigenvalues --   -0.01846  -0.00260   0.02121   0.02991   0.03109
 Alpha virt. eigenvalues --    0.03426   0.04285   0.05863   0.06251   0.08373
 Alpha virt. eigenvalues --    0.09012   0.09387   0.09931   0.10530   0.10859
 Alpha virt. eigenvalues --    0.11313   0.11677   0.12691   0.12986   0.13570
 Alpha virt. eigenvalues --    0.14264   0.15194   0.15293   0.15557   0.16482
 Alpha virt. eigenvalues --    0.16912   0.17223   0.17353   0.17839   0.18512
 Alpha virt. eigenvalues --    0.18783   0.19035   0.19234   0.19328   0.19677
 Alpha virt. eigenvalues --    0.20869   0.21320   0.21524   0.22270   0.22449
 Alpha virt. eigenvalues --    0.23178   0.26570   0.27218   0.27317   0.28446
 Alpha virt. eigenvalues --    0.28914   0.29192   0.30048   0.31494   0.31892
 Alpha virt. eigenvalues --    0.32201   0.33480   0.34073   0.34449   0.34596
 Alpha virt. eigenvalues --    0.35182   0.35766   0.36939   0.37786   0.38275
 Alpha virt. eigenvalues --    0.38794   0.39792   0.40590   0.41306   0.42432
 Alpha virt. eigenvalues --    0.42991   0.43942   0.44821   0.45039   0.45568
 Alpha virt. eigenvalues --    0.46104   0.46577   0.47081   0.47278   0.47751
 Alpha virt. eigenvalues --    0.48292   0.48393   0.48844   0.49094   0.49386
 Alpha virt. eigenvalues --    0.49506   0.49894   0.49975   0.50100   0.50336
 Alpha virt. eigenvalues --    0.50585   0.50650   0.51075   0.51811   0.52042
 Alpha virt. eigenvalues --    0.52212   0.52334   0.52887   0.52963   0.53090
 Alpha virt. eigenvalues --    0.53562   0.53627   0.53848   0.53969   0.54239
 Alpha virt. eigenvalues --    0.54865   0.55102   0.55416   0.55586   0.55880
 Alpha virt. eigenvalues --    0.56117   0.56355   0.56632   0.56687   0.56954
 Alpha virt. eigenvalues --    0.57195   0.57491   0.57712   0.57988   0.58383
 Alpha virt. eigenvalues --    0.58851   0.59171   0.59566   0.59957   0.60294
 Alpha virt. eigenvalues --    0.60591   0.61330   0.61684   0.62306   0.62505
 Alpha virt. eigenvalues --    0.62749   0.63227   0.63514   0.63824   0.64068
 Alpha virt. eigenvalues --    0.64921   0.65336   0.66007   0.66339   0.66692
 Alpha virt. eigenvalues --    0.67104   0.67479   0.68464   0.68612   0.68804
 Alpha virt. eigenvalues --    0.69013   0.69379   0.69974   0.70112   0.70820
 Alpha virt. eigenvalues --    0.71334   0.71585   0.71693   0.72215   0.72279
 Alpha virt. eigenvalues --    0.72589   0.73470   0.73806   0.74126   0.74906
 Alpha virt. eigenvalues --    0.75293   0.75789   0.75908   0.76423   0.77001
 Alpha virt. eigenvalues --    0.77275   0.77673   0.78280   0.78660   0.79106
 Alpha virt. eigenvalues --    0.79784   0.80553   0.82090   0.82203   0.82305
 Alpha virt. eigenvalues --    0.83088   0.83781   0.84386   0.85476   0.85806
 Alpha virt. eigenvalues --    0.86163   0.87024   0.87748   0.88461   0.89931
 Alpha virt. eigenvalues --    0.90106   0.91116   0.91863   0.92098   0.92309
 Alpha virt. eigenvalues --    0.93213   0.93533   0.94240   0.94456   0.95111
 Alpha virt. eigenvalues --    0.95513   0.95743   0.96941   0.97109   0.97516
 Alpha virt. eigenvalues --    0.97734   0.98541   0.99375   0.99613   1.00339
 Alpha virt. eigenvalues --    1.00600   1.00785   1.01106   1.01574   1.01920
 Alpha virt. eigenvalues --    1.03381   1.03453   1.03654   1.04268   1.04673
 Alpha virt. eigenvalues --    1.04831   1.05535   1.06386   1.06763   1.07176
 Alpha virt. eigenvalues --    1.07538   1.08135   1.08421   1.09206   1.09697
 Alpha virt. eigenvalues --    1.09987   1.10542   1.10787   1.11434   1.11904
 Alpha virt. eigenvalues --    1.12371   1.12537   1.13297   1.13679   1.14991
 Alpha virt. eigenvalues --    1.15466   1.16271   1.16666   1.16942   1.18866
 Alpha virt. eigenvalues --    1.19372   1.19599   1.21281   1.21489   1.21899
 Alpha virt. eigenvalues --    1.22319   1.22457   1.23351   1.23787   1.24497
 Alpha virt. eigenvalues --    1.24920   1.26620   1.27338   1.27972   1.28081
 Alpha virt. eigenvalues --    1.29969   1.31493   1.32093   1.32321   1.32874
 Alpha virt. eigenvalues --    1.33122   1.34005   1.34966   1.35945   1.36823
 Alpha virt. eigenvalues --    1.37625   1.38152   1.39289   1.39820   1.40334
 Alpha virt. eigenvalues --    1.41365   1.41637   1.42877   1.44810   1.45347
 Alpha virt. eigenvalues --    1.45831   1.46067   1.46295   1.47153   1.47835
 Alpha virt. eigenvalues --    1.48288   1.48788   1.49594   1.50004   1.50985
 Alpha virt. eigenvalues --    1.51640   1.51850   1.52345   1.52546   1.53261
 Alpha virt. eigenvalues --    1.54017   1.54415   1.54799   1.55224   1.55915
 Alpha virt. eigenvalues --    1.56265   1.57107   1.57766   1.58433   1.58815
 Alpha virt. eigenvalues --    1.59698   1.59980   1.60547   1.61644   1.61988
 Alpha virt. eigenvalues --    1.62145   1.62640   1.63438   1.63570   1.64088
 Alpha virt. eigenvalues --    1.64349   1.64736   1.64773   1.65543   1.65752
 Alpha virt. eigenvalues --    1.66075   1.66332   1.66589   1.67317   1.67791
 Alpha virt. eigenvalues --    1.68129   1.68555   1.68936   1.69735   1.70489
 Alpha virt. eigenvalues --    1.70753   1.71765   1.72011   1.72534   1.73276
 Alpha virt. eigenvalues --    1.73507   1.74324   1.75014   1.75491   1.76314
 Alpha virt. eigenvalues --    1.76346   1.76751   1.77532   1.77800   1.78212
 Alpha virt. eigenvalues --    1.78714   1.79517   1.80214   1.80751   1.81005
 Alpha virt. eigenvalues --    1.81550   1.82370   1.83922   1.84437   1.84595
 Alpha virt. eigenvalues --    1.85119   1.85598   1.86366   1.86515   1.87060
 Alpha virt. eigenvalues --    1.87601   1.87863   1.88332   1.88784   1.89292
 Alpha virt. eigenvalues --    1.89901   1.90487   1.91139   1.91316   1.92111
 Alpha virt. eigenvalues --    1.92453   1.92864   1.93631   1.94613   1.94926
 Alpha virt. eigenvalues --    1.95583   1.96860   1.96926   1.97571   1.98049
 Alpha virt. eigenvalues --    1.98459   1.99586   1.99822   2.00455   2.01690
 Alpha virt. eigenvalues --    2.02628   2.03979   2.04553   2.04955   2.05192
 Alpha virt. eigenvalues --    2.07000   2.07766   2.09594   2.09927   2.11066
 Alpha virt. eigenvalues --    2.12987   2.13669   2.14428   2.15250   2.16464
 Alpha virt. eigenvalues --    2.16842   2.18295   2.19145   2.20545   2.21234
 Alpha virt. eigenvalues --    2.22235   2.23680   2.26098   2.27145   2.28208
 Alpha virt. eigenvalues --    2.28550   2.28929   2.29703   2.30199   2.32033
 Alpha virt. eigenvalues --    2.34507   2.35759   2.37033   2.38903   2.39664
 Alpha virt. eigenvalues --    2.40113   2.41584   2.42271   2.43044   2.43853
 Alpha virt. eigenvalues --    2.45800   2.46465   2.49327   2.50379   2.51951
 Alpha virt. eigenvalues --    2.52753   2.53705   2.54129   2.55040   2.56399
 Alpha virt. eigenvalues --    2.56676   2.57974   2.59223   2.61459   2.64567
 Alpha virt. eigenvalues --    2.65305   2.65583   2.66928   2.68621   2.70560
 Alpha virt. eigenvalues --    2.70834   2.72236   2.74204   2.76959   2.78499
 Alpha virt. eigenvalues --    2.79338   2.80337   2.84780   2.86946   3.12677
 Alpha virt. eigenvalues --    3.13663   3.14497   3.30231   3.34594   3.45176
 Alpha virt. eigenvalues --    3.55742   3.56080   3.56931   3.59170   3.60428
 Alpha virt. eigenvalues --    3.60729   3.74540   3.76755   3.76897   3.93484
 Alpha virt. eigenvalues --    3.98258   3.98269   4.17547   4.19035   4.19462
  Beta  occ. eigenvalues --  -88.20180 -88.20168 -88.20105 -24.39986 -24.39744
  Beta  occ. eigenvalues --  -24.38834 -10.09672 -10.08934 -10.08272 -10.03813
  Beta  occ. eigenvalues --  -10.03594 -10.03567 -10.03540 -10.03119 -10.03013
  Beta  occ. eigenvalues --  -10.02607 -10.02596 -10.02522 -10.02419 -10.02316
  Beta  occ. eigenvalues --  -10.02182 -10.02072 -10.01797 -10.01709 -10.01659
  Beta  occ. eigenvalues --  -10.01539 -10.01432 -10.01346 -10.01241 -10.01222
  Beta  occ. eigenvalues --  -10.01026 -10.00778 -10.00553 -10.00534 -10.00505
  Beta  occ. eigenvalues --  -10.00419  -7.80663  -7.80575  -7.80495  -5.82643
  Beta  occ. eigenvalues --   -5.82605  -5.82510  -5.82162  -5.82122  -5.82061
  Beta  occ. eigenvalues --   -5.81930  -5.81765  -5.81698  -1.24236  -1.23157
  Beta  occ. eigenvalues --   -1.22671  -0.92985  -0.92648  -0.92325  -0.90553
  Beta  occ. eigenvalues --   -0.89606  -0.88855  -0.84805  -0.82900  -0.81419
  Beta  occ. eigenvalues --   -0.78699  -0.78612  -0.78327  -0.77945  -0.77619
  Beta  occ. eigenvalues --   -0.77263  -0.76807  -0.75123  -0.72821  -0.69350
  Beta  occ. eigenvalues --   -0.67379  -0.66898  -0.66511  -0.65965  -0.65303
  Beta  occ. eigenvalues --   -0.61683  -0.61383  -0.60771  -0.60667  -0.60476
  Beta  occ. eigenvalues --   -0.59747  -0.58116  -0.57097  -0.56887  -0.56002
  Beta  occ. eigenvalues --   -0.55453  -0.54731  -0.54390  -0.54299  -0.54084
  Beta  occ. eigenvalues --   -0.52992  -0.52240  -0.51612  -0.51029  -0.50700
  Beta  occ. eigenvalues --   -0.49625  -0.48670  -0.47860  -0.47260  -0.46658
  Beta  occ. eigenvalues --   -0.46424  -0.46117  -0.45918  -0.45625  -0.45411
  Beta  occ. eigenvalues --   -0.45156  -0.44880  -0.44643  -0.44537  -0.44260
  Beta  occ. eigenvalues --   -0.43745  -0.43403  -0.43107  -0.42586  -0.42006
  Beta  occ. eigenvalues --   -0.41057  -0.40993  -0.40444  -0.40266  -0.39923
  Beta  occ. eigenvalues --   -0.39119  -0.39046  -0.38815  -0.37978  -0.34732
  Beta  occ. eigenvalues --   -0.33682  -0.33180  -0.31707  -0.31481  -0.31302
  Beta  occ. eigenvalues --   -0.31116  -0.30926  -0.30800  -0.28927  -0.27555
  Beta  occ. eigenvalues --   -0.26115
  Beta virt. eigenvalues --   -0.01846  -0.00260   0.02121   0.02991   0.03109
  Beta virt. eigenvalues --    0.03426   0.04285   0.05863   0.06251   0.08373
  Beta virt. eigenvalues --    0.09012   0.09387   0.09931   0.10530   0.10859
  Beta virt. eigenvalues --    0.11313   0.11677   0.12691   0.12986   0.13570
  Beta virt. eigenvalues --    0.14264   0.15194   0.15293   0.15557   0.16482
  Beta virt. eigenvalues --    0.16912   0.17223   0.17353   0.17839   0.18512
  Beta virt. eigenvalues --    0.18783   0.19035   0.19234   0.19328   0.19677
  Beta virt. eigenvalues --    0.20869   0.21320   0.21524   0.22270   0.22449
  Beta virt. eigenvalues --    0.23178   0.26570   0.27218   0.27317   0.28446
  Beta virt. eigenvalues --    0.28914   0.29192   0.30048   0.31494   0.31892
  Beta virt. eigenvalues --    0.32201   0.33480   0.34073   0.34449   0.34596
  Beta virt. eigenvalues --    0.35182   0.35766   0.36939   0.37786   0.38275
  Beta virt. eigenvalues --    0.38794   0.39792   0.40590   0.41306   0.42432
  Beta virt. eigenvalues --    0.42991   0.43942   0.44821   0.45039   0.45568
  Beta virt. eigenvalues --    0.46104   0.46577   0.47081   0.47278   0.47751
  Beta virt. eigenvalues --    0.48292   0.48393   0.48844   0.49094   0.49386
[...]
    10   Atom        0.000000      0.000000     -0.000000
    11   Atom        0.000000      0.000000      0.000000
    12   Atom        0.000000     -0.000000      0.000000
    13   Atom        0.000000      0.000000     -0.000000
    14   Atom       -0.000000     -0.000000      0.000000
    15   Atom       -0.000000     -0.000000     -0.000000
    16   Atom       -0.000000      0.000000      0.000000
    17   Atom        0.000000     -0.000000     -0.000000
    18   Atom       -0.000000      0.000000     -0.000000
    19   Atom        0.000000     -0.000000     -0.000000
    20   Atom       -0.000000      0.000000      0.000000
    21   Atom       -0.000000      0.000000      0.000000
    22   Atom       -0.000000     -0.000000     -0.000000
    23   Atom        0.000000     -0.000000     -0.000000
    24   Atom        0.000000      0.000000     -0.000000
    25   Atom        0.000000     -0.000000     -0.000000
    26   Atom        0.000000      0.000000      0.000000
    27   Atom       -0.000000      0.000000     -0.000000
    28   Atom       -0.000000      0.000000     -0.000000
    29   Atom       -0.000000      0.000000     -0.000000
    30   Atom        0.000000     -0.000000      0.000000
    31   Atom       -0.000000     -0.000000      0.000000
    32   Atom       -0.000000     -0.000000     -0.000000
    33   Atom        0.000000      0.000000      0.000000
    34   Atom       -0.000000     -0.000000      0.000000
    35   Atom       -0.000000      0.000000      0.000000
    36   Atom       -0.000000      0.000000     -0.000000
    37   Atom       -0.000000      0.000000     -0.000000
    38   Atom        0.000000      0.000000     -0.000000
    39   Atom        0.000000      0.000000     -0.000000
    40   Atom        0.000000     -0.000000     -0.000000
    41   Atom        0.000000      0.000000      0.000000
    42   Atom        0.000000     -0.000000     -0.000000
    43   Atom        0.000000     -0.000000     -0.000000
    44   Atom        0.000000     -0.000000      0.000000
    45   Atom        0.000000     -0.000000      0.000000
    46   Atom        0.000000      0.000000      0.000000
    47   Atom       -0.000000     -0.000000     -0.000000
    48   Atom       -0.000000      0.000000      0.000000
    49   Atom       -0.000000      0.000000      0.000000
    50   Atom        0.000000     -0.000000      0.000000
    51   Atom       -0.000000      0.000000      0.000000
    52   Atom        0.000000     -0.000000      0.000000
    53   Atom       -0.000000     -0.000000     -0.000000
 --------------------------------------------------------


 ---------------------------------------------------------------------------------
              Anisotropic Spin Dipole Couplings in Principal Axis System
 ---------------------------------------------------------------------------------

       Atom             a.u.   MegaHertz   Gauss  10(-4) cm-1        Axes

              Baa    -0.0000    -0.000    -0.000    -0.000  0.8872  0.4224 -0.1858
     1 C(13)  Bbb    -0.0000    -0.000    -0.000    -0.000 -0.4300  0.9028 -0.0005
              Bcc     0.0000     0.000     0.000     0.000  0.1676  0.0803  0.9826
 
              Baa    -0.0000    -0.000    -0.000    -0.000 -0.0182 -0.3403  0.9401
     2 C(13)  Bbb    -0.0000    -0.000    -0.000    -0.000  0.2866  0.8991  0.3310
              Bcc     0.0000     0.000     0.000     0.000  0.9579 -0.2755 -0.0811
 
              Baa    -0.0000    -0.000    -0.000    -0.000  0.0302  0.0759  0.9967
     3 C(13)  Bbb    -0.0000    -0.000    -0.000    -0.000 -0.5614  0.8263 -0.0459
              Bcc     0.0000     0.000     0.000     0.000  0.8270  0.5581 -0.0675
 
              Baa    -0.0000    -0.000    -0.000    -0.000  0.9186  0.0436  0.3929
     4 C(13)  Bbb    -0.0000    -0.000    -0.000    -0.000 -0.3937  0.0131  0.9191
              Bcc     0.0000     0.000     0.000     0.000 -0.0349  0.9990 -0.0292
 
              Baa    -0.0000    -0.000    -0.000    -0.000  0.9238  0.3493 -0.1570
     5 C(13)  Bbb     0.0000     0.000     0.000     0.000  0.1486  0.0508  0.9876
              Bcc     0.0000     0.000     0.000     0.000 -0.3529  0.9356  0.0049
 
              Baa    -0.0000    -0.000    -0.000    -0.000 -0.2936  0.9479  0.1236
     6 F(19)  Bbb     0.0000     0.000     0.000     0.000  0.8788  0.3185 -0.3553
              Bcc     0.0000     0.000     0.000     0.000  0.3761 -0.0043  0.9266
 
              Baa    -0.0000    -0.000    -0.000    -0.000  0.7848  0.5955 -0.1719
     7 C(13)  Bbb     0.0000     0.000     0.000     0.000 -0.5636  0.8010  0.2017
              Bcc     0.0000     0.000     0.000     0.000  0.2578 -0.0614  0.9642
 
              Baa    -0.0000    -0.000    -0.000    -0.000  0.8081 -0.5724 -0.1391
     8 C(13)  Bbb    -0.0000    -0.000    -0.000    -0.000  0.5874  0.8005  0.1189
              Bcc     0.0000     0.000     0.000     0.000  0.0433 -0.1778  0.9831
 
              Baa    -0.0000    -0.000    -0.000    -0.000 -0.0816 -0.1990  0.9766
     9 C(13)  Bbb    -0.0000    -0.000    -0.000    -0.000  0.9353 -0.3539  0.0061
              Bcc     0.0000     0.000     0.000     0.000  0.3444  0.9139  0.2150
 
              Baa    -0.0000    -0.000    -0.000    -0.000  0.9580 -0.2841 -0.0400
    10 C(13)  Bbb     0.0000     0.000     0.000     0.000  0.1892  0.5210  0.8323
              Bcc     0.0000     0.000     0.000     0.000  0.2156  0.8049 -0.5529
 
              Baa    -0.0000    -0.000    -0.000    -0.000  0.7811 -0.6218  0.0577
    11 C(13)  Bbb     0.0000     0.000     0.000     0.000 -0.4072 -0.4371  0.8020
              Bcc     0.0000     0.000     0.000     0.000  0.4734  0.6499  0.5946
 
              Baa    -0.0000    -0.000    -0.000    -0.000  0.8935 -0.4397  0.0908
    12 S(33)  Bbb     0.0000     0.000     0.000     0.000 -0.1865 -0.1795  0.9659
              Bcc     0.0000     0.000     0.000     0.000  0.4084  0.8800  0.2424
 
              Baa    -0.0000    -0.000    -0.000    -0.000 -0.1362  0.3983  0.9071
    13 C(13)  Bbb    -0.0000    -0.000    -0.000    -0.000 -0.1410  0.8985 -0.4157
              Bcc     0.0000     0.000     0.000     0.000  0.9806  0.1846  0.0662
 
              Baa    -0.0000    -0.000    -0.000    -0.000  0.9924  0.1094  0.0565
    14 C(13)  Bbb    -0.0000    -0.000    -0.000    -0.000 -0.0502 -0.0598  0.9969
              Bcc     0.0000     0.000     0.000     0.000 -0.1124  0.9922  0.0539
 
              Baa    -0.0000    -0.000    -0.000    -0.000  0.7168  0.6939  0.0687
    15 C(13)  Bbb    -0.0000    -0.000    -0.000    -0.000 -0.0771 -0.0191  0.9968
              Bcc     0.0000     0.000     0.000     0.000 -0.6930  0.7198 -0.0399
 
              Baa    -0.0000    -0.000    -0.000    -0.000  0.9955  0.0638 -0.0707
    16 C(13)  Bbb     0.0000     0.000     0.000     0.000 -0.0901  0.8715 -0.4821
              Bcc     0.0000     0.000     0.000     0.000  0.0308  0.4863  0.8733
 
              Baa    -0.0000    -0.000    -0.000    -0.000 -0.0807  0.9944  0.0689
    17 C(13)  Bbb     0.0000     0.000     0.000     0.000  0.2425 -0.0474  0.9690
              Bcc     0.0000     0.000     0.000     0.000  0.9668  0.0948 -0.2373
 
              Baa    -0.0000    -0.000    -0.000    -0.000  0.8285  0.5193 -0.2096
    18 F(19)  Bbb    -0.0000    -0.000    -0.000    -0.000  0.1425  0.1664  0.9757
              Bcc     0.0000     0.000     0.000     0.000 -0.5415  0.8383 -0.0639
 
              Baa    -0.0000    -0.000    -0.000    -0.000  0.2194  0.0243  0.9753
    19 C(13)  Bbb    -0.0000    -0.000    -0.000    -0.000  0.8078 -0.5651 -0.1676
              Bcc     0.0000     0.000     0.000     0.000  0.5471  0.8247 -0.1436
 
              Baa    -0.0000    -0.000    -0.000    -0.000  0.1544  0.9874 -0.0341
    20 C(13)  Bbb     0.0000     0.000     0.000     0.000 -0.5206  0.1106  0.8466
              Bcc     0.0000     0.000     0.000     0.000  0.8397 -0.1129  0.5311
 
              Baa    -0.0000    -0.000    -0.000    -0.000 -0.5641 -0.2602  0.7837
    21 C(13)  Bbb    -0.0000    -0.000    -0.000    -0.000  0.7673  0.1856  0.6139
              Bcc     0.0000     0.000     0.000     0.000 -0.3052  0.9476  0.0950
 
              Baa    -0.0000    -0.000    -0.000    -0.000  0.6293  0.7552  0.1834
    22 C(13)  Bbb    -0.0000    -0.000    -0.000    -0.000 -0.1508 -0.1128  0.9821
              Bcc     0.0000     0.000     0.000     0.000  0.7624 -0.6457  0.0429
 
              Baa    -0.0000    -0.000    -0.000    -0.000  0.9990 -0.0357  0.0259
    23 C(13)  Bbb     0.0000     0.000     0.000     0.000 -0.0239  0.0545  0.9982
              Bcc     0.0000     0.000     0.000     0.000  0.0370  0.9979 -0.0536
 
              Baa    -0.0000    -0.000    -0.000    -0.000 -0.5578  0.8280  0.0578
    24 S(33)  Bbb     0.0000     0.000     0.000     0.000  0.0589 -0.0300  0.9978
              Bcc     0.0000     0.000     0.000     0.000  0.8279  0.5600 -0.0320
 
              Baa    -0.0000    -0.000    -0.000    -0.000  0.3315  0.1198  0.9358
    25 C(13)  Bbb    -0.0000    -0.000    -0.000    -0.000 -0.4837  0.8732  0.0596
              Bcc     0.0000     0.000     0.000     0.000  0.8100  0.4724 -0.3474
 
              Baa    -0.0000    -0.000    -0.000    -0.000 -0.0929  0.9459 -0.3108
    26 C(13)  Bbb    -0.0000    -0.000    -0.000    -0.000 -0.0488  0.3074  0.9503
              Bcc     0.0000     0.000     0.000     0.000  0.9945  0.1035  0.0176
 
              Baa    -0.0000    -0.000    -0.000    -0.000  0.9389  0.3398  0.0554
    27 C(13)  Bbb     0.0000     0.000     0.000     0.000 -0.1904  0.3786  0.9058
              Bcc     0.0000     0.000     0.000     0.000 -0.2868  0.8609 -0.4202
 
              Baa    -0.0000    -0.000    -0.000    -0.000 -0.6001  0.1236  0.7903
    28 C(13)  Bbb    -0.0000    -0.000    -0.000    -0.000  0.7551  0.4136  0.5086
              Bcc     0.0000     0.000     0.000     0.000 -0.2640  0.9020 -0.3416
 
              Baa    -0.0000    -0.000    -0.000    -0.000  0.2446  0.8307  0.5001
    29 C(13)  Bbb    -0.0000    -0.000    -0.000    -0.000 -0.3037 -0.4242  0.8531
              Bcc     0.0000     0.000     0.000     0.000  0.9208 -0.3605  0.1485
 
              Baa    -0.0000    -0.000    -0.000    -0.000 -0.3111  0.9172 -0.2490
    30 F(19)  Bbb    -0.0000    -0.000    -0.000    -0.000 -0.0371  0.2501  0.9675
              Bcc     0.0000     0.000     0.000     0.000  0.9496  0.3102 -0.0438
 
              Baa    -0.0000    -0.000    -0.000    -0.000  0.0250  0.8969 -0.4415
    31 C(13)  Bbb     0.0000     0.000     0.000     0.000  0.5184  0.3660  0.7729
              Bcc     0.0000     0.000     0.000     0.000  0.8548 -0.2482 -0.4558
 
              Baa    -0.0000    -0.000    -0.000    -0.000  0.3955  0.8717  0.2892
    32 C(13)  Bbb    -0.0000    -0.000    -0.000    -0.000 -0.0877 -0.2776  0.9567
              Bcc     0.0000     0.000     0.000     0.000  0.9143 -0.4037 -0.0333
 
              Baa    -0.0000    -0.000    -0.000    -0.000 -0.0286  0.9988 -0.0385
    33 C(13)  Bbb     0.0000     0.000     0.000     0.000  0.9994  0.0278 -0.0221
              Bcc     0.0000     0.000     0.000     0.000  0.0210  0.0391  0.9990
 
              Baa    -0.0000    -0.000    -0.000    -0.000  0.9911  0.1077  0.0784
    34 C(13)  Bbb     0.0000     0.000     0.000     0.000 -0.0919  0.9787 -0.1835
              Bcc     0.0000     0.000     0.000     0.000 -0.0965  0.1746  0.9799
 
              Baa    -0.0000    -0.000    -0.000    -0.000  0.3040  0.9512 -0.0538
    35 C(13)  Bbb     0.0000     0.000     0.000     0.000 -0.0058  0.0583  0.9983
              Bcc     0.0000     0.000     0.000     0.000  0.9527 -0.3032  0.0232
 
              Baa    -0.0000    -0.000    -0.000    -0.000 -0.0566  0.2999  0.9523
    36 S(33)  Bbb     0.0000     0.000     0.000     0.000  0.6745  0.7147 -0.1850
              Bcc     0.0000     0.000     0.000     0.000  0.7361 -0.6319  0.2428
 
              Baa    -0.0000    -0.000    -0.000    -0.000  0.0201  0.1881  0.9820
    37 H(1)   Bbb    -0.0000    -0.000    -0.000    -0.000  0.8539  0.5077 -0.1147
              Bcc     0.0000     0.000     0.000     0.000 -0.5201  0.8408 -0.1504
 
              Baa    -0.0000    -0.000    -0.000    -0.000  0.9344 -0.3482 -0.0750
    38 H(1)   Bbb    -0.0000    -0.000    -0.000    -0.000  0.1155  0.0969  0.9886
              Bcc     0.0000     0.000     0.000     0.000  0.3369  0.9324 -0.1308
 
              Baa    -0.0000    -0.000    -0.000    -0.000  0.9719 -0.0575 -0.2281
    39 H(1)   Bbb     0.0000     0.000     0.000     0.000  0.0874  0.9886  0.1229
              Bcc     0.0000     0.000     0.000     0.000  0.2184 -0.1394  0.9658
 
              Baa    -0.0000    -0.000    -0.000    -0.000  0.6973 -0.0595  0.7143
    40 H(1)   Bbb     0.0000     0.000     0.000     0.000  0.7030 -0.1375 -0.6978
              Bcc     0.0000     0.000     0.000     0.000  0.1398  0.9887 -0.0541
 
              Baa    -0.0000    -0.000    -0.000    -0.000  0.1003 -0.5463  0.8315
    41 H(1)   Bbb    -0.0000    -0.000    -0.000    -0.000 -0.4854  0.7027  0.5202
              Bcc     0.0000     0.000     0.000     0.000  0.8685  0.4558  0.1947
 
              Baa    -0.0000    -0.000    -0.000    -0.000 -0.0260  0.9790  0.2022
    42 H(1)   Bbb     0.0000     0.000     0.000     0.000  0.1892 -0.1938  0.9626
              Bcc     0.0000     0.000     0.000     0.000  0.9816  0.0632 -0.1802
 
              Baa    -0.0000    -0.000    -0.000    -0.000  0.7378 -0.6674  0.1009
    43 H(1)   Bbb     0.0000     0.000     0.000     0.000  0.2209  0.3801  0.8982
              Bcc     0.0000     0.000     0.000     0.000  0.6378  0.6404 -0.4279
 
              Baa    -0.0000    -0.000    -0.000    -0.000  0.6366 -0.6261  0.4503
    44 H(1)   Bbb     0.0000     0.000     0.000     0.000 -0.3847  0.2482  0.8890
              Bcc     0.0000     0.000     0.000     0.000  0.6684  0.7392  0.0828
 
              Baa    -0.0000    -0.000    -0.000    -0.000 -0.1571  0.9549 -0.2521
    45 H(1)   Bbb     0.0000     0.000     0.000     0.000  0.9874  0.1573 -0.0198
              Bcc     0.0000     0.000     0.000     0.000 -0.0208  0.2520  0.9675
 
              Baa    -0.0000    -0.000    -0.000    -0.000 -0.5716  0.8077 -0.1445
    46 H(1)   Bbb    -0.0000    -0.000    -0.000    -0.000 -0.2225  0.0169  0.9748
              Bcc     0.0000     0.000     0.000     0.000  0.7898  0.5893  0.1701
 
              Baa    -0.0000    -0.000    -0.000    -0.000  0.5415  0.5851  0.6037
    47 H(1)   Bbb    -0.0000    -0.000    -0.000    -0.000 -0.3609 -0.4867  0.7955
              Bcc     0.0000     0.000     0.000     0.000  0.7593 -0.6487 -0.0524
 
              Baa    -0.0000    -0.000    -0.000    -0.000  0.2528  0.9000 -0.3551
    48 H(1)   Bbb     0.0000     0.000     0.000     0.000 -0.5352  0.4358  0.7236
              Bcc     0.0000     0.000     0.000     0.000  0.8060  0.0071  0.5919
 
              Baa    -0.0000    -0.000    -0.000    -0.000  0.4428  0.6869 -0.5762
    49 H(1)   Bbb    -0.0000    -0.000    -0.000    -0.000  0.0291  0.6314  0.7749
              Bcc     0.0000     0.000     0.000     0.000  0.8961 -0.3599  0.2596
 
              Baa    -0.0000    -0.000    -0.000    -0.000  0.8971 -0.3642  0.2503
    50 H(1)   Bbb     0.0000     0.000     0.000     0.000  0.4355  0.8246 -0.3612
              Bcc     0.0000     0.000     0.000     0.000 -0.0748  0.4330  0.8983
 
              Baa    -0.0000    -0.000    -0.000    -0.000  0.1181  0.9929 -0.0105
    51 H(1)   Bbb     0.0000     0.000     0.000     0.000  0.9889 -0.1186 -0.0891
              Bcc     0.0000     0.000     0.000     0.000  0.0897 -0.0001  0.9960
 
              Baa    -0.0000    -0.000    -0.000    -0.000  0.8860 -0.4529  0.0998
    52 H(1)   Bbb     0.0000     0.000     0.000     0.000  0.2296  0.6153  0.7541
              Bcc     0.0000     0.000     0.000     0.000 -0.4029 -0.6452  0.6491
 
              Baa    -0.0000    -0.000    -0.000    -0.000  0.8666  0.4961  0.0530
    53 H(1)   Bbb     0.0000     0.000     0.000     0.000 -0.4936  0.8680 -0.0546
              Bcc     0.0000     0.000     0.000     0.000 -0.0730  0.0211  0.9971
 

 ---------------------------------------------------------------------------------

 No NMR shielding tensors so no spin-rotation constants.
 Leave Link  601 at Sat Jul 25 00:09:41 2020, MaxMem=  4026531840 cpu:               5.5 elap:               0.8
 (Enter /opt/ohpc/pub/libs/gaussian/g16-A.03/sandybridge/g16/l9999.exe)

 Test job not archived.
 1\1\GINC-SKYLAKE017\FOpt\ULC-wPBE\CC-pVDZ\C30H17F3S3\RDU230\25-Jul-202
 0\0\\#P uLC-wPBE/cc-pVDZ iop(3/107=0178000000, 3/108=0178000000) opt\\
 H17 C30 S3 F3\\0,1\C,10.9392030273,-2.1929526348,-0.3689894729\C,10.94
 59692249,-0.8174117398,-0.6352189512\C,9.7596369437,-0.0839881327,-0.5
 706423457\C,8.5283133895,-0.6871023954,-0.2301211003\C,8.566815001,-2.
 0712788117,0.0194925899\F,7.4128063664,-2.7157338916,0.3341824329\C,9.
 7365245129,-2.8256458548,-0.0421549991\C,7.2988366995,0.1179630701,-0.
 1319938891\C,7.213407188,1.496465019,-0.0061357106\C,5.8815857403,1.98
 60374688,0.0115474133\C,4.9300183141,0.9863108161,-0.0994808503\S,5.69
 64046075,-0.5741015431,-0.2243082041\C,3.464624371,1.119651816,-0.1045
 518739\C,2.8513842639,2.3114300186,-0.5463378575\C,1.4654826774,2.4481
 162165,-0.545199692\C,0.6064125499,1.4144595501,-0.1088936694\C,1.2471
 683454,0.2336362266,0.307951381\F,0.4901219988,-0.8121382646,0.7297409
 405\C,2.6283016911,0.0727162827,0.3230051594\C,-0.8523074232,1.5996977
 435,-0.0902574877\C,-1.5416854616,2.8007908844,-0.173797921\C,-2.95239
 69741,2.6496616618,-0.1775206806\C,-3.3614729467,1.329299862,-0.095024
 8657\S,-1.9820205694,0.2673005414,-0.0115269286\C,-4.7345074764,0.8007
 808932,-0.0615054064\C,-5.7954212006,1.5136105773,-0.6590828814\C,-7.0
 987283732,1.0231334601,-0.6231690914\C,-7.427448259,-0.1990815717,0.00
 43728261\C,-6.3457901393,-0.8939460557,0.5746351556\F,-6.5769202121,-2
 .0847354885,1.1854648891\C,-5.0365484337,-0.4251451628,0.55829823\C,-8
 .8191007313,-0.675590488,0.0537957142\C,-9.9645426731,0.0762144711,-0.
 1606968096\C,-11.1665659379,-0.6831854644,-0.0925285582\C,-10.93198922
 49,-2.0134446276,0.1727034785\S,-9.2478400303,-2.3461406856,0.35386597
 42\H,11.8670066924,-2.7772676299,-0.4229322946\H,11.8818862044,-0.3114
 786741,-0.9054258126\H,9.7744411671,0.9877722241,-0.8058166334\H,9.679
 8156412,-3.9005787057,0.1694504614\H,8.0929977688,2.1414797592,0.09830
 66612\H,5.6255327706,3.0437258329,0.1411524735\H,3.47187926,3.13289346
 66,-0.9258258299\H,1.0231377719,3.379467151,-0.920333083\H,3.034946136
 9,-0.8773797539,0.6924951312\H,-1.0416500829,3.7752321407,-0.205798413
 6\H,-3.6529307496,3.4920888219,-0.2018524503\H,-5.5888747754,2.4526807
 739,-1.1877052109\H,-7.8946021368,1.5905433675,-1.1217366943\H,-4.2647
 23093,-1.0267913457,1.055227779\H,-9.9428603848,1.1562519875,-0.344957
 1473\H,-12.1681926875,-0.2594061583,-0.2272137498\H,-11.6605133489,-2.
 8217550237,0.2897898754\\Version=EM64L-G16RevA.03\State=1-A\HF=-2645.9
 033068\S2=0.\S2-1=0.\S2A=0.\RMSD=6.440e-09\RMSF=2.543e-06\Dipole=0.919
 6354,1.1777349,-0.4146551\Quadrupole=26.7436025,-2.7295886,-24.0140139
 ,-4.1296744,1.359321,-3.5214444\PG=C01 [X(C30H17F3S3)]\\@


 THE SCIENTIFIC THEORIST IS NOT TO BE ENVIED. FOR NATURE, OR MORE
 PRECISELY EXPERIMENT, IS AN INEXORABLE AND NOT VERY FRIENDLY JUDGE OF HIS
 WORK.  IT NEVER SAYS "YES" TO A THEORY. IN THE MOST FAVORABLE CASES
 IT SAYS "MAYBE", AND IN THE GREAT MAJORITY OF CASES SIMPLY "NO"...
 PROBABLY EVERY THEORY WILL SOME DAY EXPERIENCE ITS "NO" - MOST
 THEORIES, SOON AFTER CONCEPTION.  -- A.EINSTEIN, NOV 11, 1922.
 Job cpu time:       0 days 19 hours 36 minutes 23.5 seconds.
 Elapsed time:       0 days  2 hours 27 minutes 57.1 seconds.
 File lengths (MBytes):  RWF=    456 Int=      0 D2E=      0 Chk=     40 Scr=      8
 Normal termination of Gaussian 16 at Sat Jul 25 00:09:41 2020.
