 Entering Gaussian System, Link 0=g16
 Input=mols_65_1_19_n-n-COC_opt_0.gjf
 Output=mols_65_1_19_n-n-COC_opt_0.log
 Initial command:
 /opt/ohpc/pub/libs/gaussian/g16-A.03/sandybridge/g16/l1.exe "/mnt/gpfs2_4m/scratch/rdu230/ondemand/projects/dihedral_energies/7trial/wtuning/mols_65_1_19_n-n-COC/Gau-28665.inp" -scrdir="/mnt/gpfs2_4m/scratch/rdu230/ondemand/projects/dihedral_energies/7trial/wtuning/mols_65_1_19_n-n-COC/"
 Entering Link 1 = /opt/ohpc/pub/libs/gaussian/g16-A.03/sandybridge/g16/l1.exe PID=     28666.
  
 Copyright (c) 1988,1990,1992,1993,1995,1998,2003,2009,2016,
            Gaussian, Inc.  All Rights Reserved.
  
 This is part of the Gaussian(R) 16 program.  It is based on
 the Gaussian(R) 09 system (copyright 2009, Gaussian, Inc.),
 the Gaussian(R) 03 system (copyright 2003, Gaussian, Inc.),
 the Gaussian(R) 98 system (copyright 1998, Gaussian, Inc.),
 the Gaussian(R) 94 system (copyright 1995, Gaussian, Inc.),
 the Gaussian 92(TM) system (copyright 1992, Gaussian, Inc.),
 the Gaussian 90(TM) system (copyright 1990, Gaussian, Inc.),
 the Gaussian 88(TM) system (copyright 1988, Gaussian, Inc.),
 the Gaussian 86(TM) system (copyright 1986, Carnegie Mellon
 University), and the Gaussian 82(TM) system (copyright 1983,
 Carnegie Mellon University). Gaussian is a federally registered
 trademark of Gaussian, Inc.
  
 This software contains proprietary and confidential information,
 including trade secrets, belonging to Gaussian, Inc.
  
 This software is provided under written license and may be
 used, copied, transmitted, or stored only in accord with that
 written license.
  
 The following legend is applicable only to US Government
 contracts under FAR:
  
                    RESTRICTED RIGHTS LEGEND
  
 Use, reproduction and disclosure by the US Government is
 subject to restrictions as set forth in subparagraphs (a)
 and (c) of the Commercial Computer Software - Restricted
 Rights clause in FAR 52.227-19.
  
 Gaussian, Inc.
 340 Quinnipiac St., Bldg. 40, Wallingford CT 06492
  
  
 ---------------------------------------------------------------
 Warning -- This program may not be used in any manner that
 competes with the business of Gaussian, Inc. or will provide
 assistance to any competitor of Gaussian, Inc.  The licensee
 of this program is prohibited from giving any competitor of
 Gaussian, Inc. access to this program.  By using this program,
 the user acknowledges that Gaussian, Inc. is engaged in the
 business of creating and licensing software in the field of
 computational chemistry and represents and warrants to the
 licensee that it is not a competitor of Gaussian, Inc. and that
 it will not use this program in any manner prohibited above.
 ---------------------------------------------------------------
  

 Cite this work as:
 Gaussian 16, Revision A.03,
 M. J. Frisch, G. W. Trucks, H. B. Schlegel, G. E. Scuseria, 
 M. A. Robb, J. R. Cheeseman, G. Scalmani, V. Barone, 
 G. A. Petersson, H. Nakatsuji, X. Li, M. Caricato, A. V. Marenich, 
 J. Bloino, B. G. Janesko, R. Gomperts, B. Mennucci, H. P. Hratchian, 
 J. V. Ortiz, A. F. Izmaylov, J. L. Sonnenberg, D. Williams-Young, 
 F. Ding, F. Lipparini, F. Egidi, J. Goings, B. Peng, A. Petrone, 
 T. Henderson, D. Ranasinghe, V. G. Zakrzewski, J. Gao, N. Rega, 
 G. Zheng, W. Liang, M. Hada, M. Ehara, K. Toyota, R. Fukuda, 
 J. Hasegawa, M. Ishida, T. Nakajima, Y. Honda, O. Kitao, H. Nakai, 
 T. Vreven, K. Throssell, J. A. Montgomery, Jr., J. E. Peralta, 
 F. Ogliaro, M. J. Bearpark, J. J. Heyd, E. N. Brothers, K. N. Kudin, 
 V. N. Staroverov, T. A. Keith, R. Kobayashi, J. Normand, 
 K. Raghavachari, A. P. Rendell, J. C. Burant, S. S. Iyengar, 
 J. Tomasi, M. Cossi, J. M. Millam, M. Klene, C. Adamo, R. Cammi, 
 J. W. Ochterski, R. L. Martin, K. Morokuma, O. Farkas, 
 J. B. Foresman, and D. J. Fox, Gaussian, Inc., Wallingford CT, 2016.
 
 ******************************************
 Gaussian 16:  EM64L-G16RevA.03 25-Dec-2016
                24-Jul-2020 
 ******************************************
 %mem=30GB
 %nproc=8
 Will use up to    8 processors via shared memory.
 ---------------------------------------------------------------
 #P uLC-wPBE/cc-pVDZ iop(3/107=0499100000, 3/108=0499100000) opt
 ---------------------------------------------------------------
 1/18=20,19=15,26=3,38=1/1,3;
 2/9=110,12=2,17=6,18=5,40=1/2;
 3/5=16,11=2,25=1,30=1,71=1,74=-41,107=499100000,108=499100000,116=2/1,2,3;
 4//1;
 5/5=2,38=5/2;
 6/7=2,8=2,9=2,10=2,28=1/1;
 7//1,2,3,16;
 1/18=20,19=15,26=3/3(2);
 2/9=110/2;
 99//99;
 2/9=110/2;
 3/5=16,11=2,25=1,30=1,71=1,74=-41,107=499100000,108=499100000,116=2/1,2,3;
 4/5=5,16=3,69=1/1;
 5/5=2,38=5/2;
 7//1,2,3,16;
 1/18=20,19=15,26=3/3(-5);
 2/9=110/2;
 6/7=2,8=2,9=2,10=2,19=2,28=1/1;
 99/9=1/99;
 Leave Link    1 at Fri Jul 24 03:20:48 2020, MaxMem=  4026531840 cpu:               2.0 elap:               0.3
 (Enter /opt/ohpc/pub/libs/gaussian/g16-A.03/sandybridge/g16/l101.exe)
 --------------
 H8 C9 S1 N2 O1
 --------------
 Symbolic Z-matrix:
 Charge =  0 Multiplicity = 1
 C                    -3.66362   0.36431   0.00385 
 C                    -3.18472  -0.73486   0.52717 
 N                    -1.87049  -1.02567   0.62266 
 C                    -1.01576  -0.08611   0.03065 
 N                    -1.46146   1.00219  -0.6427 
 C                    -2.73447   1.28102  -0.61693 
 C                     0.44834  -0.42109  -0.02767 
 C                     1.49361   0.44539   0.04323 
 O                     1.31587   1.79911   0.30652 
 C                     2.45658   2.60152   0.29378 
 C                     2.77162  -0.21164   0.04294 
 C                     2.55388  -1.53606  -0.16929 
 S                     0.97429  -2.05246  -0.23483 
 H                    -4.7809    0.60146   0.01318 
 H                    -3.79546  -1.40801   1.04355 
 H                    -3.05101   2.21342  -1.03198 
 H                     2.95574   2.51213  -0.66305 
 H                     3.13868   2.36457   1.12205 
 H                     2.13539   3.67044   0.39873 
 H                     3.66752   0.22729   0.07876 
 H                     3.3222   -2.36474  -0.23653 
 
 ITRead=  0  0  0  0  0  0  0  0  0  0  0  0  0  0  0  0  0  0  0  0
 ITRead=  0
 MicOpt= -1 -1 -1 -1 -1 -1 -1 -1 -1 -1 -1 -1 -1 -1 -1 -1 -1 -1 -1 -1
 MicOpt= -1
 NAtoms=     21 NQM=       21 NQMF=       0 NMMI=      0 NMMIF=      0
                NMic=       0 NMicF=      0.
                    Isotopes and Nuclear Properties:
 (Nuclear quadrupole moments (NQMom) in fm**2, nuclear magnetic moments (NMagM)
  in nuclear magnetons)

  Atom         1           2           3           4           5           6           7           8           9          10
 IAtWgt=          12          12          14          12          14          12          12          12          16          12
 AtmWgt=  12.0000000  12.0000000  14.0030740  12.0000000  14.0030740  12.0000000  12.0000000  12.0000000  15.9949146  12.0000000
 NucSpn=           0           0           2           0           2           0           0           0           0           0
 AtZEff=  -0.0000000  -0.0000000  -0.0000000  -0.0000000  -0.0000000  -0.0000000  -0.0000000  -0.0000000  -0.0000000  -0.0000000
 NQMom=    0.0000000   0.0000000   2.0440000   0.0000000   2.0440000   0.0000000   0.0000000   0.0000000   0.0000000   0.0000000
 NMagM=    0.0000000   0.0000000   0.4037610   0.0000000   0.4037610   0.0000000   0.0000000   0.0000000   0.0000000   0.0000000
 AtZNuc=   6.0000000   6.0000000   7.0000000   6.0000000   7.0000000   6.0000000   6.0000000   6.0000000   8.0000000   6.0000000

  Atom        11          12          13          14          15          16          17          18          19          20
 IAtWgt=          12          12          32           1           1           1           1           1           1           1
 AtmWgt=  12.0000000  12.0000000  31.9720718   1.0078250   1.0078250   1.0078250   1.0078250   1.0078250   1.0078250   1.0078250
 NucSpn=           0           0           0           1           1           1           1           1           1           1
 AtZEff=  -0.0000000  -0.0000000  -0.0000000  -0.0000000  -0.0000000  -0.0000000  -0.0000000  -0.0000000  -0.0000000  -0.0000000
 NQMom=    0.0000000   0.0000000   0.0000000   0.0000000   0.0000000   0.0000000   0.0000000   0.0000000   0.0000000   0.0000000
 NMagM=    0.0000000   0.0000000   0.0000000   2.7928460   2.7928460   2.7928460   2.7928460   2.7928460   2.7928460   2.7928460
 AtZNuc=   6.0000000   6.0000000  16.0000000   1.0000000   1.0000000   1.0000000   1.0000000   1.0000000   1.0000000   1.0000000

  Atom        21
 IAtWgt=           1
 AtmWgt=   1.0078250
 NucSpn=           1
 AtZEff=  -0.0000000
 NQMom=    0.0000000
 NMagM=    2.7928460
 AtZNuc=   1.0000000
 Leave Link  101 at Fri Jul 24 03:20:49 2020, MaxMem=  4026531840 cpu:               2.9 elap:               0.5
 (Enter /opt/ohpc/pub/libs/gaussian/g16-A.03/sandybridge/g16/l103.exe)

 GradGradGradGradGradGradGradGradGradGradGradGradGradGradGradGradGradGrad
 Berny optimization.
 Initialization pass.
                           ----------------------------
                           !    Initial Parameters    !
                           ! (Angstroms and Degrees)  !
 --------------------------                            --------------------------
 ! Name  Definition              Value          Derivative Info.                !
 --------------------------------------------------------------------------------
 ! R1    R(1,2)                  1.3082         estimate D2E/DX2                !
 ! R2    R(1,6)                  1.4454         estimate D2E/DX2                !
 ! R3    R(1,14)                 1.1422         estimate D2E/DX2                !
 ! R4    R(2,3)                  1.3494         estimate D2E/DX2                !
 ! R5    R(2,15)                 1.0454         estimate D2E/DX2                !
 ! R6    R(3,4)                  1.4014         estimate D2E/DX2                !
 ! R7    R(4,5)                  1.3552         estimate D2E/DX2                !
 ! R8    R(4,7)                  1.5031         estimate D2E/DX2                !
 ! R9    R(5,6)                  1.3034         estimate D2E/DX2                !
 ! R10   R(6,16)                 1.0686         estimate D2E/DX2                !
 ! R11   R(7,8)                  1.3596         estimate D2E/DX2                !
 ! R12   R(7,13)                 1.7265         estimate D2E/DX2                !
 ! R13   R(8,9)                  1.3905         estimate D2E/DX2                !
 ! R14   R(8,11)                 1.437          estimate D2E/DX2                !
 ! R15   R(9,10)                 1.3947         estimate D2E/DX2                !
 ! R16   R(10,17)                1.0829         estimate D2E/DX2                !
 ! R17   R(10,18)                1.0988         estimate D2E/DX2                !
 ! R18   R(10,19)                1.1211         estimate D2E/DX2                !
 ! R19   R(11,12)                1.3589         estimate D2E/DX2                !
 ! R20   R(11,20)                0.9983         estimate D2E/DX2                !
 ! R21   R(12,13)                1.6632         estimate D2E/DX2                !
 ! R22   R(12,21)                1.1321         estimate D2E/DX2                !
 ! A1    A(2,1,6)              117.9942         estimate D2E/DX2                !
 ! A2    A(2,1,14)             121.9563         estimate D2E/DX2                !
 ! A3    A(6,1,14)             120.0427         estimate D2E/DX2                !
 ! A4    A(1,2,3)              124.4664         estimate D2E/DX2                !
 ! A5    A(1,2,15)             121.6535         estimate D2E/DX2                !
 ! A6    A(3,2,15)             113.2828         estimate D2E/DX2                !
 ! A7    A(2,3,4)              114.8116         estimate D2E/DX2                !
 ! A8    A(3,4,5)              123.2126         estimate D2E/DX2                !
 ! A9    A(3,4,7)              117.4569         estimate D2E/DX2                !
 ! A10   A(5,4,7)              118.6898         estimate D2E/DX2                !
 ! A11   A(4,5,6)              118.8933         estimate D2E/DX2                !
 ! A12   A(1,6,5)              120.0439         estimate D2E/DX2                !
 ! A13   A(1,6,16)             121.9927         estimate D2E/DX2                !
 ! A14   A(5,6,16)             117.9236         estimate D2E/DX2                !
 ! A15   A(4,7,8)              127.2171         estimate D2E/DX2                !
 ! A16   A(4,7,13)             120.7951         estimate D2E/DX2                !
 ! A17   A(8,7,13)             111.9778         estimate D2E/DX2                !
 ! A18   A(7,8,9)              122.1455         estimate D2E/DX2                !
 ! A19   A(7,8,11)             113.1011         estimate D2E/DX2                !
 ! A20   A(9,8,11)             123.9758         estimate D2E/DX2                !
 ! A21   A(8,9,10)             116.9899         estimate D2E/DX2                !
 ! A22   A(9,10,17)            109.7292         estimate D2E/DX2                !
 ! A23   A(9,10,18)            112.1324         estimate D2E/DX2                !
 ! A24   A(9,10,19)            108.2635         estimate D2E/DX2                !
 ! A25   A(17,10,18)           111.228          estimate D2E/DX2                !
 ! A26   A(17,10,19)           107.0672         estimate D2E/DX2                !
 ! A27   A(18,10,19)           108.2337         estimate D2E/DX2                !
 ! A28   A(8,11,12)            107.6469         estimate D2E/DX2                !
 ! A29   A(8,11,20)            126.6623         estimate D2E/DX2                !
 ! A30   A(12,11,20)           125.3061         estimate D2E/DX2                !
 ! A31   A(11,12,13)           117.4491         estimate D2E/DX2                !
 ! A32   A(11,12,21)           127.8777         estimate D2E/DX2                !
 ! A33   A(13,12,21)           114.5175         estimate D2E/DX2                !
 ! A34   A(7,13,12)             89.4967         estimate D2E/DX2                !
 ! D1    D(6,1,2,3)              5.4939         estimate D2E/DX2                !
 ! D2    D(6,1,2,15)           176.0289         estimate D2E/DX2                !
 ! D3    D(14,1,2,3)          -175.4589         estimate D2E/DX2                !
 ! D4    D(14,1,2,15)           -4.9239         estimate D2E/DX2                !
 ! D5    D(2,1,6,5)             -0.0547         estimate D2E/DX2                !
 ! D6    D(2,1,6,16)          -177.7145         estimate D2E/DX2                !
 ! D7    D(14,1,6,5)          -179.1209         estimate D2E/DX2                !
 ! D8    D(14,1,6,16)            3.2194         estimate D2E/DX2                !
 ! D9    D(1,2,3,4)             -3.9998         estimate D2E/DX2                !
 ! D10   D(15,2,3,4)          -175.2342         estimate D2E/DX2                !
 ! D11   D(2,3,4,5)             -2.9456         estimate D2E/DX2                !
 ! D12   D(2,3,4,7)           -173.636          estimate D2E/DX2                !
 ! D13   D(3,4,5,6)              8.0527         estimate D2E/DX2                !
 ! D14   D(7,4,5,6)            178.6346         estimate D2E/DX2                !
 ! D15   D(3,4,7,8)           -147.4009         estimate D2E/DX2                !
 ! D16   D(3,4,7,13)            33.8448         estimate D2E/DX2                !
 ! D17   D(5,4,7,8)             41.4745         estimate D2E/DX2                !
 ! D18   D(5,4,7,13)          -137.2798         estimate D2E/DX2                !
 ! D19   D(4,5,6,1)             -6.3479         estimate D2E/DX2                !
 ! D20   D(4,5,6,16)           171.4058         estimate D2E/DX2                !
 ! D21   D(4,7,8,9)              5.9442         estimate D2E/DX2                !
 ! D22   D(4,7,8,11)           176.2146         estimate D2E/DX2                !
 ! D23   D(13,7,8,9)          -175.2097         estimate D2E/DX2                !
 ! D24   D(13,7,8,11)           -4.9393         estimate D2E/DX2                !
 ! D25   D(4,7,13,12)         -179.3066         estimate D2E/DX2                !
 ! D26   D(8,7,13,12)            1.7631         estimate D2E/DX2                !
 ! D27   D(7,8,9,10)          -177.1136         estimate D2E/DX2                !
 ! D28   D(11,8,9,10)           13.6904         estimate D2E/DX2                !
 ! D29   D(7,8,11,12)            6.1741         estimate D2E/DX2                !
 ! D30   D(7,8,11,20)          179.318          estimate D2E/DX2                !
 ! D31   D(9,8,11,12)          176.238          estimate D2E/DX2                !
 ! D32   D(9,8,11,20)          -10.6181         estimate D2E/DX2                !
 ! D33   D(8,9,10,17)           56.7579         estimate D2E/DX2                !
 ! D34   D(8,9,10,18)          -67.3753         estimate D2E/DX2                !
 ! D35   D(8,9,10,19)          173.2892         estimate D2E/DX2                !
 ! D36   D(8,11,12,13)          -5.0016         estimate D2E/DX2                !
 ! D37   D(8,11,12,21)         179.8125         estimate D2E/DX2                !
 ! D38   D(20,11,12,13)       -178.2629         estimate D2E/DX2                !
 ! D39   D(20,11,12,21)          6.5512         estimate D2E/DX2                !
 ! D40   D(11,12,13,7)           2.0774         estimate D2E/DX2                !
 ! D41   D(21,12,13,7)         177.9021         estimate D2E/DX2                !
 --------------------------------------------------------------------------------
 Trust Radius=3.00D-01 FncErr=1.00D-07 GrdErr=1.00D-06 EigMax=2.50D+02 EigMin=1.00D-04
 Number of steps in this run=    107 maximum allowed number of steps=    126.
 GradGradGradGradGradGradGradGradGradGradGradGradGradGradGradGradGradGrad

 Leave Link  103 at Fri Jul 24 03:20:49 2020, MaxMem=  4026531840 cpu:               0.1 elap:               0.0
 (Enter /opt/ohpc/pub/libs/gaussian/g16-A.03/sandybridge/g16/l202.exe)
                          Input orientation:                          
 ---------------------------------------------------------------------
 Center     Atomic      Atomic             Coordinates (Angstroms)
 Number     Number       Type             X           Y           Z
 ---------------------------------------------------------------------
      1          6           0       -3.663621    0.364306    0.003848
      2          6           0       -3.184720   -0.734855    0.527173
      3          7           0       -1.870488   -1.025674    0.622662
      4          6           0       -1.015757   -0.086107    0.030645
      5          7           0       -1.461458    1.002194   -0.642703
      6          6           0       -2.734465    1.281019   -0.616930
      7          6           0        0.448336   -0.421087   -0.027672
      8          6           0        1.493605    0.445394    0.043226
      9          8           0        1.315871    1.799114    0.306520
     10          6           0        2.456577    2.601522    0.293781
     11          6           0        2.771622   -0.211636    0.042935
     12          6           0        2.553880   -1.536058   -0.169294
     13         16           0        0.974286   -2.052455   -0.234829
     14          1           0       -4.780901    0.601463    0.013181
     15          1           0       -3.795457   -1.408012    1.043549
     16          1           0       -3.051013    2.213418   -1.031981
     17          1           0        2.955740    2.512126   -0.663050
     18          1           0        3.138677    2.364567    1.122050
     19          1           0        2.135394    3.670440    0.398730
     20          1           0        3.667515    0.227294    0.078764
     21          1           0        3.322200   -2.364739   -0.236527
 ---------------------------------------------------------------------
                    Distance matrix (angstroms):
                    1          2          3          4          5
     1  C    0.000000
     2  C    1.308193   0.000000
     3  N    2.351659   1.349407   0.000000
     4  C    2.686033   2.317718   1.401369   0.000000
     5  N    2.382111   2.712117   2.425016   1.355155   0.000000
     6  C    1.445358   2.361239   2.757513   2.289617   1.303439
     7  C    4.186410   3.688550   2.483023   1.503057   2.459940
     8  C    5.158014   4.849115   3.717110   2.565063   3.084303
     9  O    5.190918   5.169623   4.269925   3.011089   3.041326
    10  C    6.522731   6.558210   5.655812   4.398829   4.334265
    11  C    6.461083   5.998854   4.748466   3.789479   4.456731
    12  C    6.503744   5.835968   4.523574   3.858062   4.773864
    13  S    5.235254   4.428775   3.143614   2.810209   3.928115
    14  H    1.142211   2.144231   3.389623   3.827449   3.407267
    15  H    2.058997   1.045363   2.007196   3.240392   3.755009
    16  H    2.206229   3.337836   3.824029   3.249501   2.035998
    17  H    6.990982   7.047323   6.120585   4.796334   4.668185
    18  H    7.177930   7.067223   6.069173   4.945330   5.111913
    19  H    6.686930   6.908454   6.176627   4.917000   4.597985
    20  H    7.332799   6.933969   5.703966   4.693993   5.237113
    21  H    7.503810   6.751279   5.430958   4.907282   5.863838
                    6          7          8          9         10
     6  C    0.000000
     7  C    3.657132   0.000000
     8  C    4.360121   1.359560   0.000000
     9  O    4.186455   2.406989   1.390493   0.000000
    10  C    5.433235   3.643148   2.374654   1.394715   0.000000
    11  C    5.742859   2.333777   1.437016   2.496358   2.841837
    12  C    6.008568   2.386741   2.257321   3.589211   4.164550
    13  S    5.001288   1.726528   2.566370   3.904398   4.912852
    14  H    2.246494   5.328433   6.276519   6.220213   7.513991
    15  H    3.333734   4.486793   5.692973   6.079025   7.465015
    16  H    1.068568   4.493851   4.993549   4.586165   5.678188
    17  H    5.822043   3.910821   2.628316   2.034115   1.082904
    18  H    6.220283   4.039760   2.748336   2.075439   1.098835
    19  H    5.518734   4.446187   3.307446   2.044989   1.121052
    20  H    6.525310   3.285550   2.185112   2.837732   2.673866
    21  H    7.079509   3.475701   3.364353   4.653808   5.068952
                   11         12         13         14         15
    11  C    0.000000
    12  C    1.358877   0.000000
    13  S    2.587699   1.663153   0.000000
    14  H    7.596224   7.642075   6.342473   0.000000
    15  H    6.749746   6.465405   4.979960   2.463889   0.000000
    16  H    6.398391   6.798355   5.919135   2.585203   4.239903
    17  H    2.819786   4.097936   4.994490   7.997721   7.991159
    18  H    2.817098   4.150233   5.102528   8.188885   7.894348
    19  H    3.949923   5.254084   5.873763   7.576437   7.834632
    20  H    0.998282   2.100268   3.542468   8.456952   7.700713
    21  H    2.239886   1.132055   2.368591   8.632552   7.294859
                   16         17         18         19         20
    16  H    0.000000
    17  H    6.025481   0.000000
    18  H    6.555529   1.800506   0.000000
    19  H    5.573927   1.772579   1.798631   0.000000
    20  H    7.093452   2.505468   2.436401   3.782199   0.000000
    21  H    7.887339   4.909178   4.923997   6.183482   2.633873
                   21
    21  H    0.000000
 Stoichiometry    C9H8N2OS
 Framework group  C1[X(C9H8N2OS)]
 Deg. of freedom    57
 Full point group                 C1      NOp   1
 Largest Abelian subgroup         C1      NOp   1
 Largest concise Abelian subgroup C1      NOp   1
                         Standard orientation:                         
 ---------------------------------------------------------------------
 Center     Atomic      Atomic             Coordinates (Angstroms)
 Number     Number       Type             X           Y           Z
 ---------------------------------------------------------------------
      1          6           0       -3.673303    0.386286    0.012461
      2          6           0       -3.197482   -0.710714    0.543079
      3          7           0       -1.884226   -1.006536    0.636602
      4          6           0       -1.027361   -0.075547    0.034208
      5          7           0       -1.470528    1.009237   -0.646448
      6          6           0       -2.742210    1.293862   -0.618752
      7          6           0        0.435051   -0.417428   -0.026204
      8          6           0        1.484330    0.444987    0.034257
      9          8           0        1.313395    1.801557    0.287183
     10          6           0        2.457552    2.598807    0.264215
     11          6           0        2.759453   -0.217643    0.035083
     12          6           0        2.535215   -1.542763   -0.165719
     13         16           0        0.953169   -2.052714   -0.221894
     14          1           0       -4.789498    0.628426    0.023544
     15          1           0       -3.809442   -1.376989    1.066880
     16          1           0       -3.056051    2.224266   -1.040285
     17          1           0        2.953142    2.499498   -0.693495
     18          1           0        3.141353    2.365542    1.092129
     19          1           0        2.141399    3.669941    0.361575
     20          1           0        3.657371    0.217614    0.064422
     21          1           0        3.299675   -2.375333   -0.228773
 ---------------------------------------------------------------------
 Rotational constants (GHZ):           1.1930682           0.5512047           0.3933848
 Leave Link  202 at Fri Jul 24 03:20:49 2020, MaxMem=  4026531840 cpu:               0.2 elap:               0.1
 (Enter /opt/ohpc/pub/libs/gaussian/g16-A.03/sandybridge/g16/l301.exe)
 Standard basis: CC-pVDZ (5D, 7F)
 Ernie: Thresh=  0.10000D-02 Tol=  0.10000D-05 Strict=F.
 Ernie:  34 primitive shells out of 354 were deleted.
 There are   239 symmetry adapted cartesian basis functions of A   symmetry.
 There are   226 symmetry adapted basis functions of A   symmetry.
   226 basis functions,   523 primitive gaussians,   239 cartesian basis functions
    50 alpha electrons       50 beta electrons
       nuclear repulsion energy       842.3615549125 Hartrees.
 IExCor=32609 DFT=T Ex+Corr=LC-wPBE ExCW=0 ScaHFX=  1.000000
 ScaDFX=  1.000000  0.000000  1.000000  1.000000 ScalE2=  1.000000  1.000000
 IRadAn=      5 IRanWt=     -1 IRanGd=            0 ICorTp=0 IEmpDi=  4
 HFx  wShort=  0.000000 wLong=  0.499100 cFull=  0.000000 cShort=  0.000000 cLong=  1.000000
 DFx  wShort=  0.000000 wLong=  0.499100 cFull=  0.000000 cShort=  0.000000 cLong=  1.000000
 NAtoms=   21 NActive=   21 NUniq=   21 SFac= 1.00D+00 NAtFMM=   60 NAOKFM=F Big=F
 Integral buffers will be    131072 words long.
 Raffenetti 2 integral format.
 Two-electron integral symmetry is turned on.
 Leave Link  301 at Fri Jul 24 03:20:49 2020, MaxMem=  4026531840 cpu:               0.5 elap:               0.1
 (Enter /opt/ohpc/pub/libs/gaussian/g16-A.03/sandybridge/g16/l302.exe)
 NPDir=0 NMtPBC=     1 NCelOv=     1 NCel=       1 NClECP=     1 NCelD=      1
         NCelK=      1 NCelE2=     1 NClLst=     1 CellRange=     0.0.
 One-electron integrals computed using PRISM.
 One-electron integral symmetry used in STVInt
 NBasis=   226 RedAO= T EigKep=  6.71D-04  NBF=   226
 NBsUse=   226 1.00D-06 EigRej= -1.00D+00 NBFU=   226
 Precomputing XC quadrature grid using
 IXCGrd= 4 IRadAn=           5 IRanWt=          -1 IRanGd=           0 AccXCQ= 0.00D+00.
 Generated NRdTot=       0 NPtTot=           0 NUsed=           0 NTot=          32
 NSgBfM=   238   238   238   238   238 MxSgAt=    21 MxSgA2=    21.
 Leave Link  302 at Fri Jul 24 03:20:50 2020, MaxMem=  4026531840 cpu:               2.3 elap:               0.4
 (Enter /opt/ohpc/pub/libs/gaussian/g16-A.03/sandybridge/g16/l303.exe)
 DipDrv:  MaxL=1.
 Leave Link  303 at Fri Jul 24 03:20:50 2020, MaxMem=  4026531840 cpu:               0.3 elap:               0.1
 (Enter /opt/ohpc/pub/libs/gaussian/g16-A.03/sandybridge/g16/l401.exe)
 ExpMin= 1.22D-01 ExpMax= 1.11D+05 ExpMxC= 1.07D+03 IAcc=3 IRadAn=         5 AccDes= 0.00D+00
 Harris functional with IExCor=32609 and IRadAn=       5 diagonalized for initial guess.
 HarFok:  IExCor=32609 AccDes= 0.00D+00 IRadAn=         5 IDoV= 1 UseB2=F ITyADJ=14
 ICtDFT=  3500011 ScaDFX=  1.000000  1.000000  1.000000  1.000000
 FoFCou: FMM=F IPFlag=           0 FMFlag=      100000 FMFlg1=           0
         NFxFlg=           0 DoJE=T BraDBF=F KetDBF=T FulRan=T
         wScrn=  0.000000 ICntrl=       500 IOpCl=  0 I1Cent=   200000004 NGrid=           0
         NMat0=    1 NMatS0=      1 NMatT0=    0 NMatD0=    1 NMtDS0=    0 NMtDT0=    0
 Petite list used in FoFCou.
 Harris En= -930.037399900813    
 JPrj=0 DoOrth=F DoCkMO=F.
 Initial guess <Sx>= 0.0000 <Sy>= 0.0000 <Sz>= 0.0000 <S**2>=-0.0000 S=-0.0000
 Leave Link  401 at Fri Jul 24 03:20:51 2020, MaxMem=  4026531840 cpu:              10.0 elap:               1.3
 (Enter /opt/ohpc/pub/libs/gaussian/g16-A.03/sandybridge/g16/l502.exe)
 Integral symmetry usage will be decided dynamically.
 UHF open shell SCF:
 Using DIIS extrapolation, IDIIS=  1040.
 NGot=  4026531840 LenX=  4026413099 LenY=  4026355537
 Requested convergence on RMS density matrix=1.00D-08 within 128 cycles.
 Requested convergence on MAX density matrix=1.00D-06.
 Requested convergence on             energy=1.00D-06.
 No special actions if energy rises.
 Fock matrices will be formed incrementally for  20 cycles.
 Integral accuracy reduced to 1.0D-05 until final iterations.

 Cycle   1  Pass 0  IDiag  1:
 FoFJK:  IHMeth= 1 ICntrl=       0 DoSepK=T KAlg= 0 I1Cent=           0 FoldK=F
 IRaf=         1 NMat=       1 IRICut=       1 DoRegI=T DoRafI=F ISym2E= 0 IDoP0=0 IntGTp=1.
 FoFCou: FMM=F IPFlag=           0 FMFlag=      100000 FMFlg1=           0
         NFxFlg=           0 DoJE=T BraDBF=F KetDBF=F FulRan=T
         wScrn=  0.000000 ICntrl=       500 IOpCl=  0 I1Cent=           0 NGrid=           0
         NMat0=    1 NMatS0=      1 NMatT0=    0 NMatD0=    1 NMtDS0=    0 NMtDT0=    0
 Symmetry not used in FoFCou.
 E= -929.896761496387    
 DIIS: error= 2.18D-02 at cycle   1 NSaved=   1.
 NSaved= 1 IEnMin= 1 EnMin= -929.896761496387     IErMin= 1 ErrMin= 2.18D-02
 ErrMax= 2.18D-02  0.00D+00 EMaxC= 1.00D-01 BMatC= 1.03D+00 BMatP= 1.03D+00
 IDIUse=3 WtCom= 7.82D-01 WtEn= 2.18D-01
 Coeff-Com:  0.100D+01
 Coeff-En:   0.100D+01
 Coeff:      0.100D+01
 Gap=     0.386 Goal=   None    Shift=    0.000
 Gap=     0.386 Goal=   None    Shift=    0.000
 GapD=    0.386 DampG=1.000 DampE=0.500 DampFc=0.5000 IDamp=-1.
 Damping current iteration by 5.00D-01
 RMSDP=3.84D-03 MaxDP=1.29D-01              OVMax= 1.96D-01

 Cycle   2  Pass 0  IDiag  1:
 RMSU=  1.90D-03    CP:  9.89D-01
 E= -930.045292433631     Delta-E=       -0.148530937244 Rises=F Damp=T
 DIIS: error= 5.77D-03 at cycle   2 NSaved=   2.
 NSaved= 2 IEnMin= 2 EnMin= -930.045292433631     IErMin= 2 ErrMin= 5.77D-03
 ErrMax= 5.77D-03  0.00D+00 EMaxC= 1.00D-01 BMatC= 6.90D-02 BMatP= 1.03D+00
 IDIUse=3 WtCom= 9.42D-01 WtEn= 5.77D-02
 Coeff-Com: -0.161D+00 0.116D+01
 Coeff-En:   0.000D+00 0.100D+01
 Coeff:     -0.152D+00 0.115D+01
 Gap=     0.374 Goal=   None    Shift=    0.000
 Gap=     0.374 Goal=   None    Shift=    0.000
 RMSDP=1.23D-03 MaxDP=2.47D-02 DE=-1.49D-01 OVMax= 9.38D-02

 Cycle   3  Pass 0  IDiag  1:
 RMSU=  1.08D-03    CP:  9.80D-01  1.29D+00
 E= -930.177235076989     Delta-E=       -0.131942643358 Rises=F Damp=F
 DIIS: error= 2.36D-03 at cycle   3 NSaved=   3.
 NSaved= 3 IEnMin= 3 EnMin= -930.177235076989     IErMin= 3 ErrMin= 2.36D-03
 ErrMax= 2.36D-03  0.00D+00 EMaxC= 1.00D-01 BMatC= 1.02D-02 BMatP= 6.90D-02
 IDIUse=3 WtCom= 9.76D-01 WtEn= 2.36D-02
 Coeff-Com: -0.650D-01 0.295D+00 0.770D+00
 Coeff-En:   0.000D+00 0.000D+00 0.100D+01
 Coeff:     -0.635D-01 0.288D+00 0.775D+00
 Gap=     0.356 Goal=   None    Shift=    0.000
 Gap=     0.356 Goal=   None    Shift=    0.000
 RMSDP=3.19D-04 MaxDP=1.01D-02 DE=-1.32D-01 OVMax= 2.34D-02

 Cycle   4  Pass 0  IDiag  1:
 RMSU=  2.91D-04    CP:  9.80D-01  1.34D+00  9.15D-01
 E= -930.179908931078     Delta-E=       -0.002673854089 Rises=F Damp=F
 DIIS: error= 1.07D-03 at cycle   4 NSaved=   4.
 NSaved= 4 IEnMin= 4 EnMin= -930.179908931078     IErMin= 4 ErrMin= 1.07D-03
 ErrMax= 1.07D-03  0.00D+00 EMaxC= 1.00D-01 BMatC= 2.23D-03 BMatP= 1.02D-02
 IDIUse=3 WtCom= 9.89D-01 WtEn= 1.07D-02
 Coeff-Com: -0.366D-03-0.179D-01 0.287D+00 0.731D+00
 Coeff-En:   0.000D+00 0.000D+00 0.000D+00 0.100D+01
 Coeff:     -0.362D-03-0.177D-01 0.284D+00 0.734D+00
 Gap=     0.356 Goal=   None    Shift=    0.000
 Gap=     0.356 Goal=   None    Shift=    0.000
 RMSDP=1.33D-04 MaxDP=4.87D-03 DE=-2.67D-03 OVMax= 8.45D-03

 Cycle   5  Pass 0  IDiag  1:
 RMSU=  9.89D-05    CP:  9.79D-01  1.34D+00  9.95D-01  9.33D-01
 E= -930.180620153377     Delta-E=       -0.000711222298 Rises=F Damp=F
 DIIS: error= 3.74D-04 at cycle   5 NSaved=   5.
 NSaved= 5 IEnMin= 5 EnMin= -930.180620153377     IErMin= 5 ErrMin= 3.74D-04
 ErrMax= 3.74D-04  0.00D+00 EMaxC= 1.00D-01 BMatC= 1.97D-04 BMatP= 2.23D-03
 IDIUse=3 WtCom= 9.96D-01 WtEn= 3.74D-03
 Coeff-Com:  0.951D-02-0.398D-01-0.119D-01 0.178D+00 0.864D+00
 Coeff-En:   0.000D+00 0.000D+00 0.000D+00 0.000D+00 0.100D+01
 Coeff:      0.947D-02-0.397D-01-0.118D-01 0.177D+00 0.865D+00
 Gap=     0.357 Goal=   None    Shift=    0.000
 Gap=     0.357 Goal=   None    Shift=    0.000
 RMSDP=5.97D-05 MaxDP=2.25D-03 DE=-7.11D-04 OVMax= 4.99D-03

 Cycle   6  Pass 0  IDiag  1:
 RMSU=  3.99D-05    CP:  9.79D-01  1.34D+00  1.01D+00  1.06D+00  1.16D+00
 E= -930.180739124263     Delta-E=       -0.000118970886 Rises=F Damp=F
 DIIS: error= 1.47D-04 at cycle   6 NSaved=   6.
 NSaved= 6 IEnMin= 6 EnMin= -930.180739124263     IErMin= 6 ErrMin= 1.47D-04
 ErrMax= 1.47D-04  0.00D+00 EMaxC= 1.00D-01 BMatC= 3.68D-05 BMatP= 1.97D-04
 IDIUse=3 WtCom= 9.99D-01 WtEn= 1.47D-03
 Coeff-Com:  0.349D-02-0.997D-02-0.420D-01-0.621D-01 0.190D+00 0.921D+00
 Coeff-En:   0.000D+00 0.000D+00 0.000D+00 0.000D+00 0.000D+00 0.100D+01
 Coeff:      0.348D-02-0.996D-02-0.420D-01-0.620D-01 0.190D+00 0.921D+00
 Gap=     0.357 Goal=   None    Shift=    0.000
 Gap=     0.357 Goal=   None    Shift=    0.000
 RMSDP=3.36D-05 MaxDP=1.49D-03 DE=-1.19D-04 OVMax= 3.61D-03

 Cycle   7  Pass 0  IDiag  1:
 RMSU=  1.73D-05    CP:  9.79D-01  1.34D+00  1.02D+00  1.10D+00  1.37D+00
                    CP:  1.30D+00
 E= -930.180772663098     Delta-E=       -0.000033538835 Rises=F Damp=F
 DIIS: error= 7.69D-05 at cycle   7 NSaved=   7.
 NSaved= 7 IEnMin= 7 EnMin= -930.180772663098     IErMin= 7 ErrMin= 7.69D-05
 ErrMax= 7.69D-05  0.00D+00 EMaxC= 1.00D-01 BMatC= 8.40D-06 BMatP= 3.68D-05
 IDIUse=1 WtCom= 1.00D+00 WtEn= 0.00D+00
 Coeff-Com: -0.969D-03 0.591D-02-0.312D-02-0.502D-01-0.179D+00 0.207D+00
 Coeff-Com:  0.102D+01
 Coeff:     -0.969D-03 0.591D-02-0.312D-02-0.502D-01-0.179D+00 0.207D+00
 Coeff:      0.102D+01
 Gap=     0.357 Goal=   None    Shift=    0.000
 Gap=     0.357 Goal=   None    Shift=    0.000
 RMSDP=2.07D-05 MaxDP=8.53D-04 DE=-3.35D-05 OVMax= 2.06D-03

 Cycle   8  Pass 0  IDiag  1:
 RMSU=  6.38D-06    CP:  9.79D-01  1.34D+00  1.03D+00  1.12D+00  1.47D+00
                    CP:  1.65D+00  1.31D+00
 E= -930.180781269660     Delta-E=       -0.000008606562 Rises=F Damp=F
 DIIS: error= 2.35D-05 at cycle   8 NSaved=   8.
 NSaved= 8 IEnMin= 8 EnMin= -930.180781269660     IErMin= 8 ErrMin= 2.35D-05
 ErrMax= 2.35D-05  0.00D+00 EMaxC= 1.00D-01 BMatC= 1.09D-06 BMatP= 8.40D-06
 IDIUse=1 WtCom= 1.00D+00 WtEn= 0.00D+00
 Coeff-Com: -0.564D-03 0.263D-02 0.547D-02-0.343D-02-0.764D-01-0.677D-01
 Coeff-Com:  0.258D+00 0.882D+00
 Coeff:     -0.564D-03 0.263D-02 0.547D-02-0.343D-02-0.764D-01-0.677D-01
 Coeff:      0.258D+00 0.882D+00
 Gap=     0.357 Goal=   None    Shift=    0.000
 Gap=     0.357 Goal=   None    Shift=    0.000
 RMSDP=6.56D-06 MaxDP=2.46D-04 DE=-8.61D-06 OVMax= 7.05D-04

 Initial convergence to 1.0D-05 achieved.  Increase integral accuracy.
 Cycle   9  Pass 1  IDiag  1:
 E= -930.180652711723     Delta-E=        0.000128557937 Rises=F Damp=F
 DIIS: error= 3.52D-05 at cycle   1 NSaved=   1.
 NSaved= 1 IEnMin= 1 EnMin= -930.180652711723     IErMin= 1 ErrMin= 3.52D-05
 ErrMax= 3.52D-05  0.00D+00 EMaxC= 1.00D-01 BMatC= 9.80D-07 BMatP= 9.80D-07
 IDIUse=1 WtCom= 1.00D+00 WtEn= 0.00D+00
 Coeff-Com:  0.100D+01
 Coeff:      0.100D+01
 Gap=     0.357 Goal=   None    Shift=    0.000
 Gap=     0.357 Goal=   None    Shift=    0.000
 RMSDP=6.56D-06 MaxDP=2.46D-04 DE= 1.29D-04 OVMax= 1.44D-04

 Cycle  10  Pass 1  IDiag  1:
 RMSU=  1.70D-05    CP:  1.00D+00
 E= -930.180652922033     Delta-E=       -0.000000210311 Rises=F Damp=F
 DIIS: error= 1.17D-05 at cycle   2 NSaved=   2.
 NSaved= 2 IEnMin= 2 EnMin= -930.180652922033     IErMin= 2 ErrMin= 1.17D-05
 ErrMax= 1.17D-05  0.00D+00 EMaxC= 1.00D-01 BMatC= 1.02D-07 BMatP= 9.80D-07
 IDIUse=1 WtCom= 1.00D+00 WtEn= 0.00D+00
 Coeff-Com:  0.111D+00 0.889D+00
 Coeff:      0.111D+00 0.889D+00
 Gap=     0.357 Goal=   None    Shift=    0.000
 Gap=     0.357 Goal=   None    Shift=    0.000
 RMSDP=1.49D-06 MaxDP=5.07D-05 DE=-2.10D-07 OVMax= 8.11D-05

 Cycle  11  Pass 1  IDiag  1:
 RMSU=  1.20D-06    CP:  1.00D+00  1.05D+00
 E= -930.180652939790     Delta-E=       -0.000000017757 Rises=F Damp=F
 DIIS: error= 8.44D-06 at cycle   3 NSaved=   3.
 NSaved= 3 IEnMin= 3 EnMin= -930.180652939790     IErMin= 3 ErrMin= 8.44D-06
 ErrMax= 8.44D-06  0.00D+00 EMaxC= 1.00D-01 BMatC= 6.97D-08 BMatP= 1.02D-07
 IDIUse=1 WtCom= 1.00D+00 WtEn= 0.00D+00
 Coeff-Com: -0.343D-01 0.447D+00 0.587D+00
 Coeff:     -0.343D-01 0.447D+00 0.587D+00
 Gap=     0.357 Goal=   None    Shift=    0.000
 Gap=     0.357 Goal=   None    Shift=    0.000
 RMSDP=5.85D-07 MaxDP=2.22D-05 DE=-1.78D-08 OVMax= 4.19D-05

 Cycle  12  Pass 1  IDiag  1:
 RMSU=  5.05D-07    CP:  1.00D+00  1.07D+00  8.77D-01
 E= -930.180652959548     Delta-E=       -0.000000019758 Rises=F Damp=F
 DIIS: error= 1.61D-06 at cycle   4 NSaved=   4.
 NSaved= 4 IEnMin= 4 EnMin= -930.180652959548     IErMin= 4 ErrMin= 1.61D-06
 ErrMax= 1.61D-06  0.00D+00 EMaxC= 1.00D-01 BMatC= 3.31D-09 BMatP= 6.97D-08
 IDIUse=1 WtCom= 1.00D+00 WtEn= 0.00D+00
 Coeff-Com: -0.617D-02-0.143D+00-0.977D-01 0.125D+01
 Coeff:     -0.617D-02-0.143D+00-0.977D-01 0.125D+01
 Gap=     0.357 Goal=   None    Shift=    0.000
 Gap=     0.357 Goal=   None    Shift=    0.000
 RMSDP=4.34D-07 MaxDP=1.62D-05 DE=-1.98D-08 OVMax= 4.37D-05

 Cycle  13  Pass 1  IDiag  1:
 RMSU=  2.02D-07    CP:  1.00D+00  1.07D+00  1.08D+00  1.56D+00
 E= -930.180652964034     Delta-E=       -0.000000004486 Rises=F Damp=F
 DIIS: error= 8.63D-07 at cycle   5 NSaved=   5.
 NSaved= 5 IEnMin= 5 EnMin= -930.180652964034     IErMin= 5 ErrMin= 8.63D-07
 ErrMax= 8.63D-07  0.00D+00 EMaxC= 1.00D-01 BMatC= 1.04D-09 BMatP= 3.31D-09
 IDIUse=1 WtCom= 1.00D+00 WtEn= 0.00D+00
 Coeff-Com:  0.844D-02-0.194D+00-0.230D+00 0.480D+00 0.936D+00
 Coeff:      0.844D-02-0.194D+00-0.230D+00 0.480D+00 0.936D+00
 Gap=     0.357 Goal=   None    Shift=    0.000
 Gap=     0.357 Goal=   None    Shift=    0.000
 RMSDP=2.55D-07 MaxDP=9.50D-06 DE=-4.49D-09 OVMax= 3.12D-05

 Cycle  14  Pass 1  IDiag  1:
 RMSU=  8.23D-08    CP:  1.00D+00  1.07D+00  1.19D+00  1.95D+00  1.29D+00
 E= -930.180652958093     Delta-E=        0.000000005941 Rises=F Damp=F
 DIIS: error= 1.60D-07 at cycle   6 NSaved=   6.
 NSaved= 6 IEnMin= 5 EnMin= -930.180652964034     IErMin= 6 ErrMin= 1.60D-07
 ErrMax= 1.60D-07  0.00D+00 EMaxC= 1.00D-01 BMatC= 7.01D-11 BMatP= 1.04D-09
 IDIUse=1 WtCom= 1.00D+00 WtEn= 0.00D+00
 Coeff-Com:  0.262D-02-0.421D-01-0.567D-01 0.380D-01 0.266D+00 0.793D+00
 Coeff:      0.262D-02-0.421D-01-0.567D-01 0.380D-01 0.266D+00 0.793D+00
 Gap=     0.357 Goal=   None    Shift=    0.000
 Gap=     0.357 Goal=   None    Shift=    0.000
 RMSDP=4.22D-08 MaxDP=1.26D-06 DE= 5.94D-09 OVMax= 3.56D-06

 Cycle  15  Pass 1  IDiag  1:
 RMSU=  2.17D-08    CP:  1.00D+00  1.07D+00  1.20D+00  1.99D+00  1.41D+00
                    CP:  1.13D+00
 E= -930.180652958121     Delta-E=       -0.000000000028 Rises=F Damp=F
 DIIS: error= 6.29D-08 at cycle   7 NSaved=   7.
 NSaved= 7 IEnMin= 5 EnMin= -930.180652964034     IErMin= 7 ErrMin= 6.29D-08
 ErrMax= 6.29D-08  0.00D+00 EMaxC= 1.00D-01 BMatC= 9.34D-12 BMatP= 7.01D-11
 IDIUse=1 WtCom= 1.00D+00 WtEn= 0.00D+00
 Coeff-Com: -0.116D-02 0.307D-01 0.338D-01-0.913D-01-0.121D+00 0.160D+00
 Coeff-Com:  0.989D+00
 Coeff:     -0.116D-02 0.307D-01 0.338D-01-0.913D-01-0.121D+00 0.160D+00
 Coeff:      0.989D+00
 Gap=     0.357 Goal=   None    Shift=    0.000
 Gap=     0.357 Goal=   None    Shift=    0.000
 RMSDP=2.03D-08 MaxDP=6.12D-07 DE=-2.82D-11 OVMax= 1.54D-06

 Cycle  16  Pass 1  IDiag  1:
 RMSU=  9.94D-09    CP:  1.00D+00  1.07D+00  1.20D+00  2.00D+00  1.47D+00
                    CP:  1.27D+00  1.23D+00
 E= -930.180652958165     Delta-E=       -0.000000000044 Rises=F Damp=F
 DIIS: error= 2.57D-08 at cycle   8 NSaved=   8.
 NSaved= 8 IEnMin= 5 EnMin= -930.180652964034     IErMin= 8 ErrMin= 2.57D-08
 ErrMax= 2.57D-08  0.00D+00 EMaxC= 1.00D-01 BMatC= 9.33D-13 BMatP= 9.34D-12
 IDIUse=1 WtCom= 1.00D+00 WtEn= 0.00D+00
 Coeff-Com: -0.424D-03 0.911D-02 0.105D-01-0.204D-01-0.426D-01-0.423D-01
 Coeff-Com:  0.178D+00 0.908D+00
 Coeff:     -0.424D-03 0.911D-02 0.105D-01-0.204D-01-0.426D-01-0.423D-01
 Coeff:      0.178D+00 0.908D+00
 Gap=     0.357 Goal=   None    Shift=    0.000
 Gap=     0.357 Goal=   None    Shift=    0.000
 RMSDP=5.45D-09 MaxDP=1.41D-07 DE=-4.39D-11 OVMax= 3.83D-07

 SCF Done:  E(ULC-wPBE) =  -930.180652958     A.U. after   16 cycles
            NFock= 16  Conv=0.54D-08     -V/T= 2.0048
 <Sx>= 0.0000 <Sy>= 0.0000 <Sz>= 0.0000 <S**2>=-0.0000 S=-0.0000
 <L.S>= 0.000000000000E+00
 KE= 9.257276447963D+02 PE=-3.870306512556D+03 EE= 1.172036659889D+03
 Annihilation of the first spin contaminant:
 S**2 before annihilation    -0.0000,   after    -0.0000
 Leave Link  502 at Fri Jul 24 03:21:51 2020, MaxMem=  4026531840 cpu:             476.9 elap:              59.8
 (Enter /opt/ohpc/pub/libs/gaussian/g16-A.03/sandybridge/g16/l601.exe)
 Copying SCF densities to generalized density rwf, IOpCl= 1 IROHF=0.

 **********************************************************************

            Population analysis using the SCF density.

 **********************************************************************

 Orbital symmetries:
 Alpha Orbitals:
       Occupied  (A) (A) (A) (A) (A) (A) (A) (A) (A) (A) (A) (A)
                 (A) (A) (A) (A) (A) (A) (A) (A) (A) (A) (A) (A)
                 (A) (A) (A) (A) (A) (A) (A) (A) (A) (A) (A) (A)
                 (A) (A) (A) (A) (A) (A) (A) (A) (A) (A) (A) (A)
                 (A) (A)
       Virtual   (A) (A) (A) (A) (A) (A) (A) (A) (A) (A) (A) (A)
                 (A) (A) (A) (A) (A) (A) (A) (A) (A) (A) (A) (A)
                 (A) (A) (A) (A) (A) (A) (A) (A) (A) (A) (A) (A)
                 (A) (A) (A) (A) (A) (A) (A) (A) (A) (A) (A) (A)
                 (A) (A) (A) (A) (A) (A) (A) (A) (A) (A) (A) (A)
                 (A) (A) (A) (A) (A) (A) (A) (A) (A) (A) (A) (A)
                 (A) (A) (A) (A) (A) (A) (A) (A) (A) (A) (A) (A)
                 (A) (A) (A) (A) (A) (A) (A) (A) (A) (A) (A) (A)
                 (A) (A) (A) (A) (A) (A) (A) (A) (A) (A) (A) (A)
                 (A) (A) (A) (A) (A) (A) (A) (A) (A) (A) (A) (A)
                 (A) (A) (A) (A) (A) (A) (A) (A) (A) (A) (A) (A)
                 (A) (A) (A) (A) (A) (A) (A) (A) (A) (A) (A) (A)
                 (A) (A) (A) (A) (A) (A) (A) (A) (A) (A) (A) (A)
                 (A) (A) (A) (A) (A) (A) (A) (A) (A) (A) (A) (A)
                 (A) (A) (A) (A) (A) (A) (A) (A)
 Beta  Orbitals:
       Occupied  (A) (A) (A) (A) (A) (A) (A) (A) (A) (A) (A) (A)
                 (A) (A) (A) (A) (A) (A) (A) (A) (A) (A) (A) (A)
                 (A) (A) (A) (A) (A) (A) (A) (A) (A) (A) (A) (A)
                 (A) (A) (A) (A) (A) (A) (A) (A) (A) (A) (A) (A)
                 (A) (A)
       Virtual   (A) (A) (A) (A) (A) (A) (A) (A) (A) (A) (A) (A)
                 (A) (A) (A) (A) (A) (A) (A) (A) (A) (A) (A) (A)
                 (A) (A) (A) (A) (A) (A) (A) (A) (A) (A) (A) (A)
                 (A) (A) (A) (A) (A) (A) (A) (A) (A) (A) (A) (A)
                 (A) (A) (A) (A) (A) (A) (A) (A) (A) (A) (A) (A)
                 (A) (A) (A) (A) (A) (A) (A) (A) (A) (A) (A) (A)
                 (A) (A) (A) (A) (A) (A) (A) (A) (A) (A) (A) (A)
                 (A) (A) (A) (A) (A) (A) (A) (A) (A) (A) (A) (A)
                 (A) (A) (A) (A) (A) (A) (A) (A) (A) (A) (A) (A)
                 (A) (A) (A) (A) (A) (A) (A) (A) (A) (A) (A) (A)
                 (A) (A) (A) (A) (A) (A) (A) (A) (A) (A) (A) (A)
                 (A) (A) (A) (A) (A) (A) (A) (A) (A) (A) (A) (A)
                 (A) (A) (A) (A) (A) (A) (A) (A) (A) (A) (A) (A)
                 (A) (A) (A) (A) (A) (A) (A) (A) (A) (A) (A) (A)
                 (A) (A) (A) (A) (A) (A) (A) (A)
 The electronic state is 1-A.
 Alpha  occ. eigenvalues --  -88.37545 -19.05478 -14.27450 -14.27136 -10.26745
 Alpha  occ. eigenvalues --  -10.24316 -10.23377 -10.22434 -10.21202 -10.21102
 Alpha  occ. eigenvalues --  -10.19849 -10.18824 -10.17560  -7.98585  -5.99624
 Alpha  occ. eigenvalues --   -5.99087  -5.98679  -1.24222  -1.17351  -1.09130
 Alpha  occ. eigenvalues --   -1.06680  -0.98685  -0.93387  -0.92144  -0.86110
 Alpha  occ. eigenvalues --   -0.82916  -0.80816  -0.73508  -0.72309  -0.69868
 Alpha  occ. eigenvalues --   -0.66157  -0.65050  -0.62528  -0.60470  -0.58890
 Alpha  occ. eigenvalues --   -0.58585  -0.57605  -0.56057  -0.54103  -0.53619
 Alpha  occ. eigenvalues --   -0.52111  -0.48919  -0.46551  -0.45856  -0.44111
 Alpha  occ. eigenvalues --   -0.43382  -0.40594  -0.37494  -0.35646  -0.32478
 Alpha virt. eigenvalues --    0.03261   0.06166   0.09994   0.14453   0.16715
 Alpha virt. eigenvalues --    0.16846   0.17622   0.19186   0.21301   0.21953
 Alpha virt. eigenvalues --    0.22939   0.23487   0.24225   0.25717   0.26265
 Alpha virt. eigenvalues --    0.28099   0.32357   0.34578   0.36256   0.38434
 Alpha virt. eigenvalues --    0.40146   0.43139   0.45354   0.46313   0.47716
 Alpha virt. eigenvalues --    0.50592   0.54410   0.56438   0.56655   0.57283
 Alpha virt. eigenvalues --    0.57475   0.57799   0.58980   0.59346   0.59591
 Alpha virt. eigenvalues --    0.60898   0.61840   0.62634   0.63244   0.63297
 Alpha virt. eigenvalues --    0.64640   0.66083   0.67159   0.68277   0.69238
 Alpha virt. eigenvalues --    0.70180   0.70829   0.71463   0.73424   0.74227
 Alpha virt. eigenvalues --    0.74636   0.76265   0.76993   0.78764   0.79307
 Alpha virt. eigenvalues --    0.79983   0.81083   0.83213   0.84216   0.85092
 Alpha virt. eigenvalues --    0.87170   0.88080   0.90587   0.91932   0.96224
 Alpha virt. eigenvalues --    0.97152   0.99170   1.00195   1.01018   1.03139
 Alpha virt. eigenvalues --    1.03686   1.04201   1.06569   1.07554   1.08809
 Alpha virt. eigenvalues --    1.09123   1.10130   1.11549   1.12996   1.15826
 Alpha virt. eigenvalues --    1.16568   1.16755   1.18421   1.19883   1.22091
 Alpha virt. eigenvalues --    1.23278   1.24329   1.27263   1.29041   1.30722
 Alpha virt. eigenvalues --    1.34303   1.35712   1.37347   1.38522   1.40995
 Alpha virt. eigenvalues --    1.44133   1.45889   1.46926   1.48204   1.51958
 Alpha virt. eigenvalues --    1.53439   1.53908   1.55973   1.59140   1.62519
 Alpha virt. eigenvalues --    1.64137   1.65043   1.66882   1.69087   1.69952
 Alpha virt. eigenvalues --    1.71480   1.72175   1.76016   1.76962   1.78045
 Alpha virt. eigenvalues --    1.78217   1.78795   1.80736   1.81088   1.81882
 Alpha virt. eigenvalues --    1.83524   1.85315   1.86685   1.88566   1.88909
 Alpha virt. eigenvalues --    1.89656   1.92724   1.94327   1.94940   1.97682
 Alpha virt. eigenvalues --    1.99462   2.02002   2.04880   2.05032   2.08087
 Alpha virt. eigenvalues --    2.09944   2.12248   2.13752   2.15123   2.17771
 Alpha virt. eigenvalues --    2.20230   2.21594   2.23793   2.24921   2.28065
 Alpha virt. eigenvalues --    2.29759   2.32189   2.35023   2.36975   2.38103
 Alpha virt. eigenvalues --    2.43084   2.43472   2.50272   2.52533   2.56144
 Alpha virt. eigenvalues --    2.56567   2.57254   2.60168   2.64593   2.67255
 Alpha virt. eigenvalues --    2.69273   2.72244   2.73094   2.74094   2.89662
 Alpha virt. eigenvalues --    2.93445   3.01783   3.02373   3.05782   3.09749
 Alpha virt. eigenvalues --    3.18609   3.20863   3.25274   3.50502   3.55605
 Alpha virt. eigenvalues --    3.61748
  Beta  occ. eigenvalues --  -88.37545 -19.05478 -14.27450 -14.27136 -10.26745
  Beta  occ. eigenvalues --  -10.24316 -10.23377 -10.22434 -10.21202 -10.21102
  Beta  occ. eigenvalues --  -10.19849 -10.18824 -10.17560  -7.98585  -5.99624
  Beta  occ. eigenvalues --   -5.99087  -5.98679  -1.24222  -1.17351  -1.09130
  Beta  occ. eigenvalues --   -1.06680  -0.98685  -0.93387  -0.92144  -0.86110
  Beta  occ. eigenvalues --   -0.82916  -0.80816  -0.73508  -0.72309  -0.69868
  Beta  occ. eigenvalues --   -0.66157  -0.65050  -0.62528  -0.60470  -0.58890
  Beta  occ. eigenvalues --   -0.58585  -0.57605  -0.56057  -0.54103  -0.53619
  Beta  occ. eigenvalues --   -0.52111  -0.48919  -0.46551  -0.45856  -0.44111
  Beta  occ. eigenvalues --   -0.43382  -0.40594  -0.37494  -0.35646  -0.32478
  Beta virt. eigenvalues --    0.03261   0.06166   0.09994   0.14453   0.16715
  Beta virt. eigenvalues --    0.16846   0.17622   0.19186   0.21301   0.21953
  Beta virt. eigenvalues --    0.22939   0.23487   0.24225   0.25717   0.26265
  Beta virt. eigenvalues --    0.28099   0.32357   0.34578   0.36256   0.38434
  Beta virt. eigenvalues --    0.40146   0.43139   0.45354   0.46313   0.47716
  Beta virt. eigenvalues --    0.50592   0.54410   0.56438   0.56655   0.57283
  Beta virt. eigenvalues --    0.57475   0.57799   0.58980   0.59346   0.59591
  Beta virt. eigenvalues --    0.60898   0.61840   0.62634   0.63244   0.63297
  Beta virt. eigenvalues --    0.64640   0.66083   0.67159   0.68277   0.69238
  Beta virt. eigenvalues --    0.70180   0.70829   0.71463   0.73424   0.74227
  Beta virt. eigenvalues --    0.74636   0.76265   0.76993   0.78764   0.79307
  Beta virt. eigenvalues --    0.79983   0.81083   0.83213   0.84216   0.85092
  Beta virt. eigenvalues --    0.87170   0.88080   0.90587   0.91932   0.96224
  Beta virt. eigenvalues --    0.97152   0.99170   1.00195   1.01018   1.03139
  Beta virt. eigenvalues --    1.03686   1.04201   1.06569   1.07554   1.08809
  Beta virt. eigenvalues --    1.09123   1.10130   1.11549   1.12996   1.15826
  Beta virt. eigenvalues --    1.16568   1.16755   1.18421   1.19883   1.22091
  Beta virt. eigenvalues --    1.23278   1.24329   1.27263   1.29041   1.30722
  Beta virt. eigenvalues --    1.34303   1.35712   1.37347   1.38522   1.40995
  Beta virt. eigenvalues --    1.44133   1.45889   1.46926   1.48204   1.51958
  Beta virt. eigenvalues --    1.53439   1.53908   1.55973   1.59140   1.62519
  Beta virt. eigenvalues --    1.64137   1.65043   1.66882   1.69087   1.69952
  Beta virt. eigenvalues --    1.71480   1.72175   1.76016   1.76962   1.78045
  Beta virt. eigenvalues --    1.78217   1.78795   1.80736   1.81088   1.81882
  Beta virt. eigenvalues --    1.83524   1.85315   1.86685   1.88566   1.88909
  Beta virt. eigenvalues --    1.89656   1.92724   1.94327   1.94940   1.97682
  Beta virt. eigenvalues --    1.99462   2.02002   2.04880   2.05032   2.08087
  Beta virt. eigenvalues --    2.09944   2.12248   2.13752   2.15123   2.17771
  Beta virt. eigenvalues --    2.20230   2.21594   2.23793   2.24921   2.28065
  Beta virt. eigenvalues --    2.29759   2.32189   2.35023   2.36975   2.38103
  Beta virt. eigenvalues --    2.43084   2.43472   2.50272   2.52533   2.56144
  Beta virt. eigenvalues --    2.56567   2.57254   2.60168   2.64593   2.67255
  Beta virt. eigenvalues --    2.69273   2.72244   2.73094   2.74094   2.89662
  Beta virt. eigenvalues --    2.93445   3.01783   3.02373   3.05782   3.09749
  Beta virt. eigenvalues --    3.18609   3.20863   3.25274   3.50502   3.55605
  Beta virt. eigenvalues --    3.61748
          Condensed to atoms (all electrons):
               1          2          3          4          5          6
     1  C    4.997226   0.522215  -0.037630  -0.029278  -0.039089   0.475005
     2  C    0.522215   4.525201   0.556121  -0.099584  -0.031884  -0.042604
     3  N   -0.037630   0.556121   6.376936   0.534251  -0.058817  -0.033795
     4  C   -0.029278  -0.099584   0.534251   4.798232   0.522788  -0.101643
     5  N   -0.039089  -0.031884  -0.058817   0.522788   6.278316   0.596554
     6  C    0.475005  -0.042604  -0.033795  -0.101643   0.596554   4.583139
     7  C    0.002510   0.001889  -0.064589   0.276204  -0.063967  -0.000350
     8  C    0.000000  -0.000078   0.002461  -0.046729   0.005506   0.000877
     9  O   -0.000020   0.000013  -0.000012   0.009138  -0.001581   0.000120
    10  C    0.000000  -0.000000   0.000002  -0.000285   0.000093   0.000001
    11  C   -0.000002   0.000007  -0.000040   0.008719   0.000158   0.000027
    12  C    0.000001   0.000008   0.000303   0.003967  -0.000038   0.000000
    13  S    0.000049   0.000328   0.007084  -0.052413   0.001853  -0.000134
    14  H    0.398287  -0.032732   0.004287   0.001203   0.004027  -0.035845
    15  H   -0.060219   0.427539  -0.025832   0.002493  -0.000726   0.006161
    16  H   -0.056723   0.005087  -0.000502   0.002606  -0.022763   0.421121
    17  H   -0.000000   0.000000  -0.000000   0.000133  -0.000018   0.000002
    18  H   -0.000000   0.000000  -0.000000   0.000096  -0.000008  -0.000000
    19  H    0.000000  -0.000000   0.000000  -0.000071   0.000057   0.000002
    20  H   -0.000000  -0.000000   0.000002  -0.000251   0.000006   0.000000
    21  H    0.000000  -0.000000  -0.000000  -0.000168   0.000001  -0.000000
               7          8          9         10         11         12
     1  C    0.002510   0.000000  -0.000020   0.000000  -0.000002   0.000001
     2  C    0.001889  -0.000078   0.000013  -0.000000   0.000007   0.000008
     3  N   -0.064589   0.002461  -0.000012   0.000002  -0.000040   0.000303
     4  C    0.276204  -0.046729   0.009138  -0.000285   0.008719   0.003967
     5  N   -0.063967   0.005506  -0.001581   0.000093   0.000158  -0.000038
     6  C   -0.000350   0.000877   0.000120   0.000001   0.000027   0.000000
     7  C    5.417492   0.518471  -0.069246   0.006538  -0.077787  -0.103536
     8  C    0.518471   4.708921   0.441801  -0.074931   0.431506  -0.037742
     9  O   -0.069246   0.441801   7.687613   0.346901  -0.061482   0.004224
    10  C    0.006538  -0.074931   0.346901   4.493502  -0.002455   0.000317
    11  C   -0.077787   0.431506  -0.061482  -0.002455   4.756837   0.556936
    12  C   -0.103536  -0.037742   0.004224   0.000317   0.556936   5.009984
    13  S    0.359444  -0.081179   0.002354  -0.000187  -0.095524   0.394543
    14  H    0.000079  -0.000003  -0.000000  -0.000000  -0.000000  -0.000000
    15  H   -0.000625   0.000021   0.000000  -0.000000   0.000000  -0.000001
    16  H   -0.000555  -0.000039   0.000054  -0.000002   0.000000  -0.000000
    17  H    0.000635  -0.005172  -0.033350   0.400399   0.004289   0.000088
    18  H    0.000122  -0.008579  -0.030620   0.398221   0.007237  -0.000016
    19  H   -0.000277   0.003105  -0.017967   0.405288  -0.000032  -0.000003
    20  H    0.006881  -0.035824  -0.004743   0.004786   0.419539  -0.042685
    21  H    0.003167   0.004708  -0.000046  -0.000002  -0.016877   0.398199
              13         14         15         16         17         18
     1  C    0.000049   0.398287  -0.060219  -0.056723  -0.000000  -0.000000
     2  C    0.000328  -0.032732   0.427539   0.005087   0.000000   0.000000
     3  N    0.007084   0.004287  -0.025832  -0.000502  -0.000000  -0.000000
     4  C   -0.052413   0.001203   0.002493   0.002606   0.000133   0.000096
     5  N    0.001853   0.004027  -0.000726  -0.022763  -0.000018  -0.000008
     6  C   -0.000134  -0.035845   0.006161   0.421121   0.000002  -0.000000
     7  C    0.359444   0.000079  -0.000625  -0.000555   0.000635   0.000122
     8  C   -0.081179  -0.000003   0.000021  -0.000039  -0.005172  -0.008579
     9  O    0.002354  -0.000000   0.000000   0.000054  -0.033350  -0.030620
    10  C   -0.000187  -0.000000  -0.000000  -0.000002   0.400399   0.398221
    11  C   -0.095524  -0.000000   0.000000   0.000000   0.004289   0.007237
    12  C    0.394543  -0.000000  -0.000001  -0.000000   0.000088  -0.000016
    13  S   15.277008  -0.000002  -0.000034   0.000007  -0.000119  -0.000085
    14  H   -0.000002   0.625924  -0.010257  -0.005544   0.000000  -0.000000
    15  H   -0.000034  -0.010257   0.642950  -0.000138   0.000000  -0.000000
    16  H    0.000007  -0.005544  -0.000138   0.618189  -0.000000   0.000000
    17  H   -0.000119   0.000000   0.000000  -0.000000   0.646253  -0.039960
    18  H   -0.000085  -0.000000  -0.000000   0.000000  -0.039960   0.647731
    19  H    0.000015  -0.000000  -0.000000  -0.000002  -0.023010  -0.026485
    20  H    0.006242  -0.000000  -0.000000   0.000000   0.000165   0.000878
    21  H   -0.040137  -0.000000  -0.000000   0.000000   0.000009   0.000008
              19         20         21
     1  C    0.000000  -0.000000   0.000000
     2  C   -0.000000  -0.000000  -0.000000
     3  N    0.000000   0.000002  -0.000000
     4  C   -0.000071  -0.000251  -0.000168
     5  N    0.000057   0.000006   0.000001
     6  C    0.000002   0.000000  -0.000000
     7  C   -0.000277   0.006881   0.003167
     8  C    0.003105  -0.035824   0.004708
     9  O   -0.017967  -0.004743  -0.000046
    10  C    0.405288   0.004786  -0.000002
    11  C   -0.000032   0.419539  -0.016877
    12  C   -0.000003  -0.042685   0.398199
    13  S    0.000015   0.006242  -0.040137
    14  H   -0.000000  -0.000000  -0.000000
    15  H   -0.000000  -0.000000  -0.000000
    16  H   -0.000002   0.000000   0.000000
    17  H   -0.023010   0.000165   0.000009
    18  H   -0.026485   0.000878   0.000008
    19  H    0.585521  -0.000145  -0.000000
    20  H   -0.000145   0.670484  -0.006217
    21  H   -0.000000  -0.006217   0.583540
          Atomic-Atomic Spin Densities.
               1          2          3          4          5          6
     1  C    0.000000  -0.000000  -0.000000  -0.000000   0.000000   0.000000
     2  C   -0.000000  -0.000000  -0.000000   0.000000  -0.000000  -0.000000
     3  N   -0.000000  -0.000000   0.000000   0.000000   0.000000   0.000000
     4  C   -0.000000   0.000000   0.000000   0.000000  -0.000000   0.000000
     5  N    0.000000  -0.000000   0.000000  -0.000000   0.000000  -0.000000
     6  C    0.000000  -0.000000   0.000000   0.000000  -0.000000  -0.000000
     7  C   -0.000000   0.000000  -0.000000   0.000000   0.000000   0.000000
     8  C    0.000000   0.000000  -0.000000   0.000000  -0.000000   0.000000
     9  O    0.000000  -0.000000   0.000000  -0.000000   0.000000  -0.000000
    10  C   -0.000000   0.000000  -0.000000   0.000000   0.000000   0.000000
    11  C   -0.000000  -0.000000   0.000000  -0.000000  -0.000000  -0.000000
    12  C    0.000000  -0.000000   0.000000  -0.000000   0.000000  -0.000000
    13  S    0.000000  -0.000000  -0.000000  -0.000000   0.000000  -0.000000
    14  H    0.000000  -0.000000   0.000000  -0.000000   0.000000   0.000000
    15  H   -0.000000   0.000000  -0.000000   0.000000  -0.000000   0.000000
    16  H    0.000000  -0.000000   0.000000   0.000000  -0.000000  -0.000000
    17  H   -0.000000   0.000000   0.000000  -0.000000   0.000000   0.000000
    18  H    0.000000  -0.000000   0.000000  -0.000000   0.000000  -0.000000
    19  H    0.000000  -0.000000  -0.000000  -0.000000  -0.000000   0.000000
    20  H   -0.000000   0.000000  -0.000000   0.000000   0.000000   0.000000
    21  H   -0.000000   0.000000  -0.000000   0.000000   0.000000   0.000000
               7          8          9         10         11         12
     1  C   -0.000000   0.000000   0.000000  -0.000000  -0.000000   0.000000
     2  C    0.000000   0.000000  -0.000000   0.000000  -0.000000  -0.000000
     3  N   -0.000000  -0.000000   0.000000  -0.000000   0.000000   0.000000
     4  C    0.000000   0.000000  -0.000000   0.000000  -0.000000  -0.000000
     5  N    0.000000  -0.000000   0.000000   0.000000  -0.000000   0.000000
     6  C    0.000000   0.000000  -0.000000   0.000000  -0.000000  -0.000000
     7  C   -0.000000   0.000000   0.000000  -0.000000  -0.000000   0.000000
     8  C    0.000000   0.000000  -0.000000  -0.000000  -0.000000   0.000000
     9  O    0.000000  -0.000000   0.000000  -0.000000   0.000000   0.000000
    10  C   -0.000000  -0.000000  -0.000000   0.000000   0.000000  -0.000000
    11  C   -0.000000  -0.000000   0.000000   0.000000   0.000000  -0.000000
    12  C    0.000000   0.000000   0.000000  -0.000000  -0.000000   0.000000
    13  S   -0.000000  -0.000000  -0.000000   0.000000  -0.000000  -0.000000
    14  H   -0.000000   0.000000  -0.000000  -0.000000   0.000000  -0.000000
    15  H    0.000000  -0.000000  -0.000000   0.000000  -0.000000  -0.000000
    16  H    0.000000  -0.000000  -0.000000   0.000000  -0.000000  -0.000000
    17  H    0.000000   0.000000  -0.000000   0.000000  -0.000000  -0.000000
    18  H    0.000000   0.000000  -0.000000  -0.000000  -0.000000  -0.000000
    19  H    0.000000   0.000000   0.000000   0.000000   0.000000   0.000000
    20  H   -0.000000  -0.000000  -0.000000   0.000000   0.000000  -0.000000
    21  H    0.000000   0.000000   0.000000  -0.000000  -0.000000   0.000000
              13         14         15         16         17         18
     1  C    0.000000   0.000000  -0.000000   0.000000  -0.000000   0.000000
     2  C   -0.000000  -0.000000   0.000000  -0.000000   0.000000  -0.000000
     3  N   -0.000000   0.000000  -0.000000   0.000000   0.000000   0.000000
     4  C   -0.000000  -0.000000   0.000000   0.000000  -0.000000  -0.000000
     5  N    0.000000   0.000000  -0.000000  -0.000000   0.000000   0.000000
     6  C   -0.000000   0.000000   0.000000  -0.000000   0.000000  -0.000000
     7  C   -0.000000  -0.000000   0.000000   0.000000   0.000000   0.000000
     8  C   -0.000000   0.000000  -0.000000  -0.000000   0.000000   0.000000
     9  O   -0.000000  -0.000000  -0.000000  -0.000000  -0.000000  -0.000000
    10  C    0.000000  -0.000000   0.000000   0.000000   0.000000  -0.000000
    11  C   -0.000000   0.000000  -0.000000  -0.000000  -0.000000  -0.000000
    12  C   -0.000000  -0.000000  -0.000000  -0.000000  -0.000000  -0.000000
    13  S    0.000000   0.000000  -0.000000  -0.000000   0.000000   0.000000
    14  H    0.000000   0.000000  -0.000000   0.000000  -0.000000   0.000000
    15  H   -0.000000  -0.000000   0.000000  -0.000000   0.000000  -0.000000
    16  H   -0.000000   0.000000  -0.000000   0.000000   0.000000  -0.000000
    17  H    0.000000  -0.000000   0.000000   0.000000  -0.000000  -0.000000
    18  H    0.000000   0.000000  -0.000000  -0.000000  -0.000000  -0.000000
    19  H   -0.000000   0.000000  -0.000000  -0.000000   0.000000   0.000000
    20  H    0.000000  -0.000000   0.000000   0.000000   0.000000   0.000000
    21  H   -0.000000  -0.000000   0.000000   0.000000  -0.000000  -0.000000
              19         20         21
     1  C    0.000000  -0.000000  -0.000000
     2  C   -0.000000   0.000000   0.000000
     3  N   -0.000000  -0.000000  -0.000000
     4  C   -0.000000   0.000000   0.000000
     5  N   -0.000000   0.000000   0.000000
     6  C    0.000000   0.000000   0.000000
     7  C    0.000000  -0.000000   0.000000
     8  C    0.000000  -0.000000   0.000000
     9  O    0.000000  -0.000000   0.000000
    10  C    0.000000   0.000000  -0.000000
    11  C    0.000000   0.000000  -0.000000
    12  C    0.000000  -0.000000   0.000000
    13  S   -0.000000   0.000000  -0.000000
    14  H    0.000000  -0.000000  -0.000000
    15  H   -0.000000   0.000000   0.000000
    16  H   -0.000000   0.000000   0.000000
    17  H    0.000000   0.000000  -0.000000
    18  H    0.000000   0.000000  -0.000000
    19  H   -0.000000   0.000000   0.000000
    20  H    0.000000   0.000000  -0.000000
    21  H    0.000000  -0.000000   0.000000
 Mulliken charges and spin densities:
               1          2
     1  C   -0.172332   0.000000
     2  C    0.168474  -0.000000
     3  N   -0.260229   0.000000
     4  C    0.170590   0.000000
     5  N   -0.190468  -0.000000
     6  C    0.131362  -0.000000
     7  C   -0.212501  -0.000000
     8  C    0.172900   0.000000
     9  O   -0.273152  -0.000000
    10  C    0.021814   0.000000
    11  C    0.068944  -0.000000
    12  C   -0.184550   0.000000
    13  S    0.220886   0.000000
    14  H    0.050576   0.000000
    15  H    0.018666  -0.000000
    16  H    0.039203   0.000000
    17  H    0.049656  -0.000000
    18  H    0.051459  -0.000000
    19  H    0.074004  -0.000000
    20  H   -0.019118   0.000000
    21  H    0.073816   0.000000
 Sum of Mulliken charges =  -0.00000   0.00000
 Mulliken charges and spin densities with hydrogens summed into heavy atoms:
               1          2
     1  C   -0.121756   0.000000
     2  C    0.187141  -0.000000
     3  N   -0.260229   0.000000
     4  C    0.170590   0.000000
     5  N   -0.190468  -0.000000
     6  C    0.170566  -0.000000
     7  C   -0.212501  -0.000000
     8  C    0.172900   0.000000
     9  O   -0.273152  -0.000000
    10  C    0.196932  -0.000000
    11  C    0.049826  -0.000000
    12  C   -0.110734   0.000000
    13  S    0.220886   0.000000
 Electronic spatial extent (au):  <R**2>=           2748.1936
 Charge=              0.0000 electrons
 Dipole moment (field-independent basis, Debye):
    X=              0.4882    Y=              1.2367    Z=             -0.2572  Tot=              1.3542
 Quadrupole moment (field-independent basis, Debye-Ang):
   XX=            -57.6290   YY=            -75.3282   ZZ=            -84.5377
   XY=             -0.7686   XZ=              0.3901   YZ=              0.9038
 Traceless Quadrupole moment (field-independent basis, Debye-Ang):
   XX=             14.8693   YY=             -2.8299   ZZ=            -12.0394
   XY=             -0.7686   XZ=              0.3901   YZ=              0.9038
 Octapole moment (field-independent basis, Debye-Ang**2):
  XXX=            -17.8455  YYY=             20.4146  ZZZ=              1.5210  XYY=             18.4098
  XXY=             15.6206  XXZ=              2.7282  XZZ=             -0.8862  YZZ=              5.3605
  YYZ=             -2.9781  XYZ=              6.8697
 Hexadecapole moment (field-independent basis, Debye-Ang**3):
 XXXX=          -2090.4808 YYYY=           -996.3649 ZZZZ=           -163.7507 XXXY=             -4.4643
 XXXZ=            -12.1236 YYYX=              6.7615 YYYZ=              6.8101 ZZZX=              2.4778
 ZZZY=              0.4725 XXYY=           -493.0730 XXZZ=           -446.7527 YYZZ=           -212.1580
 XXYZ=            -15.9211 YYXZ=              7.7938 ZZXY=              9.9435
 N-N= 8.423615549125D+02 E-N=-3.870306512282D+03  KE= 9.257276447963D+02
                          Isotropic Fermi Contact Couplings
        Atom                 a.u.       MegaHertz       Gauss      10(-4) cm-1
     1  C(13)              0.00000       0.00000       0.00000       0.00000
     2  C(13)             -0.00000      -0.00000      -0.00000      -0.00000
     3  N(14)              0.00000       0.00000       0.00000       0.00000
     4  C(13)              0.00000       0.00000       0.00000       0.00000
     5  N(14)              0.00000       0.00000       0.00000       0.00000
     6  C(13)             -0.00000      -0.00000      -0.00000      -0.00000
     7  C(13)             -0.00000      -0.00000      -0.00000      -0.00000
     8  C(13)              0.00000       0.00000       0.00000       0.00000
     9  O(17)              0.00000      -0.00000      -0.00000      -0.00000
    10  C(13)              0.00000       0.00000       0.00000       0.00000
    11  C(13)              0.00000       0.00000       0.00000       0.00000
    12  C(13)              0.00000       0.00000       0.00000       0.00000
    13  S(33)             -0.00000      -0.00000      -0.00000      -0.00000
    14  H(1)               0.00000       0.00000       0.00000       0.00000
    15  H(1)              -0.00000      -0.00000      -0.00000      -0.00000
    16  H(1)               0.00000       0.00000       0.00000       0.00000
    17  H(1)              -0.00000      -0.00000      -0.00000      -0.00000
    18  H(1)              -0.00000      -0.00000      -0.00000      -0.00000
    19  H(1)              -0.00000      -0.00000      -0.00000      -0.00000
    20  H(1)               0.00000       0.00000       0.00000       0.00000
    21  H(1)              -0.00000      -0.00000      -0.00000      -0.00000
 --------------------------------------------------------
       Center         ----  Spin Dipole Couplings  ----
                      3XX-RR        3YY-RR        3ZZ-RR
 --------------------------------------------------------
     1   Atom        0.000000      0.000000     -0.000000
     2   Atom        0.000000      0.000000     -0.000000
     3   Atom       -0.000000      0.000000     -0.000000
     4   Atom        0.000000     -0.000000     -0.000000
     5   Atom       -0.000000      0.000000      0.000000
     6   Atom        0.000000     -0.000000     -0.000000
     7   Atom       -0.000000      0.000000      0.000000
     8   Atom        0.000000     -0.000000      0.000000
     9   Atom       -0.000000     -0.000000      0.000000
    10   Atom        0.000000     -0.000000      0.000000
    11   Atom       -0.000000      0.000000      0.000000
    12   Atom       -0.000000     -0.000000      0.000000
    13   Atom        0.000000     -0.000000     -0.000000
    14   Atom        0.000000     -0.000000     -0.000000
    15   Atom       -0.000000      0.000000     -0.000000
    16   Atom       -0.000000      0.000000     -0.000000
    17   Atom       -0.000000     -0.000000      0.000000
    18   Atom        0.000000     -0.000000      0.000000
    19   Atom       -0.000000      0.000000     -0.000000
    20   Atom       -0.000000      0.000000     -0.000000
    21   Atom       -0.000000      0.000000     -0.000000
 --------------------------------------------------------
                        XY            XZ            YZ
 --------------------------------------------------------
     1   Atom       -0.000000     -0.000000      0.000000
     2   Atom       -0.000000     -0.000000     -0.000000
     3   Atom       -0.000000     -0.000000     -0.000000
     4   Atom       -0.000000     -0.000000     -0.000000
     5   Atom       -0.000000      0.000000     -0.000000
     6   Atom        0.000000     -0.000000      0.000000
     7   Atom        0.000000     -0.000000      0.000000
     8   Atom       -0.000000     -0.000000      0.000000
     9   Atom       -0.000000      0.000000     -0.000000
    10   Atom       -0.000000     -0.000000     -0.000000
    11   Atom       -0.000000      0.000000     -0.000000
    12   Atom        0.000000      0.000000      0.000000
    13   Atom        0.000000      0.000000     -0.000000
    14   Atom       -0.000000      0.000000      0.000000
    15   Atom        0.000000     -0.000000     -0.000000
    16   Atom       -0.000000      0.000000     -0.000000
    17   Atom       -0.000000     -0.000000      0.000000
    18   Atom       -0.000000      0.000000     -0.000000
    19   Atom       -0.000000     -0.000000      0.000000
    20   Atom        0.000000     -0.000000      0.000000
    21   Atom       -0.000000      0.000000      0.000000
 --------------------------------------------------------


 ---------------------------------------------------------------------------------
              Anisotropic Spin Dipole Couplings in Principal Axis System
 ---------------------------------------------------------------------------------

       Atom             a.u.   MegaHertz   Gauss  10(-4) cm-1        Axes

              Baa    -0.0000    -0.000    -0.000    -0.000  0.0715  0.0285  0.9970
     1 C(13)  Bbb    -0.0000    -0.000    -0.000    -0.000  0.4696  0.8809 -0.0588
              Bcc     0.0000     0.000     0.000     0.000  0.8800 -0.4724 -0.0496
 
              Baa    -0.0000    -0.000    -0.000    -0.000  0.2834  0.6628  0.6931
     2 C(13)  Bbb     0.0000     0.000     0.000     0.000  0.8905  0.0864 -0.4467
              Bcc     0.0000     0.000     0.000     0.000 -0.3559  0.7438 -0.5658
 
              Baa    -0.0000    -0.000    -0.000    -0.000  0.9835  0.0460  0.1750
     3 N(14)  Bbb    -0.0000    -0.000    -0.000    -0.000 -0.1794  0.1215  0.9762
              Bcc     0.0000     0.000     0.000     0.000 -0.0237  0.9915 -0.1277
 
              Baa    -0.0000    -0.000    -0.000    -0.000  0.3566  0.2923  0.8873
     4 C(13)  Bbb    -0.0000    -0.000    -0.000    -0.000 -0.0357  0.9534 -0.2997
              Bcc     0.0000     0.000     0.000     0.000  0.9336 -0.0752 -0.3504
 
              Baa    -0.0000    -0.000    -0.000    -0.000  0.8285  0.4678 -0.3080
     5 N(14)  Bbb     0.0000     0.000     0.000     0.000 -0.2533  0.8034  0.5389
              Bcc     0.0000     0.000     0.000     0.000  0.4995 -0.3685  0.7840
 
              Baa    -0.0000    -0.000    -0.000    -0.000 -0.3125  0.9233 -0.2231
     6 C(13)  Bbb    -0.0000    -0.000    -0.000    -0.000  0.1027  0.2663  0.9584
              Bcc     0.0000     0.000     0.000     0.000  0.9443  0.2766 -0.1780
 
              Baa    -0.0000    -0.000    -0.000    -0.000  0.8813 -0.4685  0.0618
     7 C(13)  Bbb     0.0000     0.000     0.000     0.000  0.3963  0.6617 -0.6365
              Bcc     0.0000     0.000     0.000     0.000  0.2573  0.5854  0.7688
 
              Baa    -0.0000    -0.000    -0.000    -0.000  0.3969  0.8111 -0.4296
     8 C(13)  Bbb    -0.0000    -0.000    -0.000    -0.000  0.6211  0.1073  0.7764
              Bcc     0.0000     0.000     0.000     0.000  0.6758 -0.5749 -0.4612
 
              Baa    -0.0000     0.000     0.000     0.000  0.8281  0.5534 -0.0894
     9 O(17)  Bbb     0.0000    -0.000    -0.000    -0.000 -0.5067  0.8071  0.3030
              Bcc     0.0000    -0.000    -0.000    -0.000  0.2398 -0.2056  0.9488
 
              Baa    -0.0000    -0.000    -0.000    -0.000  0.4183  0.8005  0.4292
    10 C(13)  Bbb    -0.0000    -0.000    -0.000    -0.000  0.3648 -0.5808  0.7277
              Bcc     0.0000     0.000     0.000     0.000  0.8319 -0.1478 -0.5349
 
              Baa    -0.0000    -0.000    -0.000    -0.000  0.9984  0.0518 -0.0219
    11 C(13)  Bbb     0.0000     0.000     0.000     0.000 -0.0029  0.4363  0.8998
              Bcc     0.0000     0.000     0.000     0.000 -0.0562  0.8983 -0.4358
 
              Baa    -0.0000    -0.000    -0.000    -0.000 -0.7024  0.7113 -0.0257
    12 C(13)  Bbb     0.0000     0.000     0.000     0.000 -0.4470 -0.4127  0.7937
              Bcc     0.0000     0.000     0.000     0.000  0.5539  0.5690  0.6078
 
              Baa    -0.0000    -0.000    -0.000    -0.000 -0.1350  0.8491  0.5108
    13 S(33)  Bbb    -0.0000    -0.000    -0.000    -0.000  0.0330 -0.5113  0.8587
              Bcc     0.0000     0.000     0.000     0.000  0.9903  0.1328  0.0410
 
              Baa    -0.0000    -0.000    -0.000    -0.000  0.4799  0.8147 -0.3254
    14 H(1)   Bbb    -0.0000    -0.000    -0.000    -0.000  0.0529  0.3434  0.9377
              Bcc     0.0000     0.000     0.000     0.000  0.8757 -0.4672  0.1217
 
              Baa    -0.0000    -0.000    -0.000    -0.000  0.2372  0.3113  0.9202
    15 H(1)   Bbb    -0.0000    -0.000    -0.000    -0.000  0.8471 -0.5300 -0.0391
              Bcc     0.0000     0.000     0.000     0.000  0.4755  0.7888 -0.3894
 
              Baa    -0.0000    -0.000    -0.000    -0.000  0.2754  0.3800  0.8830
    16 H(1)   Bbb    -0.0000    -0.000    -0.000    -0.000  0.8948  0.2345 -0.3800
              Bcc     0.0000     0.000     0.000     0.000 -0.3515  0.8948 -0.2755
 
              Baa    -0.0000    -0.000    -0.000    -0.000  0.8084  0.5886  0.0040
    17 H(1)   Bbb    -0.0000    -0.000    -0.000    -0.000 -0.5283  0.7285 -0.4360
              Bcc     0.0000     0.000     0.000     0.000 -0.2595  0.3504  0.8999
 
              Baa    -0.0000    -0.000    -0.000    -0.000 -0.4338  0.6247  0.6493
    18 H(1)   Bbb    -0.0000    -0.000    -0.000    -0.000  0.6426  0.7197 -0.2631
              Bcc     0.0000     0.000     0.000     0.000  0.6316 -0.3031  0.7135
 
              Baa    -0.0000    -0.000    -0.000    -0.000  0.7270  0.3362  0.5987
    19 H(1)   Bbb    -0.0000    -0.000    -0.000    -0.000 -0.5199 -0.3001  0.7998
              Bcc     0.0000     0.000     0.000     0.000 -0.4486  0.8927  0.0434
 
              Baa    -0.0000    -0.000    -0.000    -0.000  0.7998 -0.4428  0.4053
    20 H(1)   Bbb    -0.0000    -0.000    -0.000    -0.000 -0.3847  0.1402  0.9123
              Bcc     0.0000     0.000     0.000     0.000  0.4608  0.8856  0.0582
 
              Baa    -0.0000    -0.000    -0.000    -0.000  0.8858  0.4543 -0.0948
    21 H(1)   Bbb    -0.0000    -0.000    -0.000    -0.000  0.0857  0.0405  0.9955
              Bcc     0.0000     0.000     0.000     0.000 -0.4561  0.8899  0.0031
 

 ---------------------------------------------------------------------------------

 No NMR shielding tensors so no spin-rotation constants.
 Leave Link  601 at Fri Jul 24 03:21:52 2020, MaxMem=  4026531840 cpu:               3.3 elap:               0.7
 (Enter /opt/ohpc/pub/libs/gaussian/g16-A.03/sandybridge/g16/l701.exe)
 ... and contract with generalized density number  0.
 Compute integral first derivatives.
 Leave Link  701 at Fri Jul 24 03:21:52 2020, MaxMem=  4026531840 cpu:               1.1 elap:               0.2
 (Enter /opt/ohpc/pub/libs/gaussian/g16-A.03/sandybridge/g16/l702.exe)
 L702 exits ... SP integral derivatives will be done elsewhere.
 Leave Link  702 at Fri Jul 24 03:21:52 2020, MaxMem=  4026531840 cpu:               0.2 elap:               0.0
 (Enter /opt/ohpc/pub/libs/gaussian/g16-A.03/sandybridge/g16/l703.exe)
 Integral derivatives from FoFJK, PRISM(SPDF).
 Compute integral first derivatives, UseDBF=F ICtDFT=           0.
 Calling FoFJK, ICntrl=      2127 FMM=F ISym2X=0 I1Cent= 0 IOpClX= 1 NMat=1 NMatS=1 NMatT=0.
 FoFJK:  IHMeth= 1 ICntrl=    2127 DoSepK=T KAlg= 0 I1Cent=           0 FoldK=F
 IRaf=         1 NMat=       1 IRICut=       1 DoRegI=T DoRafI=F ISym2E= 0 IDoP0=0 IntGTp=1.
 FoFCou: FMM=F IPFlag=           0 FMFlag=      100000 FMFlg1=         800
         NFxFlg=           0 DoJE=F BraDBF=F KetDBF=F FulRan=T
         wScrn=  0.000000 ICntrl=      2527 IOpCl=  0 I1Cent=           0 NGrid=           0
         NMat0=    1 NMatS0=      1 NMatT0=    0 NMatD0=    1 NMtDS0=    0 NMtDT0=    0
 Symmetry not used in FoFCou.
 Leave Link  703 at Fri Jul 24 03:22:07 2020, MaxMem=  4026531840 cpu:             109.8 elap:              14.7
 (Enter /opt/ohpc/pub/libs/gaussian/g16-A.03/sandybridge/g16/l716.exe)
 Dipole        = 1.92073570D-01 4.86540724D-01-1.01207075D-01
 ***** Axes restored to original set *****
 -------------------------------------------------------------------
 Center     Atomic                   Forces (Hartrees/Bohr)
 Number     Number              X              Y              Z
 -------------------------------------------------------------------
      1        6          -0.041096761    0.097714290   -0.052213356
      2        6           0.063564462   -0.035964559    0.028331444
      3        7           0.040778193    0.049930516   -0.032299343
      4        6          -0.041895181   -0.045314248   -0.000051210
      5        7           0.024817006   -0.003573924    0.014787369
      6        6          -0.021762726   -0.049536928    0.033371486
[...]
    16  H   -0.000000  -0.000000   0.000000   0.000000   0.000000   0.000000
    17  H   -0.000000   0.000000   0.000000   0.000000  -0.000000  -0.000000
    18  H   -0.000000   0.000000   0.000000   0.000000  -0.000000   0.000000
    19  H    0.000000  -0.000000  -0.000000  -0.000000  -0.000000   0.000000
    20  H    0.000000  -0.000000   0.000000  -0.000000   0.000000   0.000000
    21  H    0.000000  -0.000000   0.000000  -0.000000   0.000000  -0.000000
               7          8          9         10         11         12
     1  C   -0.000000  -0.000000   0.000000   0.000000   0.000000  -0.000000
     2  C   -0.000000   0.000000   0.000000  -0.000000  -0.000000   0.000000
     3  N   -0.000000  -0.000000   0.000000   0.000000   0.000000   0.000000
     4  C   -0.000000  -0.000000   0.000000  -0.000000   0.000000   0.000000
     5  N   -0.000000  -0.000000  -0.000000  -0.000000   0.000000  -0.000000
     6  C    0.000000   0.000000  -0.000000   0.000000  -0.000000   0.000000
     7  C    0.000000  -0.000000  -0.000000  -0.000000  -0.000000   0.000000
     8  C   -0.000000  -0.000000   0.000000   0.000000   0.000000  -0.000000
     9  O   -0.000000   0.000000   0.000000  -0.000000  -0.000000   0.000000
    10  C   -0.000000   0.000000  -0.000000   0.000000  -0.000000   0.000000
    11  C   -0.000000   0.000000  -0.000000  -0.000000   0.000000  -0.000000
    12  C    0.000000  -0.000000   0.000000   0.000000  -0.000000  -0.000000
    13  S    0.000000  -0.000000  -0.000000  -0.000000  -0.000000  -0.000000
    14  H    0.000000   0.000000   0.000000   0.000000  -0.000000  -0.000000
    15  H    0.000000   0.000000   0.000000   0.000000   0.000000   0.000000
    16  H   -0.000000   0.000000  -0.000000  -0.000000  -0.000000   0.000000
    17  H   -0.000000  -0.000000   0.000000   0.000000   0.000000   0.000000
    18  H   -0.000000   0.000000  -0.000000   0.000000   0.000000   0.000000
    19  H    0.000000   0.000000   0.000000  -0.000000   0.000000  -0.000000
    20  H    0.000000   0.000000   0.000000  -0.000000   0.000000  -0.000000
    21  H   -0.000000   0.000000   0.000000   0.000000  -0.000000  -0.000000
              13         14         15         16         17         18
     1  C    0.000000  -0.000000   0.000000  -0.000000  -0.000000  -0.000000
     2  C    0.000000   0.000000  -0.000000  -0.000000   0.000000   0.000000
     3  N   -0.000000  -0.000000   0.000000   0.000000   0.000000   0.000000
     4  C   -0.000000  -0.000000   0.000000   0.000000   0.000000   0.000000
     5  N   -0.000000  -0.000000   0.000000   0.000000  -0.000000  -0.000000
     6  C   -0.000000   0.000000  -0.000000   0.000000  -0.000000   0.000000
     7  C    0.000000   0.000000   0.000000  -0.000000  -0.000000  -0.000000
     8  C   -0.000000   0.000000   0.000000   0.000000  -0.000000   0.000000
     9  O   -0.000000   0.000000   0.000000  -0.000000   0.000000  -0.000000
    10  C   -0.000000   0.000000   0.000000  -0.000000   0.000000   0.000000
    11  C   -0.000000  -0.000000   0.000000  -0.000000   0.000000   0.000000
    12  C   -0.000000  -0.000000   0.000000   0.000000   0.000000   0.000000
    13  S    0.000000   0.000000  -0.000000  -0.000000   0.000000  -0.000000
    14  H    0.000000  -0.000000   0.000000   0.000000   0.000000   0.000000
    15  H   -0.000000   0.000000   0.000000  -0.000000   0.000000   0.000000
    16  H   -0.000000   0.000000  -0.000000   0.000000  -0.000000  -0.000000
    17  H    0.000000   0.000000   0.000000  -0.000000  -0.000000   0.000000
    18  H   -0.000000   0.000000   0.000000  -0.000000   0.000000  -0.000000
    19  H   -0.000000   0.000000  -0.000000   0.000000   0.000000  -0.000000
    20  H    0.000000  -0.000000   0.000000  -0.000000  -0.000000  -0.000000
    21  H   -0.000000   0.000000  -0.000000   0.000000   0.000000   0.000000
              19         20         21
     1  C    0.000000   0.000000   0.000000
     2  C   -0.000000  -0.000000  -0.000000
     3  N   -0.000000   0.000000   0.000000
     4  C   -0.000000  -0.000000  -0.000000
     5  N   -0.000000   0.000000   0.000000
     6  C    0.000000   0.000000  -0.000000
     7  C    0.000000   0.000000  -0.000000
     8  C    0.000000   0.000000   0.000000
     9  O    0.000000   0.000000   0.000000
    10  C   -0.000000  -0.000000   0.000000
    11  C    0.000000   0.000000  -0.000000
    12  C   -0.000000  -0.000000  -0.000000
    13  S   -0.000000   0.000000  -0.000000
    14  H    0.000000  -0.000000   0.000000
    15  H   -0.000000   0.000000  -0.000000
    16  H    0.000000  -0.000000   0.000000
    17  H    0.000000  -0.000000   0.000000
    18  H   -0.000000  -0.000000   0.000000
    19  H   -0.000000   0.000000  -0.000000
    20  H    0.000000   0.000000  -0.000000
    21  H   -0.000000  -0.000000   0.000000
 Mulliken charges and spin densities:
               1          2
     1  C   -0.133079   0.000000
     2  C    0.121068  -0.000000
     3  N   -0.244093  -0.000000
     4  C    0.247899   0.000000
     5  N   -0.208539  -0.000000
     6  C    0.113055   0.000000
     7  C   -0.256526  -0.000000
     8  C    0.160985  -0.000000
     9  O   -0.231617   0.000000
    10  C    0.024750   0.000000
    11  C   -0.024117   0.000000
    12  C   -0.143184  -0.000000
    13  S    0.210287   0.000000
    14  H    0.028546  -0.000000
    15  H    0.040112   0.000000
    16  H    0.036992   0.000000
    17  H    0.053649  -0.000000
    18  H    0.053649   0.000000
    19  H    0.071540  -0.000000
    20  H    0.025310   0.000000
    21  H    0.053313  -0.000000
 Sum of Mulliken charges =  -0.00000   0.00000
 Mulliken charges and spin densities with hydrogens summed into heavy atoms:
               1          2
     1  C   -0.104533   0.000000
     2  C    0.161180  -0.000000
     3  N   -0.244093  -0.000000
     4  C    0.247899   0.000000
     5  N   -0.208539  -0.000000
     6  C    0.150047   0.000000
     7  C   -0.256526  -0.000000
     8  C    0.160985  -0.000000
     9  O   -0.231617   0.000000
    10  C    0.203588  -0.000000
    11  C    0.001193   0.000000
    12  C   -0.089872  -0.000000
    13  S    0.210287   0.000000
 Electronic spatial extent (au):  <R**2>=           2704.1684
 Charge=              0.0000 electrons
 Dipole moment (field-independent basis, Debye):
    X=              0.5891    Y=              1.2463    Z=             -0.0001  Tot=              1.3785
 Quadrupole moment (field-independent basis, Debye-Ang):
   XX=            -56.7575   YY=            -76.1732   ZZ=            -83.9863
   XY=              0.5565   XZ=              0.0002   YZ=             -0.0002
 Traceless Quadrupole moment (field-independent basis, Debye-Ang):
   XX=             15.5482   YY=             -3.8675   ZZ=            -11.6806
   XY=              0.5565   XZ=              0.0002   YZ=             -0.0002
 Octapole moment (field-independent basis, Debye-Ang**2):
  XXX=            -14.0229  YYY=             21.2756  ZZZ=             -0.0005  XYY=             16.4527
  XXY=             13.1324  XXZ=             -0.0017  XZZ=              1.6596  YZZ=              4.9921
  YYZ=              0.0004  XYZ=             -0.0006
 Hexadecapole moment (field-independent basis, Debye-Ang**3):
 XXXX=          -2054.4149 YYYY=          -1033.8984 ZZZZ=            -94.6810 XXXY=             17.3190
 XXXZ=              0.0111 YYYX=              7.2597 YYYZ=              0.0011 ZZZX=             -0.0014
 ZZZY=             -0.0004 XXYY=           -478.4017 XXZZ=           -446.6883 YYZZ=           -209.6556
 XXYZ=              0.0015 YYXZ=             -0.0021 ZZXY=             13.1263
 N-N= 8.513176908181D+02 E-N=-3.888568096952D+03  KE= 9.259750821703D+02
                          Isotropic Fermi Contact Couplings
        Atom                 a.u.       MegaHertz       Gauss      10(-4) cm-1
     1  C(13)              0.00000       0.00000       0.00000       0.00000
     2  C(13)             -0.00000      -0.00000      -0.00000      -0.00000
     3  N(14)             -0.00000      -0.00000      -0.00000      -0.00000
     4  C(13)              0.00000       0.00000       0.00000       0.00000
     5  N(14)              0.00000       0.00000       0.00000       0.00000
     6  C(13)              0.00000       0.00000       0.00000       0.00000
     7  C(13)              0.00000       0.00000       0.00000       0.00000
     8  C(13)             -0.00000      -0.00000      -0.00000      -0.00000
     9  O(17)             -0.00000       0.00000       0.00000       0.00000
    10  C(13)              0.00000       0.00000       0.00000       0.00000
    11  C(13)              0.00000       0.00000       0.00000       0.00000
    12  C(13)             -0.00000      -0.00000      -0.00000      -0.00000
    13  S(33)             -0.00000      -0.00000      -0.00000      -0.00000
    14  H(1)              -0.00000      -0.00000      -0.00000      -0.00000
    15  H(1)               0.00000       0.00000       0.00000       0.00000
    16  H(1)               0.00000       0.00000       0.00000       0.00000
    17  H(1)              -0.00000      -0.00000      -0.00000      -0.00000
    18  H(1)               0.00000       0.00000       0.00000       0.00000
    19  H(1)              -0.00000      -0.00000      -0.00000      -0.00000
    20  H(1)               0.00000       0.00000       0.00000       0.00000
    21  H(1)               0.00000       0.00000       0.00000       0.00000
 --------------------------------------------------------
       Center         ----  Spin Dipole Couplings  ----
                      3XX-RR        3YY-RR        3ZZ-RR
 --------------------------------------------------------
     1   Atom        0.000000     -0.000000      0.000000
     2   Atom        0.000000     -0.000000      0.000000
     3   Atom        0.000000     -0.000000     -0.000000
     4   Atom        0.000000      0.000000     -0.000000
     5   Atom       -0.000000     -0.000000      0.000000
     6   Atom       -0.000000     -0.000000      0.000000
     7   Atom       -0.000000      0.000000      0.000000
     8   Atom        0.000000     -0.000000     -0.000000
     9   Atom        0.000000     -0.000000     -0.000000
    10   Atom        0.000000     -0.000000      0.000000
    11   Atom        0.000000     -0.000000     -0.000000
    12   Atom       -0.000000      0.000000     -0.000000
    13   Atom        0.000000     -0.000000     -0.000000
    14   Atom       -0.000000      0.000000      0.000000
    15   Atom        0.000000     -0.000000      0.000000
    16   Atom       -0.000000      0.000000     -0.000000
    17   Atom        0.000000      0.000000     -0.000000
    18   Atom        0.000000      0.000000     -0.000000
    19   Atom       -0.000000      0.000000      0.000000
    20   Atom        0.000000     -0.000000     -0.000000
    21   Atom        0.000000     -0.000000     -0.000000
 --------------------------------------------------------
                        XY            XZ            YZ
 --------------------------------------------------------
     1   Atom        0.000000     -0.000000     -0.000000
     2   Atom       -0.000000     -0.000000      0.000000
     3   Atom       -0.000000     -0.000000     -0.000000
     4   Atom       -0.000000      0.000000     -0.000000
     5   Atom       -0.000000     -0.000000      0.000000
     6   Atom        0.000000     -0.000000     -0.000000
     7   Atom        0.000000     -0.000000     -0.000000
     8   Atom       -0.000000     -0.000000     -0.000000
     9   Atom       -0.000000      0.000000      0.000000
    10   Atom        0.000000     -0.000000     -0.000000
    11   Atom        0.000000      0.000000     -0.000000
    12   Atom       -0.000000      0.000000     -0.000000
    13   Atom       -0.000000     -0.000000      0.000000
    14   Atom       -0.000000      0.000000     -0.000000
    15   Atom       -0.000000      0.000000      0.000000
    16   Atom       -0.000000     -0.000000      0.000000
    17   Atom        0.000000      0.000000     -0.000000
    18   Atom        0.000000      0.000000      0.000000
    19   Atom        0.000000      0.000000     -0.000000
    20   Atom        0.000000      0.000000     -0.000000
    21   Atom       -0.000000      0.000000     -0.000000
 --------------------------------------------------------


 ---------------------------------------------------------------------------------
              Anisotropic Spin Dipole Couplings in Principal Axis System
 ---------------------------------------------------------------------------------

       Atom             a.u.   MegaHertz   Gauss  10(-4) cm-1        Axes

              Baa    -0.0000    -0.000    -0.000    -0.000 -0.0541  0.9985  0.0047
     1 C(13)  Bbb     0.0000     0.000     0.000     0.000  0.9977  0.0538  0.0420
              Bcc     0.0000     0.000     0.000     0.000 -0.0417 -0.0070  0.9991
 
              Baa    -0.0000    -0.000    -0.000    -0.000  0.4848  0.8746  0.0002
     2 C(13)  Bbb     0.0000     0.000     0.000     0.000  0.0491 -0.0275  0.9984
              Bcc     0.0000     0.000     0.000     0.000  0.8732 -0.4841 -0.0563
 
              Baa    -0.0000    -0.000    -0.000    -0.000  0.6345  0.7729  0.0058
     3 N(14)  Bbb    -0.0000    -0.000    -0.000    -0.000 -0.0019 -0.0060  1.0000
              Bcc     0.0000     0.000     0.000     0.000  0.7729 -0.6345 -0.0023
 
              Baa    -0.0000    -0.000    -0.000    -0.000 -0.0093  0.0083  0.9999
     4 C(13)  Bbb    -0.0000    -0.000    -0.000    -0.000  0.7434  0.6688  0.0014
              Bcc     0.0000     0.000     0.000     0.000 -0.6687  0.7434 -0.0125
 
              Baa    -0.0000    -0.000    -0.000    -0.000  0.4709  0.8818 -0.0261
     5 N(14)  Bbb     0.0000     0.000     0.000     0.000  0.8770 -0.4647  0.1220
              Bcc     0.0000     0.000     0.000     0.000 -0.0955  0.0804  0.9922
 
              Baa    -0.0000    -0.000    -0.000    -0.000 -0.6852  0.7284 -0.0025
     6 C(13)  Bbb     0.0000     0.000     0.000     0.000  0.7275  0.6845  0.0477
              Bcc     0.0000     0.000     0.000     0.000 -0.0365 -0.0308  0.9989
 
              Baa    -0.0000    -0.000    -0.000    -0.000  0.7778 -0.6284 -0.0108
     7 C(13)  Bbb     0.0000     0.000     0.000     0.000  0.0287  0.0183  0.9994
              Bcc     0.0000     0.000     0.000     0.000  0.6279  0.7777 -0.0323
 
              Baa    -0.0000    -0.000    -0.000    -0.000  0.0540  0.9757  0.2124
     8 C(13)  Bbb    -0.0000    -0.000    -0.000    -0.000  0.0602 -0.2155  0.9747
              Bcc     0.0000     0.000     0.000     0.000  0.9967 -0.0399 -0.0703
 
              Baa    -0.0000     0.000     0.000     0.000  0.1023  0.9543 -0.2806
     9 O(17)  Bbb    -0.0000     0.000     0.000     0.000  0.0295  0.2791  0.9598
              Bcc     0.0000    -0.000    -0.000    -0.000  0.9943 -0.1065  0.0004
 
              Baa    -0.0000    -0.000    -0.000    -0.000  0.5279  0.4410  0.7258
    10 C(13)  Bbb    -0.0000    -0.000    -0.000    -0.000 -0.3537  0.8911 -0.2842
              Bcc     0.0000     0.000     0.000     0.000  0.7721  0.1067 -0.6264
 
              Baa    -0.0000    -0.000    -0.000    -0.000 -0.0198  0.0300  0.9994
    11 C(13)  Bbb    -0.0000    -0.000    -0.000    -0.000 -0.4871  0.8726 -0.0359
              Bcc     0.0000     0.000     0.000     0.000  0.8731  0.4875  0.0027
 
              Baa    -0.0000    -0.000    -0.000    -0.000 -0.0219  0.0081  0.9997
    12 C(13)  Bbb    -0.0000    -0.000    -0.000    -0.000  0.9909  0.1333  0.0207
              Bcc     0.0000     0.000     0.000     0.000 -0.1331  0.9910 -0.0109
 
              Baa    -0.0000    -0.000    -0.000    -0.000  0.1331  0.9910 -0.0133
    13 S(33)  Bbb    -0.0000    -0.000    -0.000    -0.000  0.0064  0.0126  0.9999
              Bcc     0.0000     0.000     0.000     0.000  0.9911 -0.1332 -0.0046
 
              Baa    -0.0000    -0.000    -0.000    -0.000  0.9882  0.1530 -0.0058
    14 H(1)   Bbb     0.0000     0.000     0.000     0.000 -0.1523  0.9863  0.0635
              Bcc     0.0000     0.000     0.000     0.000  0.0154 -0.0618  0.9980
 
              Baa    -0.0000    -0.000    -0.000    -0.000  0.1142  0.9934 -0.0107
    15 H(1)   Bbb     0.0000     0.000     0.000     0.000  0.9935 -0.1142  0.0036
              Bcc     0.0000     0.000     0.000     0.000 -0.0024  0.0111  0.9999
 
              Baa    -0.0000    -0.000    -0.000    -0.000  0.9992  0.0347  0.0204
    16 H(1)   Bbb    -0.0000    -0.000    -0.000    -0.000 -0.0196 -0.0213  0.9996
              Bcc     0.0000     0.000     0.000     0.000 -0.0351  0.9992  0.0206
 
              Baa    -0.0000    -0.000    -0.000    -0.000 -0.1701  0.3777  0.9102
    17 H(1)   Bbb     0.0000     0.000     0.000     0.000  0.9828  0.1331  0.1284
              Bcc     0.0000     0.000     0.000     0.000 -0.0726  0.9163 -0.3938
 
              Baa    -0.0000    -0.000    -0.000    -0.000 -0.0730 -0.4322  0.8988
    18 H(1)   Bbb     0.0000     0.000     0.000     0.000 -0.3869  0.8429  0.3739
              Bcc     0.0000     0.000     0.000     0.000  0.9192  0.3205  0.2287
 
              Baa    -0.0000    -0.000    -0.000    -0.000  0.9910 -0.0926 -0.0970
    19 H(1)   Bbb    -0.0000    -0.000    -0.000    -0.000  0.1277  0.4285  0.8945
              Bcc     0.0000     0.000     0.000     0.000  0.0413  0.8988 -0.4365
 
              Baa    -0.0000    -0.000    -0.000    -0.000 -0.0506  0.3060  0.9507
    20 H(1)   Bbb    -0.0000    -0.000    -0.000    -0.000 -0.1134  0.9440 -0.3099
              Bcc     0.0000     0.000     0.000     0.000  0.9923  0.1235  0.0131
 
              Baa    -0.0000    -0.000    -0.000    -0.000  0.1562  0.9876  0.0165
    21 H(1)   Bbb    -0.0000    -0.000    -0.000    -0.000 -0.0079 -0.0154  0.9998
              Bcc     0.0000     0.000     0.000     0.000  0.9877 -0.1563  0.0054
 

 ---------------------------------------------------------------------------------

 No NMR shielding tensors so no spin-rotation constants.
 Leave Link  601 at Fri Jul 24 03:35:47 2020, MaxMem=  4026531840 cpu:               1.6 elap:               0.2
 (Enter /opt/ohpc/pub/libs/gaussian/g16-A.03/sandybridge/g16/l9999.exe)

 Test job not archived.
 1\1\GINC-SKYLAKE041\FOpt\ULC-wPBE\CC-pVDZ\C9H8N2O1S1\RDU230\24-Jul-202
 0\0\\#P uLC-wPBE/cc-pVDZ iop(3/107=0499100000, 3/108=0499100000) opt\\
 H8 C9 S1 N2 O1\\0,1\C,-3.6745039584,0.3763769259,0.0078775554\C,-3.146
 8798315,-0.8997338299,0.0732449204\N,-1.848021589,-1.1288688753,0.0972
 205358\C,-1.0462620197,-0.0633986093,0.0553140943\N,-1.446436233,1.201
 6549711,-0.0081623548\C,-2.7522902778,1.4042281508,-0.0309860378\C,0.3
 825667442,-0.3553716753,0.0835755387\C,1.4648924576,0.4896226846,0.054
 7674927\O,1.3338702495,1.8192413533,-0.0091515487\C,2.5085772249,2.583
 4954406,-0.0331809554\C,2.7049997772,-0.2136150127,0.1005108596\C,2.52
 12750691,-1.5559749607,0.1618426143\S,0.8854751266,-2.0004423225,0.166
 1171381\H,-4.744079091,0.5586815404,-0.0116676218\H,-3.793845352,-1.77
 71094812,0.1079266428\H,-3.0753706283,2.4448919184,-0.0831482394\H,3.1
 238082418,2.3529198444,-0.9124279065\H,3.1056830034,2.4370261636,0.876
 0853348\H,2.1940440241,3.6272393489,-0.0854399315\H,3.6821686822,0.254
 7318312,0.0884264333\H,3.2961513801,-2.3133614062,0.2053334357\\Versio
 n=EM64L-G16RevA.03\State=1-A\HF=-930.2217692\S2=0.\S2-1=0.\S2A=0.\RMSD
 =4.630e-09\RMSF=6.422e-06\Dipole=0.218012,0.4961434,-0.0211693\Quadrup
 ole=11.5233019,-2.8532639,-8.6700379,0.8242451,0.1666943,-0.2661326\PG
 =C01 [X(C9H8N2O1S1)]\\@


 COLLEGE PROFESSOR: SOMEONE WHO TALKS IN OTHER PEOPLE'S SLEEP.
 Job cpu time:       0 days  1 hours 58 minutes  8.2 seconds.
 Elapsed time:       0 days  0 hours 14 minutes 57.5 seconds.
 File lengths (MBytes):  RWF=    112 Int=      0 D2E=      0 Chk=     12 Scr=      8
 Normal termination of Gaussian 16 at Fri Jul 24 03:35:47 2020.
