 Entering Gaussian System, Link 0=g16
 Input=mols_65_3_36_cOC-cOC-C_opt_0.gjf
 Output=mols_65_3_36_cOC-cOC-C_opt_0.log
 Initial command:
 /opt/ohpc/pub/libs/gaussian/g16-A.03/sandybridge/g16/l1.exe "/mnt/gpfs2_4m/scratch/rdu230/ondemand/projects/dihedral_energies/7trial/wtuning/mols_65_3_36_cOC-cOC-C/Gau-218940.inp" -scrdir="/mnt/gpfs2_4m/scratch/rdu230/ondemand/projects/dihedral_energies/7trial/wtuning/mols_65_3_36_cOC-cOC-C/"
 Entering Link 1 = /opt/ohpc/pub/libs/gaussian/g16-A.03/sandybridge/g16/l1.exe PID=    218941.
  
 Copyright (c) 1988,1990,1992,1993,1995,1998,2003,2009,2016,
            Gaussian, Inc.  All Rights Reserved.
  
 This is part of the Gaussian(R) 16 program.  It is based on
 the Gaussian(R) 09 system (copyright 2009, Gaussian, Inc.),
 the Gaussian(R) 03 system (copyright 2003, Gaussian, Inc.),
 the Gaussian(R) 98 system (copyright 1998, Gaussian, Inc.),
 the Gaussian(R) 94 system (copyright 1995, Gaussian, Inc.),
 the Gaussian 92(TM) system (copyright 1992, Gaussian, Inc.),
 the Gaussian 90(TM) system (copyright 1990, Gaussian, Inc.),
 the Gaussian 88(TM) system (copyright 1988, Gaussian, Inc.),
 the Gaussian 86(TM) system (copyright 1986, Carnegie Mellon
 University), and the Gaussian 82(TM) system (copyright 1983,
 Carnegie Mellon University). Gaussian is a federally registered
 trademark of Gaussian, Inc.
  
 This software contains proprietary and confidential information,
 including trade secrets, belonging to Gaussian, Inc.
  
 This software is provided under written license and may be
 used, copied, transmitted, or stored only in accord with that
 written license.
  
 The following legend is applicable only to US Government
 contracts under FAR:
  
                    RESTRICTED RIGHTS LEGEND
  
 Use, reproduction and disclosure by the US Government is
 subject to restrictions as set forth in subparagraphs (a)
 and (c) of the Commercial Computer Software - Restricted
 Rights clause in FAR 52.227-19.
  
 Gaussian, Inc.
 340 Quinnipiac St., Bldg. 40, Wallingford CT 06492
  
  
 ---------------------------------------------------------------
 Warning -- This program may not be used in any manner that
 competes with the business of Gaussian, Inc. or will provide
 assistance to any competitor of Gaussian, Inc.  The licensee
 of this program is prohibited from giving any competitor of
 Gaussian, Inc. access to this program.  By using this program,
 the user acknowledges that Gaussian, Inc. is engaged in the
 business of creating and licensing software in the field of
 computational chemistry and represents and warrants to the
 licensee that it is not a competitor of Gaussian, Inc. and that
 it will not use this program in any manner prohibited above.
 ---------------------------------------------------------------
  

 Cite this work as:
 Gaussian 16, Revision A.03,
 M. J. Frisch, G. W. Trucks, H. B. Schlegel, G. E. Scuseria, 
 M. A. Robb, J. R. Cheeseman, G. Scalmani, V. Barone, 
 G. A. Petersson, H. Nakatsuji, X. Li, M. Caricato, A. V. Marenich, 
 J. Bloino, B. G. Janesko, R. Gomperts, B. Mennucci, H. P. Hratchian, 
 J. V. Ortiz, A. F. Izmaylov, J. L. Sonnenberg, D. Williams-Young, 
 F. Ding, F. Lipparini, F. Egidi, J. Goings, B. Peng, A. Petrone, 
 T. Henderson, D. Ranasinghe, V. G. Zakrzewski, J. Gao, N. Rega, 
 G. Zheng, W. Liang, M. Hada, M. Ehara, K. Toyota, R. Fukuda, 
 J. Hasegawa, M. Ishida, T. Nakajima, Y. Honda, O. Kitao, H. Nakai, 
 T. Vreven, K. Throssell, J. A. Montgomery, Jr., J. E. Peralta, 
 F. Ogliaro, M. J. Bearpark, J. J. Heyd, E. N. Brothers, K. N. Kudin, 
 V. N. Staroverov, T. A. Keith, R. Kobayashi, J. Normand, 
 K. Raghavachari, A. P. Rendell, J. C. Burant, S. S. Iyengar, 
 J. Tomasi, M. Cossi, J. M. Millam, M. Klene, C. Adamo, R. Cammi, 
 J. W. Ochterski, R. L. Martin, K. Morokuma, O. Farkas, 
 J. B. Foresman, and D. J. Fox, Gaussian, Inc., Wallingford CT, 2016.
 
 ******************************************
 Gaussian 16:  EM64L-G16RevA.03 25-Dec-2016
                23-Jul-2020 
 ******************************************
 %mem=30GB
 %nproc=8
 Will use up to    8 processors via shared memory.
 ---------------------------------------------------------------
 #P uLC-wPBE/cc-pVDZ iop(3/107=0199700000, 3/108=0199700000) opt
 ---------------------------------------------------------------
 1/18=20,19=15,26=3,38=1/1,3;
 2/9=110,12=2,17=6,18=5,40=1/2;
 3/5=16,11=2,25=1,30=1,71=1,74=-41,107=199700000,108=199700000,116=2/1,2,3;
 4//1;
 5/5=2,38=5/2;
 6/7=2,8=2,9=2,10=2,28=1/1;
 7//1,2,3,16;
 1/18=20,19=15,26=3/3(2);
 2/9=110/2;
 99//99;
 2/9=110/2;
 3/5=16,11=2,25=1,30=1,71=1,74=-41,107=199700000,108=199700000,116=2/1,2,3;
 4/5=5,16=3,69=1/1;
 5/5=2,38=5/2;
 7//1,2,3,16;
 1/18=20,19=15,26=3/3(-5);
 2/9=110/2;
 6/7=2,8=2,9=2,10=2,19=2,28=1/1;
 99/9=1/99;
 Leave Link    1 at Thu Jul 23 22:37:14 2020, MaxMem=  4026531840 cpu:               1.3 elap:               0.2
 (Enter /opt/ohpc/pub/libs/gaussian/g16-A.03/sandybridge/g16/l101.exe)
 -------------
 H32 C36 S3 O6
 -------------
 Symbolic Z-matrix:
 Charge =  0 Multiplicity = 1
 C                     11.1449   0.46229   0.3148 
 C                     10.26508   1.579     0.14585 
 C                     8.88753   1.39225  -0.12179 
 O                     8.05781   2.44717  -0.31895 
 C                     8.25072   3.61568   0.52335 
 C                     8.4264    0.13635  -0.37726 
 C                     9.22641  -1.01635  -0.17181 
 O                     8.68508  -2.26689  -0.38366 
 C                     9.52825  -3.35703  -0.59134 
 C                     10.6449  -0.82129   0.14699 
 C                     7.02005  -0.08486  -0.67446 
 C                     6.4844   -0.32544  -1.90833 
 C                     5.01406  -0.46362  -1.94488 
 C                     4.55205  -0.25067  -0.67023 
 S                     5.7781    0.10109   0.4428 
 C                     3.17111  -0.23274  -0.22387 
 C                     2.34956  -1.3649   -0.45896 
 C                     1.02192  -1.38304  -0.07141 
 O                     0.18818  -2.46707  -0.21163 
 C                     0.66266  -3.49907  -1.09261 
 C                     0.44517  -0.22742   0.55725 
 C                     1.21287   0.89047   0.81834 
 O                     0.53737   1.92409   1.3258 
 C                     1.31652   3.09061   1.60272 
 C                     2.50078   0.87169   0.36182 
 C                    -0.9746   -0.24801   0.99958 
 C                    -1.57828  -0.40692   2.24322 
 C                    -2.98336  -0.37057   2.26156 
 C                    -3.45724  -0.12551   0.95132 
 S                    -2.18405  -0.08631  -0.18276 
 C                    -4.91283  -0.08338   0.51063 
 C                    -5.32352   0.95922  -0.32421 
 C                    -6.67124   0.93943  -0.68516 
 O                    -7.16827   1.86906  -1.63096 
 C                    -6.30297   2.88684  -2.05824 
 C                    -7.54603   0.00948  -0.21672 
 C                    -7.19486  -0.96091   0.69121 
 O                    -8.07059  -1.85644   1.06978 
 C                    -7.80759  -2.66436   2.22411 
 C                    -5.84377  -1.03891   1.07104 
 C                    -8.96442   0.03141  -0.63377 
 C                    -9.63266  -0.66752  -1.56786 
 C                    -11.04912  -0.41651  -1.74702 
 C                    -11.35     0.621    -0.82726 
 S                    -10.11018   1.16289   0.15405 
 H                     12.1168   0.6498    0.60963 
 H                     10.68063   2.54768   0.28708 
 H                     9.13293   4.25876   0.17589 
 H                     8.48465   3.27629   1.58269 
 H                     7.43002   4.19495   0.48488 
 H                     10.069   -3.54266   0.3157 
 H                     10.25686  -3.16689  -1.4102 
 H                     8.95416  -4.21297  -0.85716 
 H                     11.23107  -1.65965   0.25909 
 H                     7.10335  -0.46892  -2.81684 
 H                     4.46988  -0.68828  -2.77696 
 H                     2.82926  -2.2457   -0.8984 
 H                     1.49566  -4.10173  -0.66519 
 H                    -0.17031  -4.22397  -1.26077 
 H                     0.95621  -3.1348   -2.04481 
 H                     2.16565   2.86624   2.38289 
 H                     1.76401   3.55813   0.75796 
 H                     0.69412   3.87386   2.1582 
 H                     3.16324   1.82099   0.48447 
 H                    -0.93798  -0.55582   3.14772 
 H                    -3.59001  -0.44884   3.09803 
 H                    -4.65031   1.61118  -0.70208 
 H                    -5.86994   3.50889  -1.24206 
 H                    -5.52214   2.4352   -2.67467 
 H                    -6.87792   3.57071  -2.79838 
 H                    -8.71233  -3.20206   2.53458 
 H                    -7.50115  -2.0136    3.05866 
 H                    -7.05504  -3.39287   1.99686 
 H                    -5.43525  -1.85632   1.6831 
 H                    -9.18416  -1.45585  -2.17276 
 H                    -11.75076  -0.85412  -2.37274 
 H                    -12.34046   1.07974  -0.69679 
 
 ITRead=  0  0  0  0  0  0  0  0  0  0  0  0  0  0  0  0  0  0  0  0
 ITRead=  0  0  0  0  0  0  0  0  0  0  0  0  0  0  0  0  0  0  0  0
 ITRead=  0  0  0  0  0  0  0  0  0  0  0  0  0  0  0  0  0  0  0  0
 ITRead=  0  0  0  0  0  0  0  0  0  0  0  0  0  0  0  0  0
 MicOpt= -1 -1 -1 -1 -1 -1 -1 -1 -1 -1 -1 -1 -1 -1 -1 -1 -1 -1 -1 -1
 MicOpt= -1 -1 -1 -1 -1 -1 -1 -1 -1 -1 -1 -1 -1 -1 -1 -1 -1 -1 -1 -1
 MicOpt= -1 -1 -1 -1 -1 -1 -1 -1 -1 -1 -1 -1 -1 -1 -1 -1 -1 -1 -1 -1
 MicOpt= -1 -1 -1 -1 -1 -1 -1 -1 -1 -1 -1 -1 -1 -1 -1 -1 -1
 NAtoms=     77 NQM=       77 NQMF=       0 NMMI=      0 NMMIF=      0
                NMic=       0 NMicF=      0.
                    Isotopes and Nuclear Properties:
 (Nuclear quadrupole moments (NQMom) in fm**2, nuclear magnetic moments (NMagM)
  in nuclear magnetons)

  Atom         1           2           3           4           5           6           7           8           9          10
 IAtWgt=          12          12          12          16          12          12          12          16          12          12
 AtmWgt=  12.0000000  12.0000000  12.0000000  15.9949146  12.0000000  12.0000000  12.0000000  15.9949146  12.0000000  12.0000000
 NucSpn=           0           0           0           0           0           0           0           0           0           0
 AtZEff=  -0.0000000  -0.0000000  -0.0000000  -0.0000000  -0.0000000  -0.0000000  -0.0000000  -0.0000000  -0.0000000  -0.0000000
 NQMom=    0.0000000   0.0000000   0.0000000   0.0000000   0.0000000   0.0000000   0.0000000   0.0000000   0.0000000   0.0000000
 NMagM=    0.0000000   0.0000000   0.0000000   0.0000000   0.0000000   0.0000000   0.0000000   0.0000000   0.0000000   0.0000000
 AtZNuc=   6.0000000   6.0000000   6.0000000   8.0000000   6.0000000   6.0000000   6.0000000   8.0000000   6.0000000   6.0000000

  Atom        11          12          13          14          15          16          17          18          19          20
 IAtWgt=          12          12          12          12          32          12          12          12          16          12
 AtmWgt=  12.0000000  12.0000000  12.0000000  12.0000000  31.9720718  12.0000000  12.0000000  12.0000000  15.9949146  12.0000000
 NucSpn=           0           0           0           0           0           0           0           0           0           0
 AtZEff=  -0.0000000  -0.0000000  -0.0000000  -0.0000000  -0.0000000  -0.0000000  -0.0000000  -0.0000000  -0.0000000  -0.0000000
 NQMom=    0.0000000   0.0000000   0.0000000   0.0000000   0.0000000   0.0000000   0.0000000   0.0000000   0.0000000   0.0000000
 NMagM=    0.0000000   0.0000000   0.0000000   0.0000000   0.0000000   0.0000000   0.0000000   0.0000000   0.0000000   0.0000000
 AtZNuc=   6.0000000   6.0000000   6.0000000   6.0000000  16.0000000   6.0000000   6.0000000   6.0000000   8.0000000   6.0000000

  Atom        21          22          23          24          25          26          27          28          29          30
 IAtWgt=          12          12          16          12          12          12          12          12          12          32
 AtmWgt=  12.0000000  12.0000000  15.9949146  12.0000000  12.0000000  12.0000000  12.0000000  12.0000000  12.0000000  31.9720718
 NucSpn=           0           0           0           0           0           0           0           0           0           0
 AtZEff=  -0.0000000  -0.0000000  -0.0000000  -0.0000000  -0.0000000  -0.0000000  -0.0000000  -0.0000000  -0.0000000  -0.0000000
 NQMom=    0.0000000   0.0000000   0.0000000   0.0000000   0.0000000   0.0000000   0.0000000   0.0000000   0.0000000   0.0000000
 NMagM=    0.0000000   0.0000000   0.0000000   0.0000000   0.0000000   0.0000000   0.0000000   0.0000000   0.0000000   0.0000000
 AtZNuc=   6.0000000   6.0000000   8.0000000   6.0000000   6.0000000   6.0000000   6.0000000   6.0000000   6.0000000  16.0000000

  Atom        31          32          33          34          35          36          37          38          39          40
 IAtWgt=          12          12          12          16          12          12          12          16          12          12
 AtmWgt=  12.0000000  12.0000000  12.0000000  15.9949146  12.0000000  12.0000000  12.0000000  15.9949146  12.0000000  12.0000000
 NucSpn=           0           0           0           0           0           0           0           0           0           0
 AtZEff=  -0.0000000  -0.0000000  -0.0000000  -0.0000000  -0.0000000  -0.0000000  -0.0000000  -0.0000000  -0.0000000  -0.0000000
 NQMom=    0.0000000   0.0000000   0.0000000   0.0000000   0.0000000   0.0000000   0.0000000   0.0000000   0.0000000   0.0000000
 NMagM=    0.0000000   0.0000000   0.0000000   0.0000000   0.0000000   0.0000000   0.0000000   0.0000000   0.0000000   0.0000000
 AtZNuc=   6.0000000   6.0000000   6.0000000   8.0000000   6.0000000   6.0000000   6.0000000   8.0000000   6.0000000   6.0000000

  Atom        41          42          43          44          45          46          47          48          49          50
 IAtWgt=          12          12          12          12          32           1           1           1           1           1
 AtmWgt=  12.0000000  12.0000000  12.0000000  12.0000000  31.9720718   1.0078250   1.0078250   1.0078250   1.0078250   1.0078250
 NucSpn=           0           0           0           0           0           1           1           1           1           1
 AtZEff=  -0.0000000  -0.0000000  -0.0000000  -0.0000000  -0.0000000  -0.0000000  -0.0000000  -0.0000000  -0.0000000  -0.0000000
 NQMom=    0.0000000   0.0000000   0.0000000   0.0000000   0.0000000   0.0000000   0.0000000   0.0000000   0.0000000   0.0000000
 NMagM=    0.0000000   0.0000000   0.0000000   0.0000000   0.0000000   2.7928460   2.7928460   2.7928460   2.7928460   2.7928460
 AtZNuc=   6.0000000   6.0000000   6.0000000   6.0000000  16.0000000   1.0000000   1.0000000   1.0000000   1.0000000   1.0000000

  Atom        51          52          53          54          55          56          57          58          59          60
 IAtWgt=           1           1           1           1           1           1           1           1           1           1
 AtmWgt=   1.0078250   1.0078250   1.0078250   1.0078250   1.0078250   1.0078250   1.0078250   1.0078250   1.0078250   1.0078250
 NucSpn=           1           1           1           1           1           1           1           1           1           1
 AtZEff=  -0.0000000  -0.0000000  -0.0000000  -0.0000000  -0.0000000  -0.0000000  -0.0000000  -0.0000000  -0.0000000  -0.0000000
 NQMom=    0.0000000   0.0000000   0.0000000   0.0000000   0.0000000   0.0000000   0.0000000   0.0000000   0.0000000   0.0000000
 NMagM=    2.7928460   2.7928460   2.7928460   2.7928460   2.7928460   2.7928460   2.7928460   2.7928460   2.7928460   2.7928460
 AtZNuc=   1.0000000   1.0000000   1.0000000   1.0000000   1.0000000   1.0000000   1.0000000   1.0000000   1.0000000   1.0000000

  Atom        61          62          63          64          65          66          67          68          69          70
 IAtWgt=           1           1           1           1           1           1           1           1           1           1
 AtmWgt=   1.0078250   1.0078250   1.0078250   1.0078250   1.0078250   1.0078250   1.0078250   1.0078250   1.0078250   1.0078250
 NucSpn=           1           1           1           1           1           1           1           1           1           1
 AtZEff=  -0.0000000  -0.0000000  -0.0000000  -0.0000000  -0.0000000  -0.0000000  -0.0000000  -0.0000000  -0.0000000  -0.0000000
 NQMom=    0.0000000   0.0000000   0.0000000   0.0000000   0.0000000   0.0000000   0.0000000   0.0000000   0.0000000   0.0000000
 NMagM=    2.7928460   2.7928460   2.7928460   2.7928460   2.7928460   2.7928460   2.7928460   2.7928460   2.7928460   2.7928460
 AtZNuc=   1.0000000   1.0000000   1.0000000   1.0000000   1.0000000   1.0000000   1.0000000   1.0000000   1.0000000   1.0000000

  Atom        71          72          73          74          75          76          77
 IAtWgt=           1           1           1           1           1           1           1
 AtmWgt=   1.0078250   1.0078250   1.0078250   1.0078250   1.0078250   1.0078250   1.0078250
 NucSpn=           1           1           1           1           1           1           1
 AtZEff=  -0.0000000  -0.0000000  -0.0000000  -0.0000000  -0.0000000  -0.0000000  -0.0000000
 NQMom=    0.0000000   0.0000000   0.0000000   0.0000000   0.0000000   0.0000000   0.0000000
 NMagM=    2.7928460   2.7928460   2.7928460   2.7928460   2.7928460   2.7928460   2.7928460
 AtZNuc=   1.0000000   1.0000000   1.0000000   1.0000000   1.0000000   1.0000000   1.0000000
 Leave Link  101 at Thu Jul 23 22:37:14 2020, MaxMem=  4026531840 cpu:               2.9 elap:               0.4
 (Enter /opt/ohpc/pub/libs/gaussian/g16-A.03/sandybridge/g16/l103.exe)

 GradGradGradGradGradGradGradGradGradGradGradGradGradGradGradGradGradGrad
 Berny optimization.
 Initialization pass.
                           ----------------------------
                           !    Initial Parameters    !
                           ! (Angstroms and Degrees)  !
 --------------------------                            --------------------------
 ! Name  Definition              Value          Derivative Info.                !
 --------------------------------------------------------------------------------
 ! R1    R(1,2)                  1.4317         estimate D2E/DX2                !
 ! R2    R(1,10)                 1.3877         estimate D2E/DX2                !
 ! R3    R(1,46)                 1.0328         estimate D2E/DX2                !
 ! R4    R(2,3)                  1.4157         estimate D2E/DX2                !
 ! R5    R(2,47)                 1.0635         estimate D2E/DX2                !
 ! R6    R(3,4)                  1.3565         estimate D2E/DX2                !
 ! R7    R(3,6)                  1.3621         estimate D2E/DX2                !
 ! R8    R(4,5)                  1.4533         estimate D2E/DX2                !
 ! R9    R(5,48)                 1.1457         estimate D2E/DX2                !
 ! R10   R(5,49)                 1.1367         estimate D2E/DX2                !
 ! R11   R(5,50)                 1.0053         estimate D2E/DX2                !
 ! R12   R(6,7)                  1.4181         estimate D2E/DX2                !
 ! R13   R(6,11)                 1.4543         estimate D2E/DX2                !
 ! R14   R(7,8)                  1.379          estimate D2E/DX2                !
 ! R15   R(7,10)                 1.4669         estimate D2E/DX2                !
 ! R16   R(8,9)                  1.3937         estimate D2E/DX2                !
 ! R17   R(9,51)                 1.0722         estimate D2E/DX2                !
 ! R18   R(9,52)                 1.1125         estimate D2E/DX2                !
 ! R19   R(9,53)                 1.0644         estimate D2E/DX2                !
 ! R20   R(10,54)                1.0291         estimate D2E/DX2                !
 ! R21   R(11,12)                1.3665         estimate D2E/DX2                !
 ! R22   R(11,15)                1.6809         estimate D2E/DX2                !
 ! R23   R(12,13)                1.4773         estimate D2E/DX2                !
 ! R24   R(12,55)                1.1086         estimate D2E/DX2                !
 ! R25   R(13,14)                1.3724         estimate D2E/DX2                !
 ! R26   R(13,56)                1.0193         estimate D2E/DX2                !
 ! R27   R(14,15)                1.6929         estimate D2E/DX2                !
 ! R28   R(14,16)                1.4514         estimate D2E/DX2                !
 ! R29   R(16,17)                1.4185         estimate D2E/DX2                !
 ! R30   R(16,25)                1.4185         estimate D2E/DX2                !
 ! R31   R(17,18)                1.3832         estimate D2E/DX2                !
 ! R32   R(17,57)                1.095          estimate D2E/DX2                !
 ! R33   R(18,19)                1.3747         estimate D2E/DX2                !
 ! R34   R(18,21)                1.4364         estimate D2E/DX2                !
 ! R35   R(19,20)                1.4375         estimate D2E/DX2                !
 ! R36   R(20,58)                1.1134         estimate D2E/DX2                !
 ! R37   R(20,59)                1.117          estimate D2E/DX2                !
 ! R38   R(20,60)                1.0609         estimate D2E/DX2                !
 ! R39   R(21,22)                1.381          estimate D2E/DX2                !
 ! R40   R(21,26)                1.4872         estimate D2E/DX2                !
 ! R41   R(22,23)                1.335          estimate D2E/DX2                !
 ! R42   R(22,25)                1.3666         estimate D2E/DX2                !
 ! R43   R(23,24)                1.4299         estimate D2E/DX2                !
 ! R44   R(24,61)                1.1747         estimate D2E/DX2                !
 ! R45   R(24,62)                1.0642         estimate D2E/DX2                !
 ! R46   R(24,63)                1.1443         estimate D2E/DX2                !
 ! R47   R(25,64)                1.1641         estimate D2E/DX2                !
 ! R48   R(26,27)                1.3915         estimate D2E/DX2                !
 ! R49   R(26,30)                1.6991         estimate D2E/DX2                !
 ! R50   R(27,28)                1.4057         estimate D2E/DX2                !
 ! R51   R(27,65)                1.1182         estimate D2E/DX2                !
 ! R52   R(28,29)                1.4147         estimate D2E/DX2                !
 ! R53   R(28,66)                1.0363         estimate D2E/DX2                !
 ! R54   R(29,30)                1.7055         estimate D2E/DX2                !
 ! R55   R(29,31)                1.5214         estimate D2E/DX2                !
 ! R56   R(31,32)                1.3974         estimate D2E/DX2                !
 ! R57   R(31,40)                1.447          estimate D2E/DX2                !
 ! R58   R(32,33)                1.3954         estimate D2E/DX2                !
 ! R59   R(32,67)                1.0105         estimate D2E/DX2                !
 ! R60   R(33,34)                1.4163         estimate D2E/DX2                !
 ! R61   R(33,36)                1.36           estimate D2E/DX2                !
 ! R62   R(34,35)                1.4026         estimate D2E/DX2                !
 ! R63   R(35,68)                1.1138         estimate D2E/DX2                !
 ! R64   R(35,69)                1.0925         estimate D2E/DX2                !
 ! R65   R(35,70)                1.1602         estimate D2E/DX2                !
 ! R66   R(36,37)                1.3745         estimate D2E/DX2                !
 ! R67   R(36,41)                1.4786         estimate D2E/DX2                !
 ! R68   R(37,38)                1.3085         estimate D2E/DX2                !
 ! R69   R(37,40)                1.4056         estimate D2E/DX2                !
 ! R70   R(38,39)                1.4333         estimate D2E/DX2                !
 ! R71   R(39,71)                1.0973         estimate D2E/DX2                !
 ! R72   R(39,72)                1.1018         estimate D2E/DX2                !
 ! R73   R(39,73)                1.0718         estimate D2E/DX2                !
 ! R74   R(40,74)                1.0998         estimate D2E/DX2                !
 ! R75   R(41,42)                1.3445         estimate D2E/DX2                !
 ! R76   R(41,45)                1.7927         estimate D2E/DX2                !
 ! R77   R(42,43)                1.4496         estimate D2E/DX2                !
 ! R78   R(42,75)                1.0902         estimate D2E/DX2                !
 ! R79   R(43,44)                1.4188         estimate D2E/DX2                !
 ! R80   R(43,76)                1.037          estimate D2E/DX2                !
 ! R81   R(44,45)                1.6715         estimate D2E/DX2                !
 ! R82   R(44,77)                1.0993         estimate D2E/DX2                !
 ! A1    A(2,1,10)             119.0636         estimate D2E/DX2                !
 ! A2    A(2,1,46)             118.0589         estimate D2E/DX2                !
 ! A3    A(10,1,46)            122.787          estimate D2E/DX2                !
 ! A4    A(1,2,3)              121.1584         estimate D2E/DX2                !
 ! A5    A(1,2,47)             117.0439         estimate D2E/DX2                !
 ! A6    A(3,2,47)             121.7014         estimate D2E/DX2                !
 ! A7    A(2,3,4)              121.3371         estimate D2E/DX2                !
 ! A8    A(2,3,6)              119.113          estimate D2E/DX2                !
 ! A9    A(4,3,6)              118.8624         estimate D2E/DX2                !
 ! A10   A(3,4,5)              117.3765         estimate D2E/DX2                !
 ! A11   A(4,5,48)             112.1949         estimate D2E/DX2                !
 ! A12   A(4,5,49)             109.11           estimate D2E/DX2                !
 ! A13   A(4,5,50)             109.4365         estimate D2E/DX2                !
 ! A14   A(48,5,49)            106.9631         estimate D2E/DX2                !
 ! A15   A(48,5,50)            107.0733         estimate D2E/DX2                !
 ! A16   A(49,5,50)            112.0689         estimate D2E/DX2                !
 ! A17   A(3,6,7)              122.0957         estimate D2E/DX2                !
 ! A18   A(3,6,11)             120.3957         estimate D2E/DX2                !
 ! A19   A(7,6,11)             116.8403         estimate D2E/DX2                !
 ! A20   A(6,7,8)              119.5646         estimate D2E/DX2                !
 ! A21   A(6,7,10)             117.9647         estimate D2E/DX2                !
 ! A22   A(8,7,10)             122.2462         estimate D2E/DX2                !
 ! A23   A(7,8,9)              119.6504         estimate D2E/DX2                !
 ! A24   A(8,9,51)             108.3292         estimate D2E/DX2                !
 ! A25   A(8,9,52)             111.8529         estimate D2E/DX2                !
 ! A26   A(8,9,53)             109.8717         estimate D2E/DX2                !
 ! A27   A(51,9,52)            108.7823         estimate D2E/DX2                !
 ! A28   A(51,9,53)            110.1259         estimate D2E/DX2                !
 ! A29   A(52,9,53)            107.8714         estimate D2E/DX2                !
 ! A30   A(1,10,7)             119.8479         estimate D2E/DX2                !
 ! A31   A(1,10,54)            122.3523         estimate D2E/DX2                !
 ! A32   A(7,10,54)            117.7849         estimate D2E/DX2                !
 ! A33   A(6,11,12)            126.1832         estimate D2E/DX2                !
 ! A34   A(6,11,15)            124.1831         estimate D2E/DX2                !
 ! A35   A(12,11,15)           109.2708         estimate D2E/DX2                !
 ! A36   A(11,12,13)           115.4018         estimate D2E/DX2                !
 ! A37   A(11,12,55)           122.949          estimate D2E/DX2                !
 ! A38   A(13,12,55)           121.5543         estimate D2E/DX2                !
 ! A39   A(12,13,14)           107.3119         estimate D2E/DX2                !
 ! A40   A(12,13,56)           124.9026         estimate D2E/DX2                !
 ! A41   A(14,13,56)           127.7814         estimate D2E/DX2                !
 ! A42   A(13,14,15)           113.5205         estimate D2E/DX2                !
 ! A43   A(13,14,16)           127.4344         estimate D2E/DX2                !
 ! A44   A(15,14,16)           118.9675         estimate D2E/DX2                !
 ! A45   A(11,15,14)            94.3079         estimate D2E/DX2                !
 ! A46   A(14,16,17)           119.3559         estimate D2E/DX2                !
 ! A47   A(14,16,25)           125.8899         estimate D2E/DX2                !
 ! A48   A(17,16,25)           114.5933         estimate D2E/DX2                !
 ! A49   A(16,17,18)           121.33           estimate D2E/DX2                !
 ! A50   A(16,17,57)           117.053          estimate D2E/DX2                !
 ! A51   A(18,17,57)           121.4926         estimate D2E/DX2                !
 ! A52   A(17,18,19)           124.3254         estimate D2E/DX2                !
 ! A53   A(17,18,21)           119.833          estimate D2E/DX2                !
 ! A54   A(19,18,21)           115.818          estimate D2E/DX2                !
 ! A55   A(18,19,20)           115.3685         estimate D2E/DX2                !
 ! A56   A(19,20,58)           113.5947         estimate D2E/DX2                !
 ! A57   A(19,20,59)           108.1822         estimate D2E/DX2                !
 ! A58   A(19,20,60)           113.2595         estimate D2E/DX2                !
 ! A59   A(58,20,59)           105.3329         estimate D2E/DX2                !
 ! A60   A(58,20,60)           108.8675         estimate D2E/DX2                !
 ! A61   A(59,20,60)           107.101          estimate D2E/DX2                !
 ! A62   A(18,21,22)           120.7149         estimate D2E/DX2                !
 ! A63   A(18,21,26)           120.1549         estimate D2E/DX2                !
 ! A64   A(22,21,26)           119.0556         estimate D2E/DX2                !
 ! A65   A(21,22,23)           114.6657         estimate D2E/DX2                !
 ! A66   A(21,22,25)           116.7193         estimate D2E/DX2                !
 ! A67   A(23,22,25)           127.9159         estimate D2E/DX2                !
 ! A68   A(22,23,24)           115.4392         estimate D2E/DX2                !
 ! A69   A(23,24,61)           111.5106         estimate D2E/DX2                !
 ! A70   A(23,24,62)           115.7099         estimate D2E/DX2                !
 ! A71   A(23,24,63)           110.8575         estimate D2E/DX2                !
 ! A72   A(61,24,62)           107.8877         estimate D2E/DX2                !
 ! A73   A(61,24,63)           101.6245         estimate D2E/DX2                !
 ! A74   A(62,24,63)           108.2617         estimate D2E/DX2                !
 ! A75   A(16,25,22)           126.4416         estimate D2E/DX2                !
 ! A76   A(16,25,64)           114.1744         estimate D2E/DX2                !
 ! A77   A(22,25,64)           119.3357         estimate D2E/DX2                !
 ! A78   A(21,26,27)           132.9646         estimate D2E/DX2                !
 ! A79   A(21,26,30)           118.1161         estimate D2E/DX2                !
 ! A80   A(27,26,30)           108.9038         estimate D2E/DX2                !
 ! A81   A(26,27,28)           116.2541         estimate D2E/DX2                !
 ! A82   A(26,27,65)           119.3229         estimate D2E/DX2                !
 ! A83   A(28,27,65)           124.4227         estimate D2E/DX2                !
 ! A84   A(27,28,29)           109.1006         estimate D2E/DX2                !
 ! A85   A(27,28,66)           126.4242         estimate D2E/DX2                !
 ! A86   A(29,28,66)           124.3735         estimate D2E/DX2                !
 ! A87   A(28,29,30)           111.7023         estimate D2E/DX2                !
 ! A88   A(28,29,31)           126.4092         estimate D2E/DX2                !
 ! A89   A(30,29,31)           121.3974         estimate D2E/DX2                !
 ! A90   A(26,30,29)            93.8118         estimate D2E/DX2                !
 ! A91   A(29,31,32)           118.3528         estimate D2E/DX2                !
 ! A92   A(29,31,40)           119.0167         estimate D2E/DX2                !
 ! A93   A(32,31,40)           122.3438         estimate D2E/DX2                !
 ! A94   A(31,32,33)           115.3304         estimate D2E/DX2                !
 ! A95   A(31,32,67)           120.5973         estimate D2E/DX2                !
 ! A96   A(33,32,67)           123.773          estimate D2E/DX2                !
 ! A97   A(32,33,34)           120.1598         estimate D2E/DX2                !
 ! A98   A(32,33,36)           122.8117         estimate D2E/DX2                !
 ! A99   A(34,33,36)           116.9445         estimate D2E/DX2                !
 ! A100  A(33,34,35)           117.5966         estimate D2E/DX2                !
 ! A101  A(34,35,68)           114.9531         estimate D2E/DX2                !
 ! A102  A(34,35,69)           108.2303         estimate D2E/DX2                !
 ! A103  A(34,35,70)           108.4419         estimate D2E/DX2                !
 ! A104  A(68,35,69)           111.4974         estimate D2E/DX2                !
 ! A105  A(68,35,70)           109.3252         estimate D2E/DX2                !
 ! A106  A(69,35,70)           103.763          estimate D2E/DX2                !
 ! A107  A(33,36,37)           123.0885         estimate D2E/DX2                !
 ! A108  A(33,36,41)           120.6478         estimate D2E/DX2                !
 ! A109  A(37,36,41)           116.2231         estimate D2E/DX2                !
 ! A110  A(36,37,38)           120.2172         estimate D2E/DX2                !
 ! A111  A(36,37,40)           117.5965         estimate D2E/DX2                !
 ! A112  A(38,37,40)           121.8124         estimate D2E/DX2                !
 ! A113  A(37,38,39)           119.7334         estimate D2E/DX2                !
 ! A114  A(38,39,71)           110.6575         estimate D2E/DX2                !
 ! A115  A(38,39,72)           109.1557         estimate D2E/DX2                !
 ! A116  A(38,39,73)           109.9507         estimate D2E/DX2                !
 ! A117  A(71,39,72)           107.7248         estimate D2E/DX2                !
 ! A118  A(71,39,73)           107.8097         estimate D2E/DX2                !
 ! A119  A(72,39,73)           111.5186         estimate D2E/DX2                !
 ! A120  A(31,40,37)           118.4968         estimate D2E/DX2                !
 ! A121  A(31,40,74)           117.8614         estimate D2E/DX2                !
 ! A122  A(37,40,74)           123.2739         estimate D2E/DX2                !
 ! A123  A(36,41,42)           131.6864         estimate D2E/DX2                !
 ! A124  A(36,41,45)           119.9019         estimate D2E/DX2                !
 ! A125  A(42,41,45)           108.4074         estimate D2E/DX2                !
 ! A126  A(41,42,43)           118.7837         estimate D2E/DX2                !
 ! A127  A(41,42,75)           123.8438         estimate D2E/DX2                !
 ! A128  A(43,42,75)           117.2982         estimate D2E/DX2                !
 ! A129  A(42,43,44)           104.698          estimate D2E/DX2                !
 ! A130  A(42,43,76)           131.501          estimate D2E/DX2                !
 ! A131  A(44,43,76)           123.799          estimate D2E/DX2                !
 ! A132  A(43,44,45)           117.4113         estimate D2E/DX2                !
 ! A133  A(43,44,77)           124.9717         estimate D2E/DX2                !
 ! A134  A(45,44,77)           117.6035         estimate D2E/DX2                !
 ! A135  A(41,45,44)            90.6562         estimate D2E/DX2                !
 ! D1    D(10,1,2,3)             3.1887         estimate D2E/DX2                !
 ! D2    D(10,1,2,47)          179.6808         estimate D2E/DX2                !
 ! D3    D(46,1,2,3)          -173.4495         estimate D2E/DX2                !
 ! D4    D(46,1,2,47)            3.0426         estimate D2E/DX2                !
 ! D5    D(2,1,10,7)            -1.2384         estimate D2E/DX2                !
 ! D6    D(2,1,10,54)         -179.8036         estimate D2E/DX2                !
 ! D7    D(46,1,10,7)          175.2325         estimate D2E/DX2                !
 ! D8    D(46,1,10,54)          -3.3326         estimate D2E/DX2                !
 ! D9    D(1,2,3,4)           -178.1633         estimate D2E/DX2                !
 ! D10   D(1,2,3,6)             -7.7745         estimate D2E/DX2                !
 ! D11   D(47,2,3,4)             5.5093         estimate D2E/DX2                !
 ! D12   D(47,2,3,6)           175.898          estimate D2E/DX2                !
 ! D13   D(2,3,4,5)            -39.6545         estimate D2E/DX2                !
 ! D14   D(6,3,4,5)            149.9333         estimate D2E/DX2                !
 ! D15   D(2,3,6,7)             10.5467         estimate D2E/DX2                !
 ! D16   D(2,3,6,11)          -179.1207         estimate D2E/DX2                !
 ! D17   D(4,3,6,7)           -178.8247         estimate D2E/DX2                !
 ! D18   D(4,3,6,11)            -8.4921         estimate D2E/DX2                !
 ! D19   D(3,4,5,48)            78.4864         estimate D2E/DX2                !
 ! D20   D(3,4,5,49)           -39.8625         estimate D2E/DX2                !
 ! D21   D(3,4,5,50)          -162.8138         estimate D2E/DX2                !
 ! D22   D(3,6,7,8)            176.7657         estimate D2E/DX2                !
 ! D23   D(3,6,7,10)            -8.5547         estimate D2E/DX2                !
 ! D24   D(11,6,7,8)             6.1082         estimate D2E/DX2                !
 ! D25   D(11,6,7,10)         -179.2123         estimate D2E/DX2                !
 ! D26   D(3,6,11,12)          103.7698         estimate D2E/DX2                !
 ! D27   D(3,6,11,15)          -68.5618         estimate D2E/DX2                !
 ! D28   D(7,6,11,12)          -85.4046         estimate D2E/DX2                !
 ! D29   D(7,6,11,15)          102.2639         estimate D2E/DX2                !
 ! D30   D(6,7,8,9)            160.2449         estimate D2E/DX2                !
 ! D31   D(10,7,8,9)           -14.1982         estimate D2E/DX2                !
 ! D32   D(6,7,10,1)             3.721          estimate D2E/DX2                !
 ! D33   D(6,7,10,54)         -177.649          estimate D2E/DX2                !
 ! D34   D(8,7,10,1)           178.2489         estimate D2E/DX2                !
 ! D35   D(8,7,10,54)           -3.1211         estimate D2E/DX2                !
 ! D36   D(7,8,9,51)            66.6851         estimate D2E/DX2                !
 ! D37   D(7,8,9,52)           -53.2025         estimate D2E/DX2                !
 ! D38   D(7,8,9,53)          -172.9728         estimate D2E/DX2                !
 ! D39   D(6,11,12,13)        -177.6852         estimate D2E/DX2                !
 ! D40   D(6,11,12,55)           5.8107         estimate D2E/DX2                !
 ! D41   D(15,11,12,13)         -4.4008         estimate D2E/DX2                !
 ! D42   D(15,11,12,55)        179.0952         estimate D2E/DX2                !
 ! D43   D(6,11,15,14)         177.4888         estimate D2E/DX2                !
 ! D44   D(12,11,15,14)          4.0403         estimate D2E/DX2                !
 ! D45   D(11,12,13,14)          2.4064         estimate D2E/DX2                !
 ! D46   D(11,12,13,56)       -176.9            estimate D2E/DX2                !
 ! D47   D(55,12,13,14)        178.9638         estimate D2E/DX2                !
 ! D48   D(55,12,13,56)         -0.3425         estimate D2E/DX2                !
 ! D49   D(12,13,14,15)          0.7486         estimate D2E/DX2                !
 ! D50   D(12,13,14,16)        177.4785         estimate D2E/DX2                !
 ! D51   D(56,13,14,15)       -179.9712         estimate D2E/DX2                !
 ! D52   D(56,13,14,16)         -3.2412         estimate D2E/DX2                !
 ! D53   D(13,14,15,11)         -2.8164         estimate D2E/DX2                !
 ! D54   D(16,14,15,11)       -179.8488         estimate D2E/DX2                !
 ! D55   D(13,14,16,17)         56.619          estimate D2E/DX2                !
 ! D56   D(13,14,16,25)       -118.5074         estimate D2E/DX2                !
 ! D57   D(15,14,16,17)       -126.8083         estimate D2E/DX2                !
 ! D58   D(15,14,16,25)         58.0653         estimate D2E/DX2                !
 ! D59   D(14,16,17,18)       -178.8872         estimate D2E/DX2                !
 ! D60   D(14,16,17,57)          5.1094         estimate D2E/DX2                !
 ! D61   D(25,16,17,18)         -3.2284         estimate D2E/DX2                !
 ! D62   D(25,16,17,57)       -179.2318         estimate D2E/DX2                !
 ! D63   D(14,16,25,22)       -178.1308         estimate D2E/DX2                !
 ! D64   D(14,16,25,64)         -0.6944         estimate D2E/DX2                !
 ! D65   D(17,16,25,22)          6.5403         estimate D2E/DX2                !
 ! D66   D(17,16,25,64)       -176.0233         estimate D2E/DX2                !
 ! D67   D(16,17,18,19)       -176.8232         estimate D2E/DX2                !
 ! D68   D(16,17,18,21)          1.3333         estimate D2E/DX2                !
 ! D69   D(57,17,18,19)         -0.9977         estimate D2E/DX2                !
 ! D70   D(57,17,18,21)        177.1588         estimate D2E/DX2                !
 ! D71   D(17,18,19,20)        -15.0161         estimate D2E/DX2                !
 ! D72   D(21,18,19,20)        166.7604         estimate D2E/DX2                !
 ! D73   D(17,18,21,22)         -2.0366         estimate D2E/DX2                !
 ! D74   D(17,18,21,26)       -178.8677         estimate D2E/DX2                !
 ! D75   D(19,18,21,22)        176.2722         estimate D2E/DX2                !
 ! D76   D(19,18,21,26)         -0.5589         estimate D2E/DX2                !
 ! D77   D(18,19,20,58)         73.3278         estimate D2E/DX2                !
 ! D78   D(18,19,20,59)       -170.1099         estimate D2E/DX2                !
 ! D79   D(18,19,20,60)        -51.5509         estimate D2E/DX2                !
 ! D80   D(18,21,22,23)        175.8978         estimate D2E/DX2                !
 ! D81   D(18,21,22,25)          4.7097         estimate D2E/DX2                !
 ! D82   D(26,21,22,23)         -7.2368         estimate D2E/DX2                !
 ! D83   D(26,21,22,25)       -178.4248         estimate D2E/DX2                !
 ! D84   D(18,21,26,27)        101.9575         estimate D2E/DX2                !
 ! D85   D(18,21,26,30)        -76.4324         estimate D2E/DX2                !
 ! D86   D(22,21,26,27)        -74.926          estimate D2E/DX2                !
 ! D87   D(22,21,26,30)        106.6842         estimate D2E/DX2                !
 ! D88   D(21,22,23,24)        179.9892         estimate D2E/DX2                !
 ! D89   D(25,22,23,24)         -9.999          estimate D2E/DX2                !
 ! D90   D(21,22,25,16)         -7.3343         estimate D2E/DX2                !
 ! D91   D(21,22,25,64)        175.3486         estimate D2E/DX2                !
 ! D92   D(23,22,25,16)       -177.1705         estimate D2E/DX2                !
 ! D93   D(23,22,25,64)          5.5124         estimate D2E/DX2                !
 ! D94   D(22,23,24,61)        -60.11           estimate D2E/DX2                !
 ! D95   D(22,23,24,62)         63.6824         estimate D2E/DX2                !
 ! D96   D(22,23,24,63)       -172.5636         estimate D2E/DX2                !
 ! D97   D(21,26,27,28)       -179.8678         estimate D2E/DX2                !
 ! D98   D(21,26,27,65)         -0.0668         estimate D2E/DX2                !
 ! D99   D(30,26,27,28)         -1.3689         estimate D2E/DX2                !
 ! D100  D(30,26,27,65)        178.4321         estimate D2E/DX2                !
 ! D101  D(21,26,30,29)       -177.858          estimate D2E/DX2                !
 ! D102  D(27,26,30,29)          3.3874         estimate D2E/DX2                !
 ! D103  D(26,27,28,29)         -1.9895         estimate D2E/DX2                !
 ! D104  D(26,27,28,66)       -178.4321         estimate D2E/DX2                !
 ! D105  D(65,27,28,29)        178.2208         estimate D2E/DX2                !
 ! D106  D(65,27,28,66)          1.7782         estimate D2E/DX2                !
 ! D107  D(27,28,29,30)          4.4708         estimate D2E/DX2                !
 ! D108  D(27,28,29,31)        176.459          estimate D2E/DX2                !
 ! D109  D(66,28,29,30)       -178.9972         estimate D2E/DX2                !
 ! D110  D(66,28,29,31)         -7.0089         estimate D2E/DX2                !
 ! D111  D(28,29,30,26)         -4.6521         estimate D2E/DX2                !
 ! D112  D(31,29,30,26)       -177.101          estimate D2E/DX2                !
 ! D113  D(28,29,31,32)        134.8099         estimate D2E/DX2                !
 ! D114  D(28,29,31,40)        -39.1867         estimate D2E/DX2                !
 ! D115  D(30,29,31,32)        -53.9162         estimate D2E/DX2                !
 ! D116  D(30,29,31,40)        132.0872         estimate D2E/DX2                !
 ! D117  D(29,31,32,33)       -179.7607         estimate D2E/DX2                !
 ! D118  D(29,31,32,67)          6.2905         estimate D2E/DX2                !
 ! D119  D(40,31,32,33)         -5.9754         estimate D2E/DX2                !
 ! D120  D(40,31,32,67)       -179.9243         estimate D2E/DX2                !
 ! D121  D(29,31,40,37)        177.8436         estimate D2E/DX2                !
 ! D122  D(29,31,40,74)         -8.8889         estimate D2E/DX2                !
 ! D123  D(32,31,40,37)          4.098          estimate D2E/DX2                !
 ! D124  D(32,31,40,74)        177.3655         estimate D2E/DX2                !
 ! D125  D(31,32,33,34)       -173.7947         estimate D2E/DX2                !
 ! D126  D(31,32,33,36)          2.7664         estimate D2E/DX2                !
 ! D127  D(67,32,33,34)         -0.0615         estimate D2E/DX2                !
 ! D128  D(67,32,33,36)        176.4995         estimate D2E/DX2                !
 ! D129  D(32,33,34,35)         -7.2674         estimate D2E/DX2                !
 ! D130  D(36,33,34,35)        175.9746         estimate D2E/DX2                !
 ! D131  D(32,33,36,37)          2.5599         estimate D2E/DX2                !
 ! D132  D(32,33,36,41)       -179.8456         estimate D2E/DX2                !
 ! D133  D(34,33,36,37)        179.2246         estimate D2E/DX2                !
 ! D134  D(34,33,36,41)         -3.181          estimate D2E/DX2                !
 ! D135  D(33,34,35,68)        -55.5401         estimate D2E/DX2                !
 ! D136  D(33,34,35,69)         69.8266         estimate D2E/DX2                !
 ! D137  D(33,34,35,70)       -178.2188         estimate D2E/DX2                !
 ! D138  D(33,36,37,38)       -177.6609         estimate D2E/DX2                !
 ! D139  D(33,36,37,40)         -4.5537         estimate D2E/DX2                !
 ! D140  D(41,36,37,38)          4.646          estimate D2E/DX2                !
 ! D141  D(41,36,37,40)        177.7532         estimate D2E/DX2                !
 ! D142  D(33,36,41,42)         98.6715         estimate D2E/DX2                !
 ! D143  D(33,36,41,45)        -80.4896         estimate D2E/DX2                !
 ! D144  D(37,36,41,42)        -83.5751         estimate D2E/DX2                !
 ! D145  D(37,36,41,45)         97.2638         estimate D2E/DX2                !
 ! D146  D(36,37,38,39)       -165.7247         estimate D2E/DX2                !
 ! D147  D(40,37,38,39)         21.4653         estimate D2E/DX2                !
 ! D148  D(36,37,40,31)          1.2649         estimate D2E/DX2                !
 ! D149  D(36,37,40,74)       -171.6139         estimate D2E/DX2                !
 ! D150  D(38,37,40,31)        174.2552         estimate D2E/DX2                !
 ! D151  D(38,37,40,74)          1.3764         estimate D2E/DX2                !
 ! D152  D(37,38,39,71)        167.7688         estimate D2E/DX2                !
 ! D153  D(37,38,39,72)         49.3833         estimate D2E/DX2                !
 ! D154  D(37,38,39,73)        -73.2451         estimate D2E/DX2                !
 ! D155  D(36,41,42,43)       -179.9711         estimate D2E/DX2                !
 ! D156  D(36,41,42,75)          3.2543         estimate D2E/DX2                !
 ! D157  D(45,41,42,43)         -0.7375         estimate D2E/DX2                !
 ! D158  D(45,41,42,75)       -177.5121         estimate D2E/DX2                !
 ! D159  D(36,41,45,44)        178.8167         estimate D2E/DX2                !
 ! D160  D(42,41,45,44)         -0.523          estimate D2E/DX2                !
 ! D161  D(41,42,43,44)          1.8447         estimate D2E/DX2                !
 ! D162  D(41,42,43,76)       -177.6429         estimate D2E/DX2                !
 ! D163  D(75,42,43,44)        178.8303         estimate D2E/DX2                !
 ! D164  D(75,42,43,76)         -0.6574         estimate D2E/DX2                !
 ! D165  D(42,43,44,45)         -2.255          estimate D2E/DX2                !
 ! D166  D(42,43,44,77)        179.1135         estimate D2E/DX2                !
 ! D167  D(76,43,44,45)        177.2833         estimate D2E/DX2                !
 ! D168  D(76,43,44,77)         -1.3483         estimate D2E/DX2                !
 ! D169  D(43,44,45,41)          1.7156         estimate D2E/DX2                !
 ! D170  D(77,44,45,41)       -179.5498         estimate D2E/DX2                !
 --------------------------------------------------------------------------------
 Trust Radius=3.00D-01 FncErr=1.00D-07 GrdErr=1.00D-06 EigMax=2.50D+02 EigMin=1.00D-04
 Number of steps in this run=    397 maximum allowed number of steps=    462.
 GradGradGradGradGradGradGradGradGradGradGradGradGradGradGradGradGradGrad

 Leave Link  103 at Thu Jul 23 22:37:14 2020, MaxMem=  4026531840 cpu:               0.1 elap:               0.0
 (Enter /opt/ohpc/pub/libs/gaussian/g16-A.03/sandybridge/g16/l202.exe)
 Stoichiometry    C36H32O6S3
 Framework group  C1[X(C36H32O6S3)]
 Deg. of freedom   225
 Full point group                 C1      NOp   1
 Largest Abelian subgroup         C1      NOp   1
 Largest concise Abelian subgroup C1      NOp   1
                         Standard orientation:                         
 ---------------------------------------------------------------------
 Center     Atomic      Atomic             Coordinates (Angstroms)
 Number     Number       Type             X           Y           Z
 ---------------------------------------------------------------------
      1          6           0       11.143598    0.478025    0.325512
      2          6           0       10.262854    1.592986    0.149939
      3          6           0        8.885767    1.403508   -0.118133
      4          8           0        8.055205    2.456584   -0.321545
      5          6           0        8.246110    3.629578    0.514949
      6          6           0        8.426126    0.145862   -0.367637
      7          6           0        9.227064   -1.004987   -0.155464
      8          8           0        8.687181   -2.257124   -0.361455
      9          6           0        9.531631   -3.347487   -0.562686
     10          6           0       10.645028   -0.806890    0.163769
     11          6           0        7.020300   -0.078259   -0.665131
     12          6           0        6.486148   -0.325690   -1.898298
     13          6           0        5.015984   -0.465504   -1.935632
     14          6           0        4.552460   -0.246488   -0.662567
     15         16           0        5.777025    0.112184    0.449895
     16          6           0        3.171055   -0.227628   -0.217703
     17          6           0        2.350858   -1.361792   -0.447831
     18          6           0        1.022841   -1.379262   -0.061543
     19          8           0        0.190306   -2.464816   -0.197056
     20          6           0        0.666704   -3.500846   -1.072251
     21          6           0        0.444309   -0.221002    0.560601
     22          6           0        1.210640    0.898972    0.816735
     23          8           0        0.533613    1.934507    1.318208
     24          6           0        1.311331    3.103200    1.589939
     25          6           0        2.499039    0.879123    0.361628
     26          6           0       -0.975895   -0.240726    1.001587
     27          6           0       -1.580691   -0.393856    2.245412
     28          6           0       -2.985822   -0.358802    2.262134
     29          6           0       -3.458602   -0.120925    0.950176
     30         16           0       -2.184293   -0.086280   -0.182801
     31          6           0       -4.913777   -0.082499    0.507789
     32          6           0       -5.324642    0.955404   -0.332798
     33          6           0       -6.671967    0.932442   -0.695010
     34          8           0       -7.168949    1.856717   -1.646071
     35          6           0       -6.304205    2.873146   -2.077685
     36          6           0       -7.546328    0.004037   -0.222701
     37          6           0       -7.195126   -0.961345    0.690545
     38          8           0       -8.070366   -1.855788    1.072802
     39          6           0       -7.807751   -2.657522    2.231531
     40          6           0       -5.844357   -1.036059    1.072144
     41          6           0       -8.964308    0.022426   -0.641303
     42          6           0       -9.630910   -0.681940   -1.572482
     43          6           0      -11.047428   -0.433246   -1.754362
     44          6           0      -11.350269    0.608666   -0.840241
     45         16           0      -10.111988    1.156795    0.139540
     46          1           0       12.115008    0.668004    0.620359
     47          1           0       10.677312    2.562781    0.286625
     48          1           0        9.128042    4.271739    0.165099
     49          1           0        8.479291    3.295851    1.576253
     50          1           0        7.424882    4.207839    0.472674
     51          1           0       10.071632   -3.527932    0.345838
     52          1           0       10.260894   -3.160824   -1.381769
     53          1           0        8.958648   -4.205340   -0.824706
     54          1           0       11.231913   -1.644084    0.280762
     55          1           0        7.106175   -0.473210   -2.805428
     56          1           0        4.472879   -0.694963   -2.767109
     57          1           0        2.831872   -2.244357   -0.882264
     58          1           0        1.499850   -4.100488   -0.640897
     59          1           0       -0.165386   -4.227422   -1.237537
     60          1           0        0.960867   -3.141170   -2.026007
     61          1           0        2.159879    2.883672    2.372110
     62          1           0        1.759226    3.566825    0.743248
     63          1           0        0.687591    3.888675    2.140767
     64          1           0        3.160433    1.829694    0.480088
     65          1           0       -0.941163   -0.537493    3.151313
     66          1           0       -3.593251   -0.433385    3.098371
     67          1           0       -4.651682    1.606091   -0.713315
     68          1           0       -5.872628    3.499801   -1.264255
     69          1           0       -5.522307    2.419130   -2.690994
     70          1           0       -6.879072    3.552654   -2.821899
     71          1           0       -8.712287   -3.194514    2.543828
     72          1           0       -7.502805   -2.002191    3.063043
     73          1           0       -7.054261   -3.386436    2.008776
     74          1           0       -5.435653   -1.849917    1.688797
     75          1           0       -9.181012   -1.472914   -2.172878
     76          1           0      -11.748000   -0.874747   -2.378545
     77          1           0      -12.341312    1.067092   -0.713137
 ---------------------------------------------------------------------
 Rotational constants (GHZ):           0.2069849           0.0161163           0.0156460
 Leave Link  202 at Thu Jul 23 22:37:14 2020, MaxMem=  4026531840 cpu:               0.1 elap:               0.0
 (Enter /opt/ohpc/pub/libs/gaussian/g16-A.03/sandybridge/g16/l301.exe)
 Standard basis: CC-pVDZ (5D, 7F)
 Ernie: Thresh=  0.10000D-02 Tol=  0.10000D-05 Strict=F.
 Ernie:  114 primitive shells out of 1234 were deleted.
 There are   847 symmetry adapted cartesian basis functions of A   symmetry.
 There are   802 symmetry adapted basis functions of A   symmetry.
   802 basis functions,  1823 primitive gaussians,   847 cartesian basis functions
   172 alpha electrons      172 beta electrons
       nuclear repulsion energy      5474.1275758072 Hartrees.
 IExCor=32609 DFT=T Ex+Corr=LC-wPBE ExCW=0 ScaHFX=  1.000000
 ScaDFX=  1.000000  0.000000  1.000000  1.000000 ScalE2=  1.000000  1.000000
 IRadAn=      5 IRanWt=     -1 IRanGd=            0 ICorTp=0 IEmpDi=  4
 HFx  wShort=  0.000000 wLong=  0.199700 cFull=  0.000000 cShort=  0.000000 cLong=  1.000000
 DFx  wShort=  0.000000 wLong=  0.199700 cFull=  0.000000 cShort=  0.000000 cLong=  1.000000
 NAtoms=   77 NActive=   77 NUniq=   77 SFac= 1.00D+00 NAtFMM=   60 NAOKFM=T Big=T
 Integral buffers will be    131072 words long.
 Raffenetti 2 integral format.
 Two-electron integral symmetry is turned on.
 Leave Link  301 at Thu Jul 23 22:37:14 2020, MaxMem=  4026531840 cpu:               0.6 elap:               0.1
 (Enter /opt/ohpc/pub/libs/gaussian/g16-A.03/sandybridge/g16/l302.exe)
 NPDir=0 NMtPBC=     1 NCelOv=     1 NCel=       1 NClECP=     1 NCelD=      1
         NCelK=      1 NCelE2=     1 NClLst=     1 CellRange=     0.0.
 One-electron integrals computed using PRISM.
 One-electron integral symmetry used in STVInt
 NBasis=   802 RedAO= T EigKep=  2.74D-04  NBF=   802
 NBsUse=   802 1.00D-06 EigRej= -1.00D+00 NBFU=   802
 Precomputing XC quadrature grid using
 IXCGrd= 4 IRadAn=           5 IRanWt=          -1 IRanGd=           0 AccXCQ= 0.00D+00.
 Generated NRdTot=       0 NPtTot=           0 NUsed=           0 NTot=          32
 NSgBfM=   736   736   736   736   736 MxSgAt=    77 MxSgA2=    77.
 Leave Link  302 at Thu Jul 23 22:37:17 2020, MaxMem=  4026531840 cpu:              19.8 elap:               2.5
 (Enter /opt/ohpc/pub/libs/gaussian/g16-A.03/sandybridge/g16/l303.exe)
 DipDrv:  MaxL=1.
 Leave Link  303 at Thu Jul 23 22:37:17 2020, MaxMem=  4026531840 cpu:               1.3 elap:               0.2
 (Enter /opt/ohpc/pub/libs/gaussian/g16-A.03/sandybridge/g16/l401.exe)
 ExpMin= 1.22D-01 ExpMax= 1.11D+05 ExpMxC= 1.07D+03 IAcc=3 IRadAn=         5 AccDes= 0.00D+00
 Harris functional with IExCor=32609 and IRadAn=       5 diagonalized for initial guess.
 HarFok:  IExCor=32609 AccDes= 0.00D+00 IRadAn=         5 IDoV= 1 UseB2=F ITyADJ=14
 ICtDFT=  3500011 ScaDFX=  1.000000  1.000000  1.000000  1.000000
 FoFCou: FMM=F IPFlag=           0 FMFlag=      100000 FMFlg1=        2001
         NFxFlg=           0 DoJE=T BraDBF=F KetDBF=T FulRan=T
         wScrn=  0.000000 ICntrl=       500 IOpCl=  0 I1Cent=   200000004 NGrid=           0
         NMat0=    1 NMatS0=      1 NMatT0=    0 NMatD0=    1 NMtDS0=    0 NMtDT0=    0
 Petite list used in FoFCou.
 Harris En= -3034.94916957061    
 JPrj=0 DoOrth=F DoCkMO=F.
 Initial guess <Sx>= 0.0000 <Sy>= 0.0000 <Sz>= 0.0000 <S**2>=-0.0000 S=-0.0000
 Leave Link  401 at Thu Jul 23 22:37:27 2020, MaxMem=  4026531840 cpu:              79.5 elap:              10.0
 (Enter /opt/ohpc/pub/libs/gaussian/g16-A.03/sandybridge/g16/l502.exe)
 Integral symmetry usage will be decided dynamically.
 UHF open shell SCF:
 Using DIIS extrapolation, IDIIS=  1040.
 NGot=  4026531840 LenX=  4025081431 LenY=  4024363175
 Requested convergence on RMS density matrix=1.00D-08 within 128 cycles.
 Requested convergence on MAX density matrix=1.00D-06.
 Requested convergence on             energy=1.00D-06.
 No special actions if energy rises.
 Fock matrices will be formed incrementally for  20 cycles.
 Integral accuracy reduced to 1.0D-05 until final iterations.

 Cycle   1  Pass 0  IDiag  1:
 FoFJK:  IHMeth= 1 ICntrl=       0 DoSepK=T KAlg= 0 I1Cent=           0 FoldK=F
 IRaf=         1 NMat=       1 IRICut=       1 DoRegI=T DoRafI=F ISym2E= 0 IDoP0=0 IntGTp=1.
 FoFCou: FMM=T IPFlag=           0 FMFlag=      100000 FMFlg1=        2001
         NFxFlg=           0 DoJE=T BraDBF=F KetDBF=F FulRan=T
         wScrn=  0.000000 ICntrl=       500 IOpCl=  0 I1Cent=           0 NGrid=           0
         NMat0=    1 NMatS0=      1 NMatT0=    0 NMatD0=    1 NMtDS0=    0 NMtDT0=    0
 Symmetry not used in FoFCou.
 FMM levels:  10  Number of levels for PrismC:   9
 E= -3033.94937100798    
 DIIS: error= 1.66D-02 at cycle   1 NSaved=   1.
 NSaved= 1 IEnMin= 1 EnMin= -3033.94937100798     IErMin= 1 ErrMin= 1.66D-02
 ErrMax= 1.66D-02  0.00D+00 EMaxC= 1.00D-01 BMatC= 3.24D+00 BMatP= 3.24D+00
 IDIUse=3 WtCom= 8.34D-01 WtEn= 1.66D-01
 Coeff-Com:  0.100D+01
 Coeff-En:   0.100D+01
 Coeff:      0.100D+01
 Gap=     0.345 Goal=   None    Shift=    0.000
 Gap=     0.345 Goal=   None    Shift=    0.000
 GapD=    0.345 DampG=1.000 DampE=0.500 DampFc=0.5000 IDamp=-1.
 Damping current iteration by 5.00D-01
 RMSDP=2.60D-03 MaxDP=1.63D-01              OVMax= 2.47D-01

 Cycle   2  Pass 0  IDiag  1:
 RMSU=  1.29D-03    CP:  9.89D-01
 E= -3034.39496108857     Delta-E=       -0.445590080588 Rises=F Damp=T
 DIIS: error= 4.14D-03 at cycle   2 NSaved=   2.
 NSaved= 2 IEnMin= 2 EnMin= -3034.39496108857     IErMin= 2 ErrMin= 4.14D-03
 ErrMax= 4.14D-03  0.00D+00 EMaxC= 1.00D-01 BMatC= 1.50D-01 BMatP= 3.24D+00
 IDIUse=3 WtCom= 9.59D-01 WtEn= 4.14D-02
 Coeff-Com:  0.222D-01 0.978D+00
 Coeff-En:   0.737D-02 0.993D+00
 Coeff:      0.216D-01 0.978D+00
 Gap=     0.357 Goal=   None    Shift=    0.000
 Gap=     0.357 Goal=   None    Shift=    0.000
 RMSDP=6.90D-04 MaxDP=3.12D-02 DE=-4.46D-01 OVMax= 1.81D-01

 Cycle   3  Pass 0  IDiag  1:
 RMSU=  6.86D-04    CP:  9.84D-01  1.03D+00
 E= -3034.86787876040     Delta-E=       -0.472917671828 Rises=F Damp=F
 DIIS: error= 3.84D-03 at cycle   3 NSaved=   3.
 NSaved= 3 IEnMin= 3 EnMin= -3034.86787876040     IErMin= 3 ErrMin= 3.84D-03
 ErrMax= 3.84D-03  0.00D+00 EMaxC= 1.00D-01 BMatC= 7.89D-02 BMatP= 1.50D-01
 IDIUse=3 WtCom= 9.62D-01 WtEn= 3.84D-02
 Coeff-Com: -0.177D-01 0.411D+00 0.606D+00
 Coeff-En:   0.000D+00 0.000D+00 0.100D+01
 Coeff:     -0.170D-01 0.396D+00 0.621D+00
 Gap=     0.282 Goal=   None    Shift=    0.000
 Gap=     0.282 Goal=   None    Shift=    0.000
 RMSDP=2.63D-04 MaxDP=1.51D-02 DE=-4.73D-01 OVMax= 3.74D-02

 Cycle   4  Pass 0  IDiag  1:
 RMSU=  1.94D-04    CP:  9.85D-01  1.08D+00  7.63D-01
 E= -3034.88712325882     Delta-E=       -0.019244498430 Rises=F Damp=F
 DIIS: error= 1.73D-03 at cycle   4 NSaved=   4.
 NSaved= 4 IEnMin= 4 EnMin= -3034.88712325882     IErMin= 4 ErrMin= 1.73D-03
 ErrMax= 1.73D-03  0.00D+00 EMaxC= 1.00D-01 BMatC= 1.11D-02 BMatP= 7.89D-02
 IDIUse=3 WtCom= 9.83D-01 WtEn= 1.73D-02
 Coeff-Com: -0.831D-03 0.592D-01 0.280D+00 0.662D+00
 Coeff-En:   0.000D+00 0.000D+00 0.381D-01 0.962D+00
 Coeff:     -0.817D-03 0.581D-01 0.276D+00 0.667D+00
 Gap=     0.281 Goal=   None    Shift=    0.000
 Gap=     0.281 Goal=   None    Shift=    0.000
 RMSDP=8.43D-05 MaxDP=7.38D-03 DE=-1.92D-02 OVMax= 9.94D-03

 Cycle   5  Pass 0  IDiag  1:
 RMSU=  5.89D-05    CP:  9.85D-01  1.07D+00  8.30D-01  8.08D-01
 E= -3034.88991191227     Delta-E=       -0.002788653443 Rises=F Damp=F
 DIIS: error= 2.73D-04 at cycle   5 NSaved=   5.
 NSaved= 5 IEnMin= 5 EnMin= -3034.88991191227     IErMin= 5 ErrMin= 2.73D-04
 ErrMax= 2.73D-04  0.00D+00 EMaxC= 1.00D-01 BMatC= 1.21D-03 BMatP= 1.11D-02
 IDIUse=3 WtCom= 9.97D-01 WtEn= 2.73D-03
 Coeff-Com:  0.390D-02-0.126D-01 0.756D-01 0.314D+00 0.619D+00
 Coeff-En:   0.000D+00 0.000D+00 0.000D+00 0.000D+00 0.100D+01
 Coeff:      0.389D-02-0.125D-01 0.754D-01 0.313D+00 0.621D+00
 Gap=     0.282 Goal=   None    Shift=    0.000
 Gap=     0.282 Goal=   None    Shift=    0.000
 RMSDP=3.11D-05 MaxDP=2.75D-03 DE=-2.79D-03 OVMax= 3.57D-03

 Cycle   6  Pass 0  IDiag  1:
 RMSU=  2.55D-05    CP:  9.85D-01  1.07D+00  8.44D-01  8.68D-01  8.60D-01
 E= -3034.89021611133     Delta-E=       -0.000304199060 Rises=F Damp=F
 DIIS: error= 9.84D-05 at cycle   6 NSaved=   6.
 NSaved= 6 IEnMin= 6 EnMin= -3034.89021611133     IErMin= 6 ErrMin= 9.84D-05
 ErrMax= 9.84D-05  0.00D+00 EMaxC= 1.00D-01 BMatC= 1.67D-04 BMatP= 1.21D-03
 IDIUse=1 WtCom= 1.00D+00 WtEn= 0.00D+00
 Coeff-Com:  0.310D-02-0.174D-01-0.475D-02 0.511D-01 0.284D+00 0.684D+00
 Coeff:      0.310D-02-0.174D-01-0.475D-02 0.511D-01 0.284D+00 0.684D+00
 Gap=     0.282 Goal=   None    Shift=    0.000
 Gap=     0.282 Goal=   None    Shift=    0.000
 RMSDP=1.69D-05 MaxDP=9.70D-04 DE=-3.04D-04 OVMax= 2.22D-03

 Cycle   7  Pass 0  IDiag  1:
 RMSU=  1.37D-05    CP:  9.85D-01  1.07D+00  8.50D-01  8.85D-01  9.98D-01
                    CP:  9.49D-01
 E= -3034.89026613162     Delta-E=       -0.000050020291 Rises=F Damp=F
 DIIS: error= 6.42D-05 at cycle   7 NSaved=   7.
 NSaved= 7 IEnMin= 7 EnMin= -3034.89026613162     IErMin= 7 ErrMin= 6.42D-05
 ErrMax= 6.42D-05  0.00D+00 EMaxC= 1.00D-01 BMatC= 3.52D-05 BMatP= 1.67D-04
 IDIUse=1 WtCom= 1.00D+00 WtEn= 0.00D+00
 Coeff-Com:  0.126D-02-0.714D-02-0.114D-01-0.192D-01 0.386D-01 0.344D+00
 Coeff-Com:  0.654D+00
 Coeff:      0.126D-02-0.714D-02-0.114D-01-0.192D-01 0.386D-01 0.344D+00
 Coeff:      0.654D+00
 Gap=     0.282 Goal=   None    Shift=    0.000
 Gap=     0.282 Goal=   None    Shift=    0.000
 RMSDP=1.33D-05 MaxDP=4.99D-04 DE=-5.00D-05 OVMax= 9.59D-04

 Cycle   8  Pass 0  IDiag  1:
 RMSU=  1.14D-05    CP:  9.85D-01  1.07D+00  8.51D-01  8.92D-01  1.02D+00
                    CP:  1.18D+00  1.17D+00
 E= -3034.89027495125     Delta-E=       -0.000008819636 Rises=F Damp=F
 DIIS: error= 3.38D-05 at cycle   8 NSaved=   8.
 NSaved= 8 IEnMin= 8 EnMin= -3034.89027495125     IErMin= 8 ErrMin= 3.38D-05
 ErrMax= 3.38D-05  0.00D+00 EMaxC= 1.00D-01 BMatC= 7.75D-06 BMatP= 3.52D-05
 IDIUse=1 WtCom= 1.00D+00 WtEn= 0.00D+00
 Coeff-Com:  0.176D-03-0.802D-03-0.410D-02-0.187D-01-0.361D-01 0.501D-01
 Coeff-Com:  0.333D+00 0.676D+00
 Coeff:      0.176D-03-0.802D-03-0.410D-02-0.187D-01-0.361D-01 0.501D-01
 Coeff:      0.333D+00 0.676D+00
 Gap=     0.282 Goal=   None    Shift=    0.000
 Gap=     0.282 Goal=   None    Shift=    0.000
 RMSDP=1.32D-05 MaxDP=3.94D-04 DE=-8.82D-06 OVMax= 4.47D-04

 Cycle   9  Pass 0  IDiag  1:
 RMSU=  8.99D-06    CP:  9.85D-01  1.07D+00  8.52D-01  8.93D-01  1.05D+00
                    CP:  1.28D+00  1.65D+00  1.56D+00
 E= -3034.89027734552     Delta-E=       -0.000002394263 Rises=F Damp=F
 DIIS: error= 5.08D-05 at cycle   9 NSaved=   9.
 NSaved= 9 IEnMin= 9 EnMin= -3034.89027734552     IErMin= 8 ErrMin= 3.38D-05
 ErrMax= 5.08D-05  0.00D+00 EMaxC= 1.00D-01 BMatC= 4.94D-06 BMatP= 7.75D-06
 IDIUse=1 WtCom= 1.00D+00 WtEn= 0.00D+00
 Coeff-Com:  0.148D-03-0.658D-03-0.319D-02-0.149D-01-0.293D-01 0.394D-01
 Coeff-Com:  0.263D+00 0.535D+00 0.211D+00
 Coeff:      0.148D-03-0.658D-03-0.319D-02-0.149D-01-0.293D-01 0.394D-01
 Coeff:      0.263D+00 0.535D+00 0.211D+00
 Gap=     0.282 Goal=   None    Shift=    0.000
 Gap=     0.282 Goal=   None    Shift=    0.000
 RMSDP=5.43D-06 MaxDP=2.13D-04 DE=-2.39D-06 OVMax= 4.01D-05

 Initial convergence to 1.0D-05 achieved.  Increase integral accuracy.
 Cycle  10  Pass 1  IDiag  1:
 E= -3034.88961549900     Delta-E=        0.000661846516 Rises=F Damp=F
 DIIS: error= 4.12D-04 at cycle   1 NSaved=   1.
 NSaved= 1 IEnMin= 1 EnMin= -3034.88961549900     IErMin= 1 ErrMin= 4.12D-04
 ErrMax= 4.12D-04  0.00D+00 EMaxC= 1.00D-01 BMatC= 2.01D-04 BMatP= 2.01D-04
 IDIUse=3 WtCom= 9.96D-01 WtEn= 4.12D-03
 Coeff-Com:  0.100D+01
 Coeff-En:   0.100D+01
 Coeff:      0.100D+01
 Gap=     0.282 Goal=   None    Shift=    0.000
 Gap=     0.282 Goal=   None    Shift=    0.000
 RMSDP=5.43D-06 MaxDP=2.13D-04 DE= 6.62D-04 OVMax= 7.03D-04

 Cycle  11  Pass 1  IDiag  1:
 RMSU=  2.17D-04    CP:  9.99D-01
 E= -3034.88966134245     Delta-E=       -0.000045843446 Rises=F Damp=F
 DIIS: error= 1.78D-05 at cycle   2 NSaved=   2.
 NSaved= 2 IEnMin= 2 EnMin= -3034.88966134245     IErMin= 2 ErrMin= 1.78D-05
 ErrMax= 1.78D-05  0.00D+00 EMaxC= 1.00D-01 BMatC= 6.03D-07 BMatP= 2.01D-04
 IDIUse=1 WtCom= 1.00D+00 WtEn= 0.00D+00
 Coeff-Com: -0.367D-01 0.104D+01
 Coeff:     -0.367D-01 0.104D+01
 Gap=     0.282 Goal=   None    Shift=    0.000
 Gap=     0.282 Goal=   None    Shift=    0.000
 RMSDP=1.13D-05 MaxDP=8.00D-04 DE=-4.58D-05 OVMax= 1.28D-04

 Cycle  12  Pass 1  IDiag  1:
 RMSU=  2.89D-06    CP:  9.99D-01  1.05D+00
 E= -3034.88966144856     Delta-E=       -0.000000106114 Rises=F Damp=F
 DIIS: error= 8.07D-06 at cycle   3 NSaved=   3.
 NSaved= 3 IEnMin= 3 EnMin= -3034.88966144856     IErMin= 3 ErrMin= 8.07D-06
 ErrMax= 8.07D-06  0.00D+00 EMaxC= 1.00D-01 BMatC= 4.77D-07 BMatP= 6.03D-07
 IDIUse=1 WtCom= 1.00D+00 WtEn= 0.00D+00
 Coeff-Com: -0.215D-01 0.566D+00 0.456D+00
 Coeff:     -0.215D-01 0.566D+00 0.456D+00
 Gap=     0.282 Goal=   None    Shift=    0.000
 Gap=     0.282 Goal=   None    Shift=    0.000
 RMSDP=5.65D-07 MaxDP=4.56D-05 DE=-1.06D-07 OVMax= 8.32D-05

 Cycle  13  Pass 1  IDiag  1:
 RMSU=  5.38D-07    CP:  9.99D-01  1.05D+00  1.00D+00
 E= -3034.88966157038     Delta-E=       -0.000000121816 Rises=F Damp=F
 DIIS: error= 1.63D-06 at cycle   4 NSaved=   4.
 NSaved= 4 IEnMin= 4 EnMin= -3034.88966157038     IErMin= 4 ErrMin= 1.63D-06
 ErrMax= 1.63D-06  0.00D+00 EMaxC= 1.00D-01 BMatC= 2.41D-08 BMatP= 4.77D-07
 IDIUse=1 WtCom= 1.00D+00 WtEn= 0.00D+00
 Coeff-Com: -0.168D-02 0.310D-01 0.165D+00 0.805D+00
 Coeff:     -0.168D-02 0.310D-01 0.165D+00 0.805D+00
 Gap=     0.282 Goal=   None    Shift=    0.000
 Gap=     0.282 Goal=   None    Shift=    0.000
 RMSDP=2.84D-07 MaxDP=1.59D-05 DE=-1.22D-07 OVMax= 2.90D-05

 Cycle  14  Pass 1  IDiag  1:
 RMSU=  1.59D-07    CP:  9.99D-01  1.05D+00  1.06D+00  9.52D-01
 E= -3034.88966160409     Delta-E=       -0.000000033715 Rises=F Damp=F
 DIIS: error= 8.33D-07 at cycle   5 NSaved=   5.
 NSaved= 5 IEnMin= 5 EnMin= -3034.88966160409     IErMin= 5 ErrMin= 8.33D-07
 ErrMax= 8.33D-07  0.00D+00 EMaxC= 1.00D-01 BMatC= 6.35D-09 BMatP= 2.41D-08
 IDIUse=1 WtCom= 1.00D+00 WtEn= 0.00D+00
 Coeff-Com:  0.164D-02-0.497D-01 0.274D-01 0.415D+00 0.606D+00
 Coeff:      0.164D-02-0.497D-01 0.274D-01 0.415D+00 0.606D+00
 Gap=     0.282 Goal=   None    Shift=    0.000
 Gap=     0.282 Goal=   None    Shift=    0.000
 RMSDP=8.85D-08 MaxDP=6.11D-06 DE=-3.37D-08 OVMax= 1.48D-05

 Cycle  15  Pass 1  IDiag  1:
 RMSU=  6.98D-08    CP:  9.99D-01  1.05D+00  1.07D+00  1.00D+00  9.38D-01
 E= -3034.88966160688     Delta-E=       -0.000000002789 Rises=F Damp=F
 DIIS: error= 2.96D-07 at cycle   6 NSaved=   6.
 NSaved= 6 IEnMin= 6 EnMin= -3034.88966160688     IErMin= 6 ErrMin= 2.96D-07
 ErrMax= 2.96D-07  0.00D+00 EMaxC= 1.00D-01 BMatC= 7.37D-10 BMatP= 6.35D-09
 IDIUse=1 WtCom= 1.00D+00 WtEn= 0.00D+00
 Coeff-Com:  0.790D-03-0.216D-01-0.122D-01 0.519D-01 0.254D+00 0.727D+00
 Coeff:      0.790D-03-0.216D-01-0.122D-01 0.519D-01 0.254D+00 0.727D+00
 Gap=     0.282 Goal=   None    Shift=    0.000
 Gap=     0.282 Goal=   None    Shift=    0.000
 RMSDP=3.50D-08 MaxDP=1.96D-06 DE=-2.79D-09 OVMax= 7.14D-06

 Cycle  16  Pass 1  IDiag  1:
 RMSU=  2.47D-08    CP:  9.99D-01  1.05D+00  1.07D+00  1.01D+00  1.08D+00
                    CP:  1.09D+00
 E= -3034.88966160675     Delta-E=        0.000000000133 Rises=F Damp=F
 DIIS: error= 1.29D-07 at cycle   7 NSaved=   7.
 NSaved= 7 IEnMin= 6 EnMin= -3034.88966160688     IErMin= 7 ErrMin= 1.29D-07
 ErrMax= 1.29D-07  0.00D+00 EMaxC= 1.00D-01 BMatC= 2.13D-10 BMatP= 7.37D-10
 IDIUse=1 WtCom= 1.00D+00 WtEn= 0.00D+00
 Coeff-Com: -0.212D-03 0.779D-02-0.201D-01-0.142D+00-0.848D-01 0.387D+00
 Coeff-Com:  0.853D+00
 Coeff:     -0.212D-03 0.779D-02-0.201D-01-0.142D+00-0.848D-01 0.387D+00
 Coeff:      0.853D+00
 Gap=     0.282 Goal=   None    Shift=    0.000
 Gap=     0.282 Goal=   None    Shift=    0.000
 RMSDP=2.69D-08 MaxDP=2.12D-06 DE= 1.33D-10 OVMax= 5.47D-06

 Cycle  17  Pass 1  IDiag  1:
 RMSU=  1.36D-08    CP:  9.99D-01  1.05D+00  1.07D+00  1.01D+00  1.18D+00
                    CP:  1.33D+00  1.10D+00
 E= -3034.88966160731     Delta-E=       -0.000000000564 Rises=F Damp=F
 DIIS: error= 3.27D-08 at cycle   8 NSaved=   8.
 NSaved= 8 IEnMin= 8 EnMin= -3034.88966160731     IErMin= 8 ErrMin= 3.27D-08
 ErrMax= 3.27D-08  0.00D+00 EMaxC= 1.00D-01 BMatC= 1.80D-11 BMatP= 2.13D-10
 IDIUse=1 WtCom= 1.00D+00 WtEn= 0.00D+00
 Coeff-Com: -0.158D-03 0.525D-02-0.858D-02-0.698D-01-0.546D-01 0.132D+00
 Coeff-Com:  0.402D+00 0.593D+00
 Coeff:     -0.158D-03 0.525D-02-0.858D-02-0.698D-01-0.546D-01 0.132D+00
 Coeff:      0.402D+00 0.593D+00
 Gap=     0.282 Goal=   None    Shift=    0.000
 Gap=     0.282 Goal=   None    Shift=    0.000
 RMSDP=4.57D-09 MaxDP=3.33D-07 DE=-5.64D-10 OVMax= 6.85D-07

 SCF Done:  E(ULC-wPBE) =  -3034.88966161     A.U. after   17 cycles
            NFock= 17  Conv=0.46D-08     -V/T= 2.0046
 <Sx>= 0.0000 <Sy>= 0.0000 <Sz>= 0.0000 <S**2>=-0.0000 S=-0.0000
 <L.S>= 0.000000000000E+00
 KE= 3.021075416890D+03 PE=-1.807760000579D+04 EE= 6.547507351488D+03
 Annihilation of the first spin contaminant:
 S**2 before annihilation    -0.0000,   after    -0.0000
 Leave Link  502 at Thu Jul 23 22:47:14 2020, MaxMem=  4026531840 cpu:            4606.0 elap:             586.7
 (Enter /opt/ohpc/pub/libs/gaussian/g16-A.03/sandybridge/g16/l601.exe)
 Copying SCF densities to generalized density rwf, IOpCl= 1 IROHF=0.

 **********************************************************************

            Population analysis using the SCF density.

 **********************************************************************

 Orbital symmetries:
 Alpha Orbitals:
       Occupied  (A) (A) (A) (A) (A) (A) (A) (A) (A) (A) (A) (A)
                 (A) (A) (A) (A) (A) (A) (A) (A) (A) (A) (A) (A)
                 (A) (A) (A) (A) (A) (A) (A) (A) (A) (A) (A) (A)
                 (A) (A) (A) (A) (A) (A) (A) (A) (A) (A) (A) (A)
                 (A) (A) (A) (A) (A) (A) (A) (A) (A) (A) (A) (A)
                 (A) (A) (A) (A) (A) (A) (A) (A) (A) (A) (A) (A)
                 (A) (A) (A) (A) (A) (A) (A) (A) (A) (A) (A) (A)
                 (A) (A) (A) (A) (A) (A) (A) (A) (A) (A) (A) (A)
                 (A) (A) (A) (A) (A) (A) (A) (A) (A) (A) (A) (A)
                 (A) (A) (A) (A) (A) (A) (A) (A) (A) (A) (A) (A)
                 (A) (A) (A) (A) (A) (A) (A) (A) (A) (A) (A) (A)
                 (A) (A) (A) (A) (A) (A) (A) (A) (A) (A) (A) (A)
                 (A) (A) (A) (A) (A) (A) (A) (A) (A) (A) (A) (A)
                 (A) (A) (A) (A) (A) (A) (A) (A) (A) (A) (A) (A)
                 (A) (A) (A) (A)
       Virtual   (A) (A) (A) (A) (A) (A) (A) (A) (A) (A) (A) (A)
                 (A) (A) (A) (A) (A) (A) (A) (A) (A) (A) (A) (A)
                 (A) (A) (A) (A) (A) (A) (A) (A) (A) (A) (A) (A)
                 (A) (A) (A) (A) (A) (A) (A) (A) (A) (A) (A) (A)
                 (A) (A) (A) (A) (A) (A) (A) (A) (A) (A) (A) (A)
                 (A) (A) (A) (A) (A) (A) (A) (A) (A) (A) (A) (A)
                 (A) (A) (A) (A) (A) (A) (A) (A) (A) (A) (A) (A)
                 (A) (A) (A) (A) (A) (A) (A) (A) (A) (A) (A) (A)
                 (A) (A) (A) (A) (A) (A) (A) (A) (A) (A) (A) (A)
                 (A) (A) (A) (A) (A) (A) (A) (A) (A) (A) (A) (A)
                 (A) (A) (A) (A) (A) (A) (A) (A) (A) (A) (A) (A)
                 (A) (A) (A) (A) (A) (A) (A) (A) (A) (A) (A) (A)
                 (A) (A) (A) (A) (A) (A) (A) (A) (A) (A) (A) (A)
                 (A) (A) (A) (A) (A) (A) (A) (A) (A) (A) (A) (A)
                 (A) (A) (A) (A) (A) (A) (A) (A) (A) (A) (A) (A)
                 (A) (A) (A) (A) (A) (A) (A) (A) (A) (A) (A) (A)
                 (A) (A) (A) (A) (A) (A) (A) (A) (A) (A) (A) (A)
                 (A) (A) (A) (A) (A) (A) (A) (A) (A) (A) (A) (A)
                 (A) (A) (A) (A) (A) (A) (A) (A) (A) (A) (A) (A)
                 (A) (A) (A) (A) (A) (A) (A) (A) (A) (A) (A) (A)
                 (A) (A) (A) (A) (A) (A) (A) (A) (A) (A) (A) (A)
                 (A) (A) (A) (A) (A) (A) (A) (A) (A) (A) (A) (A)
                 (A) (A) (A) (A) (A) (A) (A) (A) (A) (A) (A) (A)
                 (A) (A) (A) (A) (A) (A) (A) (A) (A) (A) (A) (A)
                 (A) (A) (A) (A) (A) (A) (A) (A) (A) (A) (A) (A)
                 (A) (A) (A) (A) (A) (A) (A) (A) (A) (A) (A) (A)
                 (A) (A) (A) (A) (A) (A) (A) (A) (A) (A) (A) (A)
                 (A) (A) (A) (A) (A) (A) (A) (A) (A) (A) (A) (A)
                 (A) (A) (A) (A) (A) (A) (A) (A) (A) (A) (A) (A)
                 (A) (A) (A) (A) (A) (A) (A) (A) (A) (A) (A) (A)
                 (A) (A) (A) (A) (A) (A) (A) (A) (A) (A) (A) (A)
                 (A) (A) (A) (A) (A) (A) (A) (A) (A) (A) (A) (A)
                 (A) (A) (A) (A) (A) (A) (A) (A) (A) (A) (A) (A)
                 (A) (A) (A) (A) (A) (A) (A) (A) (A) (A) (A) (A)
                 (A) (A) (A) (A) (A) (A) (A) (A) (A) (A) (A) (A)
                 (A) (A) (A) (A) (A) (A) (A) (A) (A) (A) (A) (A)
                 (A) (A) (A) (A) (A) (A) (A) (A) (A) (A) (A) (A)
                 (A) (A) (A) (A) (A) (A) (A) (A) (A) (A) (A) (A)
                 (A) (A) (A) (A) (A) (A) (A) (A) (A) (A) (A) (A)
                 (A) (A) (A) (A) (A) (A) (A) (A) (A) (A) (A) (A)
                 (A) (A) (A) (A) (A) (A) (A) (A) (A) (A) (A) (A)
                 (A) (A) (A) (A) (A) (A) (A) (A) (A) (A) (A) (A)
                 (A) (A) (A) (A) (A) (A) (A) (A) (A) (A) (A) (A)
                 (A) (A) (A) (A) (A) (A) (A) (A) (A) (A) (A) (A)
                 (A) (A) (A) (A) (A) (A) (A) (A) (A) (A) (A) (A)
                 (A) (A) (A) (A) (A) (A) (A) (A) (A) (A) (A) (A)
                 (A) (A) (A) (A) (A) (A) (A) (A) (A) (A) (A) (A)
                 (A) (A) (A) (A) (A) (A) (A) (A) (A) (A) (A) (A)
                 (A) (A) (A) (A) (A) (A) (A) (A) (A) (A) (A) (A)
                 (A) (A) (A) (A) (A) (A) (A) (A) (A) (A) (A) (A)
                 (A) (A) (A) (A) (A) (A) (A) (A) (A) (A) (A) (A)
                 (A) (A) (A) (A) (A) (A) (A) (A) (A) (A) (A) (A)
                 (A) (A) (A) (A) (A) (A)
 Beta  Orbitals:
       Occupied  (A) (A) (A) (A) (A) (A) (A) (A) (A) (A) (A) (A)
                 (A) (A) (A) (A) (A) (A) (A) (A) (A) (A) (A) (A)
                 (A) (A) (A) (A) (A) (A) (A) (A) (A) (A) (A) (A)
                 (A) (A) (A) (A) (A) (A) (A) (A) (A) (A) (A) (A)
                 (A) (A) (A) (A) (A) (A) (A) (A) (A) (A) (A) (A)
                 (A) (A) (A) (A) (A) (A) (A) (A) (A) (A) (A) (A)
                 (A) (A) (A) (A) (A) (A) (A) (A) (A) (A) (A) (A)
                 (A) (A) (A) (A) (A) (A) (A) (A) (A) (A) (A) (A)
                 (A) (A) (A) (A) (A) (A) (A) (A) (A) (A) (A) (A)
                 (A) (A) (A) (A) (A) (A) (A) (A) (A) (A) (A) (A)
                 (A) (A) (A) (A) (A) (A) (A) (A) (A) (A) (A) (A)
                 (A) (A) (A) (A) (A) (A) (A) (A) (A) (A) (A) (A)
                 (A) (A) (A) (A) (A) (A) (A) (A) (A) (A) (A) (A)
                 (A) (A) (A) (A) (A) (A) (A) (A) (A) (A) (A) (A)
                 (A) (A) (A) (A)
[...]
    16 C(13)  Bbb     0.0000     0.000     0.000     0.000  0.7985  0.5032 -0.3305
              Bcc     0.0000     0.000     0.000     0.000 -0.5770  0.7963 -0.1817
 
              Baa    -0.0000    -0.000    -0.000    -0.000  0.8725  0.4759 -0.1109
    17 C(13)  Bbb    -0.0000    -0.000    -0.000    -0.000  0.0485  0.1415  0.9887
              Bcc     0.0000     0.000     0.000     0.000 -0.4862  0.8680 -0.1004
 
              Baa    -0.0000    -0.000    -0.000    -0.000  0.7986 -0.5956  0.0863
    18 C(13)  Bbb    -0.0000    -0.000    -0.000    -0.000  0.1759  0.3682  0.9129
              Bcc     0.0000     0.000     0.000     0.000  0.5755  0.7139 -0.3989
 
              Baa    -0.0000     0.000     0.000     0.000 -0.3350  0.7499  0.5704
    19 O(17)  Bbb     0.0000    -0.000    -0.000    -0.000  0.2489 -0.5135  0.8212
              Bcc     0.0000    -0.000    -0.000    -0.000  0.9088  0.4171 -0.0146
 
              Baa    -0.0000    -0.000    -0.000    -0.000  0.7032 -0.6652 -0.2509
    20 C(13)  Bbb     0.0000     0.000     0.000     0.000  0.3179 -0.0214  0.9479
              Bcc     0.0000     0.000     0.000     0.000  0.6359  0.7463 -0.1964
 
              Baa    -0.0000    -0.000    -0.000    -0.000 -0.1931  0.9101 -0.3667
    21 C(13)  Bbb    -0.0000    -0.000    -0.000    -0.000  0.9406  0.2781  0.1949
              Bcc     0.0000     0.000     0.000     0.000 -0.2794  0.3073  0.9097
 
              Baa    -0.0000    -0.000    -0.000    -0.000  0.5600  0.8271  0.0482
    22 C(13)  Bbb    -0.0000    -0.000    -0.000    -0.000  0.0132 -0.0671  0.9977
              Bcc     0.0000     0.000     0.000     0.000  0.8284 -0.5581 -0.0485
 
              Baa    -0.0000     0.000     0.000     0.000 -0.5634 -0.0561  0.8243
    23 O(17)  Bbb    -0.0000     0.000     0.000     0.000  0.7534  0.3746  0.5404
              Bcc     0.0000    -0.000    -0.000    -0.000 -0.3391  0.9255 -0.1688
 
              Baa    -0.0000    -0.000    -0.000    -0.000  0.9465 -0.2534 -0.1998
    24 C(13)  Bbb     0.0000     0.000     0.000     0.000  0.3197  0.6536  0.6860
              Bcc     0.0000     0.000     0.000     0.000  0.0432  0.7132 -0.6996
 
              Baa    -0.0000    -0.000    -0.000    -0.000  0.9888  0.0583 -0.1371
    25 C(13)  Bbb     0.0000     0.000     0.000     0.000  0.1251  0.1748  0.9766
              Bcc     0.0000     0.000     0.000     0.000 -0.0809  0.9829 -0.1655
 
              Baa    -0.0000    -0.000    -0.000    -0.000 -0.0618 -0.5394  0.8398
    26 C(13)  Bbb    -0.0000    -0.000    -0.000    -0.000 -0.0568  0.8420  0.5366
              Bcc     0.0000     0.000     0.000     0.000  0.9965  0.0146  0.0827
 
              Baa    -0.0000    -0.000    -0.000    -0.000 -0.1161 -0.2958  0.9482
    27 C(13)  Bbb    -0.0000    -0.000    -0.000    -0.000  0.9600 -0.2783  0.0307
              Bcc     0.0000     0.000     0.000     0.000  0.2548  0.9138  0.3163
 
              Baa    -0.0000    -0.000    -0.000    -0.000  0.7978 -0.5729 -0.1880
    28 C(13)  Bbb     0.0000     0.000     0.000     0.000  0.6016  0.7352  0.3122
              Bcc     0.0000     0.000     0.000     0.000 -0.0407 -0.3622  0.9312
 
              Baa    -0.0000    -0.000    -0.000    -0.000  0.2373 -0.1031  0.9659
    29 C(13)  Bbb    -0.0000    -0.000    -0.000    -0.000  0.4818  0.8759 -0.0249
              Bcc     0.0000     0.000     0.000     0.000  0.8435 -0.4713 -0.2575
 
              Baa    -0.0000    -0.000    -0.000    -0.000 -0.3599  0.8875  0.2878
    30 S(33)  Bbb    -0.0000    -0.000    -0.000    -0.000 -0.0905 -0.3402  0.9360
              Bcc     0.0000     0.000     0.000     0.000  0.9286  0.3109  0.2028
 
              Baa    -0.0000    -0.000    -0.000    -0.000  0.1314  0.8895  0.4377
    31 C(13)  Bbb    -0.0000    -0.000    -0.000    -0.000  0.9240  0.0501 -0.3792
              Bcc     0.0000     0.000     0.000     0.000  0.3592 -0.4542  0.8153
 
              Baa    -0.0000    -0.000    -0.000    -0.000  0.7783  0.3833  0.4974
    32 C(13)  Bbb     0.0000     0.000     0.000     0.000 -0.5673  0.7687  0.2954
              Bcc     0.0000     0.000     0.000     0.000 -0.2691 -0.5121  0.8157
 
              Baa    -0.0000    -0.000    -0.000    -0.000 -0.0589  0.7102 -0.7015
    33 C(13)  Bbb     0.0000     0.000     0.000     0.000  0.6110 -0.5301 -0.5879
              Bcc     0.0000     0.000     0.000     0.000  0.7894  0.4633  0.4027
 
              Baa    -0.0000     0.000     0.000     0.000  0.5021  0.6892  0.5224
    34 O(17)  Bbb    -0.0000     0.000     0.000     0.000  0.2107 -0.6834  0.6990
              Bcc     0.0000    -0.000    -0.000    -0.000  0.8387 -0.2409 -0.4884
 
              Baa    -0.0000    -0.000    -0.000    -0.000  0.9445  0.2793  0.1731
    35 C(13)  Bbb     0.0000     0.000     0.000     0.000 -0.0233 -0.4687  0.8831
              Bcc     0.0000     0.000     0.000     0.000 -0.3277  0.8381  0.4362
 
              Baa    -0.0000    -0.000    -0.000    -0.000  0.7435 -0.5159 -0.4256
    36 C(13)  Bbb     0.0000     0.000     0.000     0.000  0.6366  0.7409  0.2139
              Bcc     0.0000     0.000     0.000     0.000  0.2049 -0.4300  0.8793
 
              Baa    -0.0000    -0.000    -0.000    -0.000 -0.1844  0.6525  0.7350
    37 C(13)  Bbb     0.0000     0.000     0.000     0.000  0.8021  0.5321 -0.2712
              Bcc     0.0000     0.000     0.000     0.000  0.5681 -0.5395  0.6215
 
              Baa    -0.0000     0.000     0.000     0.000 -0.2336 -0.6278  0.7425
    38 O(17)  Bbb    -0.0000     0.000     0.000     0.000 -0.5855  0.7005  0.4080
              Bcc     0.0000    -0.000    -0.000    -0.000  0.7762  0.3394  0.5312
 
              Baa    -0.0000    -0.000    -0.000    -0.000 -0.6078  0.1467  0.7804
    39 C(13)  Bbb    -0.0000    -0.000    -0.000    -0.000 -0.4089  0.7846 -0.4660
              Bcc     0.0000     0.000     0.000     0.000  0.6807  0.6024  0.4169
 
              Baa    -0.0000    -0.000    -0.000    -0.000  0.7110  0.6974  0.0902
    40 C(13)  Bbb    -0.0000    -0.000    -0.000    -0.000 -0.4624  0.3671  0.8071
              Bcc     0.0000     0.000     0.000     0.000 -0.5297  0.6156 -0.5835
 
              Baa    -0.0000    -0.000    -0.000    -0.000 -0.0181  0.9960 -0.0871
    41 C(13)  Bbb    -0.0000    -0.000    -0.000    -0.000 -0.1377  0.0838  0.9869
              Bcc     0.0000     0.000     0.000     0.000  0.9903  0.0299  0.1356
 
              Baa    -0.0000    -0.000    -0.000    -0.000  0.4194  0.1287  0.8986
    42 C(13)  Bbb     0.0000     0.000     0.000     0.000  0.3920  0.8671 -0.3072
              Bcc     0.0000     0.000     0.000     0.000  0.8188 -0.4811 -0.3133
 
              Baa    -0.0000    -0.000    -0.000    -0.000  0.8158  0.0021 -0.5783
    43 C(13)  Bbb     0.0000     0.000     0.000     0.000  0.5747  0.1077  0.8112
              Bcc     0.0000     0.000     0.000     0.000 -0.0640  0.9942 -0.0867
 
              Baa    -0.0000    -0.000    -0.000    -0.000  0.0065  0.0750  0.9972
    44 C(13)  Bbb     0.0000     0.000     0.000     0.000  0.9877 -0.1565  0.0053
              Bcc     0.0000     0.000     0.000     0.000  0.1564  0.9848 -0.0751
 
              Baa    -0.0000    -0.000    -0.000    -0.000  0.9602  0.2787 -0.0161
    45 S(33)  Bbb    -0.0000    -0.000    -0.000    -0.000 -0.2768  0.9580  0.0747
              Bcc     0.0000     0.000     0.000     0.000  0.0363 -0.0672  0.9971
 
              Baa    -0.0000    -0.000    -0.000    -0.000  0.2453  0.4299  0.8689
    46 H(1)   Bbb     0.0000     0.000     0.000     0.000  0.9291 -0.3602 -0.0841
              Bcc     0.0000     0.000     0.000     0.000  0.2768  0.8279 -0.4878
 
              Baa    -0.0000    -0.000    -0.000    -0.000 -0.0869  0.3951  0.9145
    47 H(1)   Bbb    -0.0000    -0.000    -0.000    -0.000  0.9839 -0.1100  0.1411
              Bcc     0.0000     0.000     0.000     0.000  0.1564  0.9120 -0.3792
 
              Baa    -0.0000    -0.000    -0.000    -0.000  0.4559  0.2217  0.8620
    48 H(1)   Bbb     0.0000     0.000     0.000     0.000 -0.5211  0.8516  0.0565
              Bcc     0.0000     0.000     0.000     0.000  0.7216  0.4749 -0.5038
 
              Baa    -0.0000    -0.000    -0.000    -0.000  0.8374 -0.3144 -0.4471
    49 H(1)   Bbb    -0.0000    -0.000    -0.000    -0.000  0.5159  0.1842  0.8366
              Bcc     0.0000     0.000     0.000     0.000  0.1807  0.9313 -0.3164
 
              Baa    -0.0000    -0.000    -0.000    -0.000  0.3675 -0.5474  0.7519
    50 H(1)   Bbb     0.0000     0.000     0.000     0.000  0.6404  0.7352  0.2223
              Bcc     0.0000     0.000     0.000     0.000  0.6745 -0.3998 -0.6207
 
              Baa    -0.0000    -0.000    -0.000    -0.000  0.6957 -0.6874  0.2085
    51 H(1)   Bbb    -0.0000    -0.000    -0.000    -0.000 -0.6030 -0.4011  0.6895
              Bcc     0.0000     0.000     0.000     0.000  0.3903  0.6055  0.6936
 
              Baa    -0.0000    -0.000    -0.000    -0.000  0.8344  0.5363 -0.1273
    52 H(1)   Bbb     0.0000     0.000     0.000     0.000  0.4038 -0.4375  0.8035
              Bcc     0.0000     0.000     0.000     0.000 -0.3752  0.7218  0.5816
 
              Baa    -0.0000    -0.000    -0.000    -0.000  0.4092 -0.5975  0.6896
    53 H(1)   Bbb    -0.0000    -0.000    -0.000    -0.000 -0.6428  0.3476  0.6826
              Bcc     0.0000     0.000     0.000     0.000  0.6476  0.7226  0.2419
 
              Baa    -0.0000    -0.000    -0.000    -0.000  0.8902  0.3784 -0.2536
    54 H(1)   Bbb    -0.0000    -0.000    -0.000    -0.000 -0.0649  0.6564  0.7516
              Bcc     0.0000     0.000     0.000     0.000 -0.4508  0.6526 -0.6089
 
              Baa    -0.0000    -0.000    -0.000    -0.000 -0.4432 -0.0945  0.8914
    55 H(1)   Bbb     0.0000     0.000     0.000     0.000  0.6901  0.5987  0.4066
              Bcc     0.0000     0.000     0.000     0.000 -0.5721  0.7954 -0.2002
 
              Baa    -0.0000    -0.000    -0.000    -0.000  0.5871  0.7880  0.1856
    56 H(1)   Bbb     0.0000     0.000     0.000     0.000  0.2944 -0.4214  0.8578
              Bcc     0.0000     0.000     0.000     0.000  0.7541 -0.4489 -0.4794
 
              Baa    -0.0000    -0.000    -0.000    -0.000  0.3006  0.4233  0.8547
    57 H(1)   Bbb    -0.0000    -0.000    -0.000    -0.000  0.9374  0.0343 -0.3466
              Bcc     0.0000     0.000     0.000     0.000 -0.1760  0.9053 -0.3865
 
              Baa    -0.0000    -0.000    -0.000    -0.000 -0.1132  0.0217  0.9933
    58 H(1)   Bbb     0.0000     0.000     0.000     0.000  0.0440  0.9989 -0.0168
              Bcc     0.0000     0.000     0.000     0.000  0.9926 -0.0418  0.1141
 
              Baa    -0.0000    -0.000    -0.000    -0.000 -0.4914  0.8502 -0.1891
    59 H(1)   Bbb    -0.0000    -0.000    -0.000    -0.000  0.0081  0.2216  0.9751
              Bcc     0.0000     0.000     0.000     0.000  0.8709  0.4776 -0.1158
 
              Baa    -0.0000    -0.000    -0.000    -0.000  0.1979  0.6870  0.6992
    60 H(1)   Bbb     0.0000     0.000     0.000     0.000 -0.3349  0.7178 -0.6104
              Bcc     0.0000     0.000     0.000     0.000  0.9212  0.1133 -0.3722
 
              Baa    -0.0000    -0.000    -0.000    -0.000  0.3081  0.2684  0.9127
    61 H(1)   Bbb     0.0000     0.000     0.000     0.000 -0.5857  0.8095 -0.0404
              Bcc     0.0000     0.000     0.000     0.000  0.7497  0.5221 -0.4066
 
              Baa    -0.0000    -0.000    -0.000    -0.000 -0.2480  0.3807  0.8908
    62 H(1)   Bbb     0.0000     0.000     0.000     0.000  0.9143  0.3960  0.0853
              Bcc     0.0000     0.000     0.000     0.000 -0.3203  0.8356 -0.4463
 
              Baa    -0.0000    -0.000    -0.000    -0.000 -0.6906  0.7231  0.0157
    63 H(1)   Bbb     0.0000     0.000     0.000     0.000  0.7190  0.6887 -0.0936
              Bcc     0.0000     0.000     0.000     0.000  0.0785  0.0534  0.9955
 
              Baa    -0.0000    -0.000    -0.000    -0.000  0.2663  0.1260  0.9556
    64 H(1)   Bbb     0.0000     0.000     0.000     0.000  0.9322  0.2185 -0.2886
              Bcc     0.0000     0.000     0.000     0.000 -0.2452  0.9677 -0.0593
 
              Baa    -0.0000    -0.000    -0.000    -0.000  0.2849 -0.3853  0.8777
    65 H(1)   Bbb    -0.0000    -0.000    -0.000    -0.000  0.7016 -0.5401 -0.4648
              Bcc     0.0000     0.000     0.000     0.000  0.6532  0.7482  0.1164
 
              Baa    -0.0000    -0.000    -0.000    -0.000 -0.1322  0.9797  0.1505
    66 H(1)   Bbb     0.0000     0.000     0.000     0.000  0.9512  0.1681 -0.2586
              Bcc     0.0000     0.000     0.000     0.000  0.2787 -0.1090  0.9542
 
              Baa    -0.0000    -0.000    -0.000    -0.000  0.1375  0.3051  0.9424
    67 H(1)   Bbb    -0.0000    -0.000    -0.000    -0.000  0.0513  0.9479 -0.3144
              Bcc     0.0000     0.000     0.000     0.000  0.9892 -0.0916 -0.1146
 
              Baa    -0.0000    -0.000    -0.000    -0.000  0.7540  0.3982  0.5224
    68 H(1)   Bbb    -0.0000    -0.000    -0.000    -0.000 -0.3438  0.9169 -0.2027
              Bcc     0.0000     0.000     0.000     0.000 -0.5597 -0.0268  0.8283
 
              Baa    -0.0000    -0.000    -0.000    -0.000  0.5614  0.7675 -0.3096
    69 H(1)   Bbb    -0.0000    -0.000    -0.000    -0.000  0.0361  0.3510  0.9357
              Bcc     0.0000     0.000     0.000     0.000  0.8268 -0.5364  0.1693
 
              Baa    -0.0000    -0.000    -0.000    -0.000  0.4284  0.7937 -0.4319
    70 H(1)   Bbb    -0.0000    -0.000    -0.000    -0.000  0.6531 -0.6023 -0.4591
              Bcc     0.0000     0.000     0.000     0.000  0.6245  0.0854  0.7763
 
              Baa    -0.0000    -0.000    -0.000    -0.000  0.7360  0.5418  0.4059
    71 H(1)   Bbb    -0.0000    -0.000    -0.000    -0.000  0.0329 -0.6275  0.7779
              Bcc     0.0000     0.000     0.000     0.000  0.6762 -0.5592 -0.4797
 
              Baa    -0.0000    -0.000    -0.000    -0.000  0.9056 -0.1656 -0.3906
    72 H(1)   Bbb    -0.0000    -0.000    -0.000    -0.000  0.4140  0.5454  0.7288
              Bcc     0.0000     0.000     0.000     0.000 -0.0924  0.8216 -0.5625
 
              Baa    -0.0000    -0.000    -0.000    -0.000  0.2288  0.9108  0.3436
    73 H(1)   Bbb    -0.0000    -0.000    -0.000    -0.000  0.9588 -0.1498 -0.2413
              Bcc     0.0000     0.000     0.000     0.000  0.1684 -0.3846  0.9076
 
              Baa    -0.0000    -0.000    -0.000    -0.000 -0.1607  0.3996  0.9025
    74 H(1)   Bbb    -0.0000    -0.000    -0.000    -0.000  0.9786  0.1835  0.0930
              Bcc     0.0000     0.000     0.000     0.000 -0.1284  0.8982 -0.4205
 
              Baa    -0.0000    -0.000    -0.000    -0.000 -0.3284  0.0885  0.9404
    75 H(1)   Bbb    -0.0000    -0.000    -0.000    -0.000  0.9442  0.0023  0.3295
              Bcc     0.0000     0.000     0.000     0.000  0.0270  0.9961 -0.0843
 
              Baa    -0.0000    -0.000    -0.000    -0.000  0.9084  0.2893 -0.3018
    76 H(1)   Bbb    -0.0000    -0.000    -0.000    -0.000 -0.3509  0.9200 -0.1745
              Bcc     0.0000     0.000     0.000     0.000  0.2271  0.2644  0.9373
 
              Baa    -0.0000    -0.000    -0.000    -0.000  0.9347  0.1903 -0.3002
    77 H(1)   Bbb     0.0000     0.000     0.000     0.000 -0.1859  0.9816  0.0436
              Bcc     0.0000     0.000     0.000     0.000  0.3030  0.0151  0.9529
 

 ---------------------------------------------------------------------------------

 No NMR shielding tensors so no spin-rotation constants.
 Leave Link  601 at Fri Jul 24 02:53:36 2020, MaxMem=  4026531840 cpu:               9.1 elap:               1.2
 (Enter /opt/ohpc/pub/libs/gaussian/g16-A.03/sandybridge/g16/l9999.exe)

 Test job not archived.
 1\1\GINC-SKYLAKE048\FOpt\ULC-wPBE\CC-pVDZ\C36H32O6S3\RDU230\24-Jul-202
 0\0\\#P uLC-wPBE/cc-pVDZ iop(3/107=0199700000, 3/108=0199700000) opt\\
 H32 C36 S3 O6\\0,1\C,11.2616408454,0.30906615,0.4862753205\C,10.348583
 5634,1.2326108287,0.9956548489\C,8.993241425,1.1195638569,0.6485363732
 \O,8.0337758204,1.9755474399,1.1071279128\C,8.4260769204,3.013857722,1
 .9915465379\C,8.5283402789,0.0921481185,-0.2117473182\C,9.4903638082,-
 0.8279301166,-0.7065130852\O,9.0146033206,-1.8101314531,-1.527162673\C
 ,9.923066512,-2.8065983169,-1.9713137436\C,10.8474521674,-0.7204064431
 ,-0.3587342926\C,7.1015461672,-0.0285691989,-0.5824767413\C,6.56421586
 53,-0.4298905321,-1.793623018\C,5.1456660024,-0.5051174899,-1.79495985
 35\C,4.5779017605,-0.1727112079,-0.5793687247\S,5.8144018716,0.2527371
 584,0.5689202154\C,3.1499039981,-0.1303101861,-0.2170823413\C,2.243219
 9147,-0.9931146859,-0.8527665445\C,0.8825447066,-0.9492094843,-0.52446
 70138\O,-0.0450089792,-1.7579474767,-1.1146813663\C,0.383854446,-2.655
 5105543,-2.1269885735\C,0.3722573973,-0.0623134046,0.4583829183\C,1.31
 27503644,0.7952553243,1.0885192035\O,0.8104093482,1.6550198739,2.02332
 84827\C,1.6969273152,2.5921411708,2.6164213659\C,2.6737042402,0.765413
 8643,0.75258063\C,-1.0618622524,-0.0231789522,0.8120121481\C,-1.632516
 0026,0.2582981214,2.0429007707\C,-3.0525848198,0.2784888301,2.02731128
 17\C,-3.5909209094,0.0279279018,0.7794693456\S,-2.3250308864,-0.276919
 1458,-0.3751429112\C,-5.0107692943,-0.0329707871,0.3876080502\C,-5.416
 1232034,0.3101151519,-0.9113544639\C,-6.7703596244,0.2512842259,-1.265
 4148263\O,-7.2216365763,0.5819344909,-2.5103900773\C,-6.2783723781,1.0
 167103659,-3.4778895388\C,-7.7722577075,-0.1437711698,-0.3429975047\C,
 -7.3345203023,-0.4781007654,0.9659111182\O,-8.3086285732,-0.8565637776
 ,1.8460419848\C,-7.9331341585,-1.1107657998,3.1908628827\C,-5.97935342
 15,-0.4296459425,1.3227489483\C,-9.2024019737,-0.2036652608,-0.7141672
 29\C,-10.1670536052,-1.0882061045,-0.2614250359\C,-11.4715120914,-0.82
 67206579,-0.7702424237\C,-11.5019646555,0.2684391809,-1.6007312477\S,-
 9.9371788215,0.9675881496,-1.7917265982\H,12.3227500646,0.3933848236,0
 .7548407719\H,10.6931354118,2.0337035067,1.6568095425\H,9.1458909749,3
 .7102505491,1.5133278618\H,8.8727926216,2.6130738442,2.9252527479\H,7.
 5013298436,3.5625858847,2.2375675405\H,10.3830663613,-3.3520459559,-1.
 1212716505\H,10.7271985358,-2.380216799,-2.6069299933\H,9.3237759549,-
 3.511541161,-2.5720900944\H,11.5814168126,-1.4344312955,-0.7447240003\
 H,7.1876194904,-0.6639192763,-2.6605026005\H,4.5520530766,-0.764450525
 4,-2.6788424296\H,2.6164796504,-1.717970092,-1.5820431116\H,1.10478071
 3,-3.4020612216,-1.7339898927\H,-0.5263649961,-3.1759560266,-2.4693500
 292\H,0.8446236151,-2.1201264501,-2.9831363781\H,2.5010559603,2.091856
 489,3.1954273391\H,2.1572342524,3.2591901845,1.8583047632\H,1.07843534
 75,3.1955546016,3.3022627338\H,3.3761774225,1.4577113819,1.2270155842\
 H,-1.0311529127,0.4600093721,2.9325647594\H,-3.6657801203,0.5036120952
 ,2.9072591946\H,-4.6665021234,0.6462648542,-1.6347017791\H,-5.75185249
 34,1.9386477387,-3.154498716\H,-5.5285298145,0.2298792557,-3.701947278
 1\H,-6.8626467882,1.2316639953,-4.388425675\H,-8.8710912301,-1.3377378
 137,3.7255218483\H,-7.4518843875,-0.2262800521,3.6576610698\H,-7.24869
 89256,-1.9809966813,3.2729936939\H,-5.658399097,-0.72990666,2.32438760
 3\H,-9.9332227906,-1.9026442336,0.4288091579\H,-12.3542852748,-1.42975
 08683,-0.5296840802\H,-12.356644978,0.6904395238,-2.1379796956\\Versio
 n=EM64L-G16RevA.03\State=1-A\HF=-3035.0128185\S2=0.\S2-1=0.\S2A=0.\RMS
 D=4.971e-09\RMSF=1.482e-06\Dipole=2.6070661,-0.0124665,0.2756327\Quadr
 upole=3.2295419,-6.5175545,3.2880127,2.0658662,-4.3867629,10.6875792\P
 G=C01 [X(C36H32O6S3)]\\@


 COLLEGE PROFESSOR: SOMEONE WHO TALKS IN OTHER PEOPLE'S SLEEP.
 Job cpu time:       1 days  9 hours 34 minutes 11.2 seconds.
 Elapsed time:       0 days  4 hours 16 minutes 19.4 seconds.
 File lengths (MBytes):  RWF=    764 Int=      0 D2E=      0 Chk=     68 Scr=      8
 Normal termination of Gaussian 16 at Fri Jul 24 02:53:36 2020.
