 Entering Gaussian System, Link 0=g16
 Input=mols_65_7_22_n-cF-CF_opt_0.gjf
 Output=mols_65_7_22_n-cF-CF_opt_0.log
 Initial command:
 /opt/ohpc/pub/libs/gaussian/g16-A.03/sandybridge/g16/l1.exe "/mnt/gpfs2_4m/scratch/rdu230/ondemand/projects/dihedral_energies/7trial/wtuning/mols_65_7_22_n-cF-CF/Gau-292472.inp" -scrdir="/mnt/gpfs2_4m/scratch/rdu230/ondemand/projects/dihedral_energies/7trial/wtuning/mols_65_7_22_n-cF-CF/"
 Entering Link 1 = /opt/ohpc/pub/libs/gaussian/g16-A.03/sandybridge/g16/l1.exe PID=    292474.
  
 Copyright (c) 1988,1990,1992,1993,1995,1998,2003,2009,2016,
            Gaussian, Inc.  All Rights Reserved.
  
 This is part of the Gaussian(R) 16 program.  It is based on
 the Gaussian(R) 09 system (copyright 2009, Gaussian, Inc.),
 the Gaussian(R) 03 system (copyright 2003, Gaussian, Inc.),
 the Gaussian(R) 98 system (copyright 1998, Gaussian, Inc.),
 the Gaussian(R) 94 system (copyright 1995, Gaussian, Inc.),
 the Gaussian 92(TM) system (copyright 1992, Gaussian, Inc.),
 the Gaussian 90(TM) system (copyright 1990, Gaussian, Inc.),
 the Gaussian 88(TM) system (copyright 1988, Gaussian, Inc.),
 the Gaussian 86(TM) system (copyright 1986, Carnegie Mellon
 University), and the Gaussian 82(TM) system (copyright 1983,
 Carnegie Mellon University). Gaussian is a federally registered
 trademark of Gaussian, Inc.
  
 This software contains proprietary and confidential information,
 including trade secrets, belonging to Gaussian, Inc.
  
 This software is provided under written license and may be
 used, copied, transmitted, or stored only in accord with that
 written license.
  
 The following legend is applicable only to US Government
 contracts under FAR:
  
                    RESTRICTED RIGHTS LEGEND
  
 Use, reproduction and disclosure by the US Government is
 subject to restrictions as set forth in subparagraphs (a)
 and (c) of the Commercial Computer Software - Restricted
 Rights clause in FAR 52.227-19.
  
 Gaussian, Inc.
 340 Quinnipiac St., Bldg. 40, Wallingford CT 06492
  
  
 ---------------------------------------------------------------
 Warning -- This program may not be used in any manner that
 competes with the business of Gaussian, Inc. or will provide
 assistance to any competitor of Gaussian, Inc.  The licensee
 of this program is prohibited from giving any competitor of
 Gaussian, Inc. access to this program.  By using this program,
 the user acknowledges that Gaussian, Inc. is engaged in the
 business of creating and licensing software in the field of
 computational chemistry and represents and warrants to the
 licensee that it is not a competitor of Gaussian, Inc. and that
 it will not use this program in any manner prohibited above.
 ---------------------------------------------------------------
  

 Cite this work as:
 Gaussian 16, Revision A.03,
 M. J. Frisch, G. W. Trucks, H. B. Schlegel, G. E. Scuseria, 
 M. A. Robb, J. R. Cheeseman, G. Scalmani, V. Barone, 
 G. A. Petersson, H. Nakatsuji, X. Li, M. Caricato, A. V. Marenich, 
 J. Bloino, B. G. Janesko, R. Gomperts, B. Mennucci, H. P. Hratchian, 
 J. V. Ortiz, A. F. Izmaylov, J. L. Sonnenberg, D. Williams-Young, 
 F. Ding, F. Lipparini, F. Egidi, J. Goings, B. Peng, A. Petrone, 
 T. Henderson, D. Ranasinghe, V. G. Zakrzewski, J. Gao, N. Rega, 
 G. Zheng, W. Liang, M. Hada, M. Ehara, K. Toyota, R. Fukuda, 
 J. Hasegawa, M. Ishida, T. Nakajima, Y. Honda, O. Kitao, H. Nakai, 
 T. Vreven, K. Throssell, J. A. Montgomery, Jr., J. E. Peralta, 
 F. Ogliaro, M. J. Bearpark, J. J. Heyd, E. N. Brothers, K. N. Kudin, 
 V. N. Staroverov, T. A. Keith, R. Kobayashi, J. Normand, 
 K. Raghavachari, A. P. Rendell, J. C. Burant, S. S. Iyengar, 
 J. Tomasi, M. Cossi, J. M. Millam, M. Klene, C. Adamo, R. Cammi, 
 J. W. Ochterski, R. L. Martin, K. Morokuma, O. Farkas, 
 J. B. Foresman, and D. J. Fox, Gaussian, Inc., Wallingford CT, 2016.
 
 ******************************************
 Gaussian 16:  EM64L-G16RevA.03 25-Dec-2016
                24-Jul-2020 
 ******************************************
 %mem=30GB
 %nproc=8
 Will use up to    8 processors via shared memory.
 ---------------------------------------------------------------
 #P uLC-wPBE/cc-pVDZ iop(3/107=0256300000, 3/108=0256300000) opt
 ---------------------------------------------------------------
 1/18=20,19=15,26=3,38=1/1,3;
 2/9=110,12=2,17=6,18=5,40=1/2;
 3/5=16,11=2,25=1,30=1,71=1,74=-41,107=256300000,108=256300000,116=2/1,2,3;
 4//1;
 5/5=2,38=5/2;
 6/7=2,8=2,9=2,10=2,28=1/1;
 7//1,2,3,16;
 1/18=20,19=15,26=3/3(2);
 2/9=110/2;
 99//99;
 2/9=110/2;
 3/5=16,11=2,25=1,30=1,71=1,74=-41,107=256300000,108=256300000,116=2/1,2,3;
 4/5=5,16=3,69=1/1;
 5/5=2,38=5/2;
 7//1,2,3,16;
 1/18=20,19=15,26=3/3(-5);
 2/9=110/2;
 6/7=2,8=2,9=2,10=2,19=2,28=1/1;
 99/9=1/99;
 Leave Link    1 at Fri Jul 24 12:42:27 2020, MaxMem=  4026531840 cpu:               1.3 elap:               0.2
 (Enter /opt/ohpc/pub/libs/gaussian/g16-A.03/sandybridge/g16/l101.exe)
 -----------------
 H23 C63 S7 N7 F14
 -----------------
 Symbolic Z-matrix:
 Charge =  0 Multiplicity = 1
 C                    -24.44538   5.83781  -0.0734 
 C                    -23.39996   5.56279  -0.91127 
 N                    -22.64802   4.4462   -0.80274 
 C                    -22.90483   3.60698   0.24334 
 C                    -23.90917   3.81911   1.10501 
 F                    -24.12505   2.99495   2.12417 
 C                    -24.77069   5.015     0.98222 
 C                    -22.05636   2.40569   0.24035 
 C                    -22.42804   1.15863   0.57717 
 F                    -23.64866   0.71596   0.87334 
 C                    -21.28672   0.21824   0.51557 
 C                    -20.09404   0.92372   0.19907 
 S                    -20.35195   2.57255  -0.1299 
 C                    -18.77923   0.26644  -0.00189 
 C                    -17.63599   0.94723   0.36578 
 N                    -16.3119   0.39741   0.31964 
 C                    -16.29595  -0.84102  -0.16339 
 C                    -17.40351  -1.56251  -0.5403 
 F                    -17.22297  -2.83083  -1.09803 
 C                    -18.59485  -1.0254   -0.42399 
 C                    -14.89516  -1.43746  -0.2695 
 C                    -14.42016  -2.61688   0.04143 
 F                    -15.19334  -3.62465   0.51575 
 C                    -13.0373  -2.82942  -0.2092 
 C                    -12.44198  -1.74983  -0.61709 
 S                    -13.55031  -0.45905  -0.76925 
 C                    -11.04299  -1.54936  -0.98291 
 C                    -10.04656  -2.43555  -0.54202 
 N                    -8.70085  -2.31765  -0.91861 
 C                    -8.31455  -1.23298  -1.56935 
 C                    -9.1556   -0.28243  -2.0624 
 F                    -8.74137   0.78189  -2.73405 
 C                    -10.58667  -0.42526  -1.78041 
 C                    -6.90934  -1.22571  -1.91612 
 C                    -6.1468   -0.67769  -2.9839 
 F                    -6.81681  -0.0941   -4.01751 
 C                    -4.75498  -0.86663  -2.87926 
 C                    -4.43911  -1.4739   -1.71462 
 S                    -5.71759  -1.83588  -0.77223 
 C                    -3.04204  -1.72742  -1.20226 
 C                    -2.11731  -0.78342  -0.95763 
 N                    -0.88003  -0.94816  -0.5248 
 C                    -0.5184   -2.22281  -0.17191 
 C                    -1.4025   -3.35605  -0.35718 
 F                    -1.09148  -4.60433  -0.05363 
 C                    -2.71073  -3.06868  -0.89455 
 C                     0.76058  -2.41533   0.57471 
 C                     1.00084  -3.24538   1.63708 
 F                     0.13023  -3.94806   2.23773 
 C                     2.35818  -3.11858   2.12011 
 C                     3.10285  -2.20204   1.38054 
 S                     2.15818  -1.53918   0.08349 
 C                     4.46666  -1.7592    1.60033 
 C                     4.97558  -0.56956   1.12203 
 N                     6.27398  -0.06693   1.32935 
 C                     7.11578  -0.91224   1.99011 
 C                     6.66219  -2.10555   2.49149 
 F                     7.49816  -2.97718   3.19509 
 C                     5.3724   -2.61111   2.24514 
 C                     8.46029  -0.39169   2.30886 
 C                     9.08362  -0.27922   3.52976 
 F                     8.43214  -0.67453   4.69212 
 C                     10.31737   0.21252   3.47628 
 C                     10.75444   0.47289   2.12221 
 S                     9.5007    0.10063   1.06815 
 C                     12.06941   0.9148    1.71582 
 C                     12.72899   0.36233   0.65605 
 N                     13.96682   0.77234   0.15797 
 C                     14.5518   1.71822   0.8109 
 C                     13.9984   2.37617   1.91287 
 F                     14.61083   3.34789   2.62847 
 C                     12.69958   1.949     2.3138 
 C                     15.9084   2.07487   0.43117 
 C                     16.43532   3.33841   0.29367 
 F                     15.819    4.52543   0.56085 
 C                     17.77989   3.30306  -0.1658 
 C                     18.29106   2.06844  -0.35816 
 S                     17.05214   0.8537   -0.08552 
 C                     19.58307   1.60158  -0.77362 
 C                     20.71463   2.19386  -0.18314 
 N                     22.01609   1.83027  -0.5694 
 C                     22.18488   0.81211  -1.43184 
 C                     21.15798   0.14363  -2.02761 
 F                     21.27734  -0.80466  -2.92032 
 C                     19.79793   0.56336  -1.70349 
 C                     23.56486   0.57892  -1.73374 
 C                     24.60125   1.45278  -1.9712 
 F                     24.46523   2.78951  -1.93263 
 C                     25.94758   0.85024  -2.15248 
 C                     25.785   -0.57521  -2.11732 
 S                     24.2261  -1.0712   -1.72946 
 H                    -25.13086   6.74874  -0.18517 
 H                    -23.18429   6.24463  -1.72224 
 H                    -25.56947   5.19348   1.68283 
 H                    -21.41093  -0.78473   0.74992 
 H                    -17.58973   1.99709   0.81751 
 H                    -19.43837  -1.6055   -0.77223 
 H                    -12.56068  -3.84729   0.00777 
 H                    -10.31574  -3.33447   0.03506 
 H                    -11.23191   0.40421  -2.1191 
 H                    -4.11554  -0.50378  -3.66797 
 H                    -2.37943   0.26947  -1.18439 
 H                    -3.29031  -3.9031   -1.08986 
 H                     2.75444  -3.62476   2.99114 
 H                     4.42456   0.13287   0.55282 
 H                     5.07326  -3.58776   2.66822 
 H                     10.97625   0.35257   4.34732 
 H                     12.28305  -0.43488   0.08802 
 H                     12.22274   2.50868   3.23879 
 H                     18.38394   4.19245  -0.29543 
 H                     20.70884   2.98679   0.48637 
 H                     19.03879   0.04651  -2.11842 
 H                     26.83545   1.4134   -2.34057 
 H                     26.62493  -1.30183  -2.21913 
 
 ITRead=  0  0  0  0  0  0  0  0  0  0  0  0  0  0  0  0  0  0  0  0
 ITRead=  0  0  0  0  0  0  0  0  0  0  0  0  0  0  0  0  0  0  0  0
 ITRead=  0  0  0  0  0  0  0  0  0  0  0  0  0  0  0  0  0  0  0  0
 ITRead=  0  0  0  0  0  0  0  0  0  0  0  0  0  0  0  0  0  0  0  0
 ITRead=  0  0  0  0  0  0  0  0  0  0  0  0  0  0  0  0  0  0  0  0
 ITRead=  0  0  0  0  0  0  0  0  0  0  0  0  0  0
 MicOpt= -1 -1 -1 -1 -1 -1 -1 -1 -1 -1 -1 -1 -1 -1 -1 -1 -1 -1 -1 -1
 MicOpt= -1 -1 -1 -1 -1 -1 -1 -1 -1 -1 -1 -1 -1 -1 -1 -1 -1 -1 -1 -1
 MicOpt= -1 -1 -1 -1 -1 -1 -1 -1 -1 -1 -1 -1 -1 -1 -1 -1 -1 -1 -1 -1
 MicOpt= -1 -1 -1 -1 -1 -1 -1 -1 -1 -1 -1 -1 -1 -1 -1 -1 -1 -1 -1 -1
 MicOpt= -1 -1 -1 -1 -1 -1 -1 -1 -1 -1 -1 -1 -1 -1 -1 -1 -1 -1 -1 -1
 MicOpt= -1 -1 -1 -1 -1 -1 -1 -1 -1 -1 -1 -1 -1 -1
 NAtoms=    114 NQM=      114 NQMF=       0 NMMI=      0 NMMIF=      0
                NMic=       0 NMicF=      0.
                    Isotopes and Nuclear Properties:
 (Nuclear quadrupole moments (NQMom) in fm**2, nuclear magnetic moments (NMagM)
  in nuclear magnetons)

  Atom         1           2           3           4           5           6           7           8           9          10
 IAtWgt=          12          12          14          12          12          19          12          12          12          19
 AtmWgt=  12.0000000  12.0000000  14.0030740  12.0000000  12.0000000  18.9984033  12.0000000  12.0000000  12.0000000  18.9984033
 NucSpn=           0           0           2           0           0           1           0           0           0           1
 AtZEff=  -0.0000000  -0.0000000  -0.0000000  -0.0000000  -0.0000000  -0.0000000  -0.0000000  -0.0000000  -0.0000000  -0.0000000
 NQMom=    0.0000000   0.0000000   2.0440000   0.0000000   0.0000000   0.0000000   0.0000000   0.0000000   0.0000000   0.0000000
 NMagM=    0.0000000   0.0000000   0.4037610   0.0000000   0.0000000   2.6288670   0.0000000   0.0000000   0.0000000   2.6288670
 AtZNuc=   6.0000000   6.0000000   7.0000000   6.0000000   6.0000000   9.0000000   6.0000000   6.0000000   6.0000000   9.0000000

  Atom        11          12          13          14          15          16          17          18          19          20
 IAtWgt=          12          12          32          12          12          14          12          12          19          12
 AtmWgt=  12.0000000  12.0000000  31.9720718  12.0000000  12.0000000  14.0030740  12.0000000  12.0000000  18.9984033  12.0000000
 NucSpn=           0           0           0           0           0           2           0           0           1           0
 AtZEff=  -0.0000000  -0.0000000  -0.0000000  -0.0000000  -0.0000000  -0.0000000  -0.0000000  -0.0000000  -0.0000000  -0.0000000
 NQMom=    0.0000000   0.0000000   0.0000000   0.0000000   0.0000000   2.0440000   0.0000000   0.0000000   0.0000000   0.0000000
 NMagM=    0.0000000   0.0000000   0.0000000   0.0000000   0.0000000   0.4037610   0.0000000   0.0000000   2.6288670   0.0000000
 AtZNuc=   6.0000000   6.0000000  16.0000000   6.0000000   6.0000000   7.0000000   6.0000000   6.0000000   9.0000000   6.0000000

  Atom        21          22          23          24          25          26          27          28          29          30
 IAtWgt=          12          12          19          12          12          32          12          12          14          12
 AtmWgt=  12.0000000  12.0000000  18.9984033  12.0000000  12.0000000  31.9720718  12.0000000  12.0000000  14.0030740  12.0000000
 NucSpn=           0           0           1           0           0           0           0           0           2           0
 AtZEff=  -0.0000000  -0.0000000  -0.0000000  -0.0000000  -0.0000000  -0.0000000  -0.0000000  -0.0000000  -0.0000000  -0.0000000
 NQMom=    0.0000000   0.0000000   0.0000000   0.0000000   0.0000000   0.0000000   0.0000000   0.0000000   2.0440000   0.0000000
 NMagM=    0.0000000   0.0000000   2.6288670   0.0000000   0.0000000   0.0000000   0.0000000   0.0000000   0.4037610   0.0000000
 AtZNuc=   6.0000000   6.0000000   9.0000000   6.0000000   6.0000000  16.0000000   6.0000000   6.0000000   7.0000000   6.0000000

  Atom        31          32          33          34          35          36          37          38          39          40
 IAtWgt=          12          19          12          12          12          19          12          12          32          12
 AtmWgt=  12.0000000  18.9984033  12.0000000  12.0000000  12.0000000  18.9984033  12.0000000  12.0000000  31.9720718  12.0000000
 NucSpn=           0           1           0           0           0           1           0           0           0           0
 AtZEff=  -0.0000000  -0.0000000  -0.0000000  -0.0000000  -0.0000000  -0.0000000  -0.0000000  -0.0000000  -0.0000000  -0.0000000
 NQMom=    0.0000000   0.0000000   0.0000000   0.0000000   0.0000000   0.0000000   0.0000000   0.0000000   0.0000000   0.0000000
 NMagM=    0.0000000   2.6288670   0.0000000   0.0000000   0.0000000   2.6288670   0.0000000   0.0000000   0.0000000   0.0000000
 AtZNuc=   6.0000000   9.0000000   6.0000000   6.0000000   6.0000000   9.0000000   6.0000000   6.0000000  16.0000000   6.0000000

  Atom        41          42          43          44          45          46          47          48          49          50
 IAtWgt=          12          14          12          12          19          12          12          12          19          12
 AtmWgt=  12.0000000  14.0030740  12.0000000  12.0000000  18.9984033  12.0000000  12.0000000  12.0000000  18.9984033  12.0000000
 NucSpn=           0           2           0           0           1           0           0           0           1           0
 AtZEff=  -0.0000000  -0.0000000  -0.0000000  -0.0000000  -0.0000000  -0.0000000  -0.0000000  -0.0000000  -0.0000000  -0.0000000
 NQMom=    0.0000000   2.0440000   0.0000000   0.0000000   0.0000000   0.0000000   0.0000000   0.0000000   0.0000000   0.0000000
 NMagM=    0.0000000   0.4037610   0.0000000   0.0000000   2.6288670   0.0000000   0.0000000   0.0000000   2.6288670   0.0000000
 AtZNuc=   6.0000000   7.0000000   6.0000000   6.0000000   9.0000000   6.0000000   6.0000000   6.0000000   9.0000000   6.0000000

  Atom        51          52          53          54          55          56          57          58          59          60
 IAtWgt=          12          32          12          12          14          12          12          19          12          12
 AtmWgt=  12.0000000  31.9720718  12.0000000  12.0000000  14.0030740  12.0000000  12.0000000  18.9984033  12.0000000  12.0000000
 NucSpn=           0           0           0           0           2           0           0           1           0           0
 AtZEff=  -0.0000000  -0.0000000  -0.0000000  -0.0000000  -0.0000000  -0.0000000  -0.0000000  -0.0000000  -0.0000000  -0.0000000
 NQMom=    0.0000000   0.0000000   0.0000000   0.0000000   2.0440000   0.0000000   0.0000000   0.0000000   0.0000000   0.0000000
 NMagM=    0.0000000   0.0000000   0.0000000   0.0000000   0.4037610   0.0000000   0.0000000   2.6288670   0.0000000   0.0000000
 AtZNuc=   6.0000000  16.0000000   6.0000000   6.0000000   7.0000000   6.0000000   6.0000000   9.0000000   6.0000000   6.0000000

  Atom        61          62          63          64          65          66          67          68          69          70
 IAtWgt=          12          19          12          12          32          12          12          14          12          12
 AtmWgt=  12.0000000  18.9984033  12.0000000  12.0000000  31.9720718  12.0000000  12.0000000  14.0030740  12.0000000  12.0000000
 NucSpn=           0           1           0           0           0           0           0           2           0           0
 AtZEff=  -0.0000000  -0.0000000  -0.0000000  -0.0000000  -0.0000000  -0.0000000  -0.0000000  -0.0000000  -0.0000000  -0.0000000
 NQMom=    0.0000000   0.0000000   0.0000000   0.0000000   0.0000000   0.0000000   0.0000000   2.0440000   0.0000000   0.0000000
 NMagM=    0.0000000   2.6288670   0.0000000   0.0000000   0.0000000   0.0000000   0.0000000   0.4037610   0.0000000   0.0000000
 AtZNuc=   6.0000000   9.0000000   6.0000000   6.0000000  16.0000000   6.0000000   6.0000000   7.0000000   6.0000000   6.0000000

  Atom        71          72          73          74          75          76          77          78          79          80
 IAtWgt=          19          12          12          12          19          12          12          32          12          12
 AtmWgt=  18.9984033  12.0000000  12.0000000  12.0000000  18.9984033  12.0000000  12.0000000  31.9720718  12.0000000  12.0000000
 NucSpn=           1           0           0           0           1           0           0           0           0           0
 AtZEff=  -0.0000000  -0.0000000  -0.0000000  -0.0000000  -0.0000000  -0.0000000  -0.0000000  -0.0000000  -0.0000000  -0.0000000
 NQMom=    0.0000000   0.0000000   0.0000000   0.0000000   0.0000000   0.0000000   0.0000000   0.0000000   0.0000000   0.0000000
 NMagM=    2.6288670   0.0000000   0.0000000   0.0000000   2.6288670   0.0000000   0.0000000   0.0000000   0.0000000   0.0000000
 AtZNuc=   9.0000000   6.0000000   6.0000000   6.0000000   9.0000000   6.0000000   6.0000000  16.0000000   6.0000000   6.0000000

  Atom        81          82          83          84          85          86          87          88          89          90
 IAtWgt=          14          12          12          19          12          12          12          19          12          12
 AtmWgt=  14.0030740  12.0000000  12.0000000  18.9984033  12.0000000  12.0000000  12.0000000  18.9984033  12.0000000  12.0000000
 NucSpn=           2           0           0           1           0           0           0           1           0           0
 AtZEff=  -0.0000000  -0.0000000  -0.0000000  -0.0000000  -0.0000000  -0.0000000  -0.0000000  -0.0000000  -0.0000000  -0.0000000
 NQMom=    2.0440000   0.0000000   0.0000000   0.0000000   0.0000000   0.0000000   0.0000000   0.0000000   0.0000000   0.0000000
 NMagM=    0.4037610   0.0000000   0.0000000   2.6288670   0.0000000   0.0000000   0.0000000   2.6288670   0.0000000   0.0000000
 AtZNuc=   7.0000000   6.0000000   6.0000000   9.0000000   6.0000000   6.0000000   6.0000000   9.0000000   6.0000000   6.0000000

  Atom        91          92          93          94          95          96          97          98          99         100
 IAtWgt=          32           1           1           1           1           1           1           1           1           1
 AtmWgt=  31.9720718   1.0078250   1.0078250   1.0078250   1.0078250   1.0078250   1.0078250   1.0078250   1.0078250   1.0078250
 NucSpn=           0           1           1           1           1           1           1           1           1           1
 AtZEff=  -0.0000000  -0.0000000  -0.0000000  -0.0000000  -0.0000000  -0.0000000  -0.0000000  -0.0000000  -0.0000000  -0.0000000
 NQMom=    0.0000000   0.0000000   0.0000000   0.0000000   0.0000000   0.0000000   0.0000000   0.0000000   0.0000000   0.0000000
 NMagM=    0.0000000   2.7928460   2.7928460   2.7928460   2.7928460   2.7928460   2.7928460   2.7928460   2.7928460   2.7928460
 AtZNuc=  16.0000000   1.0000000   1.0000000   1.0000000   1.0000000   1.0000000   1.0000000   1.0000000   1.0000000   1.0000000

  Atom       101         102         103         104         105         106         107         108         109         110
 IAtWgt=           1           1           1           1           1           1           1           1           1           1
 AtmWgt=   1.0078250   1.0078250   1.0078250   1.0078250   1.0078250   1.0078250   1.0078250   1.0078250   1.0078250   1.0078250
 NucSpn=           1           1           1           1           1           1           1           1           1           1
 AtZEff=  -0.0000000  -0.0000000  -0.0000000  -0.0000000  -0.0000000  -0.0000000  -0.0000000  -0.0000000  -0.0000000  -0.0000000
 NQMom=    0.0000000   0.0000000   0.0000000   0.0000000   0.0000000   0.0000000   0.0000000   0.0000000   0.0000000   0.0000000
 NMagM=    2.7928460   2.7928460   2.7928460   2.7928460   2.7928460   2.7928460   2.7928460   2.7928460   2.7928460   2.7928460
 AtZNuc=   1.0000000   1.0000000   1.0000000   1.0000000   1.0000000   1.0000000   1.0000000   1.0000000   1.0000000   1.0000000

  Atom       111         112         113         114
 IAtWgt=           1           1           1           1
 AtmWgt=   1.0078250   1.0078250   1.0078250   1.0078250
 NucSpn=           1           1           1           1
 AtZEff=  -0.0000000  -0.0000000  -0.0000000  -0.0000000
 NQMom=    0.0000000   0.0000000   0.0000000   0.0000000
 NMagM=    2.7928460   2.7928460   2.7928460   2.7928460
 AtZNuc=   1.0000000   1.0000000   1.0000000   1.0000000
 Leave Link  101 at Fri Jul 24 12:42:28 2020, MaxMem=  4026531840 cpu:               3.1 elap:               0.4
 (Enter /opt/ohpc/pub/libs/gaussian/g16-A.03/sandybridge/g16/l103.exe)

 GradGradGradGradGradGradGradGradGradGradGradGradGradGradGradGradGradGrad
 Berny optimization.
 Initialization pass.
                           ----------------------------
                           !    Initial Parameters    !
                           ! (Angstroms and Degrees)  !
 --------------------------                            --------------------------
 ! Name  Definition              Value          Derivative Info.                !
 --------------------------------------------------------------------------------
 ! R1    R(1,2)                  1.3677         estimate D2E/DX2                !
 ! R2    R(1,7)                  1.3774         estimate D2E/DX2                !
 ! R3    R(1,92)                 1.1455         estimate D2E/DX2                !
 ! R4    R(2,3)                  1.3505         estimate D2E/DX2                !
 ! R5    R(2,93)                 1.0812         estimate D2E/DX2                !
 ! R6    R(3,4)                  1.3655         estimate D2E/DX2                !
 ! R7    R(4,5)                  1.3402         estimate D2E/DX2                !
 ! R8    R(4,8)                  1.4707         estimate D2E/DX2                !
 ! R9    R(5,6)                  1.3284         estimate D2E/DX2                !
 ! R10   R(5,7)                  1.479          estimate D2E/DX2                !
 ! R11   R(7,94)                 1.0774         estimate D2E/DX2                !
 ! R12   R(8,9)                  1.3442         estimate D2E/DX2                !
 ! R13   R(8,13)                 1.7521         estimate D2E/DX2                !
 ! R14   R(9,10)                 1.3318         estimate D2E/DX2                !
 ! R15   R(9,11)                 1.4801         estimate D2E/DX2                !
 ! R16   R(11,12)                1.4214         estimate D2E/DX2                !
 ! R17   R(11,95)                1.0374         estimate D2E/DX2                !
 ! R18   R(12,13)                1.701          estimate D2E/DX2                !
 ! R19   R(12,14)                1.4836         estimate D2E/DX2                !
 ! R20   R(14,15)                1.3805         estimate D2E/DX2                !
 ! R21   R(14,20)                1.3715         estimate D2E/DX2                !
 ! R22   R(15,16)                1.4345         estimate D2E/DX2                !
 ! R23   R(15,96)                1.1439         estimate D2E/DX2                !
 ! R24   R(16,17)                1.3294         estimate D2E/DX2                !
 ! R25   R(17,18)                1.3745         estimate D2E/DX2                !
 ! R26   R(17,21)                1.5262         estimate D2E/DX2                !
 ! R27   R(18,19)                1.3972         estimate D2E/DX2                !
 ! R28   R(18,20)                1.312          estimate D2E/DX2                !
 ! R29   R(20,97)                1.0814         estimate D2E/DX2                !
 ! R30   R(21,22)                1.3089         estimate D2E/DX2                !
 ! R31   R(21,26)                1.7366         estimate D2E/DX2                !
 ! R32   R(22,23)                1.3559         estimate D2E/DX2                !
 ! R33   R(22,24)                1.4214         estimate D2E/DX2                !
 ! R34   R(24,25)                1.2986         estimate D2E/DX2                !
 ! R35   R(24,98)                1.1447         estimate D2E/DX2                !
 ! R36   R(25,26)                1.7081         estimate D2E/DX2                !
 ! R37   R(25,27)                1.4599         estimate D2E/DX2                !
 ! R38   R(27,28)                1.4045         estimate D2E/DX2                !
 ! R39   R(27,33)                1.4518         estimate D2E/DX2                !
 ! R40   R(28,29)                1.4024         estimate D2E/DX2                !
 ! R41   R(28,99)                1.1016         estimate D2E/DX2                !
 ! R42   R(29,30)                1.3226         estimate D2E/DX2                !
 ! R43   R(30,31)                1.3616         estimate D2E/DX2                !
 ! R44   R(30,34)                1.4474         estimate D2E/DX2                !
 ! R45   R(31,32)                1.3249         estimate D2E/DX2                !
 ! R46   R(31,33)                1.4656         estimate D2E/DX2                !
 ! R47   R(33,100)               1.1041         estimate D2E/DX2                !
 ! R48   R(34,35)                1.4219         estimate D2E/DX2                !
 ! R49   R(34,39)                1.761          estimate D2E/DX2                !
 ! R50   R(35,36)                1.363          estimate D2E/DX2                !
 ! R51   R(35,37)                1.4085         estimate D2E/DX2                !
 ! R52   R(37,38)                1.3509         estimate D2E/DX2                !
 ! R53   R(37,101)               1.0782         estimate D2E/DX2                !
 ! R54   R(38,39)                1.629          estimate D2E/DX2                !
 ! R55   R(38,40)                1.5095         estimate D2E/DX2                !
 ! R56   R(40,41)                1.3439         estimate D2E/DX2                !
 ! R57   R(40,46)                1.4154         estimate D2E/DX2                !
 ! R58   R(41,42)                1.3211         estimate D2E/DX2                !
 ! R59   R(41,102)               1.1085         estimate D2E/DX2                !
 ! R60   R(42,43)                1.3711         estimate D2E/DX2                !
 ! R61   R(43,44)                1.4492         estimate D2E/DX2                !
 ! R62   R(43,47)                1.4934         estimate D2E/DX2                !
 ! R63   R(44,45)                1.3218         estimate D2E/DX2                !
 ! R64   R(44,46)                1.4432         estimate D2E/DX2                !
 ! R65   R(46,103)               1.0346         estimate D2E/DX2                !
 ! R66   R(47,48)                1.3694         estimate D2E/DX2                !
 ! R67   R(47,52)                1.7211         estimate D2E/DX2                !
 ! R68   R(48,49)                1.2699         estimate D2E/DX2                !
 ! R69   R(48,50)                1.4463         estimate D2E/DX2                !
 ! R70   R(50,51)                1.3934         estimate D2E/DX2                !
 ! R71   R(50,104)               1.0826         estimate D2E/DX2                !
 ! R72   R(51,52)                1.7361         estimate D2E/DX2                !
 ! R73   R(51,53)                1.4506         estimate D2E/DX2                !
 ! R74   R(53,54)                1.3795         estimate D2E/DX2                !
 ! R75   R(53,59)                1.4007         estimate D2E/DX2                !
 ! R76   R(54,55)                1.4076         estimate D2E/DX2                !
 ! R77   R(54,105)               1.0588         estimate D2E/DX2                !
 ! R78   R(55,56)                1.3637         estimate D2E/DX2                !
 ! R79   R(56,57)                1.3715         estimate D2E/DX2                !
 ! R80   R(56,60)                1.4766         estimate D2E/DX2                !
 ! R81   R(57,58)                1.3977         estimate D2E/DX2                !
 ! R82   R(57,59)                1.4071         estimate D2E/DX2                !
 ! R83   R(59,106)               1.1056         estimate D2E/DX2                !
 ! R84   R(60,61)                1.3754         estimate D2E/DX2                !
 ! R85   R(60,65)                1.6924         estimate D2E/DX2                !
 ! R86   R(61,62)                1.3899         estimate D2E/DX2                !
 ! R87   R(61,63)                1.3292         estimate D2E/DX2                !
 ! R88   R(63,64)                1.4465         estimate D2E/DX2                !
 ! R89   R(63,107)               1.1011         estimate D2E/DX2                !
 ! R90   R(64,65)                1.6797         estimate D2E/DX2                !
 ! R91   R(64,66)                1.4455         estimate D2E/DX2                !
 ! R92   R(66,67)                1.3651         estimate D2E/DX2                !
 ! R93   R(66,72)                1.3507         estimate D2E/DX2                !
 ! R94   R(67,68)                1.3959         estimate D2E/DX2                !
 ! R95   R(67,108)               1.0757         estimate D2E/DX2                !
 ! R96   R(68,69)                1.2896         estimate D2E/DX2                !
 ! R97   R(69,70)                1.3977         estimate D2E/DX2                !
 ! R98   R(69,73)                1.4532         estimate D2E/DX2                !
 ! R99   R(70,71)                1.3533         estimate D2E/DX2                !
 ! R100  R(70,72)                1.4248         estimate D2E/DX2                !
 ! R101  R(72,109)               1.1816         estimate D2E/DX2                !
 ! R102  R(73,74)                1.3759         estimate D2E/DX2                !
 ! R103  R(73,78)                1.7511         estimate D2E/DX2                !
 ! R104  R(74,75)                1.3639         estimate D2E/DX2                !
 ! R105  R(74,76)                1.4213         estimate D2E/DX2                !
 ! R106  R(76,77)                1.35           estimate D2E/DX2                !
 ! R107  R(76,110)               1.0829         estimate D2E/DX2                !
 ! R108  R(77,78)                1.7564         estimate D2E/DX2                !
 ! R109  R(77,79)                1.4352         estimate D2E/DX2                !
 ! R110  R(79,80)                1.4071         estimate D2E/DX2                !
 ! R111  R(79,85)                1.4102         estimate D2E/DX2                !
 ! R112  R(80,81)                1.4054         estimate D2E/DX2                !
 ! R113  R(80,111)               1.0378         estimate D2E/DX2                !
 ! R114  R(81,82)                1.345          estimate D2E/DX2                !
 ! R115  R(82,83)                1.3625         estimate D2E/DX2                !
 ! R116  R(82,86)                1.4317         estimate D2E/DX2                !
 ! R117  R(83,84)                1.3078         estimate D2E/DX2                !
 ! R118  R(83,85)                1.4598         estimate D2E/DX2                !
 ! R119  R(85,112)               1.0078         estimate D2E/DX2                !
 ! R120  R(86,87)                1.3763         estimate D2E/DX2                !
 ! R121  R(86,91)                1.7777         estimate D2E/DX2                !
 ! R122  R(87,88)                1.3442         estimate D2E/DX2                !
 ! R123  R(87,89)                1.4861         estimate D2E/DX2                !
 ! R124  R(89,90)                1.4351         estimate D2E/DX2                !
 ! R125  R(89,113)               1.0681         estimate D2E/DX2                !
 ! R126  R(90,91)                1.6813         estimate D2E/DX2                !
 ! R127  R(90,114)               1.1153         estimate D2E/DX2                !
 ! A1    A(2,1,7)              122.0005         estimate D2E/DX2                !
 ! A2    A(2,1,92)             123.8858         estimate D2E/DX2                !
 ! A3    A(7,1,92)             114.1096         estimate D2E/DX2                !
 ! A4    A(1,2,3)              122.8606         estimate D2E/DX2                !
 ! A5    A(1,2,93)             119.0224         estimate D2E/DX2                !
 ! A6    A(3,2,93)             118.0718         estimate D2E/DX2                !
 ! A7    A(2,3,4)              117.709          estimate D2E/DX2                !
 ! A8    A(3,4,5)              122.4259         estimate D2E/DX2                !
 ! A9    A(3,4,8)              113.0761         estimate D2E/DX2                !
 ! A10   A(5,4,8)              124.2576         estimate D2E/DX2                !
 ! A11   A(4,5,6)              121.1222         estimate D2E/DX2                !
 ! A12   A(4,5,7)              120.7384         estimate D2E/DX2                !
 ! A13   A(6,5,7)              118.0803         estimate D2E/DX2                !
 ! A14   A(1,7,5)              114.1465         estimate D2E/DX2                !
 ! A15   A(1,7,94)             125.0668         estimate D2E/DX2                !
 ! A16   A(5,7,94)             120.7856         estimate D2E/DX2                !
 ! A17   A(4,8,9)              126.7107         estimate D2E/DX2                !
 ! A18   A(4,8,13)             118.9363         estimate D2E/DX2                !
 ! A19   A(9,8,13)             114.2231         estimate D2E/DX2                !
 ! A20   A(8,9,10)             128.137          estimate D2E/DX2                !
 ! A21   A(8,9,11)             111.4571         estimate D2E/DX2                !
 ! A22   A(10,9,11)            120.3199         estimate D2E/DX2                !
 ! A23   A(9,11,12)            109.9346         estimate D2E/DX2                !
 ! A24   A(9,11,95)            120.8308         estimate D2E/DX2                !
 ! A25   A(12,11,95)           129.0947         estimate D2E/DX2                !
 ! A26   A(11,12,13)           113.3877         estimate D2E/DX2                !
 ! A27   A(11,12,14)           123.6342         estimate D2E/DX2                !
 ! A28   A(13,12,14)           122.5213         estimate D2E/DX2                !
 ! A29   A(8,13,12)             90.8201         estimate D2E/DX2                !
 ! A30   A(12,14,15)           118.6443         estimate D2E/DX2                !
 ! A31   A(12,14,20)           125.3186         estimate D2E/DX2                !
 ! A32   A(15,14,20)           115.7951         estimate D2E/DX2                !
 ! A33   A(14,15,16)           124.5311         estimate D2E/DX2                !
 ! A34   A(14,15,96)           126.2508         estimate D2E/DX2                !
 ! A35   A(16,15,96)           109.0966         estimate D2E/DX2                !
 ! A36   A(15,16,17)           112.3228         estimate D2E/DX2                !
 ! A37   A(16,17,18)           125.3773         estimate D2E/DX2                !
 ! A38   A(16,17,21)           113.599          estimate D2E/DX2                !
 ! A39   A(18,17,21)           121.023          estimate D2E/DX2                !
 ! A40   A(17,18,19)           118.8034         estimate D2E/DX2                !
 ! A41   A(17,18,20)           119.5042         estimate D2E/DX2                !
 ! A42   A(19,18,20)           121.6233         estimate D2E/DX2                !
 ! A43   A(14,20,18)           122.3417         estimate D2E/DX2                !
 ! A44   A(14,20,97)           119.9695         estimate D2E/DX2                !
 ! A45   A(18,20,97)           117.3979         estimate D2E/DX2                !
 ! A46   A(17,21,22)           131.9661         estimate D2E/DX2                !
 ! A47   A(17,21,26)           120.7061         estimate D2E/DX2                !
 ! A48   A(22,21,26)           107.157          estimate D2E/DX2                !
 ! A49   A(21,22,23)           123.0847         estimate D2E/DX2                !
 ! A50   A(21,22,24)           116.4814         estimate D2E/DX2                !
 ! A51   A(23,22,24)           120.3538         estimate D2E/DX2                !
 ! A52   A(22,24,25)           112.1538         estimate D2E/DX2                !
 ! A53   A(22,24,98)           120.3076         estimate D2E/DX2                !
 ! A54   A(25,24,98)           127.4386         estimate D2E/DX2                !
 ! A55   A(24,25,26)           111.0238         estimate D2E/DX2                !
 ! A56   A(24,25,27)           129.2131         estimate D2E/DX2                !
 ! A57   A(26,25,27)           119.7166         estimate D2E/DX2                !
 ! A58   A(21,26,25)            92.9293         estimate D2E/DX2                !
 ! A59   A(25,27,28)           120.9684         estimate D2E/DX2                !
 ! A60   A(25,27,33)           123.0364         estimate D2E/DX2                !
 ! A61   A(28,27,33)           115.9755         estimate D2E/DX2                !
 ! A62   A(27,28,29)           122.9184         estimate D2E/DX2                !
 ! A63   A(27,28,99)           120.3952         estimate D2E/DX2                !
 ! A64   A(29,28,99)           116.3442         estimate D2E/DX2                !
 ! A65   A(28,29,30)           118.7743         estimate D2E/DX2                !
 ! A66   A(29,30,31)           124.7696         estimate D2E/DX2                !
 ! A67   A(29,30,34)           113.9274         estimate D2E/DX2                !
 ! A68   A(31,30,34)           120.6251         estimate D2E/DX2                !
 ! A69   A(30,31,32)           123.4514         estimate D2E/DX2                !
 ! A70   A(30,31,33)           117.7388         estimate D2E/DX2                !
 ! A71   A(32,31,33)           118.7575         estimate D2E/DX2                !
 ! A72   A(27,33,31)           119.2125         estimate D2E/DX2                !
 ! A73   A(27,33,100)          124.5054         estimate D2E/DX2                !
 ! A74   A(31,33,100)          116.0028         estimate D2E/DX2                !
 ! A75   A(30,34,35)           134.6271         estimate D2E/DX2                !
 ! A76   A(30,34,39)           119.9774         estimate D2E/DX2                !
 ! A77   A(35,34,39)           104.9754         estimate D2E/DX2                !
 ! A78   A(34,35,36)           118.0891         estimate D2E/DX2                !
 ! A79   A(34,35,37)           114.9885         estimate D2E/DX2                !
 ! A80   A(36,35,37)           126.8356         estimate D2E/DX2                !
 ! A81   A(35,37,38)           110.8185         estimate D2E/DX2                !
 ! A82   A(35,37,101)          119.1135         estimate D2E/DX2                !
 ! A83   A(38,37,101)          130.033          estimate D2E/DX2                !
 ! A84   A(37,38,39)           114.5269         estimate D2E/DX2                !
 ! A85   A(37,38,40)           125.7697         estimate D2E/DX2                !
 ! A86   A(39,38,40)           119.5179         estimate D2E/DX2                !
 ! A87   A(34,39,38)            94.494          estimate D2E/DX2                !
 ! A88   A(38,40,41)           125.4961         estimate D2E/DX2                !
 ! A89   A(38,40,46)           116.7165         estimate D2E/DX2                !
 ! A90   A(41,40,46)           117.7094         estimate D2E/DX2                !
 ! A91   A(40,41,42)           128.0586         estimate D2E/DX2                !
 ! A92   A(40,41,102)          117.8562         estimate D2E/DX2                !
 ! A93   A(42,41,102)          114.0125         estimate D2E/DX2                !
 ! A94   A(41,42,43)           116.5672         estimate D2E/DX2                !
 ! A95   A(42,43,44)           122.2181         estimate D2E/DX2                !
 ! A96   A(42,43,47)           118.3189         estimate D2E/DX2                !
 ! A97   A(44,43,47)           119.0499         estimate D2E/DX2                !
 ! A98   A(43,44,45)           124.4429         estimate D2E/DX2                !
 ! A99   A(43,44,46)           116.4169         estimate D2E/DX2                !
 ! A100  A(45,44,46)           119.1347         estimate D2E/DX2                !
 ! A101  A(40,46,44)           118.8041         estimate D2E/DX2                !
 ! A102  A(40,46,103)          126.3072         estimate D2E/DX2                !
 ! A103  A(44,46,103)          114.6779         estimate D2E/DX2                !
 ! A104  A(43,47,48)           128.0417         estimate D2E/DX2                !
 ! A105  A(43,47,52)           119.1522         estimate D2E/DX2                !
 ! A106  A(48,47,52)           112.7985         estimate D2E/DX2                !
 ! A107  A(47,48,49)           125.596          estimate D2E/DX2                !
 ! A108  A(47,48,50)           111.7536         estimate D2E/DX2                !
 ! A109  A(49,48,50)           122.2741         estimate D2E/DX2                !
 ! A110  A(48,50,51)           112.4551         estimate D2E/DX2                !
 ! A111  A(48,50,104)          124.8382         estimate D2E/DX2                !
 ! A112  A(51,50,104)          122.615          estimate D2E/DX2                !
 ! A113  A(50,51,52)           110.9084         estimate D2E/DX2                !
 ! A114  A(50,51,53)           128.5225         estimate D2E/DX2                !
 ! A115  A(52,51,53)           120.5435         estimate D2E/DX2                !
 ! A116  A(47,52,51)            91.9638         estimate D2E/DX2                !
 ! A117  A(51,53,54)           123.8874         estimate D2E/DX2                !
 ! A118  A(51,53,59)           119.4731         estimate D2E/DX2                !
 ! A119  A(54,53,59)           116.4589         estimate D2E/DX2                !
 ! A120  A(53,54,55)           126.6666         estimate D2E/DX2                !
 ! A121  A(53,54,105)          124.5079         estimate D2E/DX2                !
 ! A122  A(55,54,105)          108.8034         estimate D2E/DX2                !
 ! A123  A(54,55,56)           114.7965         estimate D2E/DX2                !
 ! A124  A(55,56,57)           120.8156         estimate D2E/DX2                !
 ! A125  A(55,56,60)           116.6242         estimate D2E/DX2                !
 ! A126  A(57,56,60)           121.9349         estimate D2E/DX2                !
 ! A127  A(56,57,58)           121.9237         estimate D2E/DX2                !
 ! A128  A(56,57,59)           123.4881         estimate D2E/DX2                !
 ! A129  A(58,57,59)           114.3501         estimate D2E/DX2                !
 ! A130  A(53,59,57)           117.0531         estimate D2E/DX2                !
 ! A131  A(53,59,106)          122.5801         estimate D2E/DX2                !
 ! A132  A(57,59,106)          119.8956         estimate D2E/DX2                !
 ! A133  A(56,60,61)           129.2793         estimate D2E/DX2                !
 ! A134  A(56,60,65)           120.27           estimate D2E/DX2                !
 ! A135  A(61,60,65)           110.3867         estimate D2E/DX2                !
 ! A136  A(60,61,62)           120.4416         estimate D2E/DX2                !
 ! A137  A(60,61,63)           114.5309         estimate D2E/DX2                !
 ! A138  A(62,61,63)           125.0251         estimate D2E/DX2                !
 ! A139  A(61,63,64)           112.6261         estimate D2E/DX2                !
 ! A140  A(61,63,107)          124.7946         estimate D2E/DX2                !
 ! A141  A(64,63,107)          122.4663         estimate D2E/DX2                !
 ! A142  A(63,64,65)           108.7835         estimate D2E/DX2                !
 ! A143  A(63,64,66)           126.375          estimate D2E/DX2                !
 ! A144  A(65,64,66)           124.7723         estimate D2E/DX2                !
 ! A145  A(60,65,64)            93.6288         estimate D2E/DX2                !
 ! A146  A(64,66,67)           122.2813         estimate D2E/DX2                !
 ! A147  A(64,66,72)           122.2787         estimate D2E/DX2                !
 ! A148  A(67,66,72)           115.3519         estimate D2E/DX2                !
 ! A149  A(66,67,68)           125.9182         estimate D2E/DX2                !
 ! A150  A(66,67,108)          120.6379         estimate D2E/DX2                !
 ! A151  A(68,67,108)          113.3844         estimate D2E/DX2                !
 ! A152  A(67,68,69)           115.9141         estimate D2E/DX2                !
 ! A153  A(68,69,70)           124.3911         estimate D2E/DX2                !
 ! A154  A(68,69,73)           118.1094         estimate D2E/DX2                !
 ! A155  A(70,69,73)           117.3943         estimate D2E/DX2                !
 ! A156  A(69,70,71)           125.1521         estimate D2E/DX2                !
 ! A157  A(69,70,72)           116.2089         estimate D2E/DX2                !
 ! A158  A(71,70,72)           118.6202         estimate D2E/DX2                !
 ! A159  A(66,72,70)           122.0246         estimate D2E/DX2                !
 ! A160  A(66,72,109)          121.3975         estimate D2E/DX2                !
 ! A161  A(70,72,109)          116.4958         estimate D2E/DX2                !
 ! A162  A(69,73,74)           127.5179         estimate D2E/DX2                !
 ! A163  A(69,73,78)           121.0432         estimate D2E/DX2                !
 ! A164  A(74,73,78)           111.1499         estimate D2E/DX2                !
 ! A165  A(73,74,75)           127.345          estimate D2E/DX2                !
 ! A166  A(73,74,76)           111.8231         estimate D2E/DX2                !
 ! A167  A(75,74,76)           120.8261         estimate D2E/DX2                !
 ! A168  A(74,76,77)           115.2763         estimate D2E/DX2                !
 ! A169  A(74,76,110)          123.089          estimate D2E/DX2                !
 ! A170  A(77,76,110)          121.5221         estimate D2E/DX2                !
 ! A171  A(76,77,78)           110.0777         estimate D2E/DX2                !
 ! A172  A(76,77,79)           132.8106         estimate D2E/DX2                !
 ! A173  A(78,77,79)           117.0624         estimate D2E/DX2                !
 ! A174  A(73,78,77)            91.3871         estimate D2E/DX2                !
 ! A175  A(77,79,80)           117.7456         estimate D2E/DX2                !
 ! A176  A(77,79,85)           124.5769         estimate D2E/DX2                !
 ! A177  A(80,79,85)           117.6499         estimate D2E/DX2                !
 ! A178  A(79,80,81)           121.3642         estimate D2E/DX2                !
 ! A179  A(79,80,111)          126.0046         estimate D2E/DX2                !
 ! A180  A(81,80,111)          112.3419         estimate D2E/DX2                !
 ! A181  A(80,81,82)           119.2285         estimate D2E/DX2                !
 ! A182  A(81,82,83)           123.8639         estimate D2E/DX2                !
 ! A183  A(81,82,86)           112.301          estimate D2E/DX2                !
 ! A184  A(83,82,86)           123.6654         estimate D2E/DX2                !
 ! A185  A(82,83,84)           125.8345         estimate D2E/DX2                !
 ! A186  A(82,83,85)           117.6486         estimate D2E/DX2                !
 ! A187  A(84,83,85)           116.4276         estimate D2E/DX2                !
 ! A188  A(79,85,83)           120.0026         estimate D2E/DX2                !
 ! A189  A(79,85,112)          122.2958         estimate D2E/DX2                !
 ! A190  A(83,85,112)          117.5773         estimate D2E/DX2                !
 ! A191  A(82,86,87)           131.2075         estimate D2E/DX2                !
 ! A192  A(82,86,91)           120.6106         estimate D2E/DX2                !
 ! A193  A(87,86,91)           108.0406         estimate D2E/DX2                !
 ! A194  A(86,87,88)           123.3856         estimate D2E/DX2                !
 ! A195  A(86,87,89)           116.4763         estimate D2E/DX2                !
 ! A196  A(88,87,89)           119.8921         estimate D2E/DX2                !
 ! A197  A(87,89,90)           107.2828         estimate D2E/DX2                !
 ! A198  A(87,89,113)          124.1098         estimate D2E/DX2                !
 ! A199  A(90,89,113)          128.4763         estimate D2E/DX2                !
 ! A200  A(89,90,91)           113.811          estimate D2E/DX2                !
 ! A201  A(89,90,114)          124.026          estimate D2E/DX2                !
 ! A202  A(91,90,114)          121.8142         estimate D2E/DX2                !
 ! A203  A(86,91,90)            94.0426         estimate D2E/DX2                !
 ! D1    D(7,1,2,3)              2.7872         estimate D2E/DX2                !
 ! D2    D(7,1,2,93)          -179.7058         estimate D2E/DX2                !
 ! D3    D(92,1,2,3)          -176.4308         estimate D2E/DX2                !
 ! D4    D(92,1,2,93)            1.0761         estimate D2E/DX2                !
 ! D5    D(2,1,7,5)             -0.8803         estimate D2E/DX2                !
 ! D6    D(2,1,7,94)           178.7365         estimate D2E/DX2                !
 ! D7    D(92,1,7,5)           178.4086         estimate D2E/DX2                !
 ! D8    D(92,1,7,94)           -1.9747         estimate D2E/DX2                !
 ! D9    D(1,2,3,4)             -4.0631         estimate D2E/DX2                !
 ! D10   D(93,2,3,4)           178.4075         estimate D2E/DX2                !
 ! D11   D(2,3,4,5)              3.6643         estimate D2E/DX2                !
 ! D12   D(2,3,4,8)            178.2521         estimate D2E/DX2                !
 ! D13   D(3,4,5,6)           -179.1189         estimate D2E/DX2                !
 ! D14   D(3,4,5,7)             -1.9684         estimate D2E/DX2                !
 ! D15   D(8,4,5,6)              6.9075         estimate D2E/DX2                !
 ! D16   D(8,4,5,7)           -175.942          estimate D2E/DX2                !
 ! D17   D(3,4,8,9)           -141.8366         estimate D2E/DX2                !
 ! D18   D(3,4,8,13)            42.5626         estimate D2E/DX2                !
 ! D19   D(5,4,8,9)             32.6359         estimate D2E/DX2                !
 ! D20   D(5,4,8,13)          -142.9649         estimate D2E/DX2                !
 ! D21   D(4,5,7,1)              0.5082         estimate D2E/DX2                !
 ! D22   D(4,5,7,94)          -179.1267         estimate D2E/DX2                !
 ! D23   D(6,5,7,1)            177.7434         estimate D2E/DX2                !
 ! D24   D(6,5,7,94)            -1.8914         estimate D2E/DX2                !
 ! D25   D(4,8,9,10)             6.1843         estimate D2E/DX2                !
 ! D26   D(4,8,9,11)          -177.2258         estimate D2E/DX2                !
 ! D27   D(13,8,9,10)         -178.0371         estimate D2E/DX2                !
 ! D28   D(13,8,9,11)           -1.4471         estimate D2E/DX2                !
 ! D29   D(4,8,13,12)          175.1334         estimate D2E/DX2                !
 ! D30   D(9,8,13,12)           -1.0003         estimate D2E/DX2                !
 ! D31   D(8,9,11,12)            3.7854         estimate D2E/DX2                !
 ! D32   D(8,9,11,95)          179.8615         estimate D2E/DX2                !
 ! D33   D(10,9,11,12)        -179.3214         estimate D2E/DX2                !
 ! D34   D(10,9,11,95)          -3.2453         estimate D2E/DX2                !
 ! D35   D(9,11,12,13)          -4.595          estimate D2E/DX2                !
 ! D36   D(9,11,12,14)        -176.9995         estimate D2E/DX2                !
 ! D37   D(95,11,12,13)        179.7472         estimate D2E/DX2                !
 ! D38   D(95,11,12,14)          7.3427         estimate D2E/DX2                !
 ! D39   D(11,12,13,8)           3.2811         estimate D2E/DX2                !
 ! D40   D(14,12,13,8)         175.7817         estimate D2E/DX2                !
 ! D41   D(11,12,14,15)       -147.2954         estimate D2E/DX2                !
 ! D42   D(11,12,14,20)         26.7988         estimate D2E/DX2                !
 ! D43   D(13,12,14,15)         40.977          estimate D2E/DX2                !
 ! D44   D(13,12,14,20)       -144.9288         estimate D2E/DX2                !
 ! D45   D(12,14,15,16)        175.211          estimate D2E/DX2                !
 ! D46   D(12,14,15,96)         -0.3378         estimate D2E/DX2                !
 ! D47   D(20,14,15,16)          0.5614         estimate D2E/DX2                !
 ! D48   D(20,14,15,96)       -174.9874         estimate D2E/DX2                !
 ! D49   D(12,14,20,18)       -177.7114         estimate D2E/DX2                !
 ! D50   D(12,14,20,97)          8.6459         estimate D2E/DX2                !
 ! D51   D(15,14,20,18)         -3.4675         estimate D2E/DX2                !
 ! D52   D(15,14,20,97)       -177.1102         estimate D2E/DX2                !
 ! D53   D(14,15,16,17)          2.101          estimate D2E/DX2                !
 ! D54   D(96,15,16,17)        178.3034         estimate D2E/DX2                !
 ! D55   D(15,16,17,18)         -2.2329         estimate D2E/DX2                !
 ! D56   D(15,16,17,21)        178.0478         estimate D2E/DX2                !
 ! D57   D(16,17,18,19)        176.649          estimate D2E/DX2                !
 ! D58   D(16,17,18,20)         -0.3777         estimate D2E/DX2                !
 ! D59   D(21,17,18,19)         -3.6511         estimate D2E/DX2                !
 ! D60   D(21,17,18,20)        179.3222         estimate D2E/DX2                !
 ! D61   D(16,17,21,22)        135.9525         estimate D2E/DX2                !
 ! D62   D(16,17,21,26)        -38.6369         estimate D2E/DX2                !
 ! D63   D(18,17,21,22)        -43.7805         estimate D2E/DX2                !
 ! D64   D(18,17,21,26)        141.6301         estimate D2E/DX2                !
 ! D65   D(17,18,20,14)          3.4908         estimate D2E/DX2                !
 ! D66   D(17,18,20,97)        177.2883         estimate D2E/DX2                !
 ! D67   D(19,18,20,14)       -173.4494         estimate D2E/DX2                !
 ! D68   D(19,18,20,97)          0.3482         estimate D2E/DX2                !
 ! D69   D(17,21,22,23)          2.7391         estimate D2E/DX2                !
 ! D70   D(17,21,22,24)        179.4897         estimate D2E/DX2                !
 ! D71   D(26,21,22,23)        177.8718         estimate D2E/DX2                !
 ! D72   D(26,21,22,24)         -5.3776         estimate D2E/DX2                !
 ! D73   D(17,21,26,25)        179.1653         estimate D2E/DX2                !
 ! D74   D(22,21,26,25)          3.3732         estimate D2E/DX2                !
 ! D75   D(21,22,24,25)          5.2702         estimate D2E/DX2                !
 ! D76   D(21,22,24,98)       -178.1025         estimate D2E/DX2                !
 ! D77   D(23,22,24,25)       -177.8847         estimate D2E/DX2                !
 ! D78   D(23,22,24,98)         -1.2574         estimate D2E/DX2                !
 ! D79   D(22,24,25,26)         -2.2482         estimate D2E/DX2                !
 ! D80   D(22,24,25,27)       -179.7196         estimate D2E/DX2                !
 ! D81   D(98,24,25,26)       -178.5806         estimate D2E/DX2                !
 ! D82   D(98,24,25,27)          3.9479         estimate D2E/DX2                !
 ! D83   D(24,25,26,21)         -0.5758         estimate D2E/DX2                !
 ! D84   D(27,25,26,21)        177.1686         estimate D2E/DX2                !
 ! D85   D(24,25,27,28)        -20.2643         estimate D2E/DX2                !
 ! D86   D(24,25,27,33)        161.4148         estimate D2E/DX2                !
 ! D87   D(26,25,27,28)        162.4535         estimate D2E/DX2                !
 ! D88   D(26,25,27,33)        -15.8674         estimate D2E/DX2                !
 ! D89   D(25,27,28,29)        176.9788         estimate D2E/DX2                !
 ! D90   D(25,27,28,99)          3.9436         estimate D2E/DX2                !
 ! D91   D(33,27,28,29)         -4.587          estimate D2E/DX2                !
 ! D92   D(33,27,28,99)       -177.6222         estimate D2E/DX2                !
 ! D93   D(25,27,33,31)        178.0448         estimate D2E/DX2                !
 ! D94   D(25,27,33,100)         4.3683         estimate D2E/DX2                !
 ! D95   D(28,27,33,31)         -0.3537         estimate D2E/DX2                !
 ! D96   D(28,27,33,100)      -174.0302         estimate D2E/DX2                !
 ! D97   D(27,28,29,30)          9.2144         estimate D2E/DX2                !
 ! D98   D(99,28,29,30)       -177.4881         estimate D2E/DX2                !
 ! D99   D(28,29,30,31)         -8.9263         estimate D2E/DX2                !
 ! D100  D(28,29,30,34)       -179.4969         estimate D2E/DX2                !
 ! D101  D(29,30,31,32)       -178.6183         estimate D2E/DX2                !
 ! D102  D(29,30,31,33)          4.0515         estimate D2E/DX2                !
 ! D103  D(34,30,31,32)         -8.6402         estimate D2E/DX2                !
 ! D104  D(34,30,31,33)        174.0296         estimate D2E/DX2                !
 ! D105  D(29,30,34,35)        148.9405         estimate D2E/DX2                !
 ! D106  D(29,30,34,39)        -39.7496         estimate D2E/DX2                !
 ! D107  D(31,30,34,35)        -22.0619         estimate D2E/DX2                !
 ! D108  D(31,30,34,39)        149.2481         estimate D2E/DX2                !
 ! D109  D(30,31,33,27)          0.7855         estimate D2E/DX2                !
 ! D110  D(30,31,33,100)       174.9894         estimate D2E/DX2                !
 ! D111  D(32,31,33,27)       -176.6736         estimate D2E/DX2                !
 ! D112  D(32,31,33,100)        -2.4697         estimate D2E/DX2                !
 ! D113  D(30,34,35,36)         -6.2263         estimate D2E/DX2                !
 ! D114  D(30,34,35,37)        176.9297         estimate D2E/DX2                !
 ! D115  D(39,34,35,36)       -178.44           estimate D2E/DX2                !
 ! D116  D(39,34,35,37)          4.716          estimate D2E/DX2                !
 ! D117  D(30,34,39,38)       -177.2003         estimate D2E/DX2                !
 ! D118  D(35,34,39,38)         -3.5911         estimate D2E/DX2                !
 ! D119  D(34,35,37,38)         -3.7716         estimate D2E/DX2                !
 ! D120  D(34,35,37,101)       178.1674         estimate D2E/DX2                !
 ! D121  D(36,35,37,38)        179.7076         estimate D2E/DX2                !
 ! D122  D(36,35,37,101)         1.6465         estimate D2E/DX2                !
 ! D123  D(35,37,38,39)          0.7523         estimate D2E/DX2                !
 ! D124  D(35,37,38,40)       -174.2417         estimate D2E/DX2                !
 ! D125  D(101,37,38,39)       178.5397         estimate D2E/DX2                !
 ! D126  D(101,37,38,40)         3.5457         estimate D2E/DX2                !
 ! D127  D(37,38,39,34)          1.7663         estimate D2E/DX2                !
 ! D128  D(40,38,39,34)        177.0996         estimate D2E/DX2                !
 ! D129  D(37,38,40,41)         59.2912         estimate D2E/DX2                !
 ! D130  D(37,38,40,46)       -124.0061         estimate D2E/DX2                !
 ! D131  D(39,38,40,41)       -115.4746         estimate D2E/DX2                !
 ! D132  D(39,38,40,46)         61.228          estimate D2E/DX2                !
 ! D133  D(38,40,41,42)       -179.1788         estimate D2E/DX2                !
 ! D134  D(38,40,41,102)        -2.4851         estimate D2E/DX2                !
 ! D135  D(46,40,41,42)          4.1481         estimate D2E/DX2                !
 ! D136  D(46,40,41,102)      -179.1582         estimate D2E/DX2                !
 ! D137  D(38,40,46,44)       -177.861          estimate D2E/DX2                !
 ! D138  D(38,40,46,103)         7.7142         estimate D2E/DX2                !
 ! D139  D(41,40,46,44)         -0.893          estimate D2E/DX2                !
 ! D140  D(41,40,46,103)      -175.3179         estimate D2E/DX2                !
 ! D141  D(40,41,42,43)         -6.0018         estimate D2E/DX2                !
 ! D142  D(102,41,42,43)       177.1982         estimate D2E/DX2                !
 ! D143  D(41,42,43,44)          4.6846         estimate D2E/DX2                !
 ! D144  D(41,42,43,47)       -167.8632         estimate D2E/DX2                !
 ! D145  D(42,43,44,45)        178.8373         estimate D2E/DX2                !
 ! D146  D(42,43,44,46)         -2.0241         estimate D2E/DX2                !
 ! D147  D(47,43,44,45)         -8.6673         estimate D2E/DX2                !
 ! D148  D(47,43,44,46)        170.4712         estimate D2E/DX2                !
 ! D149  D(42,43,47,48)        138.229          estimate D2E/DX2                !
 ! D150  D(42,43,47,52)        -42.8536         estimate D2E/DX2                !
 ! D151  D(44,43,47,48)        -34.5603         estimate D2E/DX2                !
 ! D152  D(44,43,47,52)        144.3571         estimate D2E/DX2                !
 ! D153  D(43,44,46,40)          0.0705         estimate D2E/DX2                !
 ! D154  D(43,44,46,103)       175.1278         estimate D2E/DX2                !
 ! D155  D(45,44,46,40)        179.2572         estimate D2E/DX2                !
 ! D156  D(45,44,46,103)        -5.6855         estimate D2E/DX2                !
 ! D157  D(43,47,48,49)         -4.9198         estimate D2E/DX2                !
 ! D158  D(43,47,48,50)       -177.9758         estimate D2E/DX2                !
 ! D159  D(52,47,48,49)        176.1058         estimate D2E/DX2                !
 ! D160  D(52,47,48,50)          3.0498         estimate D2E/DX2                !
 ! D161  D(43,47,52,51)        177.5616         estimate D2E/DX2                !
 ! D162  D(48,47,52,51)         -3.3632         estimate D2E/DX2                !
 ! D163  D(47,48,50,51)         -0.9521         estimate D2E/DX2                !
 ! D164  D(47,48,50,104)       175.6321         estimate D2E/DX2                !
 ! D165  D(49,48,50,51)       -174.275          estimate D2E/DX2                !
 ! D166  D(49,48,50,104)         2.3092         estimate D2E/DX2                !
 ! D167  D(48,50,51,52)         -1.5271         estimate D2E/DX2                !
 ! D168  D(48,50,51,53)        176.6145         estimate D2E/DX2                !
 ! D169  D(104,50,51,52)      -178.1988         estimate D2E/DX2                !
 ! D170  D(104,50,51,53)        -0.0572         estimate D2E/DX2                !
 ! D171  D(50,51,52,47)          2.7389         estimate D2E/DX2                !
 ! D172  D(53,51,52,47)       -175.573          estimate D2E/DX2                !
 ! D173  D(50,51,53,54)       -157.7657         estimate D2E/DX2                !
 ! D174  D(50,51,53,59)         27.2985         estimate D2E/DX2                !
 ! D175  D(52,51,53,54)         20.2185         estimate D2E/DX2                !
 ! D176  D(52,51,53,59)       -154.7172         estimate D2E/DX2                !
 ! D177  D(51,53,54,55)        178.1901         estimate D2E/DX2                !
 ! D178  D(51,53,54,105)         0.0923         estimate D2E/DX2                !
 ! D179  D(59,53,54,55)         -6.7343         estimate D2E/DX2                !
 ! D180  D(59,53,54,105)       175.1679         estimate D2E/DX2                !
 ! D181  D(51,53,59,57)       -176.9177         estimate D2E/DX2                !
 ! D182  D(51,53,59,106)        -4.8121         estimate D2E/DX2                !
 ! D183  D(54,53,59,57)          7.7773         estimate D2E/DX2                !
 ! D184  D(54,53,59,106)       179.8829         estimate D2E/DX2                !
 ! D185  D(53,54,55,56)          5.1336         estimate D2E/DX2                !
 ! D186  D(105,54,55,56)      -176.5222         estimate D2E/DX2                !
 ! D187  D(54,55,56,57)         -4.948          estimate D2E/DX2                !
 ! D188  D(54,55,56,60)       -176.0545         estimate D2E/DX2                !
 ! D189  D(55,56,57,58)       -178.7194         estimate D2E/DX2                !
 ! D190  D(55,56,57,59)          7.2065         estimate D2E/DX2                !
 ! D191  D(60,56,57,58)         -8.092          estimate D2E/DX2                !
 ! D192  D(60,56,57,59)        177.8339         estimate D2E/DX2                !
 ! D193  D(55,56,60,61)        122.8565         estimate D2E/DX2                !
 ! D194  D(55,56,60,65)        -60.3507         estimate D2E/DX2                !
 ! D195  D(57,56,60,61)        -48.1425         estimate D2E/DX2                !
 ! D196  D(57,56,60,65)        128.6503         estimate D2E/DX2                !
 ! D197  D(56,57,59,53)         -8.5178         estimate D2E/DX2                !
 ! D198  D(56,57,59,106)       179.1541         estimate D2E/DX2                !
 ! D199  D(58,57,59,53)        177.0017         estimate D2E/DX2                !
 ! D200  D(58,57,59,106)         4.6735         estimate D2E/DX2                !
 ! D201  D(56,60,61,62)         -0.6606         estimate D2E/DX2                !
 ! D202  D(56,60,61,63)        178.8056         estimate D2E/DX2                !
 ! D203  D(65,60,61,62)       -177.7059         estimate D2E/DX2                !
 ! D204  D(65,60,61,63)          1.7603         estimate D2E/DX2                !
 ! D205  D(56,60,65,64)       -177.8589         estimate D2E/DX2                !
 ! D206  D(61,60,65,64)         -0.5069         estimate D2E/DX2                !
 ! D207  D(60,61,63,64)         -2.3569         estimate D2E/DX2                !
 ! D208  D(60,61,63,107)      -178.5606         estimate D2E/DX2                !
 ! D209  D(62,61,63,64)        177.0811         estimate D2E/DX2                !
 ! D210  D(62,61,63,107)         0.8774         estimate D2E/DX2                !
 ! D211  D(61,63,64,65)          1.8701         estimate D2E/DX2                !
 ! D212  D(61,63,64,66)       -175.2079         estimate D2E/DX2                !
 ! D213  D(107,63,64,65)       178.1752         estimate D2E/DX2                !
 ! D214  D(107,63,64,66)         1.0973         estimate D2E/DX2                !
 ! D215  D(63,64,65,60)         -0.7296         estimate D2E/DX2                !
 ! D216  D(66,64,65,60)        176.4063         estimate D2E/DX2                !
 ! D217  D(63,64,66,67)        135.2181         estimate D2E/DX2                !
 ! D218  D(63,64,66,72)        -48.3542         estimate D2E/DX2                !
 ! D219  D(65,64,66,67)        -41.4136         estimate D2E/DX2                !
 ! D220  D(65,64,66,72)        135.0141         estimate D2E/DX2                !
 ! D221  D(64,66,67,68)        176.6296         estimate D2E/DX2                !
 ! D222  D(64,66,67,108)        -0.3747         estimate D2E/DX2                !
 ! D223  D(72,66,67,68)         -0.0286         estimate D2E/DX2                !
 ! D224  D(72,66,67,108)      -177.0329         estimate D2E/DX2                !
 ! D225  D(64,66,72,70)        179.7063         estimate D2E/DX2                !
 ! D226  D(64,66,72,109)         3.116          estimate D2E/DX2                !
 ! D227  D(67,66,72,70)         -3.6354         estimate D2E/DX2                !
 ! D228  D(67,66,72,109)       179.7743         estimate D2E/DX2                !
 ! D229  D(66,67,68,69)          3.464          estimate D2E/DX2                !
 ! D230  D(108,67,68,69)      -179.344          estimate D2E/DX2                !
 ! D231  D(67,68,69,70)         -3.2663         estimate D2E/DX2                !
 ! D232  D(67,68,69,73)        172.8983         estimate D2E/DX2                !
 ! D233  D(68,69,70,71)        178.3378         estimate D2E/DX2                !
 ! D234  D(68,69,70,72)         -0.0588         estimate D2E/DX2                !
 ! D235  D(73,69,70,71)          2.1481         estimate D2E/DX2                !
 ! D236  D(73,69,70,72)       -176.2485         estimate D2E/DX2                !
 ! D237  D(68,69,73,74)        136.7679         estimate D2E/DX2                !
 ! D238  D(68,69,73,78)        -36.4907         estimate D2E/DX2                !
 ! D239  D(70,69,73,74)        -46.7964         estimate D2E/DX2                !
 ! D240  D(70,69,73,78)        139.9449         estimate D2E/DX2                !
 ! D241  D(69,70,72,66)          3.7979         estimate D2E/DX2                !
 ! D242  D(69,70,72,109)      -179.4539         estimate D2E/DX2                !
 ! D243  D(71,70,72,66)       -174.7087         estimate D2E/DX2                !
 ! D244  D(71,70,72,109)         2.0395         estimate D2E/DX2                !
 ! D245  D(69,73,74,75)          4.2075         estimate D2E/DX2                !
 ! D246  D(69,73,74,76)       -176.6695         estimate D2E/DX2                !
 ! D247  D(78,73,74,75)        178.0167         estimate D2E/DX2                !
 ! D248  D(78,73,74,76)         -2.8603         estimate D2E/DX2                !
 ! D249  D(69,73,78,77)        178.7437         estimate D2E/DX2                !
 ! D250  D(74,73,78,77)          4.4732         estimate D2E/DX2                !
 ! D251  D(73,74,76,77)         -1.0224         estimate D2E/DX2                !
 ! D252  D(73,74,76,110)      -177.2135         estimate D2E/DX2                !
 ! D253  D(75,74,76,77)        178.1657         estimate D2E/DX2                !
 ! D254  D(75,74,76,110)         1.9747         estimate D2E/DX2                !
 ! D255  D(74,76,77,78)          4.3652         estimate D2E/DX2                !
 ! D256  D(74,76,77,79)       -178.3355         estimate D2E/DX2                !
 ! D257  D(110,76,77,78)      -179.3784         estimate D2E/DX2                !
 ! D258  D(110,76,77,79)        -2.0791         estimate D2E/DX2                !
 ! D259  D(76,77,78,73)         -4.9748         estimate D2E/DX2                !
 ! D260  D(79,77,78,73)        177.2497         estimate D2E/DX2                !
 ! D261  D(76,77,79,80)         45.3088         estimate D2E/DX2                !
 ! D262  D(76,77,79,85)       -136.6522         estimate D2E/DX2                !
 ! D263  D(78,77,79,80)       -137.5398         estimate D2E/DX2                !
 ! D264  D(78,77,79,85)         40.4993         estimate D2E/DX2                !
 ! D265  D(77,79,80,81)       -177.5994         estimate D2E/DX2                !
 ! D266  D(77,79,80,111)        -4.2624         estimate D2E/DX2                !
 ! D267  D(85,79,80,81)          4.2233         estimate D2E/DX2                !
 ! D268  D(85,79,80,111)       177.5603         estimate D2E/DX2                !
 ! D269  D(77,79,85,83)       -178.3477         estimate D2E/DX2                !
 ! D270  D(77,79,85,112)        -2.5008         estimate D2E/DX2                !
 ! D271  D(80,79,85,83)         -0.3069         estimate D2E/DX2                !
 ! D272  D(80,79,85,112)       175.5399         estimate D2E/DX2                !
 ! D273  D(79,80,81,82)         -6.0884         estimate D2E/DX2                !
 ! D274  D(111,80,81,82)       179.7361         estimate D2E/DX2                !
 ! D275  D(80,81,82,83)          3.9326         estimate D2E/DX2                !
 ! D276  D(80,81,82,86)        179.3448         estimate D2E/DX2                !
 ! D277  D(81,82,83,84)        176.3587         estimate D2E/DX2                !
 ! D278  D(81,82,83,85)         -0.0705         estimate D2E/DX2                !
 ! D279  D(86,82,83,84)          1.4599         estimate D2E/DX2                !
 ! D280  D(86,82,83,85)       -174.9693         estimate D2E/DX2                !
 ! D281  D(81,82,86,87)        -40.977          estimate D2E/DX2                !
 ! D282  D(81,82,86,91)        134.1467         estimate D2E/DX2                !
 ! D283  D(83,82,86,87)        134.4459         estimate D2E/DX2                !
 ! D284  D(83,82,86,91)        -50.4304         estimate D2E/DX2                !
 ! D285  D(82,83,85,79)         -1.7721         estimate D2E/DX2                !
 ! D286  D(82,83,85,112)      -177.8118         estimate D2E/DX2                !
 ! D287  D(84,83,85,79)       -178.5397         estimate D2E/DX2                !
 ! D288  D(84,83,85,112)         5.4206         estimate D2E/DX2                !
 ! D289  D(82,86,87,88)          1.1101         estimate D2E/DX2                !
 ! D290  D(82,86,87,89)        175.3933         estimate D2E/DX2                !
 ! D291  D(91,86,87,88)       -174.4771         estimate D2E/DX2                !
 ! D292  D(91,86,87,89)         -0.1939         estimate D2E/DX2                !
 ! D293  D(82,86,91,90)       -179.116          estimate D2E/DX2                !
 ! D294  D(87,86,91,90)         -2.9725         estimate D2E/DX2                !
 ! D295  D(86,87,89,90)          3.968          estimate D2E/DX2                !
 ! D296  D(86,87,89,113)      -179.8869         estimate D2E/DX2                !
 ! D297  D(88,87,89,90)        178.4627         estimate D2E/DX2                !
 ! D298  D(88,87,89,113)        -5.3922         estimate D2E/DX2                !
 ! D299  D(87,89,90,91)         -6.1876         estimate D2E/DX2                !
 ! D300  D(87,89,90,114)      -179.4976         estimate D2E/DX2                !
 ! D301  D(113,89,90,91)       177.8897         estimate D2E/DX2                !
 ! D302  D(113,89,90,114)        4.5798         estimate D2E/DX2                !
 ! D303  D(89,90,91,86)          5.524          estimate D2E/DX2                !
 ! D304  D(114,90,91,86)       178.9998         estimate D2E/DX2                !
 --------------------------------------------------------------------------------
 Trust Radius=3.00D-01 FncErr=1.00D-07 GrdErr=1.00D-06 EigMax=2.50D+02 EigMin=1.00D-04
 Number of steps in this run=    644 maximum allowed number of steps=    684.
 GradGradGradGradGradGradGradGradGradGradGradGradGradGradGradGradGradGrad

 Leave Link  103 at Fri Jul 24 12:42:28 2020, MaxMem=  4026531840 cpu:               0.2 elap:               0.0
 (Enter /opt/ohpc/pub/libs/gaussian/g16-A.03/sandybridge/g16/l202.exe)
 Stoichiometry    C63H23F14N7S7
 Framework group  C1[X(C63H23F14N7S7)]
 Deg. of freedom   336
 Full point group                 C1      NOp   1
 Largest Abelian subgroup         C1      NOp   1
 Largest concise Abelian subgroup C1      NOp   1
                         Standard orientation:                         
 ---------------------------------------------------------------------
 Center     Atomic      Atomic             Coordinates (Angstroms)
 Number     Number       Type             X           Y           Z
 ---------------------------------------------------------------------
      1          6           0      -24.451370    5.844712   -0.052010
      2          6           0      -23.406150    5.571782   -0.890797
      3          7           0      -22.654208    4.454907   -0.785240
      4          6           0      -22.910799    3.613071    0.258788
      5          6           0      -23.914948    3.823056    1.121217
      6          9           0      -24.130614    2.996342    2.138355
      7          6           0      -24.776470    5.019269    1.001616
      8          6           0      -22.062358    2.411769    0.252599
      9          6           0      -22.433989    1.163873    0.586370
     10          9           0      -23.654557    0.720494    0.881702
     11          6           0      -21.292700    0.223617    0.522153
     12          6           0      -20.100083    0.929869    0.207160
     13         16           0      -20.358032    2.579521   -0.117617
     14          6           0      -18.785328    0.273065    0.004252
     15          6           0      -17.641995    0.952906    0.373371
     16          7           0      -16.317922    0.403174    0.325564
     17          6           0      -16.302114   -0.834043   -0.160576
     18          6           0      -17.409772   -1.554558   -0.539050
     19          9           0      -17.229379   -2.821474   -1.100004
     20          6           0      -18.601068   -1.017720   -0.421128
     21          6           0      -14.901360   -1.430238   -0.268499
     22          6           0      -14.426313   -2.610448    0.039368
     23          9           0      -15.199407   -3.619387    0.511325
     24          6           0      -13.043519   -2.822389   -0.212103
     25          6           0      -12.448258   -1.741789   -0.617415
     26         16           0      -13.556593   -0.450606   -0.766092
     27          6           0      -11.049350   -1.540432   -0.983054
     28          6           0      -10.052840   -2.427752   -0.544606
     29          7           0       -8.707214   -2.308933   -0.921201
     30          6           0       -8.321033   -1.222641   -1.569300
     31          6           0       -9.162173   -0.270843   -2.059783
     32          9           0       -8.748067    0.795149   -2.728852
[...]
  Beta virt. eigenvalues --    1.79828   1.79955   1.80032   1.80236   1.80584
  Beta virt. eigenvalues --    1.80828   1.81202   1.81394   1.81997   1.82108
  Beta virt. eigenvalues --    1.82224   1.82570   1.82732   1.82992   1.83156
  Beta virt. eigenvalues --    1.83721   1.84014   1.84433   1.84850   1.84953
  Beta virt. eigenvalues --    1.85185   1.85365   1.85609   1.85855   1.86326
  Beta virt. eigenvalues --    1.86998   1.87248   1.87568   1.87585   1.87958
  Beta virt. eigenvalues --    1.88193   1.88515   1.88705   1.88886   1.89311
  Beta virt. eigenvalues --    1.89559   1.89917   1.90225   1.90534   1.90688
  Beta virt. eigenvalues --    1.91055   1.91364   1.91624   1.91965   1.92251
  Beta virt. eigenvalues --    1.92365   1.92789   1.92969   1.93116   1.93419
  Beta virt. eigenvalues --    1.93449   1.93653   1.93762   1.94258   1.94419
  Beta virt. eigenvalues --    1.94776   1.94899   1.95260   1.95437   1.95801
  Beta virt. eigenvalues --    1.96148   1.96441   1.96891   1.97303   1.97611
  Beta virt. eigenvalues --    1.97667   1.97819   1.98223   1.98442   1.98645
  Beta virt. eigenvalues --    1.99362   1.99473   1.99714   2.00100   2.00334
  Beta virt. eigenvalues --    2.00705   2.01259   2.01748   2.02069   2.02394
  Beta virt. eigenvalues --    2.02886   2.03335   2.03674   2.04018   2.04162
  Beta virt. eigenvalues --    2.04328   2.04470   2.05204   2.05564   2.05744
  Beta virt. eigenvalues --    2.06274   2.06427   2.06581   2.06658   2.06945
  Beta virt. eigenvalues --    2.07083   2.07136   2.07700   2.08245   2.08370
  Beta virt. eigenvalues --    2.08832   2.09049   2.10065   2.10216   2.10280
  Beta virt. eigenvalues --    2.10556   2.10807   2.10892   2.10919   2.12151
  Beta virt. eigenvalues --    2.12556   2.12913   2.12956   2.13045   2.13179
  Beta virt. eigenvalues --    2.13967   2.15615   2.15736   2.16281   2.16882
  Beta virt. eigenvalues --    2.17779   2.18501   2.18737   2.19066   2.19576
  Beta virt. eigenvalues --    2.20426   2.20529   2.20895   2.21685   2.22513
  Beta virt. eigenvalues --    2.22760   2.23516   2.23859   2.24511   2.24892
  Beta virt. eigenvalues --    2.24934   2.27918   2.28170   2.28830   2.28952
  Beta virt. eigenvalues --    2.29978   2.30366   2.32281   2.32961   2.33128
  Beta virt. eigenvalues --    2.33229   2.33724   2.33881   2.34022   2.34130
  Beta virt. eigenvalues --    2.34584   2.34832   2.35011   2.35257   2.35480
  Beta virt. eigenvalues --    2.35593   2.36660   2.37456   2.37769   2.37963
  Beta virt. eigenvalues --    2.38260   2.38816   2.39537   2.40860   2.41777
  Beta virt. eigenvalues --    2.41834   2.42589   2.42644   2.43006   2.43401
  Beta virt. eigenvalues --    2.44227   2.44369   2.44616   2.45189   2.45609
  Beta virt. eigenvalues --    2.46036   2.46145   2.48133   2.48730   2.48912
  Beta virt. eigenvalues --    2.49234   2.49704   2.49916   2.50691   2.50751
  Beta virt. eigenvalues --    2.51035   2.51425   2.51637   2.51637   2.51861
  Beta virt. eigenvalues --    2.51980   2.52068   2.52183   2.53183   2.53896
  Beta virt. eigenvalues --    2.54062   2.54199   2.54295   2.54357   2.54636
  Beta virt. eigenvalues --    2.56871   2.57528   2.57564   2.57745   2.58192
  Beta virt. eigenvalues --    2.58355   2.58831   2.60115   2.60335   2.61074
  Beta virt. eigenvalues --    2.61624   2.61811   2.62142   2.62574   2.63361
  Beta virt. eigenvalues --    2.63572   2.63996   2.64268   2.64389   2.64745
  Beta virt. eigenvalues --    2.65461   2.71858   2.72096   2.72665   2.73179
  Beta virt. eigenvalues --    2.73887   2.74493   2.75104   2.79153   2.80134
  Beta virt. eigenvalues --    2.80538   2.81145   2.81757   2.82180   2.82391
  Beta virt. eigenvalues --    2.87162   2.87653   2.88021   2.88888   2.88912
  Beta virt. eigenvalues --    2.89097   2.91109   2.93176   2.93813   2.94182
  Beta virt. eigenvalues --    2.95157   2.95750   2.96511   2.97401   3.00682
  Beta virt. eigenvalues --    3.01382   3.01961   3.02478   3.02740   3.03070
  Beta virt. eigenvalues --    3.07571   3.32099   3.32453   3.32760   3.33098
  Beta virt. eigenvalues --    3.33375   3.33998   3.40572   3.58811   3.59247
  Beta virt. eigenvalues --    3.59311   3.59317   3.59332   3.59505   3.59518
  Beta virt. eigenvalues --    3.59618   3.59651   3.59668   3.59713   3.59742
  Beta virt. eigenvalues --    3.59958   3.60964   3.61555   3.61614   3.61741
  Beta virt. eigenvalues --    3.61882   3.61920   3.62045   3.63068   3.63260
  Beta virt. eigenvalues --    3.63297   3.63328   3.63407   3.63436   3.63464
  Beta virt. eigenvalues --    3.63580   3.77852   3.78552   3.78606   3.78630
  Beta virt. eigenvalues --    3.78648   3.78750   3.78796   3.80425   3.80458
  Beta virt. eigenvalues --    3.80470   3.80521   3.80542   3.80736   3.81669
  Beta virt. eigenvalues --    3.97920   3.97977   3.98077   3.98124   3.98180
  Beta virt. eigenvalues --    3.98375   3.99150   4.01882   4.02582   4.02613
  Beta virt. eigenvalues --    4.02708   4.02823   4.02874   4.02989   4.17875
  Beta virt. eigenvalues --    4.17915   4.18242   4.18347   4.18536   4.18741
  Beta virt. eigenvalues --    4.20189   4.21283   4.22945   4.22990   4.23335
  Beta virt. eigenvalues --    4.23581   4.23732   4.23997
          Condensed to atoms (all electrons):
          Atomic-Atomic Spin Densities.
 Mulliken charges and spin densities:
               1          2
     1  C   -0.026175  -0.000000
     2  C    0.088337   0.000000
     3  N   -0.202046  -0.000000
     4  C    0.082083   0.000000
     5  C    0.098397  -0.000000
     6  F   -0.110780  -0.000000
     7  C    0.062939  -0.000000
     8  C   -0.163576  -0.000000
     9  C    0.107763   0.000000
    10  F   -0.107709  -0.000000
    11  C    0.033196   0.000000
    12  C   -0.160674  -0.000000
    13  S    0.219264  -0.000000
    14  C   -0.001752   0.000000
    15  C    0.091556  -0.000000
    16  N   -0.201306  -0.000000
    17  C    0.091298  -0.000000
    18  C    0.107624   0.000000
    19  F   -0.108201  -0.000000
    20  C    0.064503  -0.000000
    21  C   -0.167027  -0.000000
    22  C    0.102409   0.000000
    23  F   -0.106548  -0.000000
    24  C    0.036370  -0.000000
    25  C   -0.158200  -0.000000
    26  S    0.217620   0.000000
    27  C   -0.008005   0.000000
    28  C    0.093156  -0.000000
    29  N   -0.200817   0.000000
    30  C    0.088459  -0.000000
    31  C    0.107312  -0.000000
    32  F   -0.107017   0.000000
    33  C    0.067279   0.000000
    34  C   -0.166524   0.000000
    35  C    0.104482  -0.000000
    36  F   -0.106287   0.000000
    37  C    0.035567  -0.000000
    38  C   -0.158397   0.000000
    39  S    0.217808  -0.000000
    40  C   -0.006887  -0.000000
    41  C    0.093427   0.000000
    42  N   -0.200599   0.000000
    43  C    0.088741  -0.000000
    44  C    0.106547   0.000000
    45  F   -0.107472   0.000000
    46  C    0.066548   0.000000
    47  C   -0.166480   0.000000
    48  C    0.104859  -0.000000
    49  F   -0.106549   0.000000
    50  C    0.034900  -0.000000
    51  C   -0.160350   0.000000
    52  S    0.220593  -0.000000
    53  C   -0.002901   0.000000
    54  C    0.091203   0.000000
    55  N   -0.200207   0.000000
    56  C    0.090094   0.000000
    57  C    0.108223  -0.000000
    58  F   -0.108205  -0.000000
    59  C    0.064222  -0.000000
    60  C   -0.168429  -0.000000
    61  C    0.103988   0.000000
    62  F   -0.107139   0.000000
    63  C    0.034720  -0.000000
    64  C   -0.159908   0.000000
    65  S    0.223045  -0.000000
    66  C   -0.004909   0.000000
    67  C    0.090960  -0.000000
    68  N   -0.200343   0.000000
    69  C    0.089841  -0.000000
    70  C    0.108496   0.000000
    71  F   -0.108117  -0.000000
    72  C    0.065965  -0.000000
    73  C   -0.167640   0.000000
    74  C    0.103555   0.000000
    75  F   -0.107227  -0.000000
    76  C    0.035544  -0.000000
    77  C   -0.155815   0.000000
    78  S    0.215343  -0.000000
    79  C   -0.006183  -0.000000
    80  C    0.082743   0.000000
    81  N   -0.185010   0.000000
    82  C    0.088945   0.000000
    83  C    0.109160  -0.000000
    84  F   -0.121758   0.000000
    85  C    0.067006   0.000000
    86  C   -0.197926  -0.000000
    87  C    0.132338   0.000000
    88  F   -0.098463  -0.000000
    89  C    0.056555  -0.000000
    90  C   -0.122129  -0.000000
    91  S    0.179175  -0.000000
    92  H    0.005690   0.000000
    93  H    0.014607   0.000000
    94  H    0.017157  -0.000000
    95  H    0.002869  -0.000000
    96  H    0.017841  -0.000000
    97  H    0.007608  -0.000000
    98  H    0.005633  -0.000000
    99  H    0.010788   0.000000
   100  H    0.015876   0.000000
   101  H    0.005978  -0.000000
   102  H    0.010698   0.000000
   103  H    0.016007   0.000000
   104  H    0.003837  -0.000000
   105  H    0.018831   0.000000
   106  H    0.007683   0.000000
   107  H    0.003108  -0.000000
   108  H    0.017351   0.000000
   109  H    0.006803  -0.000000
   110  H    0.005747   0.000000
   111  H    0.008609   0.000000
   112  H    0.013969   0.000000
   113  H    0.005378   0.000000
   114  H    0.035463   0.000000
 Sum of Mulliken charges =  -0.00000  -0.00000
 Mulliken charges and spin densities with hydrogens summed into heavy atoms:
               1          2
     1  C   -0.020485  -0.000000
     2  C    0.102944   0.000000
     3  N   -0.202046  -0.000000
     4  C    0.082083   0.000000
     5  C    0.098397  -0.000000
     6  F   -0.110780  -0.000000
     7  C    0.080096  -0.000000
     8  C   -0.163576  -0.000000
     9  C    0.107763   0.000000
    10  F   -0.107709  -0.000000
    11  C    0.036065   0.000000
    12  C   -0.160674  -0.000000
    13  S    0.219264  -0.000000
    14  C   -0.001752   0.000000
    15  C    0.109397  -0.000000
    16  N   -0.201306  -0.000000
    17  C    0.091298  -0.000000
    18  C    0.107624   0.000000
    19  F   -0.108201  -0.000000
    20  C    0.072111  -0.000000
    21  C   -0.167027  -0.000000
    22  C    0.102409   0.000000
    23  F   -0.106548  -0.000000
    24  C    0.042003  -0.000000
    25  C   -0.158200  -0.000000
    26  S    0.217620   0.000000
    27  C   -0.008005   0.000000
    28  C    0.103943  -0.000000
    29  N   -0.200817   0.000000
    30  C    0.088459  -0.000000
    31  C    0.107312  -0.000000
    32  F   -0.107017   0.000000
    33  C    0.083155   0.000000
    34  C   -0.166524   0.000000
    35  C    0.104482  -0.000000
    36  F   -0.106287   0.000000
    37  C    0.041545  -0.000000
    38  C   -0.158397   0.000000
    39  S    0.217808  -0.000000
    40  C   -0.006887  -0.000000
    41  C    0.104125   0.000000
    42  N   -0.200599   0.000000
    43  C    0.088741  -0.000000
    44  C    0.106547   0.000000
    45  F   -0.107472   0.000000
    46  C    0.082555   0.000000
    47  C   -0.166480   0.000000
    48  C    0.104859  -0.000000
    49  F   -0.106549   0.000000
    50  C    0.038738  -0.000000
    51  C   -0.160350   0.000000
    52  S    0.220593  -0.000000
    53  C   -0.002901   0.000000
    54  C    0.110034   0.000000
    55  N   -0.200207   0.000000
    56  C    0.090094   0.000000
    57  C    0.108223  -0.000000
    58  F   -0.108205  -0.000000
    59  C    0.071906  -0.000000
    60  C   -0.168429  -0.000000
    61  C    0.103988   0.000000
    62  F   -0.107139   0.000000
    63  C    0.037827  -0.000000
    64  C   -0.159908   0.000000
    65  S    0.223045  -0.000000
    66  C   -0.004909   0.000000
    67  C    0.108311  -0.000000
    68  N   -0.200343   0.000000
    69  C    0.089841  -0.000000
    70  C    0.108496   0.000000
    71  F   -0.108117  -0.000000
    72  C    0.072767  -0.000000
    73  C   -0.167640   0.000000
    74  C    0.103555   0.000000
    75  F   -0.107227  -0.000000
    76  C    0.041291  -0.000000
    77  C   -0.155815   0.000000
    78  S    0.215343  -0.000000
    79  C   -0.006183  -0.000000
    80  C    0.091352   0.000000
    81  N   -0.185010   0.000000
    82  C    0.088945   0.000000
    83  C    0.109160  -0.000000
    84  F   -0.121758   0.000000
    85  C    0.080975   0.000000
    86  C   -0.197926  -0.000000
    87  C    0.132338   0.000000
    88  F   -0.098463  -0.000000
    89  C    0.061933  -0.000000
    90  C   -0.086666  -0.000000
    91  S    0.179175  -0.000000
 Electronic spatial extent (au):  <R**2>=         533401.2845
 Charge=              0.0000 electrons
 Dipole moment (field-independent basis, Debye):
    X=             -6.4932    Y=              1.7262    Z=              0.0860  Tot=              6.7193
 Quadrupole moment (field-independent basis, Debye-Ang):
   XX=           -475.0830   YY=           -503.4560   ZZ=           -539.2406
   XY=            -41.9527   XZ=            -42.9030   YZ=              6.3682
 Traceless Quadrupole moment (field-independent basis, Debye-Ang):
   XX=             30.8435   YY=              2.4706   ZZ=            -33.3141
   XY=            -41.9527   XZ=            -42.9030   YZ=              6.3682
 Octapole moment (field-independent basis, Debye-Ang**2):
  XXX=          -3637.8045  YYY=            323.6756  ZZZ=             33.6561  XYY=            -23.2857
  XXY=           1339.1744  XXZ=            526.4762  XZZ=           -180.6021  YZZ=            100.5993
  YYZ=             14.9996  XYZ=           -584.5866
 Hexadecapole moment (field-independent basis, Debye-Ang**3):
 XXXX=        -586151.6271 YYYY=         -51585.5973 ZZZZ=          -9235.8749 XXXY=         -21839.7471
 XXXZ=         -23419.3280 YYYX=           1205.6589 YYYZ=           -529.6347 ZZZX=           -816.1497
 ZZZY=            216.9516 XXYY=         -96766.3431 XXZZ=        -102334.0938 YYZZ=          -9951.7250
 XXYZ=           3999.1471 YYXZ=          -4946.5133 ZZXY=          -1060.4966
 N-N= 1.353112063407D+04 E-N=-4.350894923502D+04  KE= 6.948099463751D+03
 Leave Link  601 at Fri Jul 24 20:58:38 2020, MaxMem=  4026531840 cpu:              10.7 elap:               1.5
 (Enter /opt/ohpc/pub/libs/gaussian/g16-A.03/sandybridge/g16/l9999.exe)

 Test job not archived.
 1\1\GINC-SKYLAKE040\FOpt\ULC-wPBE\CC-pVDZ\C63H23F14N7S7\RDU230\24-Jul-
 2020\0\\#P uLC-wPBE/cc-pVDZ iop(3/107=0256300000, 3/108=0256300000) op
 t\\H23 C63 S7 N7 F14\\0,1\C,-21.9797951641,7.5051366609,-2.5805647681\
 C,-20.7401031835,7.014178633,-2.9956119709\N,-20.3171656083,5.77418071
 02,-2.7425386463\C,-21.1114200934,4.9385416152,-2.04876855\C,-22.35097
 7988,5.3797857218,-1.560083349\F,-23.1074642931,4.5761069428,-0.793639
 5305\C,-22.8020663348,6.664032722,-1.8346778664\C,-20.5627153941,3.594
 9348977,-1.8073900528\C,-21.1477515379,2.3721532872,-1.5551745165\F,-2
 2.4700138802,2.1674110053,-1.4796765898\C,-20.2382347295,1.293709585,-
 1.4096212063\C,-18.9330715809,1.7022717035,-1.5655835844\S,-18.8380098
 59,3.3988060868,-1.9135315205\C,-17.7198257646,0.8732259871,-1.4834773
 463\C,-16.4792806472,1.4019291275,-1.0870069163\N,-15.3634886984,0.685
 1934756,-0.9786661204\C,-15.3894153288,-0.6319398597,-1.2520351605\C,-
 16.5808724584,-1.2294129991,-1.6927484596\F,-16.6030401318,-2.52224287
 42,-2.05625521\C,-17.7473714805,-0.489731402,-1.8039870211\C,-14.10857
 32558,-1.337656718,-1.111963504\C,-13.7813621408,-2.660041985,-0.89529
 12635\F,-14.6765326583,-3.6469941556,-0.7556072208\C,-12.3915684531,-2
 .9228975398,-0.7914242072\C,-11.6447387357,-1.7736574466,-0.9192299978
 \S,-12.6552634386,-0.3817521076,-1.1420865034\C,-10.1796559065,-1.6461
 580468,-0.864295117\C,-9.4040096703,-2.532799258,-0.0965882663\N,-8.07
 58627267,-2.4962421693,-0.0319586874\C,-7.4023351954,-1.554167374,-0.7
 178901255\C,-8.1069249639,-0.5915104247,-1.4569782542\F,-7.4547397861,
 0.4067710517,-2.0741787905\C,-9.4890110477,-0.6407878813,-1.5516545253
 \C,-5.9403925332,-1.5856338179,-0.5802062022\C,-4.9122530762,-1.126438
 213,-1.3769609371\F,-5.0873573477,-0.5198485209,-2.5585627979\C,-3.609
 4989803,-1.3896544253,-0.8825263478\C,-3.6465879741,-2.0755640832,0.31
 05420126\S,-5.2767347703,-2.3926248507,0.810161328\C,-2.5060857696,-2.
 5255646531,1.1240470207\C,-1.2945425148,-1.8120914666,1.1302166106\N,-
 0.2278099435,-2.161247681,1.8442775892\C,-0.280288183,-3.2552435247,2.
 6266257297\C,-1.4431563092,-4.040674216,2.6517162403\F,-1.480956586,-5
 .1807003201,3.3603161393\C,-2.5598453814,-3.6806029922,1.9138197753\C,
 0.947390293,-3.5704043855,3.3688023814\C,1.1886907338,-4.2821089442,4.
 5255435116\F,0.2355095441,-4.859751755,5.2690616344\C,2.5478494355,-4.
 3259186698,4.9266186428\C,3.3574410063,-3.6211450663,4.0644857462\S,2.
 4425078287,-2.9098693536,2.7744344057\C,4.8146028745,-3.4378088552,4.1
 544209891\C,5.457210743,-2.2941454175,3.6496197368\N,6.7681119446,-2.0
 801983412,3.7276611593\C,7.556623095,-2.9915592813,4.3259488916\C,6.99
 72723043,-4.1798182143,4.8221272099\F,7.7814008538,-5.1391509428,5.340
 5950939\C,5.6324602595,-4.4075912551,4.7477035709\C,8.9905304223,-2.67
 41225034,4.3568337087\C,10.023480198,-3.0738078595,5.1790923837\F,9.88
 40898922,-3.9147652038,6.2129692095\C,11.2828966557,-2.495560221,4.879
 8654594\C,11.2058162016,-1.6283521936,3.8133944323\S,9.5854571205,-1.5
 130070335,3.2063573086\C,12.297606596,-0.846140036,3.211242799\C,12.29
 52737838,-0.4870543984,1.8524305912\N,13.2512495943,0.2318067623,1.269
 2413148\C,14.3075056842,0.6453772832,1.9928514752\C,14.4127531528,0.27
 98936045,3.3445168372\F,15.4997987861,0.6133891994,4.0594047999\C,13.4
 076247771,-0.4445245289,3.9647720276\C,15.3173531708,1.4236162822,1.26
 41993186\C,16.2659280033,2.3413379862,1.6651964771\F,16.4387807219,2.7
 426221149,2.9319302438\C,17.0411651479,2.8978193094,0.6162405889\C,16.
 6667704817,2.40210725,-0.6123121097\S,15.3665473446,1.2634555266,-0.46
 74873487\C,17.2357296954,2.7376818092,-1.9268821579\C,18.5866287764,3.
 1006952782,-2.0620234568\N,19.1662662399,3.4320393169,-3.2129482624\C,
 18.4443208761,3.4178677599,-4.3473498145\C,17.0891856615,3.0480131786,
 -4.2952362812\F,16.3519788109,3.0265805256,-5.4279524171\C,16.47418977
 06,2.7135457173,-3.1024422008\C,19.1320810595,3.7963575992,-5.59010770
 39\C,20.4512040134,4.1902319429,-5.7334215617\F,21.3238666426,4.291677
 6773,-4.7269149522\C,20.8461413676,4.4955743292,-7.0633936627\C,19.806
 9385047,4.3290944527,-7.9383802826\S,18.3668953779,3.8092747534,-7.159
 7831575\H,-22.2885027262,8.527687199,-2.823035429\H,-20.0468376705,7.6
 501933527,-3.5630145362\H,-23.7765508896,6.9815156279,-1.4477528418\H,
 -20.5574623918,0.2734027864,-1.1813538549\H,-16.3899147577,2.467335500
 6,-0.8313742335\H,-18.6530834918,-0.983550926,-2.1719566589\H,-11.9849
 509197,-3.927321418,-0.6486639517\H,-9.8924794069,-3.3071154365,0.5104
 266089\H,-10.0044104225,0.1089660346,-2.1628190415\H,-2.7005599808,-1.
 1121933823,-1.4223785618\H,-1.1921802984,-0.8963032053,0.5322711747\H,
 -3.4446455866,-4.3267865995,1.9433625444\H,2.8835740426,-4.8273755356,
 5.8381248284\H,4.8711995123,-1.5003261125,3.1648239071\H,5.2327595081,
 -5.3552835775,5.124214827\H,12.1947062349,-2.7393787198,5.4312627522\H
 ,11.4739079194,-0.8118000299,1.1979266983\H,13.5072106283,-0.681876013
 9,5.0293436125\H,17.80737575,3.6596566231,0.7806706136\H,19.2415809506
 ,3.1075887793,-1.1794630329\H,15.4089340208,2.4559311911,-3.1067501329
 \H,21.8550837767,4.8199657606,-7.3295706388\H,19.8097902563,4.48778569
 56,-9.019287544\\Version=EM64L-G16RevA.03\State=1-A\HF=-6978.9488539\S
 2=0.\S2-1=0.\S2A=0.\RMSD=9.703e-09\RMSF=1.544e-06\Dipole=-2.5402052,0.
 5056366,-0.5293019\Quadrupole=22.4824524,-6.9124231,-15.5700293,-44.40
 35871,1.3454006,-14.5857055\PG=C01 [X(C63H23F14N7S7)]\\@


 ERWIN WITH HIS PSI CAN DO
 CALCULATIONS QUITE A FEW.
 BUT ONE THING HAS NOT BEEN SEEN
 JUST WHAT DOES PSI REALLY MEAN.
 -- WALTER HUCKEL, TRANS. BY FELIX BLOCH
 Job cpu time:       2 days 16 hours 56 minutes  2.0 seconds.
 Elapsed time:       0 days  8 hours 16 minutes  7.9 seconds.
 File lengths (MBytes):  RWF=   2240 Int=      0 D2E=      0 Chk=    200 Scr=      8
 Normal termination of Gaussian 16 at Fri Jul 24 20:58:38 2020.
