 Entering Gaussian System, Link 0=g16
 Input=mols_55_3_09_COC-COC_opt_0.gjf
 Output=mols_55_3_09_COC-COC_opt_0.log
 Initial command:
 /opt/ohpc/pub/libs/gaussian/g16-A.03/sandybridge/g16/l1.exe "/mnt/gpfs2_4m/scratch/rdu230/ondemand/projects/dihedral_energies/7trial/wtuning/mols_55_3_09_COC-COC/Gau-228797.inp" -scrdir="/mnt/gpfs2_4m/scratch/rdu230/ondemand/projects/dihedral_energies/7trial/wtuning/mols_55_3_09_COC-COC/"
 Entering Link 1 = /opt/ohpc/pub/libs/gaussian/g16-A.03/sandybridge/g16/l1.exe PID=    228798.
  
 Copyright (c) 1988,1990,1992,1993,1995,1998,2003,2009,2016,
            Gaussian, Inc.  All Rights Reserved.
  
 This is part of the Gaussian(R) 16 program.  It is based on
 the Gaussian(R) 09 system (copyright 2009, Gaussian, Inc.),
 the Gaussian(R) 03 system (copyright 2003, Gaussian, Inc.),
 the Gaussian(R) 98 system (copyright 1998, Gaussian, Inc.),
 the Gaussian(R) 94 system (copyright 1995, Gaussian, Inc.),
 the Gaussian 92(TM) system (copyright 1992, Gaussian, Inc.),
 the Gaussian 90(TM) system (copyright 1990, Gaussian, Inc.),
 the Gaussian 88(TM) system (copyright 1988, Gaussian, Inc.),
 the Gaussian 86(TM) system (copyright 1986, Carnegie Mellon
 University), and the Gaussian 82(TM) system (copyright 1983,
 Carnegie Mellon University). Gaussian is a federally registered
 trademark of Gaussian, Inc.
  
 This software contains proprietary and confidential information,
 including trade secrets, belonging to Gaussian, Inc.
  
 This software is provided under written license and may be
 used, copied, transmitted, or stored only in accord with that
 written license.
  
 The following legend is applicable only to US Government
 contracts under FAR:
  
                    RESTRICTED RIGHTS LEGEND
  
 Use, reproduction and disclosure by the US Government is
 subject to restrictions as set forth in subparagraphs (a)
 and (c) of the Commercial Computer Software - Restricted
 Rights clause in FAR 52.227-19.
  
 Gaussian, Inc.
 340 Quinnipiac St., Bldg. 40, Wallingford CT 06492
  
  
 ---------------------------------------------------------------
 Warning -- This program may not be used in any manner that
 competes with the business of Gaussian, Inc. or will provide
 assistance to any competitor of Gaussian, Inc.  The licensee
 of this program is prohibited from giving any competitor of
 Gaussian, Inc. access to this program.  By using this program,
 the user acknowledges that Gaussian, Inc. is engaged in the
 business of creating and licensing software in the field of
 computational chemistry and represents and warrants to the
 licensee that it is not a competitor of Gaussian, Inc. and that
 it will not use this program in any manner prohibited above.
 ---------------------------------------------------------------
  

 Cite this work as:
 Gaussian 16, Revision A.03,
 M. J. Frisch, G. W. Trucks, H. B. Schlegel, G. E. Scuseria, 
 M. A. Robb, J. R. Cheeseman, G. Scalmani, V. Barone, 
 G. A. Petersson, H. Nakatsuji, X. Li, M. Caricato, A. V. Marenich, 
 J. Bloino, B. G. Janesko, R. Gomperts, B. Mennucci, H. P. Hratchian, 
 J. V. Ortiz, A. F. Izmaylov, J. L. Sonnenberg, D. Williams-Young, 
 F. Ding, F. Lipparini, F. Egidi, J. Goings, B. Peng, A. Petrone, 
 T. Henderson, D. Ranasinghe, V. G. Zakrzewski, J. Gao, N. Rega, 
 G. Zheng, W. Liang, M. Hada, M. Ehara, K. Toyota, R. Fukuda, 
 J. Hasegawa, M. Ishida, T. Nakajima, Y. Honda, O. Kitao, H. Nakai, 
 T. Vreven, K. Throssell, J. A. Montgomery, Jr., J. E. Peralta, 
 F. Ogliaro, M. J. Bearpark, J. J. Heyd, E. N. Brothers, K. N. Kudin, 
 V. N. Staroverov, T. A. Keith, R. Kobayashi, J. Normand, 
 K. Raghavachari, A. P. Rendell, J. C. Burant, S. S. Iyengar, 
 J. Tomasi, M. Cossi, J. M. Millam, M. Klene, C. Adamo, R. Cammi, 
 J. W. Ochterski, R. L. Martin, K. Morokuma, O. Farkas, 
 J. B. Foresman, and D. J. Fox, Gaussian, Inc., Wallingford CT, 2016.
 
 ******************************************
 Gaussian 16:  EM64L-G16RevA.03 25-Dec-2016
                25-Jul-2020 
 ******************************************
 %mem=30GB
 %nproc=8
 Will use up to    8 processors via shared memory.
 ---------------------------------------------------------------
 #P uLC-wPBE/cc-pVDZ iop(3/107=0083500000, 3/108=0083500000) opt
 ---------------------------------------------------------------
 1/18=20,19=15,26=3,38=1/1,3;
 2/9=110,12=2,17=6,18=5,40=1/2;
 3/5=16,11=2,25=1,30=1,71=1,74=-41,107=83500000,108=83500000,116=2/1,2,3;
 4//1;
 5/5=2,38=5/2;
 6/7=2,8=2,9=2,10=2,28=1/1;
 7//1,2,3,16;
 1/18=20,19=15,26=3/3(2);
 2/9=110/2;
 99//99;
 2/9=110/2;
 3/5=16,11=2,25=1,30=1,71=1,74=-41,107=83500000,108=83500000,116=2/1,2,3;
 4/5=5,16=3,69=1/1;
 5/5=2,38=5/2;
 7//1,2,3,16;
 1/18=20,19=15,26=3/3(-5);
 2/9=110/2;
 6/7=2,8=2,9=2,10=2,19=2,28=1/1;
 99/9=1/99;
 Leave Link    1 at Sat Jul 25 16:04:27 2020, MaxMem=  4026531840 cpu:               1.2 elap:               0.2
 (Enter /opt/ohpc/pub/libs/gaussian/g16-A.03/sandybridge/g16/l101.exe)
 -------------
 H26 C30 S6 O6
 -------------
 Symbolic Z-matrix:
 Charge =  0 Multiplicity = 1
 C                     10.53565  -0.20836   1.86242 
 C                     10.50099  -0.98352   0.76928 
 C                     9.1946   -0.88047   0.13787 
 O                     8.78052  -1.5538   -0.94762 
 C                     9.71732  -2.53954  -1.48993 
 C                     8.31474   0.01645   0.78239 
 S                     9.13487   0.67253   2.17165 
 C                     6.99912   0.31665   0.38399 
 C                     6.48424   1.54023   0.0672 
 O                     7.39915   2.65075  -0.05075 
 C                     6.74306   3.85226  -0.55882 
 C                     5.15505   1.51169  -0.23505 
 C                     4.55078   0.31884  -0.04853 
 S                     5.7592   -0.89026   0.45036 
 C                     3.19156  -0.08711  -0.26201 
 C                     2.77301  -1.31455  -0.78192 
 C                     1.28775  -1.331    -0.94913 
 O                     0.53806  -2.34749  -1.42953 
 C                     1.28336  -3.58917  -1.69912 
 C                     0.66162  -0.17039  -0.53917 
 S                     1.85647   0.96581  -0.02737 
 C                    -0.66371   0.15037  -0.51964 
 C                    -1.26171   1.28225  -1.14844 
 O                    -0.52315   2.25001  -1.76954 
 C                    -1.24899   3.364    -2.0929 
 C                    -2.67979   1.27025  -0.97268 
 C                    -3.18773   0.18822  -0.25234 
 S                    -1.82284  -0.81997   0.24532 
 C                    -4.52697  -0.23978   0.09976 
 C                    -4.97417  -1.26563   0.787 
 C                    -6.46477  -1.41012   0.85503 
 O                    -7.18306  -2.37595   1.49099 
 C                    -6.42635  -3.44455   1.97459 
 C                    -6.98823  -0.35428   0.22714 
 S                    -5.85785   0.75592  -0.43397 
 C                    -8.46422  -0.01864   0.05915 
 C                    -9.15265   0.93707   0.61722 
 O                    -8.59455   1.82293   1.53972 
 C                    -9.44756   2.88161   2.04392 
 C                    -10.58065   0.90631   0.23225 
 C                    -10.76792  -0.15536  -0.56306 
 S                    -9.44585  -1.02863  -0.93251 
 H                     11.40068   0.00964   2.50899 
 H                     11.30699  -1.59864   0.43137 
 H                     9.14699  -3.07922  -2.26561 
 H                     9.90582  -3.32426  -0.69386 
 H                     10.55361  -2.0961   -1.87378 
 H                     5.98709   4.22379   0.15245 
 H                     7.56453   4.59641  -0.58366 
 H                     6.3378    3.7318   -1.52595 
 H                     4.52465   2.33396  -0.60042 
 H                     3.43446  -2.13265  -1.06603 
 H                     0.49517  -4.31118  -2.11016 
 H                     1.99477  -3.40232  -2.52724 
 H                     1.76659  -3.99637  -0.81362 
 H                    -2.02179   3.17836  -2.944 
 H                    -0.51518   4.06623  -2.56106 
 H                    -1.72927   3.81252  -1.24622 
 H                    -3.3752    2.03322  -1.29807 
 H                    -4.35861  -1.99957   1.20974 
 H                    -5.92647  -3.9901    1.15824 
 H                    -7.22141  -4.18768   2.37965 
 H                    -5.86434  -3.18814   2.79366 
 H                    -9.84929   3.50848   1.23588 
 H                    -10.24462   2.40792   2.58479 
 H                    -8.8218    3.45193   2.65291 
 H                    -11.30329   1.56653   0.56006 
 H                    -11.77296  -0.40312  -0.99342 
 
 ITRead=  0  0  0  0  0  0  0  0  0  0  0  0  0  0  0  0  0  0  0  0
 ITRead=  0  0  0  0  0  0  0  0  0  0  0  0  0  0  0  0  0  0  0  0
 ITRead=  0  0  0  0  0  0  0  0  0  0  0  0  0  0  0  0  0  0  0  0
 ITRead=  0  0  0  0  0  0  0  0
 MicOpt= -1 -1 -1 -1 -1 -1 -1 -1 -1 -1 -1 -1 -1 -1 -1 -1 -1 -1 -1 -1
 MicOpt= -1 -1 -1 -1 -1 -1 -1 -1 -1 -1 -1 -1 -1 -1 -1 -1 -1 -1 -1 -1
 MicOpt= -1 -1 -1 -1 -1 -1 -1 -1 -1 -1 -1 -1 -1 -1 -1 -1 -1 -1 -1 -1
 MicOpt= -1 -1 -1 -1 -1 -1 -1 -1
 NAtoms=     68 NQM=       68 NQMF=       0 NMMI=      0 NMMIF=      0
                NMic=       0 NMicF=      0.
                    Isotopes and Nuclear Properties:
 (Nuclear quadrupole moments (NQMom) in fm**2, nuclear magnetic moments (NMagM)
  in nuclear magnetons)

  Atom         1           2           3           4           5           6           7           8           9          10
 IAtWgt=          12          12          12          16          12          12          32          12          12          16
 AtmWgt=  12.0000000  12.0000000  12.0000000  15.9949146  12.0000000  12.0000000  31.9720718  12.0000000  12.0000000  15.9949146
 NucSpn=           0           0           0           0           0           0           0           0           0           0
 AtZEff=  -0.0000000  -0.0000000  -0.0000000  -0.0000000  -0.0000000  -0.0000000  -0.0000000  -0.0000000  -0.0000000  -0.0000000
 NQMom=    0.0000000   0.0000000   0.0000000   0.0000000   0.0000000   0.0000000   0.0000000   0.0000000   0.0000000   0.0000000
 NMagM=    0.0000000   0.0000000   0.0000000   0.0000000   0.0000000   0.0000000   0.0000000   0.0000000   0.0000000   0.0000000
 AtZNuc=   6.0000000   6.0000000   6.0000000   8.0000000   6.0000000   6.0000000  16.0000000   6.0000000   6.0000000   8.0000000

  Atom        11          12          13          14          15          16          17          18          19          20
 IAtWgt=          12          12          12          32          12          12          12          16          12          12
 AtmWgt=  12.0000000  12.0000000  12.0000000  31.9720718  12.0000000  12.0000000  12.0000000  15.9949146  12.0000000  12.0000000
 NucSpn=           0           0           0           0           0           0           0           0           0           0
 AtZEff=  -0.0000000  -0.0000000  -0.0000000  -0.0000000  -0.0000000  -0.0000000  -0.0000000  -0.0000000  -0.0000000  -0.0000000
 NQMom=    0.0000000   0.0000000   0.0000000   0.0000000   0.0000000   0.0000000   0.0000000   0.0000000   0.0000000   0.0000000
 NMagM=    0.0000000   0.0000000   0.0000000   0.0000000   0.0000000   0.0000000   0.0000000   0.0000000   0.0000000   0.0000000
 AtZNuc=   6.0000000   6.0000000   6.0000000  16.0000000   6.0000000   6.0000000   6.0000000   8.0000000   6.0000000   6.0000000

  Atom        21          22          23          24          25          26          27          28          29          30
 IAtWgt=          32          12          12          16          12          12          12          32          12          12
 AtmWgt=  31.9720718  12.0000000  12.0000000  15.9949146  12.0000000  12.0000000  12.0000000  31.9720718  12.0000000  12.0000000
 NucSpn=           0           0           0           0           0           0           0           0           0           0
 AtZEff=  -0.0000000  -0.0000000  -0.0000000  -0.0000000  -0.0000000  -0.0000000  -0.0000000  -0.0000000  -0.0000000  -0.0000000
 NQMom=    0.0000000   0.0000000   0.0000000   0.0000000   0.0000000   0.0000000   0.0000000   0.0000000   0.0000000   0.0000000
 NMagM=    0.0000000   0.0000000   0.0000000   0.0000000   0.0000000   0.0000000   0.0000000   0.0000000   0.0000000   0.0000000
 AtZNuc=  16.0000000   6.0000000   6.0000000   8.0000000   6.0000000   6.0000000   6.0000000  16.0000000   6.0000000   6.0000000

  Atom        31          32          33          34          35          36          37          38          39          40
 IAtWgt=          12          16          12          12          32          12          12          16          12          12
 AtmWgt=  12.0000000  15.9949146  12.0000000  12.0000000  31.9720718  12.0000000  12.0000000  15.9949146  12.0000000  12.0000000
 NucSpn=           0           0           0           0           0           0           0           0           0           0
 AtZEff=  -0.0000000  -0.0000000  -0.0000000  -0.0000000  -0.0000000  -0.0000000  -0.0000000  -0.0000000  -0.0000000  -0.0000000
 NQMom=    0.0000000   0.0000000   0.0000000   0.0000000   0.0000000   0.0000000   0.0000000   0.0000000   0.0000000   0.0000000
 NMagM=    0.0000000   0.0000000   0.0000000   0.0000000   0.0000000   0.0000000   0.0000000   0.0000000   0.0000000   0.0000000
 AtZNuc=   6.0000000   8.0000000   6.0000000   6.0000000  16.0000000   6.0000000   6.0000000   8.0000000   6.0000000   6.0000000

  Atom        41          42          43          44          45          46          47          48          49          50
 IAtWgt=          12          32           1           1           1           1           1           1           1           1
 AtmWgt=  12.0000000  31.9720718   1.0078250   1.0078250   1.0078250   1.0078250   1.0078250   1.0078250   1.0078250   1.0078250
 NucSpn=           0           0           1           1           1           1           1           1           1           1
 AtZEff=  -0.0000000  -0.0000000  -0.0000000  -0.0000000  -0.0000000  -0.0000000  -0.0000000  -0.0000000  -0.0000000  -0.0000000
 NQMom=    0.0000000   0.0000000   0.0000000   0.0000000   0.0000000   0.0000000   0.0000000   0.0000000   0.0000000   0.0000000
 NMagM=    0.0000000   0.0000000   2.7928460   2.7928460   2.7928460   2.7928460   2.7928460   2.7928460   2.7928460   2.7928460
 AtZNuc=   6.0000000  16.0000000   1.0000000   1.0000000   1.0000000   1.0000000   1.0000000   1.0000000   1.0000000   1.0000000

  Atom        51          52          53          54          55          56          57          58          59          60
 IAtWgt=           1           1           1           1           1           1           1           1           1           1
 AtmWgt=   1.0078250   1.0078250   1.0078250   1.0078250   1.0078250   1.0078250   1.0078250   1.0078250   1.0078250   1.0078250
 NucSpn=           1           1           1           1           1           1           1           1           1           1
 AtZEff=  -0.0000000  -0.0000000  -0.0000000  -0.0000000  -0.0000000  -0.0000000  -0.0000000  -0.0000000  -0.0000000  -0.0000000
 NQMom=    0.0000000   0.0000000   0.0000000   0.0000000   0.0000000   0.0000000   0.0000000   0.0000000   0.0000000   0.0000000
 NMagM=    2.7928460   2.7928460   2.7928460   2.7928460   2.7928460   2.7928460   2.7928460   2.7928460   2.7928460   2.7928460
 AtZNuc=   1.0000000   1.0000000   1.0000000   1.0000000   1.0000000   1.0000000   1.0000000   1.0000000   1.0000000   1.0000000

  Atom        61          62          63          64          65          66          67          68
 IAtWgt=           1           1           1           1           1           1           1           1
 AtmWgt=   1.0078250   1.0078250   1.0078250   1.0078250   1.0078250   1.0078250   1.0078250   1.0078250
 NucSpn=           1           1           1           1           1           1           1           1
 AtZEff=  -0.0000000  -0.0000000  -0.0000000  -0.0000000  -0.0000000  -0.0000000  -0.0000000  -0.0000000
 NQMom=    0.0000000   0.0000000   0.0000000   0.0000000   0.0000000   0.0000000   0.0000000   0.0000000
 NMagM=    2.7928460   2.7928460   2.7928460   2.7928460   2.7928460   2.7928460   2.7928460   2.7928460
 AtZNuc=   1.0000000   1.0000000   1.0000000   1.0000000   1.0000000   1.0000000   1.0000000   1.0000000
 Leave Link  101 at Sat Jul 25 16:04:28 2020, MaxMem=  4026531840 cpu:               3.4 elap:               0.4
 (Enter /opt/ohpc/pub/libs/gaussian/g16-A.03/sandybridge/g16/l103.exe)

 GradGradGradGradGradGradGradGradGradGradGradGradGradGradGradGradGradGrad
 Berny optimization.
 Initialization pass.
                           ----------------------------
                           !    Initial Parameters    !
                           ! (Angstroms and Degrees)  !
 --------------------------                            --------------------------
 ! Name  Definition              Value          Derivative Info.                !
 --------------------------------------------------------------------------------
 ! R1    R(1,2)                  1.3405         estimate D2E/DX2                !
 ! R2    R(1,7)                  1.6834         estimate D2E/DX2                !
 ! R3    R(1,43)                 1.1018         estimate D2E/DX2                !
 ! R4    R(2,3)                  1.4546         estimate D2E/DX2                !
 ! R5    R(2,44)                 1.0687         estimate D2E/DX2                !
 ! R6    R(3,4)                  1.3428         estimate D2E/DX2                !
 ! R7    R(3,6)                  1.4121         estimate D2E/DX2                !
 ! R8    R(4,5)                  1.464          estimate D2E/DX2                !
 ! R9    R(5,45)                 1.1037         estimate D2E/DX2                !
 ! R10   R(5,46)                 1.1336         estimate D2E/DX2                !
 ! R11   R(5,47)                 1.0215         estimate D2E/DX2                !
 ! R12   R(6,7)                  1.7416         estimate D2E/DX2                !
 ! R13   R(6,8)                  1.407          estimate D2E/DX2                !
 ! R14   R(8,9)                  1.3648         estimate D2E/DX2                !
 ! R15   R(8,14)                 1.7316         estimate D2E/DX2                !
 ! R16   R(9,10)                 1.4437         estimate D2E/DX2                !
 ! R17   R(9,12)                 1.3634         estimate D2E/DX2                !
 ! R18   R(10,11)                1.4602         estimate D2E/DX2                !
 ! R19   R(11,48)                1.1025         estimate D2E/DX2                !
 ! R20   R(11,49)                1.1087         estimate D2E/DX2                !
 ! R21   R(11,50)                1.0555         estimate D2E/DX2                !
 ! R22   R(12,13)                1.3501         estimate D2E/DX2                !
 ! R23   R(12,51)                1.0987         estimate D2E/DX2                !
 ! R24   R(13,14)                1.7808         estimate D2E/DX2                !
 ! R25   R(13,15)                1.4345         estimate D2E/DX2                !
 ! R26   R(15,16)                1.3972         estimate D2E/DX2                !
 ! R27   R(15,21)                1.7164         estimate D2E/DX2                !
 ! R28   R(16,17)                1.4947         estimate D2E/DX2                !
 ! R29   R(16,52)                1.0897         estimate D2E/DX2                !
 ! R30   R(17,18)                1.3513         estimate D2E/DX2                !
 ! R31   R(17,20)                1.381          estimate D2E/DX2                !
 ! R32   R(18,19)                1.4731         estimate D2E/DX2                !
 ! R33   R(19,53)                1.1452         estimate D2E/DX2                !
 ! R34   R(19,54)                1.1076         estimate D2E/DX2                !
 ! R35   R(19,55)                1.0879         estimate D2E/DX2                !
 ! R36   R(20,21)                1.7264         estimate D2E/DX2                !
 ! R37   R(20,22)                1.3637         estimate D2E/DX2                !
 ! R38   R(22,23)                1.4262         estimate D2E/DX2                !
 ! R39   R(22,28)                1.6942         estimate D2E/DX2                !
 ! R40   R(23,24)                1.3667         estimate D2E/DX2                !
 ! R41   R(23,26)                1.429          estimate D2E/DX2                !
 ! R42   R(24,25)                1.3684         estimate D2E/DX2                !
 ! R43   R(25,56)                1.1645         estimate D2E/DX2                !
 ! R44   R(25,57)                1.1184         estimate D2E/DX2                !
 ! R45   R(25,58)                1.0718         estimate D2E/DX2                !
 ! R46   R(26,27)                1.3956         estimate D2E/DX2                !
 ! R47   R(26,59)                1.0824         estimate D2E/DX2                !
 ! R48   R(27,28)                1.7683         estimate D2E/DX2                !
 ! R49   R(27,29)                1.4494         estimate D2E/DX2                !
 ! R50   R(29,30)                1.3133         estimate D2E/DX2                !
 ! R51   R(29,35)                1.7457         estimate D2E/DX2                !
 ! R52   R(30,31)                1.4991         estimate D2E/DX2                !
 ! R53   R(30,60)                1.047          estimate D2E/DX2                !
 ! R54   R(31,32)                1.3613         estimate D2E/DX2                !
 ! R55   R(31,34)                1.3353         estimate D2E/DX2                !
 ! R56   R(32,33)                1.3958         estimate D2E/DX2                !
 ! R57   R(33,61)                1.1018         estimate D2E/DX2                !
 ! R58   R(33,62)                1.1612         estimate D2E/DX2                !
 ! R59   R(33,63)                1.0259         estimate D2E/DX2                !
 ! R60   R(34,35)                1.7168         estimate D2E/DX2                !
 ! R61   R(34,36)                1.523          estimate D2E/DX2                !
 ! R62   R(36,37)                1.3034         estimate D2E/DX2                !
 ! R63   R(36,42)                1.7225         estimate D2E/DX2                !
 ! R64   R(37,38)                1.3954         estimate D2E/DX2                !
 ! R65   R(37,40)                1.4793         estimate D2E/DX2                !
 ! R66   R(38,39)                1.45           estimate D2E/DX2                !
 ! R67   R(39,64)                1.0988         estimate D2E/DX2                !
 ! R68   R(39,65)                1.0734         estimate D2E/DX2                !
 ! R69   R(39,66)                1.0429         estimate D2E/DX2                !
 ! R70   R(40,41)                1.3397         estimate D2E/DX2                !
 ! R71   R(40,67)                1.0323         estimate D2E/DX2                !
 ! R72   R(41,42)                1.6269         estimate D2E/DX2                !
 ! R73   R(41,68)                1.121          estimate D2E/DX2                !
 ! A1    A(2,1,7)              115.5229         estimate D2E/DX2                !
 ! A2    A(2,1,43)             127.8256         estimate D2E/DX2                !
 ! A3    A(7,1,43)             116.2315         estimate D2E/DX2                !
 ! A4    A(1,2,3)              109.6466         estimate D2E/DX2                !
 ! A5    A(1,2,44)             124.8299         estimate D2E/DX2                !
 ! A6    A(3,2,44)             125.5097         estimate D2E/DX2                !
 ! A7    A(2,3,4)              126.3215         estimate D2E/DX2                !
 ! A8    A(2,3,6)              113.9828         estimate D2E/DX2                !
 ! A9    A(4,3,6)              119.6906         estimate D2E/DX2                !
 ! A10   A(3,4,5)              116.087          estimate D2E/DX2                !
 ! A11   A(4,5,45)             105.0051         estimate D2E/DX2                !
 ! A12   A(4,5,46)             108.2018         estimate D2E/DX2                !
 ! A13   A(4,5,47)             111.7641         estimate D2E/DX2                !
 ! A14   A(45,5,46)            103.9443         estimate D2E/DX2                !
 ! A15   A(45,5,47)            111.7912         estimate D2E/DX2                !
 ! A16   A(46,5,47)            115.3584         estimate D2E/DX2                !
 ! A17   A(3,6,7)              108.0563         estimate D2E/DX2                !
 ! A18   A(3,6,8)              126.0784         estimate D2E/DX2                !
 ! A19   A(7,6,8)              125.8608         estimate D2E/DX2                !
 ! A20   A(1,7,6)               92.7622         estimate D2E/DX2                !
 ! A21   A(6,8,9)              127.5729         estimate D2E/DX2                !
 ! A22   A(6,8,14)             120.6624         estimate D2E/DX2                !
 ! A23   A(9,8,14)             111.3236         estimate D2E/DX2                !
 ! A24   A(8,9,10)             118.0032         estimate D2E/DX2                !
 ! A25   A(8,9,12)             113.6087         estimate D2E/DX2                !
 ! A26   A(10,9,12)            128.0109         estimate D2E/DX2                !
 ! A27   A(9,10,11)            112.1249         estimate D2E/DX2                !
 ! A28   A(10,11,48)           111.1562         estimate D2E/DX2                !
 ! A29   A(10,11,49)           103.1305         estimate D2E/DX2                !
 ! A30   A(10,11,50)           113.4166         estimate D2E/DX2                !
 ! A31   A(48,11,49)           107.2371         estimate D2E/DX2                !
 ! A32   A(48,11,50)           111.4894         estimate D2E/DX2                !
 ! A33   A(49,11,50)           109.9109         estimate D2E/DX2                !
 ! A34   A(9,12,13)            115.0997         estimate D2E/DX2                !
 ! A35   A(9,12,51)            128.1304         estimate D2E/DX2                !
 ! A36   A(13,12,51)           116.7684         estimate D2E/DX2                !
 ! A37   A(12,13,14)           109.5653         estimate D2E/DX2                !
 ! A38   A(12,13,15)           130.8088         estimate D2E/DX2                !
 ! A39   A(14,13,15)           119.5066         estimate D2E/DX2                !
 ! A40   A(8,14,13)             90.1105         estimate D2E/DX2                !
 ! A41   A(13,15,16)           126.003          estimate D2E/DX2                !
 ! A42   A(13,15,21)           122.8924         estimate D2E/DX2                !
 ! A43   A(16,15,21)           110.9016         estimate D2E/DX2                !
 ! A44   A(15,16,17)           110.424          estimate D2E/DX2                !
 ! A45   A(15,16,52)           125.0796         estimate D2E/DX2                !
 ! A46   A(17,16,52)           124.4515         estimate D2E/DX2                !
 ! A47   A(16,17,18)           126.8206         estimate D2E/DX2                !
 ! A48   A(16,17,20)           114.0834         estimate D2E/DX2                !
 ! A49   A(18,17,20)           119.0898         estimate D2E/DX2                !
 ! A50   A(17,18,19)           114.7355         estimate D2E/DX2                !
 ! A51   A(18,19,53)           104.4121         estimate D2E/DX2                !
 ! A52   A(18,19,54)           108.6394         estimate D2E/DX2                !
 ! A53   A(18,19,55)           113.0352         estimate D2E/DX2                !
 ! A54   A(53,19,54)           106.2636         estimate D2E/DX2                !
 ! A55   A(53,19,55)           111.2161         estimate D2E/DX2                !
 ! A56   A(54,19,55)           112.7322         estimate D2E/DX2                !
 ! A57   A(17,20,21)           109.1057         estimate D2E/DX2                !
 ! A58   A(17,20,22)           129.9824         estimate D2E/DX2                !
 ! A59   A(21,20,22)           120.9014         estimate D2E/DX2                !
 ! A60   A(15,21,20)            95.399          estimate D2E/DX2                !
 ! A61   A(20,22,23)           126.0032         estimate D2E/DX2                !
 ! A62   A(20,22,28)           122.4568         estimate D2E/DX2                !
 ! A63   A(23,22,28)           111.5144         estimate D2E/DX2                !
 ! A64   A(22,23,24)           122.3942         estimate D2E/DX2                !
 ! A65   A(22,23,26)           110.8054         estimate D2E/DX2                !
 ! A66   A(24,23,26)           126.7364         estimate D2E/DX2                !
 ! A67   A(23,24,25)           113.4043         estimate D2E/DX2                !
 ! A68   A(24,25,56)           113.2631         estimate D2E/DX2                !
 ! A69   A(24,25,57)           105.1921         estimate D2E/DX2                !
 ! A70   A(24,25,58)           113.0609         estimate D2E/DX2                !
 ! A71   A(56,25,57)           103.2725         estimate D2E/DX2                !
 ! A72   A(56,25,58)           110.2856         estimate D2E/DX2                !
 ! A73   A(57,25,58)           111.2204         estimate D2E/DX2                !
 ! A74   A(23,26,27)           115.5424         estimate D2E/DX2                !
 ! A75   A(23,26,59)           126.4891         estimate D2E/DX2                !
 ! A76   A(27,26,59)           117.8947         estimate D2E/DX2                !
 ! A77   A(26,27,28)           107.8409         estimate D2E/DX2                !
 ! A78   A(26,27,29)           133.6803         estimate D2E/DX2                !
 ! A79   A(28,27,29)           118.4551         estimate D2E/DX2                !
 ! A80   A(22,28,27)            94.2709         estimate D2E/DX2                !
 ! A81   A(27,29,30)           132.2556         estimate D2E/DX2                !
 ! A82   A(27,29,35)           117.4993         estimate D2E/DX2                !
 ! A83   A(30,29,35)           110.2387         estimate D2E/DX2                !
 ! A84   A(29,30,31)           115.9521         estimate D2E/DX2                !
 ! A85   A(29,30,60)           123.9625         estimate D2E/DX2                !
 ! A86   A(31,30,60)           119.9125         estimate D2E/DX2                !
 ! A87   A(30,31,32)           127.895          estimate D2E/DX2                !
 ! A88   A(30,31,34)           106.9916         estimate D2E/DX2                !
 ! A89   A(32,31,34)           125.017          estimate D2E/DX2                !
 ! A90   A(31,32,33)           114.7687         estimate D2E/DX2                !
 ! A91   A(32,33,61)           111.6125         estimate D2E/DX2                !
 ! A92   A(32,33,62)           103.8631         estimate D2E/DX2                !
 ! A93   A(32,33,63)           112.4732         estimate D2E/DX2                !
 ! A94   A(61,33,62)           104.609          estimate D2E/DX2                !
 ! A95   A(61,33,63)           117.8239         estimate D2E/DX2                !
 ! A96   A(62,33,63)           104.8639         estimate D2E/DX2                !
 ! A97   A(31,34,35)           115.7405         estimate D2E/DX2                !
 ! A98   A(31,34,36)           127.3043         estimate D2E/DX2                !
 ! A99   A(35,34,36)           116.9442         estimate D2E/DX2                !
 ! A100  A(29,35,34)            90.8817         estimate D2E/DX2                !
 ! A101  A(34,36,37)           128.7761         estimate D2E/DX2                !
 ! A102  A(34,36,42)           119.1163         estimate D2E/DX2                !
 ! A103  A(37,36,42)           112.0512         estimate D2E/DX2                !
 ! A104  A(36,37,38)           122.4999         estimate D2E/DX2                !
 ! A105  A(36,37,40)           112.5322         estimate D2E/DX2                !
 ! A106  A(38,37,40)           124.8427         estimate D2E/DX2                !
 ! A107  A(37,38,39)           117.2628         estimate D2E/DX2                !
 ! A108  A(38,39,64)           112.0804         estimate D2E/DX2                !
 ! A109  A(38,39,65)           106.8481         estimate D2E/DX2                !
 ! A110  A(38,39,66)           104.4378         estimate D2E/DX2                !
 ! A111  A(64,39,65)           110.5382         estimate D2E/DX2                !
 ! A112  A(64,39,66)           109.6818         estimate D2E/DX2                !
 ! A113  A(65,39,66)           113.1178         estimate D2E/DX2                !
 ! A114  A(37,40,41)           107.8133         estimate D2E/DX2                !
 ! A115  A(37,40,67)           125.4385         estimate D2E/DX2                !
 ! A116  A(41,40,67)           126.6933         estimate D2E/DX2                !
 ! A117  A(40,41,42)           116.5247         estimate D2E/DX2                !
 ! A118  A(40,41,68)           121.8959         estimate D2E/DX2                !
 ! A119  A(42,41,68)           121.5153         estimate D2E/DX2                !
 ! A120  A(36,42,41)            91.0105         estimate D2E/DX2                !
 ! D1    D(7,1,2,3)             -1.6649         estimate D2E/DX2                !
 ! D2    D(7,1,2,44)           179.6262         estimate D2E/DX2                !
 ! D3    D(43,1,2,3)          -173.8831         estimate D2E/DX2                !
 ! D4    D(43,1,2,44)            7.4081         estimate D2E/DX2                !
 ! D5    D(2,1,7,6)              0.8716         estimate D2E/DX2                !
 ! D6    D(43,1,7,6)           174.0239         estimate D2E/DX2                !
 ! D7    D(1,2,3,4)           -177.3167         estimate D2E/DX2                !
 ! D8    D(1,2,3,6)              1.8505         estimate D2E/DX2                !
 ! D9    D(44,2,3,4)             1.3813         estimate D2E/DX2                !
 ! D10   D(44,2,3,6)          -179.4515         estimate D2E/DX2                !
 ! D11   D(2,3,4,5)              3.7936         estimate D2E/DX2                !
 ! D12   D(6,3,4,5)           -175.3304         estimate D2E/DX2                !
 ! D13   D(2,3,6,7)             -1.218          estimate D2E/DX2                !
 ! D14   D(2,3,6,8)            179.5221         estimate D2E/DX2                !
 ! D15   D(4,3,6,7)            178.0095         estimate D2E/DX2                !
 ! D16   D(4,3,6,8)             -1.2503         estimate D2E/DX2                !
 ! D17   D(3,4,5,45)           171.8733         estimate D2E/DX2                !
 ! D18   D(3,4,5,46)            61.3391         estimate D2E/DX2                !
 ! D19   D(3,4,5,47)           -66.7379         estimate D2E/DX2                !
 ! D20   D(3,6,7,1)              0.2436         estimate D2E/DX2                !
 ! D21   D(8,6,7,1)            179.5055         estimate D2E/DX2                !
 ! D22   D(3,6,8,9)           -122.0045         estimate D2E/DX2                !
 ! D23   D(3,6,8,14)            66.3063         estimate D2E/DX2                !
 ! D24   D(7,6,8,9)             58.8639         estimate D2E/DX2                !
 ! D25   D(7,6,8,14)          -112.8254         estimate D2E/DX2                !
 ! D26   D(6,8,9,10)             8.7643         estimate D2E/DX2                !
 ! D27   D(6,8,9,12)          -177.7193         estimate D2E/DX2                !
 ! D28   D(14,8,9,10)         -178.9059         estimate D2E/DX2                !
 ! D29   D(14,8,9,12)           -5.3894         estimate D2E/DX2                !
 ! D30   D(6,8,14,13)          175.6667         estimate D2E/DX2                !
 ! D31   D(9,8,14,13)            2.7308         estimate D2E/DX2                !
 ! D32   D(8,9,10,11)          172.6277         estimate D2E/DX2                !
 ! D33   D(12,9,10,11)           0.1737         estimate D2E/DX2                !
 ! D34   D(8,9,12,13)            6.0138         estimate D2E/DX2                !
 ! D35   D(8,9,12,51)         -174.451          estimate D2E/DX2                !
 ! D36   D(10,9,12,13)         178.7442         estimate D2E/DX2                !
 ! D37   D(10,9,12,51)          -1.7205         estimate D2E/DX2                !
 ! D38   D(9,10,11,48)          65.0839         estimate D2E/DX2                !
 ! D39   D(9,10,11,49)         179.7007         estimate D2E/DX2                !
 ! D40   D(9,10,11,50)         -61.4759         estimate D2E/DX2                !
 ! D41   D(9,12,13,14)          -3.6963         estimate D2E/DX2                !
 ! D42   D(9,12,13,15)        -179.6108         estimate D2E/DX2                !
 ! D43   D(51,12,13,14)        176.7131         estimate D2E/DX2                !
 ! D44   D(51,12,13,15)          0.7986         estimate D2E/DX2                !
 ! D45   D(12,13,14,8)           0.4888         estimate D2E/DX2                !
 ! D46   D(15,13,14,8)         176.9364         estimate D2E/DX2                !
 ! D47   D(12,13,15,16)        140.8247         estimate D2E/DX2                !
 ! D48   D(12,13,15,21)        -33.5184         estimate D2E/DX2                !
 ! D49   D(14,13,15,16)        -34.7513         estimate D2E/DX2                !
 ! D50   D(14,13,15,21)        150.9055         estimate D2E/DX2                !
 ! D51   D(13,15,16,17)       -175.8418         estimate D2E/DX2                !
 ! D52   D(13,15,16,52)          1.8074         estimate D2E/DX2                !
 ! D53   D(21,15,16,17)         -0.9248         estimate D2E/DX2                !
 ! D54   D(21,15,16,52)        176.7244         estimate D2E/DX2                !
 ! D55   D(13,15,21,20)        177.276          estimate D2E/DX2                !
 ! D56   D(16,15,21,20)          2.1727         estimate D2E/DX2                !
 ! D57   D(15,16,17,18)        179.6961         estimate D2E/DX2                !
 ! D58   D(15,16,17,20)         -1.224          estimate D2E/DX2                !
 ! D59   D(52,16,17,18)          2.0291         estimate D2E/DX2                !
 ! D60   D(52,16,17,20)       -178.891          estimate D2E/DX2                !
 ! D61   D(16,17,18,19)          5.4597         estimate D2E/DX2                !
 ! D62   D(20,17,18,19)       -173.579          estimate D2E/DX2                !
 ! D63   D(16,17,20,21)          2.7425         estimate D2E/DX2                !
 ! D64   D(16,17,20,22)       -178.4509         estimate D2E/DX2                !
 ! D65   D(18,17,20,21)       -178.1004         estimate D2E/DX2                !
 ! D66   D(18,17,20,22)          0.7062         estimate D2E/DX2                !
 ! D67   D(17,18,19,53)       -178.9876         estimate D2E/DX2                !
 ! D68   D(17,18,19,54)        -65.9183         estimate D2E/DX2                !
 ! D69   D(17,18,19,55)         59.9957         estimate D2E/DX2                !
 ! D70   D(17,20,21,15)         -2.8247         estimate D2E/DX2                !
 ! D71   D(22,20,21,15)        178.241          estimate D2E/DX2                !
 ! D72   D(17,20,22,23)       -124.2063         estimate D2E/DX2                !
 ! D73   D(17,20,22,28)         53.7914         estimate D2E/DX2                !
 ! D74   D(21,20,22,23)         54.4794         estimate D2E/DX2                !
 ! D75   D(21,20,22,28)       -127.5228         estimate D2E/DX2                !
 ! D76   D(20,22,23,24)         -5.3881         estimate D2E/DX2                !
 ! D77   D(20,22,23,26)        177.3399         estimate D2E/DX2                !
 ! D78   D(28,22,23,24)        176.4279         estimate D2E/DX2                !
 ! D79   D(28,22,23,26)         -0.8442         estimate D2E/DX2                !
 ! D80   D(20,22,28,27)       -176.8904         estimate D2E/DX2                !
 ! D81   D(23,22,28,27)          1.3686         estimate D2E/DX2                !
 ! D82   D(22,23,24,25)       -168.6976         estimate D2E/DX2                !
 ! D83   D(26,23,24,25)          8.1199         estimate D2E/DX2                !
 ! D84   D(22,23,26,27)         -0.3441         estimate D2E/DX2                !
 ! D85   D(22,23,26,59)        176.4455         estimate D2E/DX2                !
 ! D86   D(24,23,26,27)       -177.4698         estimate D2E/DX2                !
 ! D87   D(24,23,26,59)         -0.6801         estimate D2E/DX2                !
 ! D88   D(23,24,25,56)        -69.4284         estimate D2E/DX2                !
 ! D89   D(23,24,25,57)        178.5048         estimate D2E/DX2                !
 ! D90   D(23,24,25,58)         56.9546         estimate D2E/DX2                !
 ! D91   D(23,26,27,28)          1.2962         estimate D2E/DX2                !
 ! D92   D(23,26,27,29)       -176.8395         estimate D2E/DX2                !
 ! D93   D(59,26,27,28)       -175.7837         estimate D2E/DX2                !
 ! D94   D(59,26,27,29)          6.0805         estimate D2E/DX2                !
 ! D95   D(26,27,28,22)         -1.5095         estimate D2E/DX2                !
 ! D96   D(29,27,28,22)        176.9571         estimate D2E/DX2                !
 ! D97   D(26,27,29,30)       -179.6856         estimate D2E/DX2                !
 ! D98   D(26,27,29,35)         -0.7167         estimate D2E/DX2                !
 ! D99   D(28,27,29,30)          2.3329         estimate D2E/DX2                !
 ! D100  D(28,27,29,35)       -178.6982         estimate D2E/DX2                !
 ! D101  D(27,29,30,31)       -176.0818         estimate D2E/DX2                !
 ! D102  D(27,29,30,60)         -0.8797         estimate D2E/DX2                !
 ! D103  D(35,29,30,31)          4.8931         estimate D2E/DX2                !
 ! D104  D(35,29,30,60)       -179.9049         estimate D2E/DX2                !
 ! D105  D(27,29,35,34)        177.1173         estimate D2E/DX2                !
 ! D106  D(30,29,35,34)         -3.6962         estimate D2E/DX2                !
 ! D107  D(29,30,31,32)        179.7755         estimate D2E/DX2                !
 ! D108  D(29,30,31,34)         -3.6867         estimate D2E/DX2                !
 ! D109  D(60,30,31,32)          4.366          estimate D2E/DX2                !
 ! D110  D(60,30,31,34)       -179.0961         estimate D2E/DX2                !
 ! D111  D(30,31,32,33)         -9.4331         estimate D2E/DX2                !
 ! D112  D(34,31,32,33)        174.6106         estimate D2E/DX2                !
 ! D113  D(30,31,34,35)          0.6426         estimate D2E/DX2                !
 ! D114  D(30,31,34,36)       -178.1            estimate D2E/DX2                !
 ! D115  D(32,31,34,35)        177.3067         estimate D2E/DX2                !
 ! D116  D(32,31,34,36)         -1.4358         estimate D2E/DX2                !
 ! D117  D(31,32,33,61)        -62.5962         estimate D2E/DX2                !
 ! D118  D(31,32,33,62)       -174.7571         estimate D2E/DX2                !
 ! D119  D(31,32,33,63)         72.4113         estimate D2E/DX2                !
 ! D120  D(31,34,35,29)          1.6355         estimate D2E/DX2                !
 ! D121  D(36,34,35,29)       -179.4865         estimate D2E/DX2                !
 ! D122  D(31,34,36,37)        109.3982         estimate D2E/DX2                !
 ! D123  D(31,34,36,42)        -67.6356         estimate D2E/DX2                !
 ! D124  D(35,34,36,37)        -69.3313         estimate D2E/DX2                !
 ! D125  D(35,34,36,42)        113.635          estimate D2E/DX2                !
 ! D126  D(34,36,37,38)         -1.9467         estimate D2E/DX2                !
 ! D127  D(34,36,37,40)       -178.0607         estimate D2E/DX2                !
 ! D128  D(42,36,37,38)        175.2575         estimate D2E/DX2                !
 ! D129  D(42,36,37,40)         -0.8565         estimate D2E/DX2                !
 ! D130  D(34,36,42,41)        176.8838         estimate D2E/DX2                !
 ! D131  D(37,36,42,41)         -0.6215         estimate D2E/DX2                !
 ! D132  D(36,37,38,39)        177.237          estimate D2E/DX2                !
 ! D133  D(40,37,38,39)         -7.1373         estimate D2E/DX2                !
 ! D134  D(36,37,40,41)          2.2932         estimate D2E/DX2                !
 ! D135  D(36,37,40,67)        179.7446         estimate D2E/DX2                !
 ! D136  D(38,37,40,41)       -173.7132         estimate D2E/DX2                !
 ! D137  D(38,37,40,67)          3.7381         estimate D2E/DX2                !
 ! D138  D(37,38,39,64)        -57.5144         estimate D2E/DX2                !
 ! D139  D(37,38,39,65)         63.7124         estimate D2E/DX2                !
 ! D140  D(37,38,39,66)       -176.1832         estimate D2E/DX2                !
 ! D141  D(37,40,41,42)         -2.8628         estimate D2E/DX2                !
 ! D142  D(37,40,41,68)       -179.9909         estimate D2E/DX2                !
 ! D143  D(67,40,41,42)        179.7269         estimate D2E/DX2                !
 ! D144  D(67,40,41,68)          2.5987         estimate D2E/DX2                !
 ! D145  D(40,41,42,36)          2.1415         estimate D2E/DX2                !
 ! D146  D(68,41,42,36)        179.2814         estimate D2E/DX2                !
 --------------------------------------------------------------------------------
 Trust Radius=3.00D-01 FncErr=1.00D-07 GrdErr=1.00D-06 EigMax=2.50D+02 EigMin=1.00D-04
 Number of steps in this run=    349 maximum allowed number of steps=    408.
 GradGradGradGradGradGradGradGradGradGradGradGradGradGradGradGradGradGrad

 Leave Link  103 at Sat Jul 25 16:04:28 2020, MaxMem=  4026531840 cpu:               0.2 elap:               0.1
 (Enter /opt/ohpc/pub/libs/gaussian/g16-A.03/sandybridge/g16/l202.exe)
 Stoichiometry    C30H26O6S6
 Framework group  C1[X(C30H26O6S6)]
 Deg. of freedom   198
 Full point group                 C1      NOp   1
 Largest Abelian subgroup         C1      NOp   1
 Largest concise Abelian subgroup C1      NOp   1
                         Standard orientation:                         
 ---------------------------------------------------------------------
 Center     Atomic      Atomic             Coordinates (Angstroms)
 Number     Number       Type             X           Y           Z
 ---------------------------------------------------------------------
      1          6           0       10.528126   -0.222301    1.866202
      2          6           0       10.494610   -0.992065    0.769217
      3          6           0        9.188755   -0.886211    0.137182
      4          8           0        8.775783   -1.554266   -0.951986
      5          6           0        9.713290   -2.537098   -1.498325
      6          6           0        8.308113    0.007318    0.785351
      7         16           0        9.126868    0.656722    2.178549
      8          6           0        6.992774    0.309173    0.387283
      9          6           0        6.477878    1.534178    0.076087
     10          8           0        7.392628    2.645479   -0.035576
     11          6           0        6.736694    3.849333   -0.538289
     12          6           0        5.148962    1.506823   -0.227467
     13          6           0        4.544813    0.312926   -0.047363
     14         16           0        5.753076   -0.898344    0.446612
     15          6           0        3.185875   -0.092282   -0.264035
     16          6           0        2.768073   -1.317239   -0.790371
     17          6           0        1.282961   -1.333209   -0.958961
     18          8           0        0.533934   -2.347496   -1.445030
     19          6           0        1.279769   -3.587650   -1.720090
     20          6           0        0.656194   -0.174788   -0.543824
     21         16           0        1.850325    0.959154   -0.025375
     22          6           0       -0.669223    0.145560   -0.523872
     23          6           0       -1.266948    1.280398   -1.147604
     24          8           0       -0.528068    2.251380   -1.763269
     25          6           0       -1.253891    3.366787   -2.081763
     26          6           0       -2.685177    1.267199   -0.973142
     27          6           0       -3.193488    0.181500   -0.258599
     28         16           0       -1.828792   -0.828813    0.235274
     29          6           0       -4.532935   -0.248536    0.090211
     30          6           0       -4.980486   -1.277873    0.771988
     31          6           0       -6.471118   -1.423044    0.837997
     32          8           0       -7.189734   -2.392172    1.468547
     33          6           0       -6.433195   -3.462965    1.947529
     34          6           0       -6.994274   -0.364240    0.214859
     35         16           0       -5.863586    0.749474   -0.439764
     36          6           0       -8.470196   -0.028118    0.047235
     37          6           0       -9.159350    0.924665    0.609411
     38          8           0       -8.602260    1.806087    1.536770
     39          6           0       -9.455966    2.862061    2.045443
     40          6           0      -10.587000    0.895464    0.223044
     41          6           0      -10.773322   -0.162308   -0.577652
     42         16           0       -9.450721   -1.033433   -0.950252
     43          1           0       11.392546   -0.007303    2.514594
     44          1           0       11.301055   -1.605321    0.428987
     45          1           0        9.143770   -3.073076   -2.277168
     46          1           0        9.901278   -3.325693   -0.705975
     47          1           0       10.549809   -2.091574   -1.879252
     48          1           0        5.980012    4.217174    0.174142
     49          1           0        7.558007    4.593790   -0.558737
     50          1           0        6.332310    3.733548   -1.506354
     51          1           0        4.518679    2.330742   -0.589328
     52          1           0        3.429964   -2.133773   -1.077930
     53          1           0        0.492110   -4.307811   -2.135383
     54          1           0        1.991859   -3.396555   -2.546655
     55          1           0        1.762320   -3.999108   -0.836186
     56          1           0       -2.025900    3.185168   -2.934444
     57          1           0       -0.519844    4.071484   -2.545808
     58          1           0       -1.735022    3.811005   -1.233297
     59          1           0       -3.380478    2.031596   -1.295379
     60          1           0       -4.365126   -2.013747    1.191634
     61          1           0       -5.932463   -4.004364    1.128939
     62          1           0       -7.228430   -4.208270    2.348224
     63          1           0       -5.871963   -3.210473    2.768347
     64          1           0       -9.857136    3.492823    1.240153
     65          1           0      -10.253382    2.385528    2.583264
     66          1           0       -8.830878    3.429519    2.657784
     67          1           0      -11.310079    1.553888    0.553481
     68          1           0      -11.777923   -0.408174   -1.010112
 ---------------------------------------------------------------------
 Rotational constants (GHZ):           0.1881545           0.0166215           0.0160478
 Leave Link  202 at Sat Jul 25 16:04:28 2020, MaxMem=  4026531840 cpu:               0.3 elap:               0.1
 (Enter /opt/ohpc/pub/libs/gaussian/g16-A.03/sandybridge/g16/l301.exe)
 Standard basis: CC-pVDZ (5D, 7F)
 Ernie: Thresh=  0.10000D-02 Tol=  0.10000D-05 Strict=F.
 Ernie:  132 primitive shells out of 1222 were deleted.
 There are   784 symmetry adapted cartesian basis functions of A   symmetry.
 There are   742 symmetry adapted basis functions of A   symmetry.
   742 basis functions,  1796 primitive gaussians,   784 cartesian basis functions
   175 alpha electrons      175 beta electrons
       nuclear repulsion energy      5661.2278714180 Hartrees.
 IExCor=32609 DFT=T Ex+Corr=LC-wPBE ExCW=0 ScaHFX=  1.000000
 ScaDFX=  1.000000  0.000000  1.000000  1.000000 ScalE2=  1.000000  1.000000
 IRadAn=      5 IRanWt=     -1 IRanGd=            0 ICorTp=0 IEmpDi=  4
 HFx  wShort=  0.000000 wLong=  0.083500 cFull=  0.000000 cShort=  0.000000 cLong=  1.000000
 DFx  wShort=  0.000000 wLong=  0.083500 cFull=  0.000000 cShort=  0.000000 cLong=  1.000000
 NAtoms=   68 NActive=   68 NUniq=   68 SFac= 1.00D+00 NAtFMM=   60 NAOKFM=T Big=T
 Integral buffers will be    131072 words long.
 Raffenetti 2 integral format.
 Two-electron integral symmetry is turned on.
 Leave Link  301 at Sat Jul 25 16:04:28 2020, MaxMem=  4026531840 cpu:               0.5 elap:               0.1
 (Enter /opt/ohpc/pub/libs/gaussian/g16-A.03/sandybridge/g16/l302.exe)
 NPDir=0 NMtPBC=     1 NCelOv=     1 NCel=       1 NClECP=     1 NCelD=      1
         NCelK=      1 NCelE2=     1 NClLst=     1 CellRange=     0.0.
 One-electron integrals computed using PRISM.
 One-electron integral symmetry used in STVInt
 NBasis=   742 RedAO= T EigKep=  2.82D-04  NBF=   742
 NBsUse=   742 1.00D-06 EigRej= -1.00D+00 NBFU=   742
 Precomputing XC quadrature grid using
 IXCGrd= 4 IRadAn=           5 IRanWt=          -1 IRanGd=           0 AccXCQ= 0.00D+00.
 Generated NRdTot=       0 NPtTot=           0 NUsed=           0 NTot=          32
 NSgBfM=   683   664   674   682   683 MxSgAt=    68 MxSgA2=    68.
 Leave Link  302 at Sat Jul 25 16:04:31 2020, MaxMem=  4026531840 cpu:              25.3 elap:               3.2
 (Enter /opt/ohpc/pub/libs/gaussian/g16-A.03/sandybridge/g16/l303.exe)
 DipDrv:  MaxL=1.
 Leave Link  303 at Sat Jul 25 16:04:31 2020, MaxMem=  4026531840 cpu:               1.7 elap:               0.2
 (Enter /opt/ohpc/pub/libs/gaussian/g16-A.03/sandybridge/g16/l401.exe)
 ExpMin= 1.22D-01 ExpMax= 1.11D+05 ExpMxC= 1.07D+03 IAcc=3 IRadAn=         5 AccDes= 0.00D+00
 Harris functional with IExCor=32609 and IRadAn=       5 diagonalized for initial guess.
 HarFok:  IExCor=32609 AccDes= 0.00D+00 IRadAn=         5 IDoV= 1 UseB2=F ITyADJ=14
 ICtDFT=  3500011 ScaDFX=  1.000000  1.000000  1.000000  1.000000
 FoFCou: FMM=F IPFlag=           0 FMFlag=      100000 FMFlg1=        2001
         NFxFlg=           0 DoJE=T BraDBF=F KetDBF=T FulRan=T
         wScrn=  0.000000 ICntrl=       500 IOpCl=  0 I1Cent=   200000004 NGrid=           0
         NMat0=    1 NMatS0=      1 NMatT0=    0 NMatD0=    1 NMtDS0=    0 NMtDT0=    0
 Petite list used in FoFCou.
 Harris En= -3996.88528600330    
 JPrj=0 DoOrth=F DoCkMO=F.
 Initial guess <Sx>= 0.0000 <Sy>= 0.0000 <Sz>= 0.0000 <S**2>= 0.0000 S= 0.0000
 Leave Link  401 at Sat Jul 25 16:04:44 2020, MaxMem=  4026531840 cpu:             100.9 elap:              12.7
 (Enter /opt/ohpc/pub/libs/gaussian/g16-A.03/sandybridge/g16/l502.exe)
 Integral symmetry usage will be decided dynamically.
 UHF open shell SCF:
 Using DIIS extrapolation, IDIIS=  1040.
 NGot=  4026531840 LenX=  4025288188 LenY=  4024672748
 Requested convergence on RMS density matrix=1.00D-08 within 128 cycles.
 Requested convergence on MAX density matrix=1.00D-06.
 Requested convergence on             energy=1.00D-06.
 No special actions if energy rises.
 Fock matrices will be formed incrementally for  20 cycles.
 Integral accuracy reduced to 1.0D-05 until final iterations.

 Cycle   1  Pass 0  IDiag  1:
 FoFJK:  IHMeth= 1 ICntrl=       0 DoSepK=T KAlg= 0 I1Cent=           0 FoldK=F
 IRaf=         1 NMat=       1 IRICut=       1 DoRegI=T DoRafI=F ISym2E= 0 IDoP0=0 IntGTp=1.
 FoFCou: FMM=T IPFlag=           0 FMFlag=      100000 FMFlg1=        2001
         NFxFlg=           0 DoJE=T BraDBF=F KetDBF=F FulRan=T
         wScrn=  0.000000 ICntrl=       500 IOpCl=  0 I1Cent=           0 NGrid=           0
         NMat0=    1 NMatS0=      1 NMatT0=    0 NMatD0=    1 NMtDS0=    0 NMtDT0=    0
 Symmetry not used in FoFCou.
 FMM levels:  10  Number of levels for PrismC:   9
 E= -3995.73114468488    
 DIIS: error= 1.48D-02 at cycle   1 NSaved=   1.
 NSaved= 1 IEnMin= 1 EnMin= -3995.73114468488     IErMin= 1 ErrMin= 1.48D-02
 ErrMax= 1.48D-02  0.00D+00 EMaxC= 1.00D-01 BMatC= 3.42D+00 BMatP= 3.42D+00
 IDIUse=3 WtCom= 8.52D-01 WtEn= 1.48D-01
 Coeff-Com:  0.100D+01
 Coeff-En:   0.100D+01
 Coeff:      0.100D+01
 Gap=     0.142 Goal=   None    Shift=    0.000
 Gap=     0.142 Goal=   None    Shift=    0.000
 GapD=    0.142 DampG=1.000 DampE=0.500 DampFc=0.5000 IDamp=-1.
 Damping current iteration by 5.00D-01
 RMSDP=3.46D-03 MaxDP=1.68D-01              OVMax= 2.55D-01

 Cycle   2  Pass 0  IDiag  1:
 RMSU=  1.73D-03    CP:  9.91D-01
 E= -3996.09514177726     Delta-E=       -0.363997092380 Rises=F Damp=T
 DIIS: error= 5.04D-03 at cycle   2 NSaved=   2.
 NSaved= 2 IEnMin= 2 EnMin= -3996.09514177726     IErMin= 2 ErrMin= 5.04D-03
 ErrMax= 5.04D-03  0.00D+00 EMaxC= 1.00D-01 BMatC= 2.40D-01 BMatP= 3.42D+00
 IDIUse=3 WtCom= 9.50D-01 WtEn= 5.04D-02
 Coeff-Com:  0.160D+00 0.840D+00
 Coeff-En:   0.264D+00 0.736D+00
 Coeff:      0.165D+00 0.835D+00
 Gap=     0.176 Goal=   None    Shift=    0.000
 Gap=     0.176 Goal=   None    Shift=    0.000
 RMSDP=7.47D-04 MaxDP=4.17D-02 DE=-3.64D-01 OVMax= 2.00D-01

 Cycle   3  Pass 0  IDiag  1:
 RMSU=  6.81D-04    CP:  9.92D-01  8.22D-01
 E= -3996.69618029266     Delta-E=       -0.601038515395 Rises=F Damp=F
 DIIS: error= 2.29D-03 at cycle   3 NSaved=   3.
 NSaved= 3 IEnMin= 3 EnMin= -3996.69618029266     IErMin= 3 ErrMin= 2.29D-03
 ErrMax= 2.29D-03  0.00D+00 EMaxC= 1.00D-01 BMatC= 6.67D-02 BMatP= 2.40D-01
 IDIUse=3 WtCom= 9.77D-01 WtEn= 2.29D-02
 Coeff-Com:  0.580D-01 0.349D+00 0.593D+00
 Coeff-En:   0.000D+00 0.000D+00 0.100D+01
 Coeff:      0.567D-01 0.341D+00 0.602D+00
 Gap=     0.153 Goal=   None    Shift=    0.000
 Gap=     0.153 Goal=   None    Shift=    0.000
 RMSDP=2.82D-04 MaxDP=1.65D-02 DE=-6.01D-01 OVMax= 3.54D-02

 Cycle   4  Pass 0  IDiag  1:
 RMSU=  2.11D-04    CP:  9.92D-01  8.70D-01  7.56D-01
 E= -3996.70880722697     Delta-E=       -0.012626934311 Rises=F Damp=F
 DIIS: error= 1.52D-03 at cycle   4 NSaved=   4.
 NSaved= 4 IEnMin= 4 EnMin= -3996.70880722697     IErMin= 4 ErrMin= 1.52D-03
 ErrMax= 1.52D-03  0.00D+00 EMaxC= 1.00D-01 BMatC= 2.13D-02 BMatP= 6.67D-02
 IDIUse=3 WtCom= 9.85D-01 WtEn= 1.52D-02
 Coeff-Com:  0.201D-01 0.873D-01 0.360D+00 0.532D+00
 Coeff-En:   0.000D+00 0.000D+00 0.240D+00 0.760D+00
 Coeff:      0.198D-01 0.860D-01 0.359D+00 0.536D+00
 Gap=     0.154 Goal=   None    Shift=    0.000
 Gap=     0.154 Goal=   None    Shift=    0.000
 RMSDP=1.17D-04 MaxDP=7.81D-03 DE=-1.26D-02 OVMax= 1.42D-02

 Cycle   5  Pass 0  IDiag  1:
 RMSU=  7.66D-05    CP:  9.92D-01  8.53D-01  8.24D-01  6.75D-01
 E= -3996.71400692682     Delta-E=       -0.005199699852 Rises=F Damp=F
 DIIS: error= 5.58D-04 at cycle   5 NSaved=   5.
 NSaved= 5 IEnMin= 5 EnMin= -3996.71400692682     IErMin= 5 ErrMin= 5.58D-04
 ErrMax= 5.58D-04  0.00D+00 EMaxC= 1.00D-01 BMatC= 1.46D-03 BMatP= 2.13D-02
 IDIUse=3 WtCom= 9.94D-01 WtEn= 5.58D-03
 Coeff-Com:  0.690D-02 0.565D-03 0.113D+00 0.263D+00 0.617D+00
 Coeff-En:   0.000D+00 0.000D+00 0.000D+00 0.000D+00 0.100D+01
 Coeff:      0.686D-02 0.562D-03 0.112D+00 0.262D+00 0.619D+00
 Gap=     0.155 Goal=   None    Shift=    0.000
 Gap=     0.155 Goal=   None    Shift=    0.000
 RMSDP=3.88D-05 MaxDP=2.69D-03 DE=-5.20D-03 OVMax= 3.97D-03

 Cycle   6  Pass 0  IDiag  1:
 RMSU=  2.89D-05    CP:  9.92D-01  8.49D-01  8.37D-01  7.43D-01  7.64D-01
 E= -3996.71431649458     Delta-E=       -0.000309567758 Rises=F Damp=F
 DIIS: error= 1.82D-04 at cycle   6 NSaved=   6.
 NSaved= 6 IEnMin= 6 EnMin= -3996.71431649458     IErMin= 6 ErrMin= 1.82D-04
 ErrMax= 1.82D-04  0.00D+00 EMaxC= 1.00D-01 BMatC= 2.94D-04 BMatP= 1.46D-03
 IDIUse=3 WtCom= 9.98D-01 WtEn= 1.82D-03
 Coeff-Com:  0.243D-02-0.117D-01 0.269D-01 0.974D-01 0.371D+00 0.514D+00
 Coeff-En:   0.000D+00 0.000D+00 0.000D+00 0.000D+00 0.891D-01 0.911D+00
 Coeff:      0.243D-02-0.117D-01 0.268D-01 0.972D-01 0.371D+00 0.515D+00
 Gap=     0.155 Goal=   None    Shift=    0.000
 Gap=     0.155 Goal=   None    Shift=    0.000
 RMSDP=1.93D-05 MaxDP=1.11D-03 DE=-3.10D-04 OVMax= 1.81D-03

 Cycle   7  Pass 0  IDiag  1:
 RMSU=  1.59D-05    CP:  9.92D-01  8.47D-01  8.40D-01  7.45D-01  8.58D-01
                    CP:  7.41D-01
 E= -3996.71438124354     Delta-E=       -0.000064748956 Rises=F Damp=F
 DIIS: error= 5.83D-05 at cycle   7 NSaved=   7.
 NSaved= 7 IEnMin= 7 EnMin= -3996.71438124354     IErMin= 7 ErrMin= 5.83D-05
 ErrMax= 5.83D-05  0.00D+00 EMaxC= 1.00D-01 BMatC= 3.75D-05 BMatP= 2.94D-04
 IDIUse=1 WtCom= 1.00D+00 WtEn= 0.00D+00
 Coeff-Com:  0.939D-03-0.709D-02 0.587D-02 0.310D-01 0.150D+00 0.310D+00
 Coeff-Com:  0.509D+00
 Coeff:      0.939D-03-0.709D-02 0.587D-02 0.310D-01 0.150D+00 0.310D+00
 Coeff:      0.509D+00
 Gap=     0.155 Goal=   None    Shift=    0.000
 Gap=     0.155 Goal=   None    Shift=    0.000
 RMSDP=1.31D-05 MaxDP=3.78D-04 DE=-6.47D-05 OVMax= 7.63D-04

 Cycle   8  Pass 0  IDiag  1:
 RMSU=  1.20D-05    CP:  9.92D-01  8.47D-01  8.41D-01  7.49D-01  8.65D-01
                    CP:  9.19D-01  1.03D+00
 E= -3996.71438844842     Delta-E=       -0.000007204882 Rises=F Damp=F
 DIIS: error= 4.06D-05 at cycle   8 NSaved=   8.
 NSaved= 8 IEnMin= 8 EnMin= -3996.71438844842     IErMin= 8 ErrMin= 4.06D-05
 ErrMax= 4.06D-05  0.00D+00 EMaxC= 1.00D-01 BMatC= 9.71D-06 BMatP= 3.75D-05
 IDIUse=1 WtCom= 1.00D+00 WtEn= 0.00D+00
 Coeff-Com:  0.389D-03-0.334D-02 0.881D-03 0.771D-02 0.494D-01 0.141D+00
 Coeff-Com:  0.335D+00 0.469D+00
 Coeff:      0.389D-03-0.334D-02 0.881D-03 0.771D-02 0.494D-01 0.141D+00
 Coeff:      0.335D+00 0.469D+00
 Gap=     0.155 Goal=   None    Shift=    0.000
 Gap=     0.155 Goal=   None    Shift=    0.000
 RMSDP=1.40D-05 MaxDP=4.89D-04 DE=-7.20D-06 OVMax= 3.37D-04

 Cycle   9  Pass 0  IDiag  1:
 RMSU=  1.03D-05    CP:  9.92D-01  8.47D-01  8.42D-01  7.52D-01  8.74D-01
                    CP:  1.00D+00  1.46D+00  1.51D+00
 E= -3996.71438774760     Delta-E=        0.000000700820 Rises=F Damp=F
 DIIS: error= 6.53D-05 at cycle   9 NSaved=   9.
 NSaved= 9 IEnMin= 8 EnMin= -3996.71438844842     IErMin= 8 ErrMin= 4.06D-05
 ErrMax= 6.53D-05  0.00D+00 EMaxC= 1.00D-01 BMatC= 1.15D-05 BMatP= 9.71D-06
 IDIUse=1 WtCom= 1.00D+00 WtEn= 0.00D+00
 Coeff-Com:  0.391D-03-0.356D-02 0.446D-03 0.689D-02 0.490D-01 0.150D+00
 Coeff-Com:  0.383D+00 0.611D+00-0.197D+00
 Coeff:      0.391D-03-0.356D-02 0.446D-03 0.689D-02 0.490D-01 0.150D+00
 Coeff:      0.383D+00 0.611D+00-0.197D+00
 Gap=     0.155 Goal=   None    Shift=    0.000
 Gap=     0.155 Goal=   None    Shift=    0.000
 RMSDP=6.76D-06 MaxDP=2.49D-04 DE= 7.01D-07 OVMax= 4.11D-05

 Initial convergence to 1.0D-05 achieved.  Increase integral accuracy.
 Cycle  10  Pass 1  IDiag  1:
 E= -3996.71386297378     Delta-E=        0.000524773814 Rises=F Damp=F
 DIIS: error= 2.90D-04 at cycle   1 NSaved=   1.
 NSaved= 1 IEnMin= 1 EnMin= -3996.71386297378     IErMin= 1 ErrMin= 2.90D-04
 ErrMax= 2.90D-04  0.00D+00 EMaxC= 1.00D-01 BMatC= 1.12D-04 BMatP= 1.12D-04
 IDIUse=3 WtCom= 9.97D-01 WtEn= 2.90D-03
 Coeff-Com:  0.100D+01
 Coeff-En:   0.100D+01
 Coeff:      0.100D+01
 Gap=     0.155 Goal=   None    Shift=    0.000
 Gap=     0.155 Goal=   None    Shift=    0.000
 RMSDP=6.76D-06 MaxDP=2.49D-04 DE= 5.25D-04 OVMax= 4.99D-04

 Cycle  11  Pass 1  IDiag  1:
 RMSU=  1.47D-04    CP:  1.00D+00
 E= -3996.71388676961     Delta-E=       -0.000023795828 Rises=F Damp=F
 DIIS: error= 1.18D-05 at cycle   2 NSaved=   2.
 NSaved= 2 IEnMin= 2 EnMin= -3996.71388676961     IErMin= 2 ErrMin= 1.18D-05
 ErrMax= 1.18D-05  0.00D+00 EMaxC= 1.00D-01 BMatC= 1.78D-06 BMatP= 1.12D-04
 IDIUse=1 WtCom= 1.00D+00 WtEn= 0.00D+00
 Coeff-Com: -0.357D-02 0.100D+01
 Coeff:     -0.357D-02 0.100D+01
 Gap=     0.155 Goal=   None    Shift=    0.000
 Gap=     0.155 Goal=   None    Shift=    0.000
 RMSDP=6.43D-06 MaxDP=2.78D-04 DE=-2.38D-05 OVMax= 3.00D-04

 Cycle  12  Pass 1  IDiag  1:
 RMSU=  2.96D-06    CP:  1.00D+00  1.04D+00
 E= -3996.71388601061     Delta-E=        0.000000759004 Rises=F Damp=F
 DIIS: error= 2.29D-05 at cycle   3 NSaved=   3.
 NSaved= 3 IEnMin= 2 EnMin= -3996.71388676961     IErMin= 2 ErrMin= 1.18D-05
 ErrMax= 2.29D-05  0.00D+00 EMaxC= 1.00D-01 BMatC= 6.00D-06 BMatP= 1.78D-06
 IDIUse=1 WtCom= 1.00D+00 WtEn= 0.00D+00
 Coeff-Com: -0.181D-01 0.664D+00 0.354D+00
 Coeff:     -0.181D-01 0.664D+00 0.354D+00
 Gap=     0.155 Goal=   None    Shift=    0.000
 Gap=     0.155 Goal=   None    Shift=    0.000
 RMSDP=1.79D-06 MaxDP=1.59D-04 DE= 7.59D-07 OVMax= 2.16D-04

 Cycle  13  Pass 1  IDiag  1:
 RMSU=  9.96D-07    CP:  1.00D+00  1.04D+00  5.06D-01
 E= -3996.71388721336     Delta-E=       -0.000001202756 Rises=F Damp=F
 DIIS: error= 3.31D-06 at cycle   4 NSaved=   4.
 NSaved= 4 IEnMin= 4 EnMin= -3996.71388721336     IErMin= 4 ErrMin= 3.31D-06
 ErrMax= 3.31D-06  0.00D+00 EMaxC= 1.00D-01 BMatC= 9.96D-08 BMatP= 1.78D-06
 IDIUse=1 WtCom= 1.00D+00 WtEn= 0.00D+00
 Coeff-Com: -0.108D-01 0.373D+00 0.212D+00 0.425D+00
 Coeff:     -0.108D-01 0.373D+00 0.212D+00 0.425D+00
 Gap=     0.155 Goal=   None    Shift=    0.000
 Gap=     0.155 Goal=   None    Shift=    0.000
 RMSDP=2.96D-07 MaxDP=2.23D-05 DE=-1.20D-06 OVMax= 4.12D-05

 Cycle  14  Pass 1  IDiag  1:
 RMSU=  2.64D-07    CP:  1.00D+00  1.04D+00  5.33D-01  9.00D-01
 E= -3996.71388723791     Delta-E=       -0.000000024547 Rises=F Damp=F
 DIIS: error= 1.32D-06 at cycle   5 NSaved=   5.
 NSaved= 5 IEnMin= 5 EnMin= -3996.71388723791     IErMin= 5 ErrMin= 1.32D-06
 ErrMax= 1.32D-06  0.00D+00 EMaxC= 1.00D-01 BMatC= 1.03D-08 BMatP= 9.96D-08
 IDIUse=1 WtCom= 1.00D+00 WtEn= 0.00D+00
 Coeff-Com: -0.261D-02 0.816D-01 0.493D-01 0.241D+00 0.631D+00
 Coeff:     -0.261D-02 0.816D-01 0.493D-01 0.241D+00 0.631D+00
 Gap=     0.155 Goal=   None    Shift=    0.000
 Gap=     0.155 Goal=   None    Shift=    0.000
 RMSDP=1.25D-07 MaxDP=7.47D-06 DE=-2.45D-08 OVMax= 2.43D-05

 Cycle  15  Pass 1  IDiag  1:
 RMSU=  9.21D-08    CP:  1.00D+00  1.04D+00  5.38D-01  9.55D-01  8.25D-01
 E= -3996.71388724735     Delta-E=       -0.000000009441 Rises=F Damp=F
 DIIS: error= 1.05D-06 at cycle   6 NSaved=   6.
 NSaved= 6 IEnMin= 6 EnMin= -3996.71388724735     IErMin= 6 ErrMin= 1.05D-06
 ErrMax= 1.05D-06  0.00D+00 EMaxC= 1.00D-01 BMatC= 3.58D-09 BMatP= 1.03D-08
 IDIUse=1 WtCom= 1.00D+00 WtEn= 0.00D+00
 Coeff-Com:  0.537D-03-0.242D-01-0.125D-01 0.669D-01 0.430D+00 0.539D+00
 Coeff:      0.537D-03-0.242D-01-0.125D-01 0.669D-01 0.430D+00 0.539D+00
 Gap=     0.155 Goal=   None    Shift=    0.000
 Gap=     0.155 Goal=   None    Shift=    0.000
 RMSDP=5.96D-08 MaxDP=2.99D-06 DE=-9.44D-09 OVMax= 1.11D-05

 Cycle  16  Pass 1  IDiag  1:
 RMSU=  4.26D-08    CP:  1.00D+00  1.04D+00  5.40D-01  9.73D-01  9.11D-01
                    CP:  7.72D-01
 E= -3996.71388724141     Delta-E=        0.000000005943 Rises=F Damp=F
 DIIS: error= 1.29D-07 at cycle   7 NSaved=   7.
 NSaved= 7 IEnMin= 6 EnMin= -3996.71388724735     IErMin= 7 ErrMin= 1.29D-07
 ErrMax= 1.29D-07  0.00D+00 EMaxC= 1.00D-01 BMatC= 2.25D-10 BMatP= 3.58D-09
 IDIUse=1 WtCom= 1.00D+00 WtEn= 0.00D+00
 Coeff-Com:  0.497D-03-0.195D-01-0.109D-01 0.144D-01 0.185D+00 0.294D+00
 Coeff-Com:  0.537D+00
 Coeff:      0.497D-03-0.195D-01-0.109D-01 0.144D-01 0.185D+00 0.294D+00
 Coeff:      0.537D+00
 Gap=     0.155 Goal=   None    Shift=    0.000
 Gap=     0.155 Goal=   None    Shift=    0.000
 RMSDP=1.70D-08 MaxDP=1.02D-06 DE= 5.94D-09 OVMax= 4.43D-06

 Cycle  17  Pass 1  IDiag  1:
 RMSU=  1.47D-08    CP:  1.00D+00  1.04D+00  5.41D-01  9.76D-01  9.16D-01
                    CP:  8.47D-01  1.04D+00
 E= -3996.71388724123     Delta-E=        0.000000000176 Rises=F Damp=F
 DIIS: error= 4.63D-08 at cycle   8 NSaved=   8.
 NSaved= 8 IEnMin= 6 EnMin= -3996.71388724735     IErMin= 8 ErrMin= 4.63D-08
 ErrMax= 4.63D-08  0.00D+00 EMaxC= 1.00D-01 BMatC= 3.03D-11 BMatP= 2.25D-10
 IDIUse=1 WtCom= 1.00D+00 WtEn= 0.00D+00
 Coeff-Com:  0.103D-03-0.329D-02-0.227D-02-0.117D-01-0.159D-01 0.109D-01
 Coeff-Com:  0.250D+00 0.772D+00
 Coeff:      0.103D-03-0.329D-02-0.227D-02-0.117D-01-0.159D-01 0.109D-01
 Coeff:      0.250D+00 0.772D+00
 Gap=     0.155 Goal=   None    Shift=    0.000
 Gap=     0.155 Goal=   None    Shift=    0.000
 RMSDP=1.13D-08 MaxDP=4.23D-07 DE= 1.76D-10 OVMax= 3.38D-06

 Cycle  18  Pass 1  IDiag  1:
 RMSU=  6.84D-09    CP:  1.00D+00  1.04D+00  5.42D-01  9.78D-01  9.25D-01
                    CP:  8.88D-01  1.22D+00  9.63D-01
 E= -3996.71388724133     Delta-E=       -0.000000000098 Rises=F Damp=F
 DIIS: error= 6.39D-08 at cycle   9 NSaved=   9.
 NSaved= 9 IEnMin= 6 EnMin= -3996.71388724735     IErMin= 8 ErrMin= 4.63D-08
 ErrMax= 6.39D-08  0.00D+00 EMaxC= 1.00D-01 BMatC= 2.22D-11 BMatP= 3.03D-11
 IDIUse=1 WtCom= 1.00D+00 WtEn= 0.00D+00
 Coeff-Com: -0.393D-04 0.208D-02 0.799D-03-0.120D-01-0.523D-01-0.575D-01
 Coeff-Com:  0.624D-01 0.585D+00 0.472D+00
 Coeff:     -0.393D-04 0.208D-02 0.799D-03-0.120D-01-0.523D-01-0.575D-01
 Coeff:      0.624D-01 0.585D+00 0.472D+00
 Gap=     0.155 Goal=   None    Shift=    0.000
 Gap=     0.155 Goal=   None    Shift=    0.000
 RMSDP=5.05D-09 MaxDP=2.73D-07 DE=-9.82D-11 OVMax= 1.50D-06

 SCF Done:  E(ULC-wPBE) =  -3996.71388724     A.U. after   18 cycles
            NFock= 18  Conv=0.50D-08     -V/T= 2.0033
 <Sx>= 0.0000 <Sy>= 0.0000 <Sz>= 0.0000 <S**2>=-0.0000 S=-0.0000
 <L.S>= 0.000000000000E+00
 KE= 3.983373327785D+03 PE=-2.075434346446D+04 EE= 7.113028378014D+03
 Annihilation of the first spin contaminant:
 S**2 before annihilation    -0.0000,   after     0.0000
 Leave Link  502 at Sat Jul 25 16:17:48 2020, MaxMem=  4026531840 cpu:            6156.4 elap:             784.3
 (Enter /opt/ohpc/pub/libs/gaussian/g16-A.03/sandybridge/g16/l601.exe)
 Copying SCF densities to generalized density rwf, IOpCl= 1 IROHF=0.

 **********************************************************************

            Population analysis using the SCF density.

 **********************************************************************

 Orbital symmetries:
 Alpha Orbitals:
       Occupied  (A) (A) (A) (A) (A) (A) (A) (A) (A) (A) (A) (A)
                 (A) (A) (A) (A) (A) (A) (A) (A) (A) (A) (A) (A)
                 (A) (A) (A) (A) (A) (A) (A) (A) (A) (A) (A) (A)
                 (A) (A) (A) (A) (A) (A) (A) (A) (A) (A) (A) (A)
                 (A) (A) (A) (A) (A) (A) (A) (A) (A) (A) (A) (A)
                 (A) (A) (A) (A) (A) (A) (A) (A) (A) (A) (A) (A)
                 (A) (A) (A) (A) (A) (A) (A) (A) (A) (A) (A) (A)
                 (A) (A) (A) (A) (A) (A) (A) (A) (A) (A) (A) (A)
                 (A) (A) (A) (A) (A) (A) (A) (A) (A) (A) (A) (A)
                 (A) (A) (A) (A) (A) (A) (A) (A) (A) (A) (A) (A)
                 (A) (A) (A) (A) (A) (A) (A) (A) (A) (A) (A) (A)
                 (A) (A) (A) (A) (A) (A) (A) (A) (A) (A) (A) (A)
                 (A) (A) (A) (A) (A) (A) (A) (A) (A) (A) (A) (A)
                 (A) (A) (A) (A) (A) (A) (A) (A) (A) (A) (A) (A)
                 (A) (A) (A) (A) (A) (A) (A)
       Virtual   (A) (A) (A) (A) (A) (A) (A) (A) (A) (A) (A) (A)
                 (A) (A) (A) (A) (A) (A) (A) (A) (A) (A) (A) (A)
                 (A) (A) (A) (A) (A) (A) (A) (A) (A) (A) (A) (A)
                 (A) (A) (A) (A) (A) (A) (A) (A) (A) (A) (A) (A)
                 (A) (A) (A) (A) (A) (A) (A) (A) (A) (A) (A) (A)
                 (A) (A) (A) (A) (A) (A) (A) (A) (A) (A) (A) (A)
                 (A) (A) (A) (A) (A) (A) (A) (A) (A) (A) (A) (A)
                 (A) (A) (A) (A) (A) (A) (A) (A) (A) (A) (A) (A)
                 (A) (A) (A) (A) (A) (A) (A) (A) (A) (A) (A) (A)
                 (A) (A) (A) (A) (A) (A) (A) (A) (A) (A) (A) (A)
                 (A) (A) (A) (A) (A) (A) (A) (A) (A) (A) (A) (A)
                 (A) (A) (A) (A) (A) (A) (A) (A) (A) (A) (A) (A)
                 (A) (A) (A) (A) (A) (A) (A) (A) (A) (A) (A) (A)
                 (A) (A) (A) (A) (A) (A) (A) (A) (A) (A) (A) (A)
                 (A) (A) (A) (A) (A) (A) (A) (A) (A) (A) (A) (A)
                 (A) (A) (A) (A) (A) (A) (A) (A) (A) (A) (A) (A)
                 (A) (A) (A) (A) (A) (A) (A) (A) (A) (A) (A) (A)
                 (A) (A) (A) (A) (A) (A) (A) (A) (A) (A) (A) (A)
                 (A) (A) (A) (A) (A) (A) (A) (A) (A) (A) (A) (A)
                 (A) (A) (A) (A) (A) (A) (A) (A) (A) (A) (A) (A)
                 (A) (A) (A) (A) (A) (A) (A) (A) (A) (A) (A) (A)
                 (A) (A) (A) (A) (A) (A) (A) (A) (A) (A) (A) (A)
                 (A) (A) (A) (A) (A) (A) (A) (A) (A) (A) (A) (A)
                 (A) (A) (A) (A) (A) (A) (A) (A) (A) (A) (A) (A)
                 (A) (A) (A) (A) (A) (A) (A) (A) (A) (A) (A) (A)
                 (A) (A) (A) (A) (A) (A) (A) (A) (A) (A) (A) (A)
                 (A) (A) (A) (A) (A) (A) (A) (A) (A) (A) (A) (A)
                 (A) (A) (A) (A) (A) (A) (A) (A) (A) (A) (A) (A)
                 (A) (A) (A) (A) (A) (A) (A) (A) (A) (A) (A) (A)
                 (A) (A) (A) (A) (A) (A) (A) (A) (A) (A) (A) (A)
                 (A) (A) (A) (A) (A) (A) (A) (A) (A) (A) (A) (A)
                 (A) (A) (A) (A) (A) (A) (A) (A) (A) (A) (A) (A)
                 (A) (A) (A) (A) (A) (A) (A) (A) (A) (A) (A) (A)
                 (A) (A) (A) (A) (A) (A) (A) (A) (A) (A) (A) (A)
                 (A) (A) (A) (A) (A) (A) (A) (A) (A) (A) (A) (A)
                 (A) (A) (A) (A) (A) (A) (A) (A) (A) (A) (A) (A)
                 (A) (A) (A) (A) (A) (A) (A) (A) (A) (A) (A) (A)
                 (A) (A) (A) (A) (A) (A) (A) (A) (A) (A) (A) (A)
                 (A) (A) (A) (A) (A) (A) (A) (A) (A) (A) (A) (A)
                 (A) (A) (A) (A) (A) (A) (A) (A) (A) (A) (A) (A)
                 (A) (A) (A) (A) (A) (A) (A) (A) (A) (A) (A) (A)
                 (A) (A) (A) (A) (A) (A) (A) (A) (A) (A) (A) (A)
                 (A) (A) (A) (A) (A) (A) (A) (A) (A) (A) (A) (A)
                 (A) (A) (A) (A) (A) (A) (A) (A) (A) (A) (A) (A)
                 (A) (A) (A) (A) (A) (A) (A) (A) (A) (A) (A) (A)
                 (A) (A) (A) (A) (A) (A) (A) (A) (A) (A) (A) (A)
                 (A) (A) (A) (A) (A) (A) (A) (A) (A) (A) (A) (A)
                 (A) (A) (A)
 Beta  Orbitals:
       Occupied  (A) (A) (A) (A) (A) (A) (A) (A) (A) (A) (A) (A)
                 (A) (A) (A) (A) (A) (A) (A) (A) (A) (A) (A) (A)
                 (A) (A) (A) (A) (A) (A) (A) (A) (A) (A) (A) (A)
                 (A) (A) (A) (A) (A) (A) (A) (A) (A) (A) (A) (A)
                 (A) (A) (A) (A) (A) (A) (A) (A) (A) (A) (A) (A)
                 (A) (A) (A) (A) (A) (A) (A) (A) (A) (A) (A) (A)
                 (A) (A) (A) (A) (A) (A) (A) (A) (A) (A) (A) (A)
                 (A) (A) (A) (A) (A) (A) (A) (A) (A) (A) (A) (A)
                 (A) (A) (A) (A) (A) (A) (A) (A) (A) (A) (A) (A)
                 (A) (A) (A) (A) (A) (A) (A) (A) (A) (A) (A) (A)
                 (A) (A) (A) (A) (A) (A) (A) (A) (A) (A) (A) (A)
                 (A) (A) (A) (A) (A) (A) (A) (A) (A) (A) (A) (A)
                 (A) (A) (A) (A) (A) (A) (A) (A) (A) (A) (A) (A)
                 (A) (A) (A) (A) (A) (A) (A) (A) (A) (A) (A) (A)
                 (A) (A) (A) (A) (A) (A) (A)
       Virtual   (A) (A) (A) (A) (A) (A) (A) (A) (A) (A) (A) (A)
                 (A) (A) (A) (A) (A) (A) (A) (A) (A) (A) (A) (A)
                 (A) (A) (A) (A) (A) (A) (A) (A) (A) (A) (A) (A)
                 (A) (A) (A) (A) (A) (A) (A) (A) (A) (A) (A) (A)
                 (A) (A) (A) (A) (A) (A) (A) (A) (A) (A) (A) (A)
                 (A) (A) (A) (A) (A) (A) (A) (A) (A) (A) (A) (A)
                 (A) (A) (A) (A) (A) (A) (A) (A) (A) (A) (A) (A)
                 (A) (A) (A) (A) (A) (A) (A) (A) (A) (A) (A) (A)
                 (A) (A) (A) (A) (A) (A) (A) (A) (A) (A) (A) (A)
                 (A) (A) (A) (A) (A) (A) (A) (A) (A) (A) (A) (A)
                 (A) (A) (A) (A) (A) (A) (A) (A) (A) (A) (A) (A)
                 (A) (A) (A) (A) (A) (A) (A) (A) (A) (A) (A) (A)
                 (A) (A) (A) (A) (A) (A) (A) (A) (A) (A) (A) (A)
                 (A) (A) (A) (A) (A) (A) (A) (A) (A) (A) (A) (A)
                 (A) (A) (A) (A) (A) (A) (A) (A) (A) (A) (A) (A)
                 (A) (A) (A) (A) (A) (A) (A) (A) (A) (A) (A) (A)
                 (A) (A) (A) (A) (A) (A) (A) (A) (A) (A) (A) (A)
                 (A) (A) (A) (A) (A) (A) (A) (A) (A) (A) (A) (A)
                 (A) (A) (A) (A) (A) (A) (A) (A) (A) (A) (A) (A)
                 (A) (A) (A) (A) (A) (A) (A) (A) (A) (A) (A) (A)
                 (A) (A) (A) (A) (A) (A) (A) (A) (A) (A) (A) (A)
                 (A) (A) (A) (A) (A) (A) (A) (A) (A) (A) (A) (A)
                 (A) (A) (A) (A) (A) (A) (A) (A) (A) (A) (A) (A)
                 (A) (A) (A) (A) (A) (A) (A) (A) (A) (A) (A) (A)
                 (A) (A) (A) (A) (A) (A) (A) (A) (A) (A) (A) (A)
                 (A) (A) (A) (A) (A) (A) (A) (A) (A) (A) (A) (A)
                 (A) (A) (A) (A) (A) (A) (A) (A) (A) (A) (A) (A)
                 (A) (A) (A) (A) (A) (A) (A) (A) (A) (A) (A) (A)
                 (A) (A) (A) (A) (A) (A) (A) (A) (A) (A) (A) (A)
                 (A) (A) (A) (A) (A) (A) (A) (A) (A) (A) (A) (A)
                 (A) (A) (A) (A) (A) (A) (A) (A) (A) (A) (A) (A)
                 (A) (A) (A) (A) (A) (A) (A) (A) (A) (A) (A) (A)
                 (A) (A) (A) (A) (A) (A) (A) (A) (A) (A) (A) (A)
                 (A) (A) (A) (A) (A) (A) (A) (A) (A) (A) (A) (A)
                 (A) (A) (A) (A) (A) (A) (A) (A) (A) (A) (A) (A)
                 (A) (A) (A) (A) (A) (A) (A) (A) (A) (A) (A) (A)
                 (A) (A) (A) (A) (A) (A) (A) (A) (A) (A) (A) (A)
                 (A) (A) (A) (A) (A) (A) (A) (A) (A) (A) (A) (A)
                 (A) (A) (A) (A) (A) (A) (A) (A) (A) (A) (A) (A)
                 (A) (A) (A) (A) (A) (A) (A) (A) (A) (A) (A) (A)
                 (A) (A) (A) (A) (A) (A) (A) (A) (A) (A) (A) (A)
                 (A) (A) (A) (A) (A) (A) (A) (A) (A) (A) (A) (A)
                 (A) (A) (A) (A) (A) (A) (A) (A) (A) (A) (A) (A)
                 (A) (A) (A) (A) (A) (A) (A) (A) (A) (A) (A) (A)
                 (A) (A) (A) (A) (A) (A) (A) (A) (A) (A) (A) (A)
                 (A) (A) (A) (A) (A) (A) (A) (A) (A) (A) (A) (A)
                 (A) (A) (A) (A) (A) (A) (A) (A) (A) (A) (A) (A)
                 (A) (A) (A)
 The electronic state is 1-A.
 Alpha  occ. eigenvalues --  -88.13696 -88.13650 -88.13523 -88.13464 -88.13381
 Alpha  occ. eigenvalues --  -88.13218 -18.85122 -18.84727 -18.84719 -18.84358
 Alpha  occ. eigenvalues --  -18.83544 -18.83213 -10.00553 -10.00273 -10.00160
 Alpha  occ. eigenvalues --   -9.99899  -9.99720  -9.99716  -9.99615  -9.99365
 Alpha  occ. eigenvalues --   -9.98858  -9.98828  -9.98715  -9.98697  -9.98151
 Alpha  occ. eigenvalues --   -9.97900  -9.97590  -9.97486  -9.96455  -9.96358
 Alpha  occ. eigenvalues --   -9.96085  -9.96037  -9.95859  -9.95831  -9.95749
 Alpha  occ. eigenvalues --   -9.95613  -9.95059  -9.94897  -9.94119  -9.94038
 Alpha  occ. eigenvalues --   -9.93930  -9.93613  -7.74050  -7.74035  -7.73918
 Alpha  occ. eigenvalues --   -7.73903  -7.73752  -7.73611  -5.76145  -5.76107
 Alpha  occ. eigenvalues --   -5.76016  -5.76013  -5.75834  -5.75733  -5.75691
 Alpha  occ. eigenvalues --   -5.75642  -5.75597  -5.75535  -5.75380  -5.75284
 Alpha  occ. eigenvalues --   -5.75279  -5.75262  -5.75143  -5.75118  -5.75005
 Alpha  occ. eigenvalues --   -5.74784  -1.04267  -1.03293  -1.02086  -1.01929
 Alpha  occ. eigenvalues --   -0.99886  -0.98721  -0.87047  -0.86711  -0.86123
 Alpha  occ. eigenvalues --   -0.85252  -0.84406  -0.83335  -0.77005  -0.75281
 Alpha  occ. eigenvalues --   -0.73894  -0.72881  -0.72423  -0.72001  -0.71617
 Alpha  occ. eigenvalues --   -0.71536  -0.71234  -0.69952  -0.69717  -0.69222
 Alpha  occ. eigenvalues --   -0.67247  -0.67107  -0.66797  -0.66670  -0.65429
 Alpha  occ. eigenvalues --   -0.63260  -0.60315  -0.58648  -0.57270  -0.56396
 Alpha  occ. eigenvalues --   -0.55558  -0.54999  -0.54593  -0.53877  -0.53744
 Alpha  occ. eigenvalues --   -0.53123  -0.52924  -0.52598  -0.52466  -0.52045
 Alpha  occ. eigenvalues --   -0.50742  -0.48698  -0.48155  -0.47715  -0.47068
 Alpha  occ. eigenvalues --   -0.47006  -0.46833  -0.46312  -0.46149  -0.45563
 Alpha  occ. eigenvalues --   -0.45212  -0.45011  -0.44795  -0.44396  -0.44056
 Alpha  occ. eigenvalues --   -0.43706  -0.43577  -0.43396  -0.43265  -0.42617
 Alpha  occ. eigenvalues --   -0.42115  -0.40969  -0.40843  -0.40683  -0.40328
 Alpha  occ. eigenvalues --   -0.40244  -0.39876  -0.39601  -0.39139  -0.38580
 Alpha  occ. eigenvalues --   -0.38064  -0.38005  -0.37814  -0.37100  -0.37077
[...]
 
              Baa    -0.0000    -0.000    -0.000    -0.000  0.9482 -0.3131  0.0533
     6 C(13)  Bbb     0.0000     0.000     0.000     0.000  0.3169  0.9440 -0.0916
              Bcc     0.0000     0.000     0.000     0.000 -0.0216  0.1038  0.9944
 
              Baa    -0.0000    -0.000    -0.000    -0.000  0.4496  0.8927 -0.0320
     7 S(33)  Bbb     0.0000     0.000     0.000     0.000  0.0023  0.0347  0.9994
              Bcc     0.0000     0.000     0.000     0.000  0.8932 -0.4494  0.0135
 
              Baa    -0.0000    -0.000    -0.000    -0.000  0.8484  0.5284 -0.0312
     8 C(13)  Bbb     0.0000     0.000     0.000     0.000  0.2418 -0.3344  0.9109
              Bcc     0.0000     0.000     0.000     0.000 -0.4709  0.7804  0.4115
 
              Baa    -0.0000    -0.000    -0.000    -0.000 -0.3077  0.9515 -0.0046
     9 C(13)  Bbb     0.0000     0.000     0.000     0.000 -0.0090  0.0020  1.0000
              Bcc     0.0000     0.000     0.000     0.000  0.9514  0.3077  0.0079
 
              Baa    -0.0000     0.000     0.000     0.000  0.2366  0.9661  0.1036
    10 O(17)  Bbb    -0.0000     0.000     0.000     0.000 -0.1611 -0.0662  0.9847
              Bcc     0.0000    -0.000    -0.000    -0.000  0.9581 -0.2497  0.1400
 
              Baa    -0.0000    -0.000    -0.000    -0.000 -0.5446  0.7045  0.4550
    11 C(13)  Bbb     0.0000     0.000     0.000     0.000 -0.0200 -0.5533  0.8327
              Bcc     0.0000     0.000     0.000     0.000  0.8384  0.4444  0.3155
 
              Baa    -0.0000    -0.000    -0.000    -0.000 -0.0329  0.0583  0.9978
    12 C(13)  Bbb     0.0000     0.000     0.000     0.000  0.9045 -0.4229  0.0545
              Bcc     0.0000     0.000     0.000     0.000  0.4252  0.9043 -0.0388
 
              Baa    -0.0000    -0.000    -0.000    -0.000  0.9925 -0.1161  0.0388
    13 C(13)  Bbb    -0.0000    -0.000    -0.000    -0.000 -0.0375  0.0142  0.9992
              Bcc     0.0000     0.000     0.000     0.000  0.1165  0.9931 -0.0097
 
              Baa    -0.0000    -0.000    -0.000    -0.000  0.4417 -0.1559  0.8835
    14 S(33)  Bbb    -0.0000    -0.000    -0.000    -0.000 -0.5707  0.7110  0.4108
              Bcc     0.0000     0.000     0.000     0.000  0.6922  0.6857 -0.2251
 
              Baa    -0.0000    -0.000    -0.000    -0.000  0.7107 -0.6383  0.2958
    15 C(13)  Bbb    -0.0000    -0.000    -0.000    -0.000 -0.3033  0.1013  0.9475
              Bcc     0.0000     0.000     0.000     0.000  0.6348  0.7631  0.1216
 
              Baa    -0.0000    -0.000    -0.000    -0.000  0.1953  0.1961  0.9609
    16 C(13)  Bbb    -0.0000    -0.000    -0.000    -0.000  0.8336  0.4831 -0.2680
              Bcc     0.0000     0.000     0.000     0.000 -0.5168  0.8533 -0.0691
 
              Baa    -0.0000    -0.000    -0.000    -0.000  0.2253 -0.0719  0.9716
    17 C(13)  Bbb    -0.0000    -0.000    -0.000    -0.000  0.9428  0.2674 -0.1988
              Bcc     0.0000     0.000     0.000     0.000 -0.2455  0.9609  0.1281
 
              Baa    -0.0000     0.000     0.000     0.000  0.9841 -0.1138 -0.1362
    18 O(17)  Bbb    -0.0000     0.000     0.000     0.000  0.1326 -0.0388  0.9904
              Bcc     0.0000    -0.000    -0.000    -0.000  0.1180  0.9927  0.0231
 
              Baa    -0.0000    -0.000    -0.000    -0.000  0.4780  0.8743 -0.0846
    19 C(13)  Bbb     0.0000     0.000     0.000     0.000  0.8694 -0.4572  0.1873
              Bcc     0.0000     0.000     0.000     0.000 -0.1251  0.1631  0.9786
 
              Baa    -0.0000    -0.000    -0.000    -0.000  0.9875 -0.1543  0.0319
    20 C(13)  Bbb     0.0000     0.000     0.000     0.000 -0.0452 -0.0835  0.9955
              Bcc     0.0000     0.000     0.000     0.000  0.1509  0.9845  0.0895
 
              Baa    -0.0000    -0.000    -0.000    -0.000  0.9007 -0.4331 -0.0332
    21 S(33)  Bbb     0.0000     0.000     0.000     0.000  0.4334  0.9012  0.0024
              Bcc     0.0000     0.000     0.000     0.000  0.0289 -0.0165  0.9994
 
              Baa    -0.0000    -0.000    -0.000    -0.000  0.9929  0.1174 -0.0214
    22 C(13)  Bbb     0.0000     0.000     0.000     0.000  0.0195  0.0169  0.9997
              Bcc     0.0000     0.000     0.000     0.000 -0.1178  0.9929 -0.0144
 
              Baa    -0.0000    -0.000    -0.000    -0.000  0.4063  0.9053  0.1241
    23 C(13)  Bbb    -0.0000    -0.000    -0.000    -0.000 -0.0022 -0.1349  0.9909
              Bcc     0.0000     0.000     0.000     0.000  0.9137 -0.4029 -0.0528
 
              Baa    -0.0000     0.000     0.000     0.000  0.0811 -0.0164  0.9966
    24 O(17)  Bbb     0.0000    -0.000    -0.000    -0.000  0.3388  0.9408 -0.0121
              Bcc     0.0000    -0.000    -0.000    -0.000  0.9374 -0.3386 -0.0818
 
              Baa    -0.0000    -0.000    -0.000    -0.000  0.8211  0.4646 -0.3316
    25 C(13)  Bbb    -0.0000    -0.000    -0.000    -0.000  0.2704  0.1951  0.9428
              Bcc     0.0000     0.000     0.000     0.000 -0.5027  0.8638 -0.0346
 
              Baa    -0.0000    -0.000    -0.000    -0.000  0.9859 -0.1510  0.0716
    26 C(13)  Bbb     0.0000     0.000     0.000     0.000 -0.0479  0.1545  0.9868
              Bcc     0.0000     0.000     0.000     0.000  0.1601  0.9764 -0.1451
 
              Baa    -0.0000    -0.000    -0.000    -0.000  0.0597  0.9896  0.1308
    27 C(13)  Bbb    -0.0000    -0.000    -0.000    -0.000  0.0539 -0.1341  0.9895
              Bcc     0.0000     0.000     0.000     0.000  0.9968 -0.0520 -0.0614
 
              Baa    -0.0000    -0.000    -0.000    -0.000 -0.2032  0.1640  0.9653
    28 S(33)  Bbb    -0.0000    -0.000    -0.000    -0.000 -0.3489  0.9090 -0.2279
              Bcc     0.0000     0.000     0.000     0.000  0.9149  0.3831  0.1275
 
              Baa    -0.0000    -0.000    -0.000    -0.000  0.0516  0.0301  0.9982
    29 C(13)  Bbb    -0.0000    -0.000    -0.000    -0.000  0.6568  0.7519 -0.0566
              Bcc     0.0000     0.000     0.000     0.000  0.7523 -0.6585 -0.0190
 
              Baa    -0.0000    -0.000    -0.000    -0.000  0.6941  0.7199  0.0079
    30 C(13)  Bbb     0.0000     0.000     0.000     0.000 -0.0226  0.0109  0.9997
              Bcc     0.0000     0.000     0.000     0.000  0.7196 -0.6940  0.0238
 
              Baa    -0.0000    -0.000    -0.000    -0.000  0.9888  0.1359 -0.0615
    31 C(13)  Bbb     0.0000     0.000     0.000     0.000  0.0649 -0.0210  0.9977
              Bcc     0.0000     0.000     0.000     0.000 -0.1343  0.9905  0.0296
 
              Baa    -0.0000     0.000     0.000     0.000  0.7978 -0.5965  0.0875
    32 O(17)  Bbb     0.0000    -0.000    -0.000    -0.000  0.4097  0.6430  0.6471
              Bcc     0.0000    -0.000    -0.000    -0.000 -0.4422 -0.4804  0.7574
 
              Baa    -0.0000    -0.000    -0.000    -0.000 -0.0952  0.9954 -0.0052
    33 C(13)  Bbb     0.0000     0.000     0.000     0.000 -0.4335 -0.0367  0.9004
              Bcc     0.0000     0.000     0.000     0.000  0.8961  0.0880  0.4350
 
              Baa    -0.0000    -0.000    -0.000    -0.000  0.8805  0.4717 -0.0461
    34 C(13)  Bbb     0.0000     0.000     0.000     0.000  0.2169 -0.3147  0.9241
              Bcc     0.0000     0.000     0.000     0.000 -0.4214  0.8237  0.3794
 
              Baa    -0.0000    -0.000    -0.000    -0.000 -0.3890  0.9207  0.0309
    35 S(33)  Bbb     0.0000     0.000     0.000     0.000  0.8710  0.3785 -0.3131
              Bcc     0.0000     0.000     0.000     0.000  0.3000  0.0949  0.9492
 
              Baa    -0.0000    -0.000    -0.000    -0.000  0.4539  0.8872  0.0832
    36 C(13)  Bbb     0.0000     0.000     0.000     0.000 -0.3699  0.1027  0.9234
              Bcc     0.0000     0.000     0.000     0.000  0.8106 -0.4499  0.3748
 
              Baa    -0.0000    -0.000    -0.000    -0.000  0.0837 -0.1738  0.9812
    37 C(13)  Bbb    -0.0000    -0.000    -0.000    -0.000 -0.3267  0.9255  0.1918
              Bcc     0.0000     0.000     0.000     0.000  0.9414  0.3366 -0.0207
 
              Baa    -0.0000     0.000     0.000     0.000  0.8339 -0.5475  0.0696
    38 O(17)  Bbb     0.0000    -0.000    -0.000    -0.000 -0.0792  0.0061  0.9968
              Bcc     0.0000    -0.000    -0.000    -0.000  0.5462  0.8368  0.0383
 
              Baa    -0.0000    -0.000    -0.000    -0.000 -0.6637  0.7333 -0.1475
    39 C(13)  Bbb     0.0000     0.000     0.000     0.000  0.1140  0.2940  0.9490
              Bcc     0.0000     0.000     0.000     0.000  0.7392  0.6130 -0.2788
 
              Baa    -0.0000    -0.000    -0.000    -0.000  0.6017  0.7970 -0.0528
    40 C(13)  Bbb     0.0000     0.000     0.000     0.000  0.7300 -0.5756 -0.3685
              Bcc     0.0000     0.000     0.000     0.000  0.3241 -0.1832  0.9281
 
              Baa    -0.0000    -0.000    -0.000    -0.000  0.4546  0.8304 -0.3221
    41 C(13)  Bbb     0.0000     0.000     0.000     0.000  0.3961  0.1354  0.9082
              Bcc     0.0000     0.000     0.000     0.000  0.7978 -0.5404 -0.2674
 
              Baa    -0.0000    -0.000    -0.000    -0.000  0.0238  0.0154  0.9996
    42 S(33)  Bbb    -0.0000    -0.000    -0.000    -0.000 -0.6016  0.7988  0.0021
              Bcc     0.0000     0.000     0.000     0.000  0.7984  0.6014 -0.0283
 
              Baa    -0.0000    -0.000    -0.000    -0.000  0.2326  0.9717 -0.0399
    43 H(1)   Bbb     0.0000     0.000     0.000     0.000 -0.0077  0.0429  0.9991
              Bcc     0.0000     0.000     0.000     0.000  0.9725 -0.2321  0.0174
 
              Baa    -0.0000    -0.000    -0.000    -0.000 -0.6128  0.7901 -0.0129
    44 H(1)   Bbb     0.0000     0.000     0.000     0.000  0.0014  0.0174  0.9998
              Bcc     0.0000     0.000     0.000     0.000  0.7902  0.6127 -0.0118
 
              Baa    -0.0000    -0.000    -0.000    -0.000 -0.4403 -0.1466  0.8858
    45 H(1)   Bbb     0.0000     0.000     0.000     0.000  0.8694  0.1768  0.4614
              Bcc     0.0000     0.000     0.000     0.000 -0.2243  0.9733  0.0496
 
              Baa    -0.0000    -0.000    -0.000    -0.000 -0.5562  0.7740  0.3026
    46 H(1)   Bbb    -0.0000    -0.000    -0.000    -0.000  0.6859  0.6331 -0.3587
              Bcc     0.0000     0.000     0.000     0.000  0.4692 -0.0081  0.8830
 
              Baa    -0.0000    -0.000    -0.000    -0.000  0.9903 -0.1071  0.0888
    47 H(1)   Bbb    -0.0000    -0.000    -0.000    -0.000 -0.1277 -0.4471  0.8853
              Bcc     0.0000     0.000     0.000     0.000  0.0551  0.8881  0.4564
 
              Baa    -0.0000    -0.000    -0.000    -0.000  0.7071 -0.5500 -0.4445
    48 H(1)   Bbb     0.0000     0.000     0.000     0.000  0.6968  0.4345  0.5707
              Bcc     0.0000     0.000     0.000     0.000  0.1207  0.7133 -0.6904
 
              Baa    -0.0000    -0.000    -0.000    -0.000 -0.3575 -0.6008  0.7151
    49 H(1)   Bbb    -0.0000    -0.000    -0.000    -0.000  0.2864  0.6582  0.6962
              Bcc     0.0000     0.000     0.000     0.000  0.8889 -0.4537  0.0632
 
              Baa    -0.0000    -0.000    -0.000    -0.000  0.6259 -0.3716  0.6857
    50 H(1)   Bbb    -0.0000    -0.000    -0.000    -0.000 -0.5839  0.3596  0.7278
              Bcc     0.0000     0.000     0.000     0.000  0.5171  0.8559 -0.0081
 
              Baa    -0.0000    -0.000    -0.000    -0.000  0.6558  0.6205  0.4301
    51 H(1)   Bbb    -0.0000    -0.000    -0.000    -0.000 -0.3708 -0.2315  0.8994
              Bcc     0.0000     0.000     0.000     0.000 -0.6576  0.7493 -0.0783
 
              Baa    -0.0000    -0.000    -0.000    -0.000  0.7339  0.2739  0.6216
    52 H(1)   Bbb    -0.0000    -0.000    -0.000    -0.000 -0.6235 -0.0913  0.7764
              Bcc     0.0000     0.000     0.000     0.000 -0.2695  0.9574 -0.1038
 
              Baa    -0.0000    -0.000    -0.000    -0.000  0.9659 -0.2371  0.1037
    53 H(1)   Bbb     0.0000     0.000     0.000     0.000 -0.0425  0.2500  0.9673
              Bcc     0.0000     0.000     0.000     0.000  0.2553  0.9388 -0.2314
 
              Baa    -0.0000    -0.000    -0.000    -0.000  0.2218 -0.6034  0.7660
    54 H(1)   Bbb    -0.0000    -0.000    -0.000    -0.000  0.7994  0.5624  0.2116
              Bcc     0.0000     0.000     0.000     0.000 -0.5584  0.5654  0.6070
 
              Baa    -0.0000    -0.000    -0.000    -0.000  0.3367  0.4577  0.8228
    55 H(1)   Bbb    -0.0000    -0.000    -0.000    -0.000  0.7618  0.3812 -0.5238
              Bcc     0.0000     0.000     0.000     0.000 -0.5535  0.8032 -0.2203
 
              Baa    -0.0000    -0.000    -0.000    -0.000  0.6852  0.6322 -0.3617
    56 H(1)   Bbb    -0.0000    -0.000    -0.000    -0.000 -0.4007  0.7419  0.5376
              Bcc     0.0000     0.000     0.000     0.000  0.6082 -0.2234  0.7617
 
              Baa    -0.0000    -0.000    -0.000    -0.000  0.0760 -0.1404  0.9872
    57 H(1)   Bbb    -0.0000    -0.000    -0.000    -0.000  0.7946 -0.5895 -0.1450
              Bcc     0.0000     0.000     0.000     0.000  0.6023  0.7954  0.0667
 
              Baa    -0.0000    -0.000    -0.000    -0.000  0.7181  0.4742  0.5094
    58 H(1)   Bbb     0.0000     0.000     0.000     0.000 -0.2842  0.8679 -0.4073
              Bcc     0.0000     0.000     0.000     0.000 -0.6353  0.1477  0.7580
 
              Baa    -0.0000    -0.000    -0.000    -0.000  0.3763  0.9186  0.1209
    59 H(1)   Bbb    -0.0000    -0.000    -0.000    -0.000 -0.0501 -0.1101  0.9927
              Bcc     0.0000     0.000     0.000     0.000  0.9251 -0.3796  0.0046
 
              Baa    -0.0000    -0.000    -0.000    -0.000  0.8303 -0.3720  0.4151
    60 H(1)   Bbb    -0.0000    -0.000    -0.000    -0.000 -0.3666  0.1966  0.9094
              Bcc     0.0000     0.000     0.000     0.000  0.4199  0.9072 -0.0268
 
              Baa    -0.0000    -0.000    -0.000    -0.000 -0.4647  0.8408  0.2778
    61 H(1)   Bbb     0.0000     0.000     0.000     0.000  0.7295  0.1857  0.6583
              Bcc     0.0000     0.000     0.000     0.000 -0.5019 -0.5086  0.6996
 
              Baa    -0.0000    -0.000    -0.000    -0.000 -0.2714  0.9620 -0.0283
    62 H(1)   Bbb    -0.0000    -0.000    -0.000    -0.000 -0.0834  0.0058  0.9965
              Bcc     0.0000     0.000     0.000     0.000  0.9588  0.2728  0.0787
 
              Baa    -0.0000    -0.000    -0.000    -0.000 -0.4608  0.8135 -0.3548
    63 H(1)   Bbb    -0.0000    -0.000    -0.000    -0.000  0.7492  0.1422 -0.6469
              Bcc     0.0000     0.000     0.000     0.000  0.4758  0.5640  0.6749
 
              Baa    -0.0000    -0.000    -0.000    -0.000 -0.5370  0.6117 -0.5809
    64 H(1)   Bbb     0.0000     0.000     0.000     0.000  0.8434  0.4025 -0.3558
              Bcc     0.0000     0.000     0.000     0.000 -0.0161  0.6810  0.7321
 
              Baa    -0.0000    -0.000    -0.000    -0.000 -0.1596  0.8189  0.5513
    65 H(1)   Bbb     0.0000     0.000     0.000     0.000  0.7423 -0.2686  0.6139
              Bcc     0.0000     0.000     0.000     0.000  0.6508  0.5072 -0.5650
 
              Baa    -0.0000    -0.000    -0.000    -0.000 -0.2915  0.9525  0.0884
    66 H(1)   Bbb    -0.0000    -0.000    -0.000    -0.000  0.7913  0.1881  0.5817
              Bcc     0.0000     0.000     0.000     0.000 -0.5374 -0.2395  0.8086
 
              Baa    -0.0000    -0.000    -0.000    -0.000 -0.6300  0.7725 -0.0793
    67 H(1)   Bbb     0.0000     0.000     0.000     0.000  0.7695  0.6348  0.0705
              Bcc     0.0000     0.000     0.000     0.000 -0.1048  0.0166  0.9944
 
              Baa    -0.0000    -0.000    -0.000    -0.000  0.7761  0.5950 -0.2091
    68 H(1)   Bbb     0.0000     0.000     0.000     0.000 -0.3974  0.7188  0.5704
              Bcc     0.0000     0.000     0.000     0.000  0.4897 -0.3596  0.7943
 

 ---------------------------------------------------------------------------------

 No NMR shielding tensors so no spin-rotation constants.
 Leave Link  601 at Sun Jul 26 00:27:05 2020, MaxMem=  4026531840 cpu:              10.8 elap:               1.5
 (Enter /opt/ohpc/pub/libs/gaussian/g16-A.03/sandybridge/g16/l9999.exe)

 Test job not archived.
 1\1\GINC-SKYLAKE051\FOpt\ULC-wPBE\CC-pVDZ\C30H26O6S6\RDU230\26-Jul-202
 0\0\\#P uLC-wPBE/cc-pVDZ iop(3/107=0083500000, 3/108=0083500000) opt\\
 H26 C30 S6 O6\\0,1\C,11.1032013964,0.395898435,-0.484427781\C,10.64696
 52864,-0.9045132115,-0.4072473981\C,9.2210656525,-0.9689893136,-0.3699
 383946\O,8.4476889329,-2.0963917555,-0.2931615753\C,9.1348524476,-3.34
 30794706,-0.2441235067\C,8.5889458395,0.2827377494,-0.4190798833\S,9.8
 105849102,1.5515389215,-0.512883177\C,7.1758666688,0.5632192699,-0.400
 0070831\C,6.5426493766,1.8155487687,-0.4446317873\O,7.3190271561,2.939
 6627761,-0.5152450309\C,6.6355681007,4.1896129377,-0.558166945\C,5.124
 3043486,1.7571249253,-0.4178383497\C,4.6373025017,0.4530065729,-0.3492
 731851\S,5.9568717159,-0.7075017009,-0.3092132306\C,3.267282544,0.0031
 779805,-0.30719201\C,2.7721391383,-1.2945318407,-0.4267965847\C,1.3573
 330029,-1.3556707576,-0.3390451147\O,0.5747791255,-2.4742474897,-0.424
 4424289\C,1.2488191007,-3.7150649053,-0.6175362306\C,0.7319543047,-0.1
 103815318,-0.1526992337\S,1.9596781188,1.1548083736,-0.0744189316\C,-0
 .6727662166,0.164956226,-0.0341551276\C,-1.2981392451,1.4102549796,0.1
 52138995\O,-0.5155812444,2.5288389179,0.2374245161\C,-1.1896040105,3.7
 696421569,0.4306791842\C,-2.7129393588,1.349122395,0.239945846\C,-3.20
 8086241,0.051405717,0.1204290889\S,-1.9004957613,-1.1002397135,-0.1123
 305422\C,-4.5781066547,-0.3984196171,0.1625814838\C,-5.0651115006,-1.7
 025303523,0.2312865736\C,-6.4834587612,-1.7609467435,0.2580903456\O,-7
 .2598441457,-2.8850600027,0.3286197499\C,-6.576354189,-4.1349354077,0.
 373165026\C,-7.1166678979,-0.508615081,0.2133841263\S,-5.8976725005,0.
 7620865408,0.1224178367\C,-8.5297452089,-0.2281110472,0.23253231\C,-9.
 1618349494,1.0236324544,0.1833747098\O,-8.3884326816,2.1510090403,0.10
 65017631\C,-9.0755772591,3.3976768282,0.05672375\C,-10.5877328758,0.95
 91933654,0.2208075706\C,-11.0439955344,-0.3412029724,0.2980971499\S,-9
 .7514043158,-1.4968723317,0.326514528\H,12.1408002965,0.7427286554,-0.
 5259540146\H,11.3107189779,-1.775908387,-0.378073535\H,8.3525536226,-4
 .1210291679,-0.1847599721\H,9.7906033272,-3.4136408587,0.6517878824\H,
 9.7480046442,-3.5084384413,-1.1575818016\H,6.0174475485,4.3476861474,0
 .3529340227\H,7.4209393728,4.9650926821,-0.6062461732\H,5.9854800207,4
 .2683974713,-1.4572843597\H,4.4659668638,2.6322699034,-0.4639893975\H,
 3.4220357713,-2.1619530624,-0.5899226319\H,0.4602795035,-4.4878285854,
 -0.6565793886\H,1.8202575934,-3.7242834213,-1.5717370618\H,1.941364879
 ,-3.9377635312,0.2238421581\H,-1.8822377382,3.9923983524,-0.4106122455
 \H,-0.4010613517,4.5424028997,0.4696982102\H,-1.7609420727,3.778789673
 1,1.3849407051\H,-3.3628335014,2.2165527993,0.4030313016\H,-4.40676743
 35,-2.5776657758,0.2775126273\H,-5.957853173,-4.2939668454,-0.53751540
 66\H,-7.3617159808,-4.910396536,0.4217220712\H,-5.9266283673,-4.212724
 085,1.2726280446\H,-9.7312157519,3.4677734861,-0.839304047\H,-9.688837
 4877,3.5635245455,0.9700213095\H,-8.2932636524,4.1755889997,-0.0029399
 65\H,-11.2514666829,1.830605036,0.191672384\H,-12.0815953441,-0.688018
 0399,0.3397302616\\Version=EM64L-G16RevA.03\State=1-A\HF=-3996.8471434
 \S2=0.\S2-1=0.\S2A=0.\RMSD=5.374e-09\RMSF=1.556e-06\Dipole=0.0000105,0
 .0000421,0.0004616\Quadrupole=8.3011381,23.4738533,-31.7749915,-17.383
 6415,-1.6035554,0.978719\PG=C01 [X(C30H26O6S6)]\\@


 DEFINE YOUR TERMS, YOU WILL PERMIT ME AGAIN TO SAY, 
 OR WE SHALL NEVER UNDERSTAND ONE ANOTHER.

                                    -- VOLTAIRE
 Job cpu time:       2 days 17 hours 46 minutes 49.5 seconds.
 Elapsed time:       0 days  8 hours 22 minutes 32.7 seconds.
 File lengths (MBytes):  RWF=    660 Int=      0 D2E=      0 Chk=     60 Scr=      8
 Normal termination of Gaussian 16 at Sun Jul 26 00:27:06 2020.
