 Entering Gaussian System, Link 0=g16
 Input=mols_65_3_32_cF-cOC-C_opt_0.gjf
 Output=mols_65_3_32_cF-cOC-C_opt_0.log
 Initial command:
 /opt/ohpc/pub/libs/gaussian/g16-A.03/sandybridge/g16/l1.exe "/mnt/gpfs2_4m/scratch/rdu230/ondemand/projects/dihedral_energies/7trial/wtuning/mols_65_3_32_cF-cOC-C/Gau-280099.inp" -scrdir="/mnt/gpfs2_4m/scratch/rdu230/ondemand/projects/dihedral_energies/7trial/wtuning/mols_65_3_32_cF-cOC-C/"
 Entering Link 1 = /opt/ohpc/pub/libs/gaussian/g16-A.03/sandybridge/g16/l1.exe PID=    280100.
  
 Copyright (c) 1988,1990,1992,1993,1995,1998,2003,2009,2016,
            Gaussian, Inc.  All Rights Reserved.
  
 This is part of the Gaussian(R) 16 program.  It is based on
 the Gaussian(R) 09 system (copyright 2009, Gaussian, Inc.),
 the Gaussian(R) 03 system (copyright 2003, Gaussian, Inc.),
 the Gaussian(R) 98 system (copyright 1998, Gaussian, Inc.),
 the Gaussian(R) 94 system (copyright 1995, Gaussian, Inc.),
 the Gaussian 92(TM) system (copyright 1992, Gaussian, Inc.),
 the Gaussian 90(TM) system (copyright 1990, Gaussian, Inc.),
 the Gaussian 88(TM) system (copyright 1988, Gaussian, Inc.),
 the Gaussian 86(TM) system (copyright 1986, Carnegie Mellon
 University), and the Gaussian 82(TM) system (copyright 1983,
 Carnegie Mellon University). Gaussian is a federally registered
 trademark of Gaussian, Inc.
  
 This software contains proprietary and confidential information,
 including trade secrets, belonging to Gaussian, Inc.
  
 This software is provided under written license and may be
 used, copied, transmitted, or stored only in accord with that
 written license.
  
 The following legend is applicable only to US Government
 contracts under FAR:
  
                    RESTRICTED RIGHTS LEGEND
  
 Use, reproduction and disclosure by the US Government is
 subject to restrictions as set forth in subparagraphs (a)
 and (c) of the Commercial Computer Software - Restricted
 Rights clause in FAR 52.227-19.
  
 Gaussian, Inc.
 340 Quinnipiac St., Bldg. 40, Wallingford CT 06492
  
  
 ---------------------------------------------------------------
 Warning -- This program may not be used in any manner that
 competes with the business of Gaussian, Inc. or will provide
 assistance to any competitor of Gaussian, Inc.  The licensee
 of this program is prohibited from giving any competitor of
 Gaussian, Inc. access to this program.  By using this program,
 the user acknowledges that Gaussian, Inc. is engaged in the
 business of creating and licensing software in the field of
 computational chemistry and represents and warrants to the
 licensee that it is not a competitor of Gaussian, Inc. and that
 it will not use this program in any manner prohibited above.
 ---------------------------------------------------------------
  

 Cite this work as:
 Gaussian 16, Revision A.03,
 M. J. Frisch, G. W. Trucks, H. B. Schlegel, G. E. Scuseria, 
 M. A. Robb, J. R. Cheeseman, G. Scalmani, V. Barone, 
 G. A. Petersson, H. Nakatsuji, X. Li, M. Caricato, A. V. Marenich, 
 J. Bloino, B. G. Janesko, R. Gomperts, B. Mennucci, H. P. Hratchian, 
 J. V. Ortiz, A. F. Izmaylov, J. L. Sonnenberg, D. Williams-Young, 
 F. Ding, F. Lipparini, F. Egidi, J. Goings, B. Peng, A. Petrone, 
 T. Henderson, D. Ranasinghe, V. G. Zakrzewski, J. Gao, N. Rega, 
 G. Zheng, W. Liang, M. Hada, M. Ehara, K. Toyota, R. Fukuda, 
 J. Hasegawa, M. Ishida, T. Nakajima, Y. Honda, O. Kitao, H. Nakai, 
 T. Vreven, K. Throssell, J. A. Montgomery, Jr., J. E. Peralta, 
 F. Ogliaro, M. J. Bearpark, J. J. Heyd, E. N. Brothers, K. N. Kudin, 
 V. N. Staroverov, T. A. Keith, R. Kobayashi, J. Normand, 
 K. Raghavachari, A. P. Rendell, J. C. Burant, S. S. Iyengar, 
 J. Tomasi, M. Cossi, J. M. Millam, M. Klene, C. Adamo, R. Cammi, 
 J. W. Ochterski, R. L. Martin, K. Morokuma, O. Farkas, 
 J. B. Foresman, and D. J. Fox, Gaussian, Inc., Wallingford CT, 2016.
 
 ******************************************
 Gaussian 16:  EM64L-G16RevA.03 25-Dec-2016
                23-Jul-2020 
 ******************************************
 %mem=30GB
 %nproc=8
 Will use up to    8 processors via shared memory.
 ---------------------------------------------------------------
 #P uLC-wPBE/cc-pVDZ iop(3/107=0299900000, 3/108=0299900000) opt
 ---------------------------------------------------------------
 1/18=20,19=15,26=3,38=1/1,3;
 2/9=110,12=2,17=6,18=5,40=1/2;
 3/5=16,11=2,25=1,30=1,71=1,74=-41,107=299900000,108=299900000,116=2/1,2,3;
 4//1;
 5/5=2,38=5/2;
 6/7=2,8=2,9=2,10=2,28=1/1;
 7//1,2,3,16;
 1/18=20,19=15,26=3/3(2);
 2/9=110/2;
 99//99;
 2/9=110/2;
 3/5=16,11=2,25=1,30=1,71=1,74=-41,107=299900000,108=299900000,116=2/1,2,3;
 4/5=5,16=3,69=1/1;
 5/5=2,38=5/2;
 7//1,2,3,16;
 1/18=20,19=15,26=3/3(-5);
 2/9=110/2;
 6/7=2,8=2,9=2,10=2,19=2,28=1/1;
 99/9=1/99;
 Leave Link    1 at Thu Jul 23 20:25:06 2020, MaxMem=  4026531840 cpu:               3.2 elap:               0.5
 (Enter /opt/ohpc/pub/libs/gaussian/g16-A.03/sandybridge/g16/l101.exe)
 ----------------
 H23 C33 S3 O3 F3
 ----------------
 Symbolic Z-matrix:
 Charge =  0 Multiplicity = 1
 C                    -11.20497   0.47446   0.08464 
 C                    -10.31602   1.4232   -0.54612 
 C                    -9.01053   1.12551  -0.78247 
 F                    -8.27188   2.00973  -1.38015 
 C                    -8.49112  -0.11324  -0.37089 
 C                    -9.3805   -1.00884   0.32998 
 O                    -8.76421  -2.18784   0.73813 
 C                    -9.60435  -3.16718   1.35314 
 C                    -10.72754  -0.68962   0.46599 
 C                    -7.08239  -0.44046  -0.52443 
 C                    -6.4972   -1.38132  -1.38621 
 C                    -5.1231   -1.44376  -1.37698 
 C                    -4.56012  -0.41414  -0.5337 
 S                    -5.88572   0.50968   0.22109 
 C                    -3.23545  -0.13765  -0.19404 
 C                    -2.34034  -1.16236   0.14873 
 C                    -0.97121  -0.98576   0.463 
 F                    -0.28031  -2.00728   0.8751 
 C                    -0.50425   0.36719   0.3659 
 C                    -1.35755   1.39263  -0.0175 
 O                    -0.70265   2.62058  -0.07186 
 C                    -1.48681   3.7023   -0.66219 
 C                    -2.67615   1.19049  -0.28179 
 C                     0.91394   0.56694   0.74979 
 C                     1.50672   1.23891   1.73927 
 C                     2.93517   1.19937   1.77619 
 C                     3.43725   0.47796   0.76602 
 S                     2.15883  -0.09422  -0.23373 
 C                     4.8708    0.24554   0.38597 
 C                     5.29221  -1.06333   0.00195 
 C                     6.58848  -1.33496  -0.28819 
 F                     6.89837  -2.55549  -0.72092 
 C                     7.56612  -0.32807  -0.14904 
 C                     7.14399   0.94543   0.20707 
 O                     8.11679   1.93347   0.30325 
 C                     7.77821   3.13827   0.96468 
 C                     5.78387   1.18712   0.49069 
 C                     8.97914  -0.54067  -0.50347 
 C                     9.85433   0.0608   -1.40527 
 C                     11.11222  -0.47196  -1.42814 
 C                     11.29277  -1.58384  -0.55048 
 S                     9.84711  -1.83967   0.35663 
 H                    -12.25661   0.7792    0.28659 
 H                    -10.74485   2.41871  -0.91168 
 H                    -10.42866  -3.54007   0.58708 
 H                    -9.0326   -4.08138   1.51186 
 H                    -10.03858  -2.86135   2.22697 
 H                    -11.39156  -1.34879   0.99809 
 H                    -7.15902  -2.12765  -1.97968 
 H                    -4.50265  -2.15017  -1.86017 
 H                    -2.73092  -2.26416   0.28448 
 H                    -2.37226   3.99249  -0.00172 
 H                    -0.91631   4.58042  -0.66413 
 H                    -1.86924   3.4601   -1.67986 
 H                    -3.33778   1.94273  -0.52451 
 H                     0.91269   1.77135   2.46556 
 H                     3.48568   1.707     2.50284 
 H                     4.50791  -1.89894  -0.15212 
 H                     7.41505   3.08335   1.96572 
 H                     8.7042    3.72218   1.02365 
 H                     7.12619   3.7001    0.29274 
 H                     5.47523   2.15896   0.82071 
 H                     9.46383   0.90905  -2.00569 
 H                     11.91682  -0.223    -2.06153 
 H                     12.09711  -2.12339  -0.34554 
 
 ITRead=  0  0  0  0  0  0  0  0  0  0  0  0  0  0  0  0  0  0  0  0
 ITRead=  0  0  0  0  0  0  0  0  0  0  0  0  0  0  0  0  0  0  0  0
 ITRead=  0  0  0  0  0  0  0  0  0  0  0  0  0  0  0  0  0  0  0  0
 ITRead=  0  0  0  0  0
 MicOpt= -1 -1 -1 -1 -1 -1 -1 -1 -1 -1 -1 -1 -1 -1 -1 -1 -1 -1 -1 -1
 MicOpt= -1 -1 -1 -1 -1 -1 -1 -1 -1 -1 -1 -1 -1 -1 -1 -1 -1 -1 -1 -1
 MicOpt= -1 -1 -1 -1 -1 -1 -1 -1 -1 -1 -1 -1 -1 -1 -1 -1 -1 -1 -1 -1
 MicOpt= -1 -1 -1 -1 -1
 NAtoms=     65 NQM=       65 NQMF=       0 NMMI=      0 NMMIF=      0
                NMic=       0 NMicF=      0.
                    Isotopes and Nuclear Properties:
 (Nuclear quadrupole moments (NQMom) in fm**2, nuclear magnetic moments (NMagM)
  in nuclear magnetons)

  Atom         1           2           3           4           5           6           7           8           9          10
 IAtWgt=          12          12          12          19          12          12          16          12          12          12
 AtmWgt=  12.0000000  12.0000000  12.0000000  18.9984033  12.0000000  12.0000000  15.9949146  12.0000000  12.0000000  12.0000000
 NucSpn=           0           0           0           1           0           0           0           0           0           0
 AtZEff=  -0.0000000  -0.0000000  -0.0000000  -0.0000000  -0.0000000  -0.0000000  -0.0000000  -0.0000000  -0.0000000  -0.0000000
 NQMom=    0.0000000   0.0000000   0.0000000   0.0000000   0.0000000   0.0000000   0.0000000   0.0000000   0.0000000   0.0000000
 NMagM=    0.0000000   0.0000000   0.0000000   2.6288670   0.0000000   0.0000000   0.0000000   0.0000000   0.0000000   0.0000000
 AtZNuc=   6.0000000   6.0000000   6.0000000   9.0000000   6.0000000   6.0000000   8.0000000   6.0000000   6.0000000   6.0000000

  Atom        11          12          13          14          15          16          17          18          19          20
 IAtWgt=          12          12          12          32          12          12          12          19          12          12
 AtmWgt=  12.0000000  12.0000000  12.0000000  31.9720718  12.0000000  12.0000000  12.0000000  18.9984033  12.0000000  12.0000000
 NucSpn=           0           0           0           0           0           0           0           1           0           0
 AtZEff=  -0.0000000  -0.0000000  -0.0000000  -0.0000000  -0.0000000  -0.0000000  -0.0000000  -0.0000000  -0.0000000  -0.0000000
 NQMom=    0.0000000   0.0000000   0.0000000   0.0000000   0.0000000   0.0000000   0.0000000   0.0000000   0.0000000   0.0000000
 NMagM=    0.0000000   0.0000000   0.0000000   0.0000000   0.0000000   0.0000000   0.0000000   2.6288670   0.0000000   0.0000000
 AtZNuc=   6.0000000   6.0000000   6.0000000  16.0000000   6.0000000   6.0000000   6.0000000   9.0000000   6.0000000   6.0000000

  Atom        21          22          23          24          25          26          27          28          29          30
 IAtWgt=          16          12          12          12          12          12          12          32          12          12
 AtmWgt=  15.9949146  12.0000000  12.0000000  12.0000000  12.0000000  12.0000000  12.0000000  31.9720718  12.0000000  12.0000000
 NucSpn=           0           0           0           0           0           0           0           0           0           0
 AtZEff=  -0.0000000  -0.0000000  -0.0000000  -0.0000000  -0.0000000  -0.0000000  -0.0000000  -0.0000000  -0.0000000  -0.0000000
 NQMom=    0.0000000   0.0000000   0.0000000   0.0000000   0.0000000   0.0000000   0.0000000   0.0000000   0.0000000   0.0000000
 NMagM=    0.0000000   0.0000000   0.0000000   0.0000000   0.0000000   0.0000000   0.0000000   0.0000000   0.0000000   0.0000000
 AtZNuc=   8.0000000   6.0000000   6.0000000   6.0000000   6.0000000   6.0000000   6.0000000  16.0000000   6.0000000   6.0000000

  Atom        31          32          33          34          35          36          37          38          39          40
 IAtWgt=          12          19          12          12          16          12          12          12          12          12
 AtmWgt=  12.0000000  18.9984033  12.0000000  12.0000000  15.9949146  12.0000000  12.0000000  12.0000000  12.0000000  12.0000000
 NucSpn=           0           1           0           0           0           0           0           0           0           0
 AtZEff=  -0.0000000  -0.0000000  -0.0000000  -0.0000000  -0.0000000  -0.0000000  -0.0000000  -0.0000000  -0.0000000  -0.0000000
 NQMom=    0.0000000   0.0000000   0.0000000   0.0000000   0.0000000   0.0000000   0.0000000   0.0000000   0.0000000   0.0000000
 NMagM=    0.0000000   2.6288670   0.0000000   0.0000000   0.0000000   0.0000000   0.0000000   0.0000000   0.0000000   0.0000000
 AtZNuc=   6.0000000   9.0000000   6.0000000   6.0000000   8.0000000   6.0000000   6.0000000   6.0000000   6.0000000   6.0000000

  Atom        41          42          43          44          45          46          47          48          49          50
 IAtWgt=          12          32           1           1           1           1           1           1           1           1
 AtmWgt=  12.0000000  31.9720718   1.0078250   1.0078250   1.0078250   1.0078250   1.0078250   1.0078250   1.0078250   1.0078250
 NucSpn=           0           0           1           1           1           1           1           1           1           1
 AtZEff=  -0.0000000  -0.0000000  -0.0000000  -0.0000000  -0.0000000  -0.0000000  -0.0000000  -0.0000000  -0.0000000  -0.0000000
 NQMom=    0.0000000   0.0000000   0.0000000   0.0000000   0.0000000   0.0000000   0.0000000   0.0000000   0.0000000   0.0000000
 NMagM=    0.0000000   0.0000000   2.7928460   2.7928460   2.7928460   2.7928460   2.7928460   2.7928460   2.7928460   2.7928460
 AtZNuc=   6.0000000  16.0000000   1.0000000   1.0000000   1.0000000   1.0000000   1.0000000   1.0000000   1.0000000   1.0000000

  Atom        51          52          53          54          55          56          57          58          59          60
 IAtWgt=           1           1           1           1           1           1           1           1           1           1
 AtmWgt=   1.0078250   1.0078250   1.0078250   1.0078250   1.0078250   1.0078250   1.0078250   1.0078250   1.0078250   1.0078250
 NucSpn=           1           1           1           1           1           1           1           1           1           1
 AtZEff=  -0.0000000  -0.0000000  -0.0000000  -0.0000000  -0.0000000  -0.0000000  -0.0000000  -0.0000000  -0.0000000  -0.0000000
 NQMom=    0.0000000   0.0000000   0.0000000   0.0000000   0.0000000   0.0000000   0.0000000   0.0000000   0.0000000   0.0000000
 NMagM=    2.7928460   2.7928460   2.7928460   2.7928460   2.7928460   2.7928460   2.7928460   2.7928460   2.7928460   2.7928460
 AtZNuc=   1.0000000   1.0000000   1.0000000   1.0000000   1.0000000   1.0000000   1.0000000   1.0000000   1.0000000   1.0000000

  Atom        61          62          63          64          65
 IAtWgt=           1           1           1           1           1
 AtmWgt=   1.0078250   1.0078250   1.0078250   1.0078250   1.0078250
 NucSpn=           1           1           1           1           1
 AtZEff=  -0.0000000  -0.0000000  -0.0000000  -0.0000000  -0.0000000
 NQMom=    0.0000000   0.0000000   0.0000000   0.0000000   0.0000000
 NMagM=    2.7928460   2.7928460   2.7928460   2.7928460   2.7928460
 AtZNuc=   1.0000000   1.0000000   1.0000000   1.0000000   1.0000000
 Leave Link  101 at Thu Jul 23 20:25:07 2020, MaxMem=  4026531840 cpu:               2.9 elap:               0.4
 (Enter /opt/ohpc/pub/libs/gaussian/g16-A.03/sandybridge/g16/l103.exe)

 GradGradGradGradGradGradGradGradGradGradGradGradGradGradGradGradGradGrad
 Berny optimization.
 Initialization pass.
                           ----------------------------
                           !    Initial Parameters    !
                           ! (Angstroms and Degrees)  !
 --------------------------                            --------------------------
 ! Name  Definition              Value          Derivative Info.                !
 --------------------------------------------------------------------------------
 ! R1    R(1,2)                  1.4451         estimate D2E/DX2                !
 ! R2    R(1,9)                  1.3147         estimate D2E/DX2                !
 ! R3    R(1,43)                 1.1134         estimate D2E/DX2                !
 ! R4    R(2,3)                  1.3597         estimate D2E/DX2                !
 ! R5    R(2,44)                 1.1439         estimate D2E/DX2                !
 ! R6    R(3,4)                  1.298          estimate D2E/DX2                !
 ! R7    R(3,5)                  1.4049         estimate D2E/DX2                !
 ! R8    R(5,6)                  1.4437         estimate D2E/DX2                !
 ! R9    R(5,10)                 1.4544         estimate D2E/DX2                !
 ! R10   R(6,7)                  1.3916         estimate D2E/DX2                !
 ! R11   R(6,9)                  1.391          estimate D2E/DX2                !
 ! R12   R(7,8)                  1.4294         estimate D2E/DX2                !
 ! R13   R(8,45)                 1.1855         estimate D2E/DX2                !
 ! R14   R(8,46)                 1.0899         estimate D2E/DX2                !
 ! R15   R(8,47)                 1.0226         estimate D2E/DX2                !
 ! R16   R(9,48)                 1.0764         estimate D2E/DX2                !
 ! R17   R(10,11)                1.4037         estimate D2E/DX2                !
 ! R18   R(10,14)                1.7002         estimate D2E/DX2                !
 ! R19   R(11,12)                1.3756         estimate D2E/DX2                !
 ! R20   R(11,49)                1.1607         estimate D2E/DX2                !
 ! R21   R(12,13)                1.4451         estimate D2E/DX2                !
 ! R22   R(12,50)                1.0571         estimate D2E/DX2                !
 ! R23   R(13,14)                1.7834         estimate D2E/DX2                !
 ! R24   R(13,15)                1.3952         estimate D2E/DX2                !
 ! R25   R(15,16)                1.4031         estimate D2E/DX2                !
 ! R26   R(15,23)                1.4438         estimate D2E/DX2                !
 ! R27   R(16,17)                1.4158         estimate D2E/DX2                !
 ! R28   R(16,51)                1.1768         estimate D2E/DX2                !
 ! R29   R(17,18)                1.3003         estimate D2E/DX2                !
 ! R30   R(17,19)                1.4346         estimate D2E/DX2                !
 ! R31   R(19,20)                1.388          estimate D2E/DX2                !
 ! R32   R(19,24)                1.4828         estimate D2E/DX2                !
 ! R33   R(20,21)                1.3927         estimate D2E/DX2                !
 ! R34   R(20,23)                1.3599         estimate D2E/DX2                !
 ! R35   R(21,22)                1.4607         estimate D2E/DX2                !
 ! R36   R(22,52)                1.1421         estimate D2E/DX2                !
 ! R37   R(22,53)                1.0472         estimate D2E/DX2                !
 ! R38   R(22,54)                1.1138         estimate D2E/DX2                !
 ! R39   R(23,55)                1.0308         estimate D2E/DX2                !
 ! R40   R(24,25)                1.3349         estimate D2E/DX2                !
 ! R41   R(24,28)                1.7188         estimate D2E/DX2                !
 ! R42   R(25,26)                1.4295         estimate D2E/DX2                !
 ! R43   R(25,56)                1.0788         estimate D2E/DX2                !
 ! R44   R(26,27)                1.339          estimate D2E/DX2                !
 ! R45   R(26,57)                1.0434         estimate D2E/DX2                !
 ! R46   R(27,28)                1.7208         estimate D2E/DX2                !
 ! R47   R(27,29)                1.5012         estimate D2E/DX2                !
 ! R48   R(29,30)                1.4276         estimate D2E/DX2                !
 ! R49   R(29,37)                1.3158         estimate D2E/DX2                !
 ! R50   R(30,31)                1.3558         estimate D2E/DX2                !
 ! R51   R(30,58)                1.1563         estimate D2E/DX2                !
 ! R52   R(31,32)                1.3315         estimate D2E/DX2                !
 ! R53   R(31,33)                1.4103         estimate D2E/DX2                !
 ! R54   R(33,34)                1.3881         estimate D2E/DX2                !
 ! R55   R(33,38)                1.4722         estimate D2E/DX2                !
 ! R56   R(34,35)                1.3899         estimate D2E/DX2                !
 ! R57   R(34,37)                1.4102         estimate D2E/DX2                !
 ! R58   R(35,36)                1.4155         estimate D2E/DX2                !
 ! R59   R(36,59)                1.0663         estimate D2E/DX2                !
 ! R60   R(36,60)                1.0963         estimate D2E/DX2                !
 ! R61   R(36,61)                1.0919         estimate D2E/DX2                !
 ! R62   R(37,62)                1.0718         estimate D2E/DX2                !
 ! R63   R(38,39)                1.3932         estimate D2E/DX2                !
 ! R64   R(38,42)                1.7834         estimate D2E/DX2                !
 ! R65   R(39,40)                1.3662         estimate D2E/DX2                !
 ! R66   R(39,63)                1.1102         estimate D2E/DX2                !
 ! R67   R(40,41)                1.428          estimate D2E/DX2                !
 ! R68   R(40,64)                1.0538         estimate D2E/DX2                !
 ! R69   R(41,42)                1.7258         estimate D2E/DX2                !
 ! R70   R(41,65)                0.99           estimate D2E/DX2                !
 ! A1    A(2,1,9)              118.9825         estimate D2E/DX2                !
 ! A2    A(2,1,43)             118.7193         estimate D2E/DX2                !
 ! A3    A(9,1,43)             122.1917         estimate D2E/DX2                !
 ! A4    A(1,2,3)              121.5176         estimate D2E/DX2                !
 ! A5    A(1,2,44)             118.7011         estimate D2E/DX2                !
 ! A6    A(3,2,44)             119.6644         estimate D2E/DX2                !
 ! A7    A(2,3,4)              118.5084         estimate D2E/DX2                !
 ! A8    A(2,3,5)              119.8088         estimate D2E/DX2                !
 ! A9    A(4,3,5)              121.6808         estimate D2E/DX2                !
 ! A10   A(3,5,6)              117.4807         estimate D2E/DX2                !
 ! A11   A(3,5,10)             121.7073         estimate D2E/DX2                !
 ! A12   A(6,5,10)             120.5563         estimate D2E/DX2                !
 ! A13   A(5,6,7)              113.2749         estimate D2E/DX2                !
 ! A14   A(5,6,9)              120.1104         estimate D2E/DX2                !
 ! A15   A(7,6,9)              126.4866         estimate D2E/DX2                !
 ! A16   A(6,7,8)              116.5115         estimate D2E/DX2                !
 ! A17   A(7,8,45)             110.2528         estimate D2E/DX2                !
 ! A18   A(7,8,46)             109.2095         estimate D2E/DX2                !
 ! A19   A(7,8,47)             114.3522         estimate D2E/DX2                !
 ! A20   A(45,8,46)            101.2465         estimate D2E/DX2                !
 ! A21   A(45,8,47)            110.5489         estimate D2E/DX2                !
 ! A22   A(46,8,47)            110.4378         estimate D2E/DX2                !
 ! A23   A(1,9,6)              121.7693         estimate D2E/DX2                !
 ! A24   A(1,9,48)             117.4907         estimate D2E/DX2                !
 ! A25   A(6,9,48)             120.3451         estimate D2E/DX2                !
 ! A26   A(5,10,11)            128.2755         estimate D2E/DX2                !
 ! A27   A(5,10,14)            120.6464         estimate D2E/DX2                !
 ! A28   A(11,10,14)           110.5091         estimate D2E/DX2                !
 ! A29   A(10,11,12)           116.2802         estimate D2E/DX2                !
 ! A30   A(10,11,49)           120.4769         estimate D2E/DX2                !
 ! A31   A(12,11,49)           122.9451         estimate D2E/DX2                !
 ! A32   A(11,12,13)           111.1466         estimate D2E/DX2                !
 ! A33   A(11,12,50)           127.8489         estimate D2E/DX2                !
 ! A34   A(13,12,50)           120.9455         estimate D2E/DX2                !
 ! A35   A(12,13,14)           109.056          estimate D2E/DX2                !
 ! A36   A(12,13,15)           130.7807         estimate D2E/DX2                !
 ! A37   A(14,13,15)           120.0035         estimate D2E/DX2                !
 ! A38   A(10,14,13)            92.7575         estimate D2E/DX2                !
 ! A39   A(13,15,16)           121.362          estimate D2E/DX2                !
 ! A40   A(13,15,23)           122.3652         estimate D2E/DX2                !
 ! A41   A(16,15,23)           116.074          estimate D2E/DX2                !
 ! A42   A(15,16,17)           125.4538         estimate D2E/DX2                !
 ! A43   A(15,16,51)           120.0127         estimate D2E/DX2                !
 ! A44   A(17,16,51)           114.339          estimate D2E/DX2                !
 ! A45   A(16,17,18)           119.0911         estimate D2E/DX2                !
 ! A46   A(16,17,19)           114.6704         estimate D2E/DX2                !
 ! A47   A(18,17,19)           126.1162         estimate D2E/DX2                !
 ! A48   A(17,19,20)           121.0198         estimate D2E/DX2                !
 ! A49   A(17,19,24)           114.889          estimate D2E/DX2                !
 ! A50   A(20,19,24)           124.0544         estimate D2E/DX2                !
 ! A51   A(19,20,21)           111.9051         estimate D2E/DX2                !
 ! A52   A(19,20,23)           122.6796         estimate D2E/DX2                !
 ! A53   A(21,20,23)           125.4083         estimate D2E/DX2                !
 ! A54   A(20,21,22)           114.6            estimate D2E/DX2                !
 ! A55   A(21,22,52)           111.7557         estimate D2E/DX2                !
 ! A56   A(21,22,53)           109.2255         estimate D2E/DX2                !
 ! A57   A(21,22,54)           113.114          estimate D2E/DX2                !
 ! A58   A(52,22,53)           102.1445         estimate D2E/DX2                !
 ! A59   A(52,22,54)           108.5072         estimate D2E/DX2                !
 ! A60   A(53,22,54)           111.575          estimate D2E/DX2                !
 ! A61   A(15,23,20)           120.0356         estimate D2E/DX2                !
 ! A62   A(15,23,55)           115.9112         estimate D2E/DX2                !
 ! A63   A(20,23,55)           124.0316         estimate D2E/DX2                !
 ! A64   A(19,24,25)           133.1915         estimate D2E/DX2                !
 ! A65   A(19,24,28)           119.5237         estimate D2E/DX2                !
 ! A66   A(25,24,28)           107.2273         estimate D2E/DX2                !
 ! A67   A(24,25,26)           116.6766         estimate D2E/DX2                !
 ! A68   A(24,25,56)           120.1954         estimate D2E/DX2                !
 ! A69   A(26,25,56)           123.1267         estimate D2E/DX2                !
 ! A70   A(25,26,27)           111.7227         estimate D2E/DX2                !
 ! A71   A(25,26,57)           122.1233         estimate D2E/DX2                !
 ! A72   A(27,26,57)           126.1319         estimate D2E/DX2                !
 ! A73   A(26,27,28)           109.8079         estimate D2E/DX2                !
 ! A74   A(26,27,29)           129.2338         estimate D2E/DX2                !
 ! A75   A(28,27,29)           120.722          estimate D2E/DX2                !
 ! A76   A(24,28,27)            94.4581         estimate D2E/DX2                !
 ! A77   A(27,29,30)           119.4675         estimate D2E/DX2                !
 ! A78   A(27,29,37)           122.123          estimate D2E/DX2                !
 ! A79   A(30,29,37)           118.2057         estimate D2E/DX2                !
 ! A80   A(29,30,31)           121.564          estimate D2E/DX2                !
 ! A81   A(29,30,58)           119.8769         estimate D2E/DX2                !
 ! A82   A(31,30,58)           118.371          estimate D2E/DX2                !
 ! A83   A(30,31,32)           118.4046         estimate D2E/DX2                !
 ! A84   A(30,31,33)           119.9078         estimate D2E/DX2                !
 ! A85   A(32,31,33)           121.6794         estimate D2E/DX2                !
 ! A86   A(31,33,34)           118.0026         estimate D2E/DX2                !
 ! A87   A(31,33,38)           122.5804         estimate D2E/DX2                !
 ! A88   A(34,33,38)           119.0859         estimate D2E/DX2                !
 ! A89   A(33,34,35)           117.1997         estimate D2E/DX2                !
 ! A90   A(33,34,37)           120.1407         estimate D2E/DX2                !
 ! A91   A(35,34,37)           122.6349         estimate D2E/DX2                !
 ! A92   A(34,35,36)           118.0326         estimate D2E/DX2                !
 ! A93   A(35,36,59)           118.4442         estimate D2E/DX2                !
 ! A94   A(35,36,60)           106.0468         estimate D2E/DX2                !
 ! A95   A(35,36,61)           107.0511         estimate D2E/DX2                !
 ! A96   A(59,36,60)           105.3433         estimate D2E/DX2                !
 ! A97   A(59,36,61)           113.6316         estimate D2E/DX2                !
 ! A98   A(60,36,61)           105.2733         estimate D2E/DX2                !
 ! A99   A(29,37,34)           122.0484         estimate D2E/DX2                !
 ! A100  A(29,37,62)           118.2664         estimate D2E/DX2                !
 ! A101  A(34,37,62)           119.6747         estimate D2E/DX2                !
 ! A102  A(33,38,39)           134.1411         estimate D2E/DX2                !
 ! A103  A(33,38,42)           117.1415         estimate D2E/DX2                !
 ! A104  A(39,38,42)           108.7171         estimate D2E/DX2                !
 ! A105  A(38,39,40)           114.8891         estimate D2E/DX2                !
 ! A106  A(38,39,63)           117.3204         estimate D2E/DX2                !
 ! A107  A(40,39,63)           127.7872         estimate D2E/DX2                !
 ! A108  A(39,40,41)           114.1887         estimate D2E/DX2                !
 ! A109  A(39,40,64)           128.381          estimate D2E/DX2                !
 ! A110  A(41,40,64)           117.182          estimate D2E/DX2                !
 ! A111  A(40,41,42)           109.4246         estimate D2E/DX2                !
 ! A112  A(40,41,65)           130.8685         estimate D2E/DX2                !
 ! A113  A(42,41,65)           119.4061         estimate D2E/DX2                !
 ! A114  A(38,42,41)            92.6493         estimate D2E/DX2                !
 ! D1    D(9,1,2,3)              1.6645         estimate D2E/DX2                !
 ! D2    D(9,1,2,44)           177.7209         estimate D2E/DX2                !
 ! D3    D(43,1,2,3)           177.9957         estimate D2E/DX2                !
 ! D4    D(43,1,2,44)           -5.9479         estimate D2E/DX2                !
 ! D5    D(2,1,9,6)              2.7704         estimate D2E/DX2                !
 ! D6    D(2,1,9,48)           175.5777         estimate D2E/DX2                !
 ! D7    D(43,1,9,6)          -173.4274         estimate D2E/DX2                !
 ! D8    D(43,1,9,48)           -0.6202         estimate D2E/DX2                !
 ! D9    D(1,2,3,4)            178.4471         estimate D2E/DX2                !
 ! D10   D(1,2,3,5)             -2.0459         estimate D2E/DX2                !
 ! D11   D(44,2,3,4)             2.4279         estimate D2E/DX2                !
 ! D12   D(44,2,3,5)          -178.065          estimate D2E/DX2                !
 ! D13   D(2,3,5,6)             -1.7417         estimate D2E/DX2                !
 ! D14   D(2,3,5,10)          -175.9601         estimate D2E/DX2                !
 ! D15   D(4,3,5,6)            177.7493         estimate D2E/DX2                !
 ! D16   D(4,3,5,10)             3.5309         estimate D2E/DX2                !
 ! D17   D(3,5,6,7)           -177.8409         estimate D2E/DX2                !
 ! D18   D(3,5,6,9)              6.0115         estimate D2E/DX2                !
 ! D19   D(10,5,6,7)            -3.5525         estimate D2E/DX2                !
 ! D20   D(10,5,6,9)          -179.7002         estimate D2E/DX2                !
 ! D21   D(3,5,10,11)         -111.0347         estimate D2E/DX2                !
 ! D22   D(3,5,10,14)           59.4546         estimate D2E/DX2                !
 ! D23   D(6,5,10,11)           74.9223         estimate D2E/DX2                !
 ! D24   D(6,5,10,14)         -114.5884         estimate D2E/DX2                !
 ! D25   D(5,6,7,8)           -175.5957         estimate D2E/DX2                !
 ! D26   D(9,6,7,8)              0.2589         estimate D2E/DX2                !
 ! D27   D(5,6,9,1)             -6.6497         estimate D2E/DX2                !
 ! D28   D(5,6,9,48)          -179.2551         estimate D2E/DX2                !
 ! D29   D(7,6,9,1)            177.7529         estimate D2E/DX2                !
 ! D30   D(7,6,9,48)             5.1475         estimate D2E/DX2                !
 ! D31   D(6,7,8,45)            62.6646         estimate D2E/DX2                !
 ! D32   D(6,7,8,46)           173.0724         estimate D2E/DX2                !
 ! D33   D(6,7,8,47)           -62.6228         estimate D2E/DX2                !
 ! D34   D(5,10,11,12)         176.8586         estimate D2E/DX2                !
 ! D35   D(5,10,11,49)          -9.2274         estimate D2E/DX2                !
 ! D36   D(14,10,11,12)          5.5883         estimate D2E/DX2                !
 ! D37   D(14,10,11,49)        179.5023         estimate D2E/DX2                !
 ! D38   D(5,10,14,13)        -175.5221         estimate D2E/DX2                !
 ! D39   D(11,10,14,13)         -3.4826         estimate D2E/DX2                !
 ! D40   D(10,11,12,13)         -4.9317         estimate D2E/DX2                !
 ! D41   D(10,11,12,50)        172.2641         estimate D2E/DX2                !
 ! D42   D(49,11,12,13)       -178.6809         estimate D2E/DX2                !
 ! D43   D(49,11,12,50)         -1.485          estimate D2E/DX2                !
 ! D44   D(11,12,13,14)          2.0381         estimate D2E/DX2                !
 ! D45   D(11,12,13,15)        177.3312         estimate D2E/DX2                !
 ! D46   D(50,12,13,14)       -175.3804         estimate D2E/DX2                !
 ! D47   D(50,12,13,15)         -0.0872         estimate D2E/DX2                !
 ! D48   D(12,13,14,10)          0.8707         estimate D2E/DX2                !
 ! D49   D(15,13,14,10)       -175.0148         estimate D2E/DX2                !
 ! D50   D(12,13,15,16)        -43.4772         estimate D2E/DX2                !
 ! D51   D(12,13,15,23)        131.1959         estimate D2E/DX2                !
 ! D52   D(14,13,15,16)        131.3843         estimate D2E/DX2                !
 ! D53   D(14,13,15,23)        -53.9426         estimate D2E/DX2                !
 ! D54   D(13,15,16,17)        177.7577         estimate D2E/DX2                !
 ! D55   D(13,15,16,51)         -7.6077         estimate D2E/DX2                !
 ! D56   D(23,15,16,17)          2.7661         estimate D2E/DX2                !
 ! D57   D(23,15,16,51)        177.4007         estimate D2E/DX2                !
 ! D58   D(13,15,23,20)       -175.969          estimate D2E/DX2                !
 ! D59   D(13,15,23,55)          5.6526         estimate D2E/DX2                !
 ! D60   D(16,15,23,20)         -1.0322         estimate D2E/DX2                !
 ! D61   D(16,15,23,55)       -179.4107         estimate D2E/DX2                !
 ! D62   D(15,16,17,18)        174.1641         estimate D2E/DX2                !
 ! D63   D(15,16,17,19)         -2.0612         estimate D2E/DX2                !
 ! D64   D(51,16,17,18)         -0.7374         estimate D2E/DX2                !
 ! D65   D(51,16,17,19)       -176.9627         estimate D2E/DX2                !
 ! D66   D(16,17,19,20)         -0.3736         estimate D2E/DX2                !
 ! D67   D(16,17,19,24)        177.5065         estimate D2E/DX2                !
 ! D68   D(18,17,19,20)       -176.2898         estimate D2E/DX2                !
 ! D69   D(18,17,19,24)          1.5903         estimate D2E/DX2                !
 ! D70   D(17,19,20,21)       -178.9162         estimate D2E/DX2                !
 ! D71   D(17,19,20,23)          1.9968         estimate D2E/DX2                !
 ! D72   D(24,19,20,21)          3.405          estimate D2E/DX2                !
 ! D73   D(24,19,20,23)       -175.6821         estimate D2E/DX2                !
 ! D74   D(17,19,24,25)       -115.1493         estimate D2E/DX2                !
 ! D75   D(17,19,24,28)         68.0002         estimate D2E/DX2                !
 ! D76   D(20,19,24,25)         62.6579         estimate D2E/DX2                !
 ! D77   D(20,19,24,28)       -114.1926         estimate D2E/DX2                !
 ! D78   D(19,20,21,22)        171.1188         estimate D2E/DX2                !
 ! D79   D(23,20,21,22)         -9.8241         estimate D2E/DX2                !
 ! D80   D(19,20,23,15)         -1.2459         estimate D2E/DX2                !
 ! D81   D(19,20,23,55)        176.9941         estimate D2E/DX2                !
 ! D82   D(21,20,23,15)        179.7934         estimate D2E/DX2                !
 ! D83   D(21,20,23,55)         -1.9666         estimate D2E/DX2                !
 ! D84   D(20,21,22,52)         67.9225         estimate D2E/DX2                !
 ! D85   D(20,21,22,53)       -179.8019         estimate D2E/DX2                !
 ! D86   D(20,21,22,54)        -54.8927         estimate D2E/DX2                !
 ! D87   D(19,24,25,26)       -179.7248         estimate D2E/DX2                !
 ! D88   D(19,24,25,56)          0.6809         estimate D2E/DX2                !
 ! D89   D(28,24,25,26)         -2.5939         estimate D2E/DX2                !
 ! D90   D(28,24,25,56)        177.8119         estimate D2E/DX2                !
 ! D91   D(19,24,28,27)       -179.3801         estimate D2E/DX2                !
 ! D92   D(25,24,28,27)          3.0235         estimate D2E/DX2                !
 ! D93   D(24,25,26,27)          0.5823         estimate D2E/DX2                !
 ! D94   D(24,25,26,57)        178.9713         estimate D2E/DX2                !
 ! D95   D(56,25,26,27)       -179.8365         estimate D2E/DX2                !
 ! D96   D(56,25,26,57)         -1.4475         estimate D2E/DX2                !
 ! D97   D(25,26,27,28)          1.772          estimate D2E/DX2                !
 ! D98   D(25,26,27,29)        176.1213         estimate D2E/DX2                !
 ! D99   D(57,26,27,28)       -176.5387         estimate D2E/DX2                !
 ! D100  D(57,26,27,29)         -2.1894         estimate D2E/DX2                !
 ! D101  D(26,27,28,24)         -2.8114         estimate D2E/DX2                !
 ! D102  D(29,27,28,24)       -177.7216         estimate D2E/DX2                !
 ! D103  D(26,27,29,30)        137.4005         estimate D2E/DX2                !
 ! D104  D(26,27,29,37)        -37.3181         estimate D2E/DX2                !
 ! D105  D(28,27,29,30)        -48.7858         estimate D2E/DX2                !
 ! D106  D(28,27,29,37)        136.4957         estimate D2E/DX2                !
 ! D107  D(27,29,30,31)       -176.8308         estimate D2E/DX2                !
 ! D108  D(27,29,30,58)          8.2343         estimate D2E/DX2                !
 ! D109  D(37,29,30,31)         -1.9058         estimate D2E/DX2                !
 ! D110  D(37,29,30,58)       -176.8407         estimate D2E/DX2                !
 ! D111  D(27,29,37,34)        176.2507         estimate D2E/DX2                !
 ! D112  D(27,29,37,62)         -2.5617         estimate D2E/DX2                !
 ! D113  D(30,29,37,34)          1.4683         estimate D2E/DX2                !
 ! D114  D(30,29,37,62)       -177.3441         estimate D2E/DX2                !
 ! D115  D(29,30,31,32)       -175.8156         estimate D2E/DX2                !
 ! D116  D(29,30,31,33)          3.1656         estimate D2E/DX2                !
 ! D117  D(58,30,31,32)         -0.8069         estimate D2E/DX2                !
 ! D118  D(58,30,31,33)        178.1743         estimate D2E/DX2                !
 ! D119  D(30,31,33,34)         -3.9223         estimate D2E/DX2                !
 ! D120  D(30,31,33,38)       -177.249          estimate D2E/DX2                !
 ! D121  D(32,31,33,34)        175.0246         estimate D2E/DX2                !
 ! D122  D(32,31,33,38)          1.6979         estimate D2E/DX2                !
 ! D123  D(31,33,34,35)       -178.2573         estimate D2E/DX2                !
 ! D124  D(31,33,34,37)          3.4995         estimate D2E/DX2                !
 ! D125  D(38,33,34,35)         -4.691          estimate D2E/DX2                !
 ! D126  D(38,33,34,37)        177.0658         estimate D2E/DX2                !
 ! D127  D(31,33,38,39)        120.2701         estimate D2E/DX2                !
 ! D128  D(31,33,38,42)        -59.4877         estimate D2E/DX2                !
 ! D129  D(34,33,38,39)        -52.9872         estimate D2E/DX2                !
 ! D130  D(34,33,38,42)        127.2549         estimate D2E/DX2                !
 ! D131  D(33,34,35,36)       -165.0985         estimate D2E/DX2                !
 ! D132  D(37,34,35,36)         13.0974         estimate D2E/DX2                !
 ! D133  D(33,34,37,29)         -2.3856         estimate D2E/DX2                !
 ! D134  D(33,34,37,62)        176.4105         estimate D2E/DX2                !
 ! D135  D(35,34,37,29)        179.4698         estimate D2E/DX2                !
 ! D136  D(35,34,37,62)         -1.734          estimate D2E/DX2                !
 ! D137  D(34,35,36,59)         56.0118         estimate D2E/DX2                !
 ! D138  D(34,35,36,60)        173.9772         estimate D2E/DX2                !
 ! D139  D(34,35,36,61)        -74.0033         estimate D2E/DX2                !
 ! D140  D(33,38,39,40)       -179.1208         estimate D2E/DX2                !
 ! D141  D(33,38,39,63)          1.486          estimate D2E/DX2                !
 ! D142  D(42,38,39,40)          0.6516         estimate D2E/DX2                !
 ! D143  D(42,38,39,63)       -178.7415         estimate D2E/DX2                !
 ! D144  D(33,38,42,41)        177.4662         estimate D2E/DX2                !
 ! D145  D(39,38,42,41)         -2.3503         estimate D2E/DX2                !
 ! D146  D(38,39,40,41)          1.9505         estimate D2E/DX2                !
 ! D147  D(38,39,40,64)        176.0008         estimate D2E/DX2                !
 ! D148  D(63,39,40,41)       -178.7317         estimate D2E/DX2                !
 ! D149  D(63,39,40,64)         -4.6814         estimate D2E/DX2                !
 ! D150  D(39,40,41,42)         -3.6665         estimate D2E/DX2                !
 ! D151  D(39,40,41,65)       -177.1788         estimate D2E/DX2                !
 ! D152  D(64,40,41,42)       -178.4256         estimate D2E/DX2                !
 ! D153  D(64,40,41,65)          8.0621         estimate D2E/DX2                !
 ! D154  D(40,41,42,38)          3.349          estimate D2E/DX2                !
 ! D155  D(65,41,42,38)        177.7203         estimate D2E/DX2                !
 --------------------------------------------------------------------------------
 Trust Radius=3.00D-01 FncErr=1.00D-07 GrdErr=1.00D-06 EigMax=2.50D+02 EigMin=1.00D-04
 Number of steps in this run=    349 maximum allowed number of steps=    390.
 GradGradGradGradGradGradGradGradGradGradGradGradGradGradGradGradGradGrad

 Leave Link  103 at Thu Jul 23 20:25:07 2020, MaxMem=  4026531840 cpu:               0.1 elap:               0.0
 (Enter /opt/ohpc/pub/libs/gaussian/g16-A.03/sandybridge/g16/l202.exe)
 Stoichiometry    C33H23F3O3S3
 Framework group  C1[X(C33H23F3O3S3)]
 Deg. of freedom   189
 Full point group                 C1      NOp   1
 Largest Abelian subgroup         C1      NOp   1
 Largest concise Abelian subgroup C1      NOp   1
                         Standard orientation:                         
 ---------------------------------------------------------------------
 Center     Atomic      Atomic             Coordinates (Angstroms)
 Number     Number       Type             X           Y           Z
 ---------------------------------------------------------------------
      1          6           0      -11.203516    0.467951    0.100158
      2          6           0      -10.315838    1.424465   -0.520587
      3          6           0       -9.010428    1.130314   -0.761799
      4          9           0       -8.272969    2.021834   -1.350046
      5          6           0       -8.489822   -0.112786   -0.365136
      6          6           0       -9.377895   -1.016974    0.326316
      7          8           0       -8.760445   -2.200226    0.720137
      8          6           0       -9.599317   -3.187121    1.324724
      9          6           0      -10.724968   -0.700163    0.467505
     10          6           0       -7.081074   -0.437358   -0.524008
     11          6           0       -6.496280   -1.367840   -1.397249
     12          6           0       -5.122130   -1.429546   -1.390254
     13          6           0       -4.558825   -0.409396   -0.535756
     14         16           0       -5.884135    0.504829    0.231113
     15          6           0       -3.233949   -0.136045   -0.194394
     16          6           0       -2.337842   -1.164105    0.135526
     17          6           0       -0.968475   -0.990310    0.450294
     18          9           0       -0.276502   -2.016100    0.849802
     19          6           0       -0.502431    0.363955    0.368314
     20          6           0       -1.356765    1.393233   -0.002258
     21          8           0       -0.702653    2.622136   -0.043157
     22          6           0       -1.488115    3.710127   -0.620081
     23          6           0       -2.675533    1.193361   -0.267415
     24          6           0        0.916073    0.560118    0.752919
     25          6           0        1.509545    1.220976    1.749444
     26          6           0        2.938064    1.181876    1.784327
     27          6           0        3.439453    0.472492    0.765335
     28         16           0        2.160261   -0.088879   -0.239551
     29          6           0        4.872709    0.245347    0.381035
     30          6           0        5.294476   -1.058734   -0.018549
     31          6           0        6.590580   -1.326207   -0.313243
     32          9           0        6.900715   -2.541469   -0.760385
     33          6           0        7.567773   -0.320400   -0.163545
     34          6           0        7.145282    0.948644    0.207721
     35          8           0        8.117603    1.936104    0.314236
     36          6           0        7.779038    3.132974    0.989916
     37          6           0        5.785339    1.186211    0.495618
     38          6           0        8.980528   -0.528023   -0.521975
     39          6           0        9.854358    0.084350   -1.417730
     40          6           0       11.112537   -0.447342   -1.448146
     41          6           0       11.294729   -1.569179   -0.583592
     42         16           0        9.850226   -1.836352    0.322099
     43          1           0      -12.255111    0.769700    0.306771
     44          1           0      -10.745666    2.423863   -0.874141
     45          1           0      -10.424260   -3.551638    0.555316
     46          1           0       -9.026845   -4.102749    1.472234
     47          1           0      -10.032753   -2.891670    2.202506
     48          1           0      -11.388003   -1.365838    0.992687
     49          1           0       -7.158313   -2.107667   -1.998570
     50          1           0       -4.501800   -2.129955   -1.882266
     51          1           0       -2.727617   -2.267636    0.258964
     52          1           0       -2.373000    3.992123    0.044679
     53          1           0       -0.918142    4.588556   -0.612507
     54          1           0       -1.871540    3.479464   -1.640056
     55          1           0       -3.337883    1.947951   -0.500695
     56          1           0        0.916016    1.744620    2.482496
     57          1           0        3.489081    1.681409    2.516185
     58          1           0        4.510500   -1.892988   -0.181393
     59          1           0        7.417033    3.066270    1.990657
     60          1           0        8.704753    3.716720    1.054604
     61          1           0        7.125943    3.702128    0.325238
     62          1           0        5.476490    2.153988    0.837189
     63          1           0        9.462680    0.939243   -2.007879
     64          1           0       11.916280   -0.190589   -2.079506
     65          1           0       12.099613   -2.110574   -0.385784
 ---------------------------------------------------------------------
 Rotational constants (GHZ):           0.2624064           0.0169373           0.0163085
 Leave Link  202 at Thu Jul 23 20:25:07 2020, MaxMem=  4026531840 cpu:               0.1 elap:               0.0
 (Enter /opt/ohpc/pub/libs/gaussian/g16-A.03/sandybridge/g16/l301.exe)
 Standard basis: CC-pVDZ (5D, 7F)
 Ernie: Thresh=  0.10000D-02 Tol=  0.10000D-05 Strict=F.
 Ernie:  108 primitive shells out of 1123 were deleted.
 There are   757 symmetry adapted cartesian basis functions of A   symmetry.
 There are   715 symmetry adapted basis functions of A   symmetry.
   715 basis functions,  1661 primitive gaussians,   757 cartesian basis functions
   160 alpha electrons      160 beta electrons
       nuclear repulsion energy      4824.2835493380 Hartrees.
 IExCor=32609 DFT=T Ex+Corr=LC-wPBE ExCW=0 ScaHFX=  1.000000
 ScaDFX=  1.000000  0.000000  1.000000  1.000000 ScalE2=  1.000000  1.000000
 IRadAn=      5 IRanWt=     -1 IRanGd=            0 ICorTp=0 IEmpDi=  4
 HFx  wShort=  0.000000 wLong=  0.299900 cFull=  0.000000 cShort=  0.000000 cLong=  1.000000
 DFx  wShort=  0.000000 wLong=  0.299900 cFull=  0.000000 cShort=  0.000000 cLong=  1.000000
 NAtoms=   65 NActive=   65 NUniq=   65 SFac= 1.00D+00 NAtFMM=   60 NAOKFM=T Big=T
 Integral buffers will be    131072 words long.
 Raffenetti 2 integral format.
 Two-electron integral symmetry is turned on.
 Leave Link  301 at Thu Jul 23 20:25:07 2020, MaxMem=  4026531840 cpu:               0.4 elap:               0.1
 (Enter /opt/ohpc/pub/libs/gaussian/g16-A.03/sandybridge/g16/l302.exe)
 NPDir=0 NMtPBC=     1 NCelOv=     1 NCel=       1 NClECP=     1 NCelD=      1
         NCelK=      1 NCelE2=     1 NClLst=     1 CellRange=     0.0.
 One-electron integrals computed using PRISM.
 One-electron integral symmetry used in STVInt
 NBasis=   715 RedAO= T EigKep=  2.86D-04  NBF=   715
 NBsUse=   715 1.00D-06 EigRej= -1.00D+00 NBFU=   715
 Precomputing XC quadrature grid using
 IXCGrd= 4 IRadAn=           5 IRanWt=          -1 IRanGd=           0 AccXCQ= 0.00D+00.
 Generated NRdTot=       0 NPtTot=           0 NUsed=           0 NTot=          32
 NSgBfM=   660   660   660   660   660 MxSgAt=    65 MxSgA2=    65.
 Leave Link  302 at Thu Jul 23 20:25:09 2020, MaxMem=  4026531840 cpu:              14.3 elap:               1.8
 (Enter /opt/ohpc/pub/libs/gaussian/g16-A.03/sandybridge/g16/l303.exe)
 DipDrv:  MaxL=1.
 Leave Link  303 at Thu Jul 23 20:25:09 2020, MaxMem=  4026531840 cpu:               1.1 elap:               0.2
 (Enter /opt/ohpc/pub/libs/gaussian/g16-A.03/sandybridge/g16/l401.exe)
 ExpMin= 1.22D-01 ExpMax= 1.11D+05 ExpMxC= 1.07D+03 IAcc=3 IRadAn=         5 AccDes= 0.00D+00
 Harris functional with IExCor=32609 and IRadAn=       5 diagonalized for initial guess.
 HarFok:  IExCor=32609 AccDes= 0.00D+00 IRadAn=         5 IDoV= 1 UseB2=F ITyADJ=14
 ICtDFT=  3500011 ScaDFX=  1.000000  1.000000  1.000000  1.000000
 FoFCou: FMM=F IPFlag=           0 FMFlag=      100000 FMFlg1=        2001
         NFxFlg=           0 DoJE=T BraDBF=F KetDBF=T FulRan=T
         wScrn=  0.000000 ICntrl=       500 IOpCl=  0 I1Cent=   200000004 NGrid=           0
         NMat0=    1 NMatS0=      1 NMatT0=    0 NMatD0=    1 NMtDS0=    0 NMtDT0=    0
 Petite list used in FoFCou.
 Harris En= -2989.12970713818    
 JPrj=0 DoOrth=F DoCkMO=F.
 Initial guess <Sx>= 0.0000 <Sy>= 0.0000 <Sz>= 0.0000 <S**2>=-0.0000 S=-0.0000
 Leave Link  401 at Thu Jul 23 20:25:16 2020, MaxMem=  4026531840 cpu:              61.0 elap:               7.7
 (Enter /opt/ohpc/pub/libs/gaussian/g16-A.03/sandybridge/g16/l502.exe)
 Integral symmetry usage will be decided dynamically.
 UHF open shell SCF:
 Using DIIS extrapolation, IDIIS=  1040.
 NGot=  4026531840 LenX=  4025371915 LenY=  4024798109
 Requested convergence on RMS density matrix=1.00D-08 within 128 cycles.
 Requested convergence on MAX density matrix=1.00D-06.
 Requested convergence on             energy=1.00D-06.
 No special actions if energy rises.
 Fock matrices will be formed incrementally for  20 cycles.
 Integral accuracy reduced to 1.0D-05 until final iterations.

 Cycle   1  Pass 0  IDiag  1:
 FoFJK:  IHMeth= 1 ICntrl=       0 DoSepK=T KAlg= 0 I1Cent=           0 FoldK=F
 IRaf=         1 NMat=       1 IRICut=       1 DoRegI=T DoRafI=F ISym2E= 0 IDoP0=0 IntGTp=1.
 FoFCou: FMM=T IPFlag=           0 FMFlag=      100000 FMFlg1=        2001
         NFxFlg=           0 DoJE=T BraDBF=F KetDBF=F FulRan=T
         wScrn=  0.000000 ICntrl=       500 IOpCl=  0 I1Cent=           0 NGrid=           0
         NMat0=    1 NMatS0=      1 NMatT0=    0 NMatD0=    1 NMtDS0=    0 NMtDT0=    0
 Symmetry not used in FoFCou.
 FMM levels:  10  Number of levels for PrismC:   9
 E= -2988.39661008699    
 DIIS: error= 1.45D-02 at cycle   1 NSaved=   1.
 NSaved= 1 IEnMin= 1 EnMin= -2988.39661008699     IErMin= 1 ErrMin= 1.45D-02
 ErrMax= 1.45D-02  0.00D+00 EMaxC= 1.00D-01 BMatC= 3.24D+00 BMatP= 3.24D+00
 IDIUse=3 WtCom= 8.55D-01 WtEn= 1.45D-01
 Coeff-Com:  0.100D+01
 Coeff-En:   0.100D+01
 Coeff:      0.100D+01
 Gap=     0.278 Goal=   None    Shift=    0.000
 Gap=     0.278 Goal=   None    Shift=    0.000
 GapD=    0.278 DampG=1.000 DampE=0.500 DampFc=0.5000 IDamp=-1.
 Damping current iteration by 5.00D-01
 RMSDP=2.73D-03 MaxDP=1.46D-01              OVMax= 2.10D-01

 Cycle   2  Pass 0  IDiag  1:
 RMSU=  1.36D-03    CP:  9.89D-01
 E= -2988.85934402716     Delta-E=       -0.462733940170 Rises=F Damp=T
 DIIS: error= 4.13D-03 at cycle   2 NSaved=   2.
 NSaved= 2 IEnMin= 2 EnMin= -2988.85934402716     IErMin= 2 ErrMin= 4.13D-03
 ErrMax= 4.13D-03  0.00D+00 EMaxC= 1.00D-01 BMatC= 1.47D-01 BMatP= 3.24D+00
 IDIUse=3 WtCom= 9.59D-01 WtEn= 4.13D-02
 Coeff-Com: -0.299D-01 0.103D+01
 Coeff-En:   0.000D+00 0.100D+01
 Coeff:     -0.286D-01 0.103D+01
 Gap=     0.308 Goal=   None    Shift=    0.000
 Gap=     0.308 Goal=   None    Shift=    0.000
 RMSDP=8.14D-04 MaxDP=3.02D-02 DE=-4.63D-01 OVMax= 1.71D-01

 Cycle   3  Pass 0  IDiag  1:
 RMSU=  7.98D-04    CP:  9.83D-01  1.10D+00
 E= -2989.31717740133     Delta-E=       -0.457833374170 Rises=F Damp=F
 DIIS: error= 2.32D-03 at cycle   3 NSaved=   3.
 NSaved= 3 IEnMin= 3 EnMin= -2989.31717740133     IErMin= 3 ErrMin= 2.32D-03
 ErrMax= 2.32D-03  0.00D+00 EMaxC= 1.00D-01 BMatC= 5.02D-02 BMatP= 1.47D-01
 IDIUse=3 WtCom= 9.77D-01 WtEn= 2.32D-02
 Coeff-Com: -0.337D-01 0.360D+00 0.674D+00
 Coeff-En:   0.000D+00 0.000D+00 0.100D+01
 Coeff:     -0.329D-01 0.352D+00 0.681D+00
 Gap=     0.289 Goal=   None    Shift=    0.000
 Gap=     0.289 Goal=   None    Shift=    0.000
 RMSDP=2.31D-04 MaxDP=1.06D-02 DE=-4.58D-01 OVMax= 3.27D-02

 Cycle   4  Pass 0  IDiag  1:
 RMSU=  1.95D-04    CP:  9.83D-01  1.15D+00  8.67D-01
 E= -2989.32934819672     Delta-E=       -0.012170795394 Rises=F Damp=F
 DIIS: error= 9.12D-04 at cycle   4 NSaved=   4.
 NSaved= 4 IEnMin= 4 EnMin= -2989.32934819672     IErMin= 4 ErrMin= 9.12D-04
 ErrMax= 9.12D-04  0.00D+00 EMaxC= 1.00D-01 BMatC= 8.38D-03 BMatP= 5.02D-02
 IDIUse=3 WtCom= 9.91D-01 WtEn= 9.12D-03
 Coeff-Com: -0.238D-02 0.291D-01 0.280D+00 0.693D+00
 Coeff-En:   0.000D+00 0.000D+00 0.000D+00 0.100D+01
 Coeff:     -0.236D-02 0.289D-01 0.278D+00 0.696D+00
 Gap=     0.289 Goal=   None    Shift=    0.000
 Gap=     0.289 Goal=   None    Shift=    0.000
 RMSDP=9.09D-05 MaxDP=5.77D-03 DE=-1.22D-02 OVMax= 1.15D-02

 Cycle   5  Pass 0  IDiag  1:
 RMSU=  7.27D-05    CP:  9.83D-01  1.15D+00  9.26D-01  8.66D-01
 E= -2989.33160673147     Delta-E=       -0.002258534747 Rises=F Damp=F
 DIIS: error= 3.05D-04 at cycle   5 NSaved=   5.
 NSaved= 5 IEnMin= 5 EnMin= -2989.33160673147     IErMin= 5 ErrMin= 3.05D-04
 ErrMax= 3.05D-04  0.00D+00 EMaxC= 1.00D-01 BMatC= 1.40D-03 BMatP= 8.38D-03
 IDIUse=3 WtCom= 9.97D-01 WtEn= 3.05D-03
 Coeff-Com:  0.534D-02-0.309D-01 0.583D-01 0.330D+00 0.637D+00
 Coeff-En:   0.000D+00 0.000D+00 0.000D+00 0.000D+00 0.100D+01
 Coeff:      0.532D-02-0.308D-01 0.581D-01 0.329D+00 0.638D+00
 Gap=     0.290 Goal=   None    Shift=    0.000
 Gap=     0.290 Goal=   None    Shift=    0.000
 RMSDP=3.97D-05 MaxDP=2.20D-03 DE=-2.26D-03 OVMax= 4.47D-03

 Cycle   6  Pass 0  IDiag  1:
 RMSU=  3.01D-05    CP:  9.83D-01  1.14D+00  9.46D-01  9.58D-01  8.74D-01
 E= -2989.33204303572     Delta-E=       -0.000436304254 Rises=F Damp=F
 DIIS: error= 1.18D-04 at cycle   6 NSaved=   6.
 NSaved= 6 IEnMin= 6 EnMin= -2989.33204303572     IErMin= 6 ErrMin= 1.18D-04
 ErrMax= 1.18D-04  0.00D+00 EMaxC= 1.00D-01 BMatC= 1.81D-04 BMatP= 1.40D-03
 IDIUse=3 WtCom= 9.99D-01 WtEn= 1.18D-03
 Coeff-Com:  0.415D-02-0.214D-01-0.252D-01 0.985D-02 0.240D+00 0.792D+00
 Coeff-En:   0.000D+00 0.000D+00 0.000D+00 0.000D+00 0.000D+00 0.100D+01
 Coeff:      0.415D-02-0.214D-01-0.252D-01 0.984D-02 0.240D+00 0.793D+00
 Gap=     0.291 Goal=   None    Shift=    0.000
 Gap=     0.291 Goal=   None    Shift=    0.000
 RMSDP=2.14D-05 MaxDP=9.57D-04 DE=-4.36D-04 OVMax= 3.78D-03

 Cycle   7  Pass 0  IDiag  1:
 RMSU=  1.46D-05    CP:  9.83D-01  1.14D+00  9.56D-01  9.87D-01  1.04D+00
                    CP:  1.10D+00
 E= -2989.33214054084     Delta-E=       -0.000097505113 Rises=F Damp=F
 DIIS: error= 5.56D-05 at cycle   7 NSaved=   7.
 NSaved= 7 IEnMin= 7 EnMin= -2989.33214054084     IErMin= 7 ErrMin= 5.56D-05
 ErrMax= 5.56D-05  0.00D+00 EMaxC= 1.00D-01 BMatC= 3.48D-05 BMatP= 1.81D-04
 IDIUse=1 WtCom= 1.00D+00 WtEn= 0.00D+00
 Coeff-Com:  0.105D-02-0.343D-02-0.161D-01-0.487D-01-0.351D-01 0.289D+00
 Coeff-Com:  0.813D+00
 Coeff:      0.105D-02-0.343D-02-0.161D-01-0.487D-01-0.351D-01 0.289D+00
 Coeff:      0.813D+00
 Gap=     0.291 Goal=   None    Shift=    0.000
 Gap=     0.291 Goal=   None    Shift=    0.000
 RMSDP=1.48D-05 MaxDP=4.04D-04 DE=-9.75D-05 OVMax= 1.76D-03

 Cycle   8  Pass 0  IDiag  1:
 RMSU=  1.06D-05    CP:  9.83D-01  1.14D+00  9.59D-01  1.00D+00  1.08D+00
                    CP:  1.35D+00  1.31D+00
 E= -2989.33216724771     Delta-E=       -0.000026706876 Rises=F Damp=F
 DIIS: error= 2.93D-05 at cycle   8 NSaved=   8.
 NSaved= 8 IEnMin= 8 EnMin= -2989.33216724771     IErMin= 8 ErrMin= 2.93D-05
 ErrMax= 2.93D-05  0.00D+00 EMaxC= 1.00D-01 BMatC= 8.21D-06 BMatP= 3.48D-05
 IDIUse=1 WtCom= 1.00D+00 WtEn= 0.00D+00
 Coeff-Com: -0.238D-03 0.221D-02-0.828D-03-0.206D-01-0.666D-01-0.423D-01
 Coeff-Com:  0.335D+00 0.793D+00
 Coeff:     -0.238D-03 0.221D-02-0.828D-03-0.206D-01-0.666D-01-0.423D-01
 Coeff:      0.335D+00 0.793D+00
 Gap=     0.291 Goal=   None    Shift=    0.000
 Gap=     0.291 Goal=   None    Shift=    0.000
 RMSDP=1.59D-05 MaxDP=5.16D-04 DE=-2.67D-05 OVMax= 9.99D-04

 Cycle   9  Pass 0  IDiag  1:
 RMSU=  9.52D-06    CP:  9.83D-01  1.14D+00  9.61D-01  1.01D+00  1.10D+00
                    CP:  1.48D+00  1.88D+00  1.81D+00
 E= -2989.33217934553     Delta-E=       -0.000012097819 Rises=F Damp=F
 DIIS: error= 4.21D-05 at cycle   9 NSaved=   9.
 NSaved= 9 IEnMin= 9 EnMin= -2989.33217934553     IErMin= 8 ErrMin= 2.93D-05
 ErrMax= 4.21D-05  0.00D+00 EMaxC= 1.00D-01 BMatC= 3.05D-06 BMatP= 8.21D-06
 IDIUse=1 WtCom= 1.00D+00 WtEn= 0.00D+00
 Coeff-Com: -0.154D-03 0.131D-02 0.587D-03-0.748D-02-0.330D-01-0.410D-01
 Coeff-Com:  0.121D+00 0.413D+00 0.545D+00
 Coeff:     -0.154D-03 0.131D-02 0.587D-03-0.748D-02-0.330D-01-0.410D-01
 Coeff:      0.121D+00 0.413D+00 0.545D+00
 Gap=     0.291 Goal=   None    Shift=    0.000
 Gap=     0.291 Goal=   None    Shift=    0.000
 RMSDP=1.47D-05 MaxDP=4.82D-04 DE=-1.21D-05 OVMax= 2.07D-04

 Cycle  10  Pass 0  IDiag  1:
 RMSU=  6.08D-06    CP:  9.83D-01  1.14D+00  9.62D-01  1.01D+00  1.10D+00
                    CP:  1.54D+00  2.20D+00  2.70D+00  1.84D+00
 E= -2989.33219012944     Delta-E=       -0.000010783905 Rises=F Damp=F
 DIIS: error= 6.18D-05 at cycle  10 NSaved=  10.
 NSaved=10 IEnMin=10 EnMin= -2989.33219012944     IErMin= 8 ErrMin= 2.93D-05
 ErrMax= 6.18D-05  0.00D+00 EMaxC= 1.00D-01 BMatC= 4.57D-06 BMatP= 3.05D-06
 IDIUse=1 WtCom= 1.00D+00 WtEn= 0.00D+00
 Coeff-Com: -0.202D-03 0.159D-02 0.114D-02-0.708D-02-0.366D-01-0.553D-01
 Coeff-Com:  0.114D+00 0.473D+00 0.832D+00-0.322D+00
 Coeff:     -0.202D-03 0.159D-02 0.114D-02-0.708D-02-0.366D-01-0.553D-01
 Coeff:      0.114D+00 0.473D+00 0.832D+00-0.322D+00
 Gap=     0.291 Goal=   None    Shift=    0.000
 Gap=     0.291 Goal=   None    Shift=    0.000
 RMSDP=8.29D-06 MaxDP=2.58D-04 DE=-1.08D-05 OVMax= 2.72D-05

 Initial convergence to 1.0D-05 achieved.  Increase integral accuracy.
 Cycle  11  Pass 1  IDiag  1:
 E= -2989.33157260664     Delta-E=        0.000617522796 Rises=F Damp=F
 DIIS: error= 2.89D-04 at cycle   1 NSaved=   1.
 NSaved= 1 IEnMin= 1 EnMin= -2989.33157260664     IErMin= 1 ErrMin= 2.89D-04
 ErrMax= 2.89D-04  0.00D+00 EMaxC= 1.00D-01 BMatC= 1.35D-04 BMatP= 1.35D-04
 IDIUse=3 WtCom= 9.97D-01 WtEn= 2.89D-03
 Coeff-Com:  0.100D+01
 Coeff-En:   0.100D+01
 Coeff:      0.100D+01
 Gap=     0.291 Goal=   None    Shift=    0.000
 Gap=     0.291 Goal=   None    Shift=    0.000
 RMSDP=8.29D-06 MaxDP=2.58D-04 DE= 6.18D-04 OVMax= 4.70D-04

 Cycle  12  Pass 1  IDiag  1:
 RMSU=  1.90D-04    CP:  1.00D+00
 E= -2989.33160163936     Delta-E=       -0.000029032719 Rises=F Damp=F
 DIIS: error= 1.29D-05 at cycle   2 NSaved=   2.
 NSaved= 2 IEnMin= 2 EnMin= -2989.33160163936     IErMin= 2 ErrMin= 1.29D-05
 ErrMax= 1.29D-05  0.00D+00 EMaxC= 1.00D-01 BMatC= 4.27D-07 BMatP= 1.35D-04
 IDIUse=1 WtCom= 1.00D+00 WtEn= 0.00D+00
 Coeff-Com: -0.360D-01 0.104D+01
 Coeff:     -0.360D-01 0.104D+01
 Gap=     0.291 Goal=   None    Shift=    0.000
 Gap=     0.291 Goal=   None    Shift=    0.000
 RMSDP=9.54D-06 MaxDP=4.42D-04 DE=-2.90D-05 OVMax= 1.22D-04

 Cycle  13  Pass 1  IDiag  1:
 RMSU=  2.72D-06    CP:  1.00D+00  1.05D+00
 E= -2989.33160180368     Delta-E=       -0.000000164324 Rises=F Damp=F
 DIIS: error= 5.99D-06 at cycle   3 NSaved=   3.
 NSaved= 3 IEnMin= 3 EnMin= -2989.33160180368     IErMin= 3 ErrMin= 5.99D-06
 ErrMax= 5.99D-06  0.00D+00 EMaxC= 1.00D-01 BMatC= 2.94D-07 BMatP= 4.27D-07
 IDIUse=1 WtCom= 1.00D+00 WtEn= 0.00D+00
 Coeff-Com: -0.202D-01 0.535D+00 0.485D+00
 Coeff:     -0.202D-01 0.535D+00 0.485D+00
 Gap=     0.291 Goal=   None    Shift=    0.000
 Gap=     0.291 Goal=   None    Shift=    0.000
 RMSDP=4.77D-07 MaxDP=3.24D-05 DE=-1.64D-07 OVMax= 6.36D-05

 Cycle  14  Pass 1  IDiag  1:
 RMSU=  4.58D-07    CP:  1.00D+00  1.05D+00  1.01D+00
 E= -2989.33160181851     Delta-E=       -0.000000014824 Rises=F Damp=F
 DIIS: error= 1.21D-06 at cycle   4 NSaved=   4.
 NSaved= 4 IEnMin= 4 EnMin= -2989.33160181851     IErMin= 4 ErrMin= 1.21D-06
 ErrMax= 1.21D-06  0.00D+00 EMaxC= 1.00D-01 BMatC= 1.38D-08 BMatP= 2.94D-07
 IDIUse=1 WtCom= 1.00D+00 WtEn= 0.00D+00
 Coeff-Com:  0.211D-02-0.716D-01 0.987D-01 0.971D+00
 Coeff:      0.211D-02-0.716D-01 0.987D-01 0.971D+00
 Gap=     0.291 Goal=   None    Shift=    0.000
 Gap=     0.291 Goal=   None    Shift=    0.000
 RMSDP=3.10D-07 MaxDP=9.19D-06 DE=-1.48D-08 OVMax= 4.25D-05

 Cycle  15  Pass 1  IDiag  1:
 RMSU=  1.88D-07    CP:  1.00D+00  1.05D+00  1.09D+00  1.05D+00
 E= -2989.33160182877     Delta-E=       -0.000000010266 Rises=F Damp=F
 DIIS: error= 7.94D-07 at cycle   5 NSaved=   5.
 NSaved= 5 IEnMin= 5 EnMin= -2989.33160182877     IErMin= 5 ErrMin= 7.94D-07
 ErrMax= 7.94D-07  0.00D+00 EMaxC= 1.00D-01 BMatC= 3.75D-09 BMatP= 1.38D-08
 IDIUse=1 WtCom= 1.00D+00 WtEn= 0.00D+00
 Coeff-Com:  0.297D-02-0.845D-01-0.186D-01 0.381D+00 0.719D+00
 Coeff:      0.297D-02-0.845D-01-0.186D-01 0.381D+00 0.719D+00
 Gap=     0.291 Goal=   None    Shift=    0.000
 Gap=     0.291 Goal=   None    Shift=    0.000
 RMSDP=9.39D-08 MaxDP=3.86D-06 DE=-1.03D-08 OVMax= 2.11D-05

 Cycle  16  Pass 1  IDiag  1:
 RMSU=  6.92D-08    CP:  1.00D+00  1.05D+00  1.10D+00  1.12D+00  1.24D+00
 E= -2989.33160181795     Delta-E=        0.000000010825 Rises=F Damp=F
 DIIS: error= 3.36D-07 at cycle   6 NSaved=   6.
 NSaved= 6 IEnMin= 5 EnMin= -2989.33160182877     IErMin= 6 ErrMin= 3.36D-07
 ErrMax= 3.36D-07  0.00D+00 EMaxC= 1.00D-01 BMatC= 8.27D-10 BMatP= 3.75D-09
 IDIUse=1 WtCom= 1.00D+00 WtEn= 0.00D+00
 Coeff-Com:  0.373D-04 0.310D-02-0.464D-01-0.243D+00 0.213D+00 0.107D+01
 Coeff:      0.373D-04 0.310D-02-0.464D-01-0.243D+00 0.213D+00 0.107D+01
 Gap=     0.291 Goal=   None    Shift=    0.000
 Gap=     0.291 Goal=   None    Shift=    0.000
 RMSDP=8.21D-08 MaxDP=3.65D-06 DE= 1.08D-08 OVMax= 1.83D-05

 Cycle  17  Pass 1  IDiag  1:
 RMSU=  3.37D-08    CP:  1.00D+00  1.05D+00  1.10D+00  1.16D+00  1.61D+00
                    CP:  1.30D+00
 E= -2989.33160181869     Delta-E=       -0.000000000744 Rises=F Damp=F
 DIIS: error= 9.48D-08 at cycle   7 NSaved=   7.
 NSaved= 7 IEnMin= 5 EnMin= -2989.33160182877     IErMin= 7 ErrMin= 9.48D-08
 ErrMax= 9.48D-08  0.00D+00 EMaxC= 1.00D-01 BMatC= 1.65D-10 BMatP= 8.27D-10
 IDIUse=1 WtCom= 1.00D+00 WtEn= 0.00D+00
 Coeff-Com: -0.385D-03 0.131D-01-0.221D-01-0.175D+00 0.981D-02 0.527D+00
 Coeff-Com:  0.648D+00
 Coeff:     -0.385D-03 0.131D-01-0.221D-01-0.175D+00 0.981D-02 0.527D+00
 Coeff:      0.648D+00
 Gap=     0.291 Goal=   None    Shift=    0.000
 Gap=     0.291 Goal=   None    Shift=    0.000
 RMSDP=2.11D-08 MaxDP=1.00D-06 DE=-7.44D-10 OVMax= 4.11D-06

 Cycle  18  Pass 1  IDiag  1:
 RMSU=  1.12D-08    CP:  1.00D+00  1.05D+00  1.10D+00  1.17D+00  1.68D+00
                    CP:  1.42D+00  1.05D+00
 E= -2989.33160181887     Delta-E=       -0.000000000180 Rises=F Damp=F
 DIIS: error= 1.93D-08 at cycle   8 NSaved=   8.
 NSaved= 8 IEnMin= 5 EnMin= -2989.33160182877     IErMin= 8 ErrMin= 1.93D-08
 ErrMax= 1.93D-08  0.00D+00 EMaxC= 1.00D-01 BMatC= 6.14D-12 BMatP= 1.65D-10
 IDIUse=1 WtCom= 1.00D+00 WtEn= 0.00D+00
 Coeff-Com: -0.118D-03 0.373D-02-0.402D-02-0.373D-01-0.921D-02 0.940D-01
 Coeff-Com:  0.188D+00 0.765D+00
 Coeff:     -0.118D-03 0.373D-02-0.402D-02-0.373D-01-0.921D-02 0.940D-01
 Coeff:      0.188D+00 0.765D+00
 Gap=     0.291 Goal=   None    Shift=    0.000
 Gap=     0.291 Goal=   None    Shift=    0.000
 RMSDP=4.52D-09 MaxDP=2.77D-07 DE=-1.80D-10 OVMax= 8.69D-07

 SCF Done:  E(ULC-wPBE) =  -2989.33160182     A.U. after   18 cycles
            NFock= 18  Conv=0.45D-08     -V/T= 2.0045
 <Sx>= 0.0000 <Sy>= 0.0000 <Sz>= 0.0000 <S**2>=-0.0000 S=-0.0000
 <L.S>= 0.000000000000E+00
 KE= 2.975844796486D+03 PE=-1.668110896188D+04 EE= 5.891649014234D+03
 Annihilation of the first spin contaminant:
 S**2 before annihilation    -0.0000,   after     0.0000
 Leave Link  502 at Thu Jul 23 20:32:48 2020, MaxMem=  4026531840 cpu:            3539.7 elap:             451.3
 (Enter /opt/ohpc/pub/libs/gaussian/g16-A.03/sandybridge/g16/l601.exe)
 Copying SCF densities to generalized density rwf, IOpCl= 1 IROHF=0.

 **********************************************************************

            Population analysis using the SCF density.

 **********************************************************************

 Orbital symmetries:
 Alpha Orbitals:
       Occupied  (A) (A) (A) (A) (A) (A) (A) (A) (A) (A) (A) (A)
                 (A) (A) (A) (A) (A) (A) (A) (A) (A) (A) (A) (A)
                 (A) (A) (A) (A) (A) (A) (A) (A) (A) (A) (A) (A)
                 (A) (A) (A) (A) (A) (A) (A) (A) (A) (A) (A) (A)
                 (A) (A) (A) (A) (A) (A) (A) (A) (A) (A) (A) (A)
                 (A) (A) (A) (A) (A) (A) (A) (A) (A) (A) (A) (A)
                 (A) (A) (A) (A) (A) (A) (A) (A) (A) (A) (A) (A)
                 (A) (A) (A) (A) (A) (A) (A) (A) (A) (A) (A) (A)
                 (A) (A) (A) (A) (A) (A) (A) (A) (A) (A) (A) (A)
                 (A) (A) (A) (A) (A) (A) (A) (A) (A) (A) (A) (A)
                 (A) (A) (A) (A) (A) (A) (A) (A) (A) (A) (A) (A)
                 (A) (A) (A) (A) (A) (A) (A) (A) (A) (A) (A) (A)
                 (A) (A) (A) (A) (A) (A) (A) (A) (A) (A) (A) (A)
                 (A) (A) (A) (A)
       Virtual   (A) (A) (A) (A) (A) (A) (A) (A) (A) (A) (A) (A)
                 (A) (A) (A) (A) (A) (A) (A) (A) (A) (A) (A) (A)
                 (A) (A) (A) (A) (A) (A) (A) (A) (A) (A) (A) (A)
                 (A) (A) (A) (A) (A) (A) (A) (A) (A) (A) (A) (A)
                 (A) (A) (A) (A) (A) (A) (A) (A) (A) (A) (A) (A)
                 (A) (A) (A) (A) (A) (A) (A) (A) (A) (A) (A) (A)
                 (A) (A) (A) (A) (A) (A) (A) (A) (A) (A) (A) (A)
                 (A) (A) (A) (A) (A) (A) (A) (A) (A) (A) (A) (A)
                 (A) (A) (A) (A) (A) (A) (A) (A) (A) (A) (A) (A)
                 (A) (A) (A) (A) (A) (A) (A) (A) (A) (A) (A) (A)
                 (A) (A) (A) (A) (A) (A) (A) (A) (A) (A) (A) (A)
                 (A) (A) (A) (A) (A) (A) (A) (A) (A) (A) (A) (A)
                 (A) (A) (A) (A) (A) (A) (A) (A) (A) (A) (A) (A)
                 (A) (A) (A) (A) (A) (A) (A) (A) (A) (A) (A) (A)
                 (A) (A) (A) (A) (A) (A) (A) (A) (A) (A) (A) (A)
                 (A) (A) (A) (A) (A) (A) (A) (A) (A) (A) (A) (A)
                 (A) (A) (A) (A) (A) (A) (A) (A) (A) (A) (A) (A)
                 (A) (A) (A) (A) (A) (A) (A) (A) (A) (A) (A) (A)
                 (A) (A) (A) (A) (A) (A) (A) (A) (A) (A) (A) (A)
                 (A) (A) (A) (A) (A) (A) (A) (A) (A) (A) (A) (A)
                 (A) (A) (A) (A) (A) (A) (A) (A) (A) (A) (A) (A)
                 (A) (A) (A) (A) (A) (A) (A) (A) (A) (A) (A) (A)
                 (A) (A) (A) (A) (A) (A) (A) (A) (A) (A) (A) (A)
                 (A) (A) (A) (A) (A) (A) (A) (A) (A) (A) (A) (A)
                 (A) (A) (A) (A) (A) (A) (A) (A) (A) (A) (A) (A)
                 (A) (A) (A) (A) (A) (A) (A) (A) (A) (A) (A) (A)
                 (A) (A) (A) (A) (A) (A) (A) (A) (A) (A) (A) (A)
                 (A) (A) (A) (A) (A) (A) (A) (A) (A) (A) (A) (A)
                 (A) (A) (A) (A) (A) (A) (A) (A) (A) (A) (A) (A)
                 (A) (A) (A) (A) (A) (A) (A) (A) (A) (A) (A) (A)
                 (A) (A) (A) (A) (A) (A) (A) (A) (A) (A) (A) (A)
                 (A) (A) (A) (A) (A) (A) (A) (A) (A) (A) (A) (A)
                 (A) (A) (A) (A) (A) (A) (A) (A) (A) (A) (A) (A)
                 (A) (A) (A) (A) (A) (A) (A) (A) (A) (A) (A) (A)
                 (A) (A) (A) (A) (A) (A) (A) (A) (A) (A) (A) (A)
                 (A) (A) (A) (A) (A) (A) (A) (A) (A) (A) (A) (A)
                 (A) (A) (A) (A) (A) (A) (A) (A) (A) (A) (A) (A)
                 (A) (A) (A) (A) (A) (A) (A) (A) (A) (A) (A) (A)
                 (A) (A) (A) (A) (A) (A) (A) (A) (A) (A) (A) (A)
                 (A) (A) (A) (A) (A) (A) (A) (A) (A) (A) (A) (A)
                 (A) (A) (A) (A) (A) (A) (A) (A) (A) (A) (A) (A)
                 (A) (A) (A) (A) (A) (A) (A) (A) (A) (A) (A) (A)
                 (A) (A) (A) (A) (A) (A) (A) (A) (A) (A) (A) (A)
                 (A) (A) (A) (A) (A) (A) (A) (A) (A) (A) (A) (A)
                 (A) (A) (A) (A) (A) (A) (A) (A) (A) (A) (A) (A)
                 (A) (A) (A) (A) (A) (A) (A) (A) (A) (A) (A) (A)
                 (A) (A) (A)
 Beta  Orbitals:
       Occupied  (A) (A) (A) (A) (A) (A) (A) (A) (A) (A) (A) (A)
                 (A) (A) (A) (A) (A) (A) (A) (A) (A) (A) (A) (A)
                 (A) (A) (A) (A) (A) (A) (A) (A) (A) (A) (A) (A)
                 (A) (A) (A) (A) (A) (A) (A) (A) (A) (A) (A) (A)
                 (A) (A) (A) (A) (A) (A) (A) (A) (A) (A) (A) (A)
                 (A) (A) (A) (A) (A) (A) (A) (A) (A) (A) (A) (A)
                 (A) (A) (A) (A) (A) (A) (A) (A) (A) (A) (A) (A)
                 (A) (A) (A) (A) (A) (A) (A) (A) (A) (A) (A) (A)
                 (A) (A) (A) (A) (A) (A) (A) (A) (A) (A) (A) (A)
                 (A) (A) (A) (A) (A) (A) (A) (A) (A) (A) (A) (A)
                 (A) (A) (A) (A) (A) (A) (A) (A) (A) (A) (A) (A)
                 (A) (A) (A) (A) (A) (A) (A) (A) (A) (A) (A) (A)
                 (A) (A) (A) (A) (A) (A) (A) (A) (A) (A) (A) (A)
                 (A) (A) (A) (A)
       Virtual   (A) (A) (A) (A) (A) (A) (A) (A) (A) (A) (A) (A)
                 (A) (A) (A) (A) (A) (A) (A) (A) (A) (A) (A) (A)
                 (A) (A) (A) (A) (A) (A) (A) (A) (A) (A) (A) (A)
                 (A) (A) (A) (A) (A) (A) (A) (A) (A) (A) (A) (A)
                 (A) (A) (A) (A) (A) (A) (A) (A) (A) (A) (A) (A)
                 (A) (A) (A) (A) (A) (A) (A) (A) (A) (A) (A) (A)
                 (A) (A) (A) (A) (A) (A) (A) (A) (A) (A) (A) (A)
                 (A) (A) (A) (A) (A) (A) (A) (A) (A) (A) (A) (A)
                 (A) (A) (A) (A) (A) (A) (A) (A) (A) (A) (A) (A)
                 (A) (A) (A) (A) (A) (A) (A) (A) (A) (A) (A) (A)
                 (A) (A) (A) (A) (A) (A) (A) (A) (A) (A) (A) (A)
                 (A) (A) (A) (A) (A) (A) (A) (A) (A) (A) (A) (A)
                 (A) (A) (A) (A) (A) (A) (A) (A) (A) (A) (A) (A)
                 (A) (A) (A) (A) (A) (A) (A) (A) (A) (A) (A) (A)
                 (A) (A) (A) (A) (A) (A) (A) (A) (A) (A) (A) (A)
                 (A) (A) (A) (A) (A) (A) (A) (A) (A) (A) (A) (A)
                 (A) (A) (A) (A) (A) (A) (A) (A) (A) (A) (A) (A)
                 (A) (A) (A) (A) (A) (A) (A) (A) (A) (A) (A) (A)
                 (A) (A) (A) (A) (A) (A) (A) (A) (A) (A) (A) (A)
                 (A) (A) (A) (A) (A) (A) (A) (A) (A) (A) (A) (A)
                 (A) (A) (A) (A) (A) (A) (A) (A) (A) (A) (A) (A)
                 (A) (A) (A) (A) (A) (A) (A) (A) (A) (A) (A) (A)
                 (A) (A) (A) (A) (A) (A) (A) (A) (A) (A) (A) (A)
                 (A) (A) (A) (A) (A) (A) (A) (A) (A) (A) (A) (A)
                 (A) (A) (A) (A) (A) (A) (A) (A) (A) (A) (A) (A)
                 (A) (A) (A) (A) (A) (A) (A) (A) (A) (A) (A) (A)
                 (A) (A) (A) (A) (A) (A) (A) (A) (A) (A) (A) (A)
                 (A) (A) (A) (A) (A) (A) (A) (A) (A) (A) (A) (A)
                 (A) (A) (A) (A) (A) (A) (A) (A) (A) (A) (A) (A)
                 (A) (A) (A) (A) (A) (A) (A) (A) (A) (A) (A) (A)
                 (A) (A) (A) (A) (A) (A) (A) (A) (A) (A) (A) (A)
                 (A) (A) (A) (A) (A) (A) (A) (A) (A) (A) (A) (A)
                 (A) (A) (A) (A) (A) (A) (A) (A) (A) (A) (A) (A)
                 (A) (A) (A) (A) (A) (A) (A) (A) (A) (A) (A) (A)
                 (A) (A) (A) (A) (A) (A) (A) (A) (A) (A) (A) (A)
                 (A) (A) (A) (A) (A) (A) (A) (A) (A) (A) (A) (A)
                 (A) (A) (A) (A) (A) (A) (A) (A) (A) (A) (A) (A)
                 (A) (A) (A) (A) (A) (A) (A) (A) (A) (A) (A) (A)
                 (A) (A) (A) (A) (A) (A) (A) (A) (A) (A) (A) (A)
                 (A) (A) (A) (A) (A) (A) (A) (A) (A) (A) (A) (A)
                 (A) (A) (A) (A) (A) (A) (A) (A) (A) (A) (A) (A)
                 (A) (A) (A) (A) (A) (A) (A) (A) (A) (A) (A) (A)
                 (A) (A) (A) (A) (A) (A) (A) (A) (A) (A) (A) (A)
                 (A) (A) (A) (A) (A) (A) (A) (A) (A) (A) (A) (A)
                 (A) (A) (A) (A) (A) (A) (A) (A) (A) (A) (A) (A)
                 (A) (A) (A) (A) (A) (A) (A) (A) (A) (A) (A) (A)
                 (A) (A) (A)
 The electronic state is 1-A.
 Alpha  occ. eigenvalues --  -88.26937 -88.25575 -88.25308 -24.47145 -24.46236
 Alpha  occ. eigenvalues --  -24.45051 -18.97306 -18.96619 -18.96478 -10.16413
 Alpha  occ. eigenvalues --  -10.15434 -10.15042 -10.14574 -10.13700 -10.13541
 Alpha  occ. eigenvalues --  -10.12573 -10.12266 -10.11695 -10.10462 -10.10202
 Alpha  occ. eigenvalues --  -10.09778 -10.09705 -10.09588 -10.09340 -10.09116
 Alpha  occ. eigenvalues --  -10.09001 -10.08980 -10.08511 -10.08499 -10.08008
 Alpha  occ. eigenvalues --  -10.07859 -10.07444 -10.07372 -10.07304 -10.06922
 Alpha  occ. eigenvalues --  -10.06871 -10.06796 -10.06397 -10.06343 -10.06052
 Alpha  occ. eigenvalues --  -10.05952 -10.05811  -7.87424  -7.86028  -7.85971
 Alpha  occ. eigenvalues --   -5.89229  -5.88749  -5.88416  -5.87827  -5.87804
 Alpha  occ. eigenvalues --   -5.87351  -5.87276  -5.87043  -5.86900  -1.32631
 Alpha  occ. eigenvalues --   -1.32207  -1.29737  -1.15069  -1.14822  -1.13965
 Alpha  occ. eigenvalues --   -0.99836  -0.99249  -0.97868  -0.97062  -0.96327
 Alpha  occ. eigenvalues --   -0.95734  -0.90680  -0.89267  -0.87729  -0.85878
 Alpha  occ. eigenvalues --   -0.85682  -0.85439  -0.84175  -0.83766  -0.83156
 Alpha  occ. eigenvalues --   -0.83016  -0.81795  -0.81158  -0.80416  -0.79273
 Alpha  occ. eigenvalues --   -0.78141  -0.74947  -0.72786  -0.71919  -0.71622
 Alpha  occ. eigenvalues --   -0.71194  -0.70854  -0.66999  -0.66792  -0.66248
 Alpha  occ. eigenvalues --   -0.65941  -0.65243  -0.64551  -0.64064  -0.62826
 Alpha  occ. eigenvalues --   -0.62420  -0.61530  -0.61514  -0.61404  -0.60537
 Alpha  occ. eigenvalues --   -0.60375  -0.59861  -0.59638  -0.58941  -0.58478
 Alpha  occ. eigenvalues --   -0.57987  -0.57876  -0.57501  -0.57090  -0.56375
 Alpha  occ. eigenvalues --   -0.56068  -0.55944  -0.55481  -0.54293  -0.53808
 Alpha  occ. eigenvalues --   -0.53143  -0.52676  -0.51775  -0.51035  -0.50554
 Alpha  occ. eigenvalues --   -0.50304  -0.50127  -0.49875  -0.49623  -0.49149
 Alpha  occ. eigenvalues --   -0.49060  -0.48706  -0.48523  -0.48069  -0.47816
 Alpha  occ. eigenvalues --   -0.47319  -0.46699  -0.46357  -0.46179  -0.45907
 Alpha  occ. eigenvalues --   -0.45462  -0.45098  -0.44984  -0.44307  -0.43360
 Alpha  occ. eigenvalues --   -0.43060  -0.42933  -0.42700  -0.41949  -0.41830
 Alpha  occ. eigenvalues --   -0.41629  -0.40875  -0.40658  -0.36219  -0.35444
 Alpha  occ. eigenvalues --   -0.34790  -0.34689  -0.33645  -0.33315  -0.32325
 Alpha  occ. eigenvalues --   -0.32231  -0.31926  -0.31355  -0.29087  -0.28225
 Alpha virt. eigenvalues --    0.00881   0.02862   0.04891   0.06235   0.06754
 Alpha virt. eigenvalues --    0.07725   0.08012   0.08170   0.09463   0.11933
 Alpha virt. eigenvalues --    0.13037   0.13370   0.13454   0.13583   0.14354
 Alpha virt. eigenvalues --    0.14770   0.15106   0.15171   0.15330   0.16501
 Alpha virt. eigenvalues --    0.16746   0.16800   0.17898   0.18363   0.18505
 Alpha virt. eigenvalues --    0.18738   0.19321   0.19450   0.19887   0.20194
 Alpha virt. eigenvalues --    0.20326   0.20377   0.20930   0.21004   0.21392
 Alpha virt. eigenvalues --    0.21508   0.22056   0.22484   0.22581   0.23003
 Alpha virt. eigenvalues --    0.23405   0.23486   0.23938   0.24663   0.24889
[...]
     2 C(13)  Bbb     0.0000     0.000     0.000     0.000  0.7093 -0.7020 -0.0639
              Bcc     0.0000     0.000     0.000     0.000  0.2520  0.1679  0.9531
 
              Baa    -0.0000    -0.000    -0.000    -0.000 -0.5327  0.6146  0.5818
     3 C(13)  Bbb    -0.0000    -0.000    -0.000    -0.000  0.5975 -0.2138  0.7728
              Bcc     0.0000     0.000     0.000     0.000  0.5993  0.7593 -0.2534
 
              Baa    -0.0000    -0.000    -0.000    -0.000 -0.0427 -0.1120  0.9928
     4 F(19)  Bbb    -0.0000    -0.000    -0.000    -0.000  0.7063  0.6994  0.1093
              Bcc     0.0000     0.000     0.000     0.000  0.7066 -0.7059 -0.0493
 
              Baa    -0.0000    -0.000    -0.000    -0.000  0.0411  0.9984  0.0384
     5 C(13)  Bbb    -0.0000    -0.000    -0.000    -0.000  0.3334 -0.0499  0.9415
              Bcc     0.0000     0.000     0.000     0.000  0.9419 -0.0259 -0.3349
 
              Baa    -0.0000    -0.000    -0.000    -0.000  0.8743  0.3862 -0.2941
     6 C(13)  Bbb    -0.0000    -0.000    -0.000    -0.000  0.2497  0.1617  0.9547
              Bcc     0.0000     0.000     0.000     0.000 -0.4163  0.9081 -0.0449
 
              Baa    -0.0000     0.000     0.000     0.000  0.2547 -0.2543  0.9330
     7 O(17)  Bbb    -0.0000     0.000     0.000     0.000 -0.6070  0.7090  0.3590
              Bcc     0.0000    -0.000    -0.000    -0.000  0.7528  0.6577 -0.0262
 
              Baa    -0.0000    -0.000    -0.000    -0.000 -0.2412  0.9016 -0.3590
     8 C(13)  Bbb    -0.0000    -0.000    -0.000    -0.000  0.6250  0.4273  0.6533
              Bcc     0.0000     0.000     0.000     0.000  0.7424 -0.0668 -0.6666
 
              Baa    -0.0000    -0.000    -0.000    -0.000  0.5791  0.8108 -0.0847
     9 C(13)  Bbb    -0.0000    -0.000    -0.000    -0.000  0.1274  0.0125  0.9918
              Bcc     0.0000     0.000     0.000     0.000  0.8052 -0.5852 -0.0961
 
              Baa    -0.0000    -0.000    -0.000    -0.000  0.1537 -0.1445  0.9775
    10 C(13)  Bbb     0.0000     0.000     0.000     0.000  0.5352  0.8438  0.0406
              Bcc     0.0000     0.000     0.000     0.000  0.8306 -0.5169 -0.2071
 
              Baa    -0.0000    -0.000    -0.000    -0.000  0.9516 -0.2923 -0.0947
    11 C(13)  Bbb     0.0000     0.000     0.000     0.000  0.2929  0.7701  0.5667
              Bcc     0.0000     0.000     0.000     0.000 -0.0928 -0.5670  0.8185
 
              Baa    -0.0000    -0.000    -0.000    -0.000  0.1746  0.0299  0.9842
    12 C(13)  Bbb    -0.0000    -0.000    -0.000    -0.000  0.5005  0.8581 -0.1149
              Bcc     0.0000     0.000     0.000     0.000  0.8479 -0.5127 -0.1348
 
              Baa    -0.0000    -0.000    -0.000    -0.000  0.2305  0.8368  0.4965
    13 C(13)  Bbb     0.0000     0.000     0.000     0.000  0.1872 -0.5389  0.8213
              Bcc     0.0000     0.000     0.000     0.000  0.9549 -0.0964 -0.2809
 
              Baa    -0.0000    -0.000    -0.000    -0.000 -0.5109 -0.2336  0.8273
    14 S(33)  Bbb    -0.0000    -0.000    -0.000    -0.000  0.7814 -0.5273  0.3337
              Bcc     0.0000     0.000     0.000     0.000  0.3583  0.8169  0.4519
 
              Baa    -0.0000    -0.000    -0.000    -0.000  0.8917 -0.4103  0.1910
    15 C(13)  Bbb     0.0000     0.000     0.000     0.000  0.3272  0.8760  0.3545
              Bcc     0.0000     0.000     0.000     0.000 -0.3127 -0.2536  0.9154
 
              Baa    -0.0000    -0.000    -0.000    -0.000  0.5982  0.8014 -0.0023
    16 C(13)  Bbb    -0.0000    -0.000    -0.000    -0.000  0.8007 -0.5976  0.0427
              Bcc     0.0000     0.000     0.000     0.000 -0.0328  0.0274  0.9991
 
              Baa    -0.0000    -0.000    -0.000    -0.000  0.9560  0.2761  0.0993
    17 C(13)  Bbb     0.0000     0.000     0.000     0.000 -0.2632  0.9565 -0.1259
              Bcc     0.0000     0.000     0.000     0.000 -0.1298  0.0942  0.9871
 
              Baa    -0.0000    -0.000    -0.000    -0.000 -0.2938 -0.0411  0.9550
    18 F(19)  Bbb    -0.0000    -0.000    -0.000    -0.000  0.7801  0.5670  0.2644
              Bcc     0.0000     0.000     0.000     0.000 -0.5524  0.8227 -0.1346
 
              Baa    -0.0000    -0.000    -0.000    -0.000  0.9900  0.0906  0.1080
    19 C(13)  Bbb     0.0000     0.000     0.000     0.000 -0.1256  0.2186  0.9677
              Bcc     0.0000     0.000     0.000     0.000 -0.0640  0.9716 -0.2278
 
              Baa    -0.0000    -0.000    -0.000    -0.000 -0.0793 -0.0087  0.9968
    20 C(13)  Bbb     0.0000     0.000     0.000     0.000 -0.6136  0.7885 -0.0419
              Bcc     0.0000     0.000     0.000     0.000  0.7856  0.6150  0.0679
 
              Baa    -0.0000     0.000     0.000     0.000  0.8828  0.4135  0.2227
    21 O(17)  Bbb     0.0000    -0.000    -0.000    -0.000 -0.1059 -0.2867  0.9521
              Bcc     0.0000    -0.000    -0.000    -0.000 -0.4576  0.8642  0.2093
 
              Baa    -0.0000    -0.000    -0.000    -0.000  0.7159 -0.6760  0.1747
    22 C(13)  Bbb    -0.0000    -0.000    -0.000    -0.000  0.6867  0.7270 -0.0010
              Bcc     0.0000     0.000     0.000     0.000 -0.1263  0.1207  0.9846
 
              Baa    -0.0000    -0.000    -0.000    -0.000  0.9927 -0.1198 -0.0115
    23 C(13)  Bbb     0.0000     0.000     0.000     0.000 -0.0036 -0.1252  0.9921
              Bcc     0.0000     0.000     0.000     0.000  0.1203  0.9849  0.1247
 
              Baa    -0.0000    -0.000    -0.000    -0.000 -0.1739 -0.5064  0.8446
    24 C(13)  Bbb    -0.0000    -0.000    -0.000    -0.000 -0.2822  0.8473  0.4499
              Bcc     0.0000     0.000     0.000     0.000  0.9435  0.1601  0.2903
 
              Baa    -0.0000    -0.000    -0.000    -0.000  0.7257 -0.6347 -0.2656
    25 C(13)  Bbb     0.0000     0.000     0.000     0.000 -0.2332 -0.5901  0.7729
              Bcc     0.0000     0.000     0.000     0.000  0.6473  0.4990  0.5763
 
              Baa    -0.0000    -0.000    -0.000    -0.000  0.0646 -0.5085  0.8586
    26 C(13)  Bbb    -0.0000    -0.000    -0.000    -0.000  0.9554 -0.2170 -0.2003
              Bcc     0.0000     0.000     0.000     0.000  0.2882  0.8333  0.4718
 
              Baa    -0.0000    -0.000    -0.000    -0.000  0.0880  0.9657  0.2442
    27 C(13)  Bbb    -0.0000    -0.000    -0.000    -0.000  0.4273 -0.2581  0.8665
              Bcc     0.0000     0.000     0.000     0.000  0.8998  0.0281 -0.4354
 
              Baa    -0.0000    -0.000    -0.000    -0.000 -0.6352  0.2255  0.7387
    28 S(33)  Bbb     0.0000     0.000     0.000     0.000  0.6606 -0.3369  0.6709
              Bcc     0.0000     0.000     0.000     0.000  0.4002  0.9141  0.0650
 
              Baa    -0.0000    -0.000    -0.000    -0.000  0.0680  0.9975 -0.0193
    29 C(13)  Bbb    -0.0000    -0.000    -0.000    -0.000  0.1509  0.0089  0.9885
              Bcc     0.0000     0.000     0.000     0.000  0.9862 -0.0702 -0.1499
 
              Baa    -0.0000    -0.000    -0.000    -0.000  0.9656  0.2215 -0.1363
    30 C(13)  Bbb     0.0000     0.000     0.000     0.000 -0.2057  0.9711  0.1209
              Bcc     0.0000     0.000     0.000     0.000  0.1591 -0.0887  0.9833
 
              Baa    -0.0000    -0.000    -0.000    -0.000  0.3292  0.9442 -0.0108
    31 C(13)  Bbb     0.0000     0.000     0.000     0.000  0.7752 -0.2768 -0.5678
              Bcc     0.0000     0.000     0.000     0.000  0.5391 -0.1786  0.8231
 
              Baa    -0.0000    -0.000    -0.000    -0.000 -0.6510  0.7086  0.2722
    32 F(19)  Bbb    -0.0000    -0.000    -0.000    -0.000  0.2503 -0.1381  0.9583
              Bcc     0.0000     0.000     0.000     0.000  0.7166  0.6920 -0.0875
 
              Baa    -0.0000    -0.000    -0.000    -0.000  0.9931  0.0553 -0.1035
    33 C(13)  Bbb     0.0000     0.000     0.000     0.000  0.0390  0.6764  0.7355
              Bcc     0.0000     0.000     0.000     0.000 -0.1107  0.7344 -0.6696
 
              Baa    -0.0000    -0.000    -0.000    -0.000  0.0790 -0.1039  0.9914
    34 C(13)  Bbb     0.0000     0.000     0.000     0.000  0.0116  0.9946  0.1033
              Bcc     0.0000     0.000     0.000     0.000  0.9968 -0.0033 -0.0798
 
              Baa    -0.0000     0.000     0.000     0.000  0.9821 -0.0272  0.1862
    35 O(17)  Bbb    -0.0000     0.000     0.000     0.000  0.0732  0.9669 -0.2446
              Bcc     0.0000    -0.000    -0.000    -0.000 -0.1733  0.2539  0.9516
 
              Baa    -0.0000    -0.000    -0.000    -0.000  0.4558 -0.2217  0.8620
    36 C(13)  Bbb     0.0000     0.000     0.000     0.000 -0.3938  0.8183  0.4187
              Bcc     0.0000     0.000     0.000     0.000  0.7982  0.5303 -0.2857
 
              Baa    -0.0000    -0.000    -0.000    -0.000 -0.1907  0.9746  0.1175
    37 C(13)  Bbb     0.0000     0.000     0.000     0.000 -0.0008 -0.1199  0.9928
              Bcc     0.0000     0.000     0.000     0.000  0.9817  0.1892  0.0236
 
              Baa    -0.0000    -0.000    -0.000    -0.000  0.7440  0.5638 -0.3586
    38 C(13)  Bbb     0.0000     0.000     0.000     0.000 -0.2546  0.7354  0.6280
              Bcc     0.0000     0.000     0.000     0.000  0.6178 -0.3760  0.6906
 
              Baa    -0.0000    -0.000    -0.000    -0.000  0.8317 -0.1044 -0.5453
    39 C(13)  Bbb    -0.0000    -0.000    -0.000    -0.000 -0.2368  0.8216 -0.5185
              Bcc     0.0000     0.000     0.000     0.000  0.5022  0.5604  0.6586
 
              Baa    -0.0000    -0.000    -0.000    -0.000  0.9675  0.2463 -0.0565
    40 C(13)  Bbb    -0.0000    -0.000    -0.000    -0.000 -0.1285  0.6717  0.7296
              Bcc     0.0000     0.000     0.000     0.000 -0.2176  0.6986 -0.6816
 
              Baa    -0.0000    -0.000    -0.000    -0.000  0.9653 -0.2013  0.1664
    41 C(13)  Bbb     0.0000     0.000     0.000     0.000 -0.1171  0.2358  0.9647
              Bcc     0.0000     0.000     0.000     0.000  0.2334  0.9507 -0.2040
 
              Baa    -0.0000    -0.000    -0.000    -0.000  0.4655  0.5910  0.6588
    42 S(33)  Bbb     0.0000     0.000     0.000     0.000  0.8833 -0.3571 -0.3037
              Bcc     0.0000     0.000     0.000     0.000  0.0558  0.7233 -0.6883
 
              Baa    -0.0000    -0.000    -0.000    -0.000  0.2031  0.3465  0.9158
    43 H(1)   Bbb     0.0000     0.000     0.000     0.000  0.9484  0.1630 -0.2720
              Bcc     0.0000     0.000     0.000     0.000 -0.2435  0.9238 -0.2955
 
              Baa    -0.0000    -0.000    -0.000    -0.000 -0.5231  0.8521 -0.0172
    44 H(1)   Bbb    -0.0000    -0.000    -0.000    -0.000  0.8396  0.5117 -0.1824
              Bcc     0.0000     0.000     0.000     0.000  0.1466  0.1099  0.9831
 
              Baa    -0.0000    -0.000    -0.000    -0.000 -0.3863  0.8218 -0.4187
    45 H(1)   Bbb    -0.0000    -0.000    -0.000    -0.000 -0.6890  0.0447  0.7234
              Bcc     0.0000     0.000     0.000     0.000  0.6132  0.5680  0.5489
 
              Baa    -0.0000    -0.000    -0.000    -0.000 -0.6422  0.7481  0.1671
    46 H(1)   Bbb     0.0000     0.000     0.000     0.000  0.7665  0.6269  0.1397
              Bcc     0.0000     0.000     0.000     0.000  0.0003 -0.2178  0.9760
 
              Baa    -0.0000    -0.000    -0.000    -0.000 -0.6122  0.7598  0.2187
    47 H(1)   Bbb     0.0000     0.000     0.000     0.000  0.7885  0.6074  0.0967
              Bcc     0.0000     0.000     0.000     0.000  0.0594 -0.2317  0.9710
 
              Baa    -0.0000    -0.000    -0.000    -0.000 -0.3272  0.8531 -0.4063
    48 H(1)   Bbb    -0.0000    -0.000    -0.000    -0.000 -0.0027  0.4292  0.9032
              Bcc     0.0000     0.000     0.000     0.000  0.9449  0.2967 -0.1381
 
              Baa    -0.0000    -0.000    -0.000    -0.000  0.0985  0.8967  0.4316
    49 H(1)   Bbb     0.0000     0.000     0.000     0.000 -0.6616 -0.2649  0.7015
              Bcc     0.0000     0.000     0.000     0.000  0.7434 -0.3546  0.5671
 
              Baa    -0.0000    -0.000    -0.000    -0.000  0.5847 -0.3244  0.7436
    50 H(1)   Bbb    -0.0000    -0.000    -0.000    -0.000  0.7726  0.5023 -0.3883
              Bcc     0.0000     0.000     0.000     0.000 -0.2476  0.8015  0.5443
 
              Baa    -0.0000    -0.000    -0.000    -0.000  0.9176 -0.3580  0.1724
    51 H(1)   Bbb     0.0000     0.000     0.000     0.000 -0.3746 -0.6344  0.6761
              Bcc     0.0000     0.000     0.000     0.000  0.1327  0.6850  0.7163
 
              Baa    -0.0000    -0.000    -0.000    -0.000  0.8762  0.3239  0.3569
    52 H(1)   Bbb    -0.0000    -0.000    -0.000    -0.000 -0.1914  0.9134 -0.3591
              Bcc     0.0000     0.000     0.000     0.000 -0.4423  0.2463  0.8624
 
              Baa    -0.0000    -0.000    -0.000    -0.000  0.1391  0.9845 -0.1066
    53 H(1)   Bbb     0.0000     0.000     0.000     0.000  0.9862 -0.1475 -0.0756
              Bcc     0.0000     0.000     0.000     0.000  0.0902  0.0946  0.9914
 
              Baa    -0.0000    -0.000    -0.000    -0.000  0.9587  0.2806 -0.0455
    54 H(1)   Bbb    -0.0000    -0.000    -0.000    -0.000 -0.2678  0.9452  0.1869
              Bcc     0.0000     0.000     0.000     0.000  0.0954 -0.1670  0.9813
 
              Baa    -0.0000    -0.000    -0.000    -0.000  0.2883  0.9562 -0.0498
    55 H(1)   Bbb    -0.0000    -0.000    -0.000    -0.000 -0.0872  0.0780  0.9931
              Bcc     0.0000     0.000     0.000     0.000  0.9536 -0.2820  0.1059
 
              Baa    -0.0000    -0.000    -0.000    -0.000 -0.1525  0.7954  0.5865
    56 H(1)   Bbb     0.0000     0.000     0.000     0.000  0.8215 -0.2279  0.5227
              Bcc     0.0000     0.000     0.000     0.000 -0.5494 -0.5616  0.6187
 
              Baa    -0.0000    -0.000    -0.000    -0.000 -0.0881 -0.5132  0.8537
    57 H(1)   Bbb    -0.0000    -0.000    -0.000    -0.000  0.8067 -0.5396 -0.2411
              Bcc     0.0000     0.000     0.000     0.000  0.5844  0.6674  0.4616
 
              Baa    -0.0000    -0.000    -0.000    -0.000  0.8206  0.5533 -0.1432
    58 H(1)   Bbb     0.0000     0.000     0.000     0.000 -0.5500  0.8326  0.0649
              Bcc     0.0000     0.000     0.000     0.000  0.1551  0.0255  0.9876
 
              Baa    -0.0000    -0.000    -0.000    -0.000  0.8910 -0.4539 -0.0025
    59 H(1)   Bbb    -0.0000    -0.000    -0.000    -0.000  0.4007  0.7892 -0.4654
              Bcc     0.0000     0.000     0.000     0.000  0.2132  0.4136  0.8851
 
              Baa    -0.0000    -0.000    -0.000    -0.000  0.5330 -0.4957  0.6857
    60 H(1)   Bbb    -0.0000    -0.000    -0.000    -0.000 -0.3698  0.5924  0.7157
              Bcc     0.0000     0.000     0.000     0.000  0.7610  0.6350 -0.1324
 
              Baa    -0.0000    -0.000    -0.000    -0.000  0.9477 -0.1102  0.2995
    61 H(1)   Bbb    -0.0000    -0.000    -0.000    -0.000 -0.0698  0.8441  0.5316
              Bcc     0.0000     0.000     0.000     0.000 -0.3114 -0.5247  0.7923
 
              Baa    -0.0000    -0.000    -0.000    -0.000 -0.5561  0.8310 -0.0127
    62 H(1)   Bbb     0.0000     0.000     0.000     0.000 -0.4058 -0.2581  0.8768
              Bcc     0.0000     0.000     0.000     0.000  0.7254  0.4927  0.4807
 
              Baa    -0.0000    -0.000    -0.000    -0.000  0.9305  0.3211 -0.1764
    63 H(1)   Bbb    -0.0000    -0.000    -0.000    -0.000 -0.1294  0.7386  0.6616
              Bcc     0.0000     0.000     0.000     0.000  0.3427 -0.5928  0.7288
 
              Baa    -0.0000    -0.000    -0.000    -0.000  0.6560  0.4800 -0.5825
    64 H(1)   Bbb     0.0000     0.000     0.000     0.000 -0.2880  0.8726  0.3946
              Bcc     0.0000     0.000     0.000     0.000  0.6976 -0.0910  0.7106
 
              Baa    -0.0000    -0.000    -0.000    -0.000  0.0233  0.9013 -0.4325
    65 H(1)   Bbb    -0.0000    -0.000    -0.000    -0.000  0.1924  0.4205  0.8867
              Bcc     0.0000     0.000     0.000     0.000  0.9810 -0.1039 -0.1637
 

 ---------------------------------------------------------------------------------

 No NMR shielding tensors so no spin-rotation constants.
 Leave Link  601 at Thu Jul 23 22:58:33 2020, MaxMem=  4026531840 cpu:               7.1 elap:               1.0
 (Enter /opt/ohpc/pub/libs/gaussian/g16-A.03/sandybridge/g16/l9999.exe)

 Test job not archived.
 1\1\GINC-SKYLAKE034\FOpt\ULC-wPBE\CC-pVDZ\C33H23F3O3S3\RDU230\23-Jul-2
 020\0\\#P uLC-wPBE/cc-pVDZ iop(3/107=0299900000, 3/108=0299900000) opt
 \\H23 C33 S3 O3 F3\\0,1\C,-11.2512672569,0.6038611214,0.1241178303\C,-
 10.313233179,1.5928598087,-0.1361304881\C,-8.9857678248,1.2118741481,-
 0.2844093696\F,-8.0825545451,2.1839168157,-0.5313241268\C,-8.534420086
 1,-0.1067418931,-0.1891285556\C,-9.5221037126,-1.0889034315,0.07704982
 4\O,-9.0777602922,-2.3678170812,0.1681704052\C,-10.0078636199,-3.37683
 35862,0.5143795933\C,-10.8647906604,-0.7316590793,0.2325775774\C,-7.10
 93454056,-0.4580882059,-0.355391168\C,-6.57007415,-1.5803716851,-0.940
 8412209\C,-5.1514513707,-1.6135024692,-0.8957718499\C,-4.6045581303,-0
 .5208516122,-0.2667267185\S,-5.845942094,0.558724204,0.2659125939\C,-3
 .1792171682,-0.2174182296,-0.0456431282\C,-2.2595356166,-1.2548156037,
 0.1107251514\C,-0.9225959053,-0.9418386265,0.3027786601\F,-0.064264286
 3,-1.9731139569,0.4453659816\C,-0.4162159926,0.358854098,0.3650391271\
 C,-1.3719913531,1.3948878316,0.209927213\O,-0.8892694483,2.6619450488,
 0.2631039217\C,-1.7881712764,3.7327435427,0.0391687792\C,-2.7219595988
 ,1.1072424706,0.0039148791\C,1.0176167019,0.6349647615,0.5779382002\C,
 1.5931810031,1.6859355396,1.2559321844\C,3.0122093861,1.6605037065,1.2
 344375562\C,3.5241794536,0.5955281663,0.5321545303\S,2.2495440643,-0.3
 86825776,-0.0982220724\C,4.9391649771,0.2458621888,0.3095721698\C,5.34
 79141378,-1.0829315267,0.1964649509\C,6.6929932647,-1.355637317,-0.006
 3184747\F,7.0504955739,-2.6526060292,-0.101842779\C,7.6894583083,-0.38
 23882141,-0.1008250475\C,7.2484575699,0.9596572161,0.0183179564\O,8.21
 19348165,1.9111013438,-0.0814557456\C,7.8410208974,3.263099245,0.10658
 28871\C,5.9005202966,1.2628260933,0.2145573981\C,9.1094976311,-0.72862
 16077,-0.3122817859\C,10.0485192914,-0.0532473324,-1.0574278854\C,11.3
 388738207,-0.6526403777,-1.0157855368\C,11.3692789289,-1.7710856306,-0
 .2285466869\S,9.8315885414,-2.1142982603,0.4499680966\H,-12.3057887022
 ,0.8706257222,0.2461349392\H,-10.5781100863,2.6488319029,-0.2292945175
 \H,-10.7972329045,-3.486575884,-0.2525897261\H,-9.4304514353,-4.310759
 5855,0.5731610699\H,-10.4768185267,-3.178117414,1.4958884365\H,-11.619
 4234633,-1.4929215914,0.4388794284\H,-7.1842700784,-2.3597241301,-1.39
 25202573\H,-4.5482901644,-2.4085608998,-1.3411785087\H,-2.560508466,-2
 .3048388681,0.1120290198\H,-2.5798579832,3.7704143262,0.8103788989\H,-
 1.1835341697,4.6492818582,0.0972294487\H,-2.2553555783,3.6690203547,-0
 .9608920628\H,-3.438169949,1.9180017352,-0.143436321\H,1.0043658251,2.
 4534157749,1.758296413\H,3.6395087872,2.3911939738,1.7512863888\H,4.64
 7801476,-1.9181932554,0.2801964304\H,7.3888682835,3.4264044716,1.10256
 14164\H,8.7722144284,3.8434244521,0.0336861651\H,7.1374516209,3.607814
 9816,-0.6742645617\H,5.5724767908,2.3019776013,0.270571002\H,9.8127766
 55,0.8539266955,-1.6146126537\H,12.2098582771,-0.2663829721,-1.5509513
 438\H,12.2160506722,-2.4277940685,-0.0213619321\\Version=EM64L-G16RevA
 .03\State=1-A\HF=-2989.4521248\S2=0.\S2-1=0.\S2A=0.\RMSD=6.278e-09\RMS
 F=2.631e-06\Dipole=-2.3113409,1.1636408,0.1112873\Quadrupole=25.324535
 7,1.2823233,-26.606859,29.355678,-3.921887,0.9350412\PG=C01 [X(C33H23F
 3O3S3)]\\@


 THERE ARE PEOPLE SO ADDICTED TO EXAGERATING THEY
 CAN'T TELL THE TRUTH WITHOUT LYING. -- FORTUNE COOKIE
 Job cpu time:       0 days 20 hours  5 minutes 50.6 seconds.
 Elapsed time:       0 days  2 hours 33 minutes 24.8 seconds.
 File lengths (MBytes):  RWF=    616 Int=      0 D2E=      0 Chk=     56 Scr=      8
 Normal termination of Gaussian 16 at Thu Jul 23 22:58:33 2020.
