 Entering Gaussian System, Link 0=g16
 Input=mols_66_1_00_c-c-c-c_opt_0.gjf
 Output=mols_66_1_00_c-c-c-c_opt_0.log
 Initial command:
 /opt/ohpc/pub/libs/gaussian/g16-A.03/sandybridge/g16/l1.exe "/mnt/gpfs2_4m/scratch/rdu230/ondemand/projects/dihedral_energies/7trial/wtuning/mols_66_1_00_c-c-c-c/Gau-398098.inp" -scrdir="/mnt/gpfs2_4m/scratch/rdu230/ondemand/projects/dihedral_energies/7trial/wtuning/mols_66_1_00_c-c-c-c/"
 Entering Link 1 = /opt/ohpc/pub/libs/gaussian/g16-A.03/sandybridge/g16/l1.exe PID=    398099.
  
 Copyright (c) 1988,1990,1992,1993,1995,1998,2003,2009,2016,
            Gaussian, Inc.  All Rights Reserved.
  
 This is part of the Gaussian(R) 16 program.  It is based on
 the Gaussian(R) 09 system (copyright 2009, Gaussian, Inc.),
 the Gaussian(R) 03 system (copyright 2003, Gaussian, Inc.),
 the Gaussian(R) 98 system (copyright 1998, Gaussian, Inc.),
 the Gaussian(R) 94 system (copyright 1995, Gaussian, Inc.),
 the Gaussian 92(TM) system (copyright 1992, Gaussian, Inc.),
 the Gaussian 90(TM) system (copyright 1990, Gaussian, Inc.),
 the Gaussian 88(TM) system (copyright 1988, Gaussian, Inc.),
 the Gaussian 86(TM) system (copyright 1986, Carnegie Mellon
 University), and the Gaussian 82(TM) system (copyright 1983,
 Carnegie Mellon University). Gaussian is a federally registered
 trademark of Gaussian, Inc.
  
 This software contains proprietary and confidential information,
 including trade secrets, belonging to Gaussian, Inc.
  
 This software is provided under written license and may be
 used, copied, transmitted, or stored only in accord with that
 written license.
  
 The following legend is applicable only to US Government
 contracts under FAR:
  
                    RESTRICTED RIGHTS LEGEND
  
 Use, reproduction and disclosure by the US Government is
 subject to restrictions as set forth in subparagraphs (a)
 and (c) of the Commercial Computer Software - Restricted
 Rights clause in FAR 52.227-19.
  
 Gaussian, Inc.
 340 Quinnipiac St., Bldg. 40, Wallingford CT 06492
  
  
 ---------------------------------------------------------------
 Warning -- This program may not be used in any manner that
 competes with the business of Gaussian, Inc. or will provide
 assistance to any competitor of Gaussian, Inc.  The licensee
 of this program is prohibited from giving any competitor of
 Gaussian, Inc. access to this program.  By using this program,
 the user acknowledges that Gaussian, Inc. is engaged in the
 business of creating and licensing software in the field of
 computational chemistry and represents and warrants to the
 licensee that it is not a competitor of Gaussian, Inc. and that
 it will not use this program in any manner prohibited above.
 ---------------------------------------------------------------
  

 Cite this work as:
 Gaussian 16, Revision A.03,
 M. J. Frisch, G. W. Trucks, H. B. Schlegel, G. E. Scuseria, 
 M. A. Robb, J. R. Cheeseman, G. Scalmani, V. Barone, 
 G. A. Petersson, H. Nakatsuji, X. Li, M. Caricato, A. V. Marenich, 
 J. Bloino, B. G. Janesko, R. Gomperts, B. Mennucci, H. P. Hratchian, 
 J. V. Ortiz, A. F. Izmaylov, J. L. Sonnenberg, D. Williams-Young, 
 F. Ding, F. Lipparini, F. Egidi, J. Goings, B. Peng, A. Petrone, 
 T. Henderson, D. Ranasinghe, V. G. Zakrzewski, J. Gao, N. Rega, 
 G. Zheng, W. Liang, M. Hada, M. Ehara, K. Toyota, R. Fukuda, 
 J. Hasegawa, M. Ishida, T. Nakajima, Y. Honda, O. Kitao, H. Nakai, 
 T. Vreven, K. Throssell, J. A. Montgomery, Jr., J. E. Peralta, 
 F. Ogliaro, M. J. Bearpark, J. J. Heyd, E. N. Brothers, K. N. Kudin, 
 V. N. Staroverov, T. A. Keith, R. Kobayashi, J. Normand, 
 K. Raghavachari, A. P. Rendell, J. C. Burant, S. S. Iyengar, 
 J. Tomasi, M. Cossi, J. M. Millam, M. Klene, C. Adamo, R. Cammi, 
 J. W. Ochterski, R. L. Martin, K. Morokuma, O. Farkas, 
 J. B. Foresman, and D. J. Fox, Gaussian, Inc., Wallingford CT, 2016.
 
 ******************************************
 Gaussian 16:  EM64L-G16RevA.03 25-Dec-2016
                23-Jul-2020 
 ******************************************
 %mem=30GB
 %nproc=8
 Will use up to    8 processors via shared memory.
 ---------------------------------------------------------------
 #P uLC-wPBE/cc-pVDZ iop(3/107=0052500000, 3/108=0052500000) opt
 ---------------------------------------------------------------
 1/18=20,19=15,26=3,38=1/1,3;
 2/9=110,12=2,17=6,18=5,40=1/2;
 3/5=16,11=2,25=1,30=1,71=1,74=-41,107=52500000,108=52500000,116=2/1,2,3;
 4//1;
 5/5=2,38=5/2;
 6/7=2,8=2,9=2,10=2,28=1/1;
 7//1,2,3,16;
 1/18=20,19=15,26=3/3(2);
 2/9=110/2;
 99//99;
 2/9=110/2;
 3/5=16,11=2,25=1,30=1,71=1,74=-41,107=52500000,108=52500000,116=2/1,2,3;
 4/5=5,16=3,69=1/1;
 5/5=2,38=5/2;
 7//1,2,3,16;
 1/18=20,19=15,26=3/3(-5);
 2/9=110/2;
 6/7=2,8=2,9=2,10=2,19=2,28=1/1;
 99/9=1/99;
 Leave Link    1 at Thu Jul 23 15:37:56 2020, MaxMem=  4026531840 cpu:               2.3 elap:               0.3
 (Enter /opt/ohpc/pub/libs/gaussian/g16-A.03/sandybridge/g16/l101.exe)
 -------
 H10 C12
 -------
 Symbolic Z-matrix:
 Charge =  0 Multiplicity = 1
 C                     3.59857  -0.00472   0.02573 
 C                     2.83083  -1.11549   0.53985 
 C                     1.46974  -1.07334   0.49614 
 C                     0.68639   0.003     0.00349 
 C                     1.44028   1.08204  -0.50027 
 C                     2.84206   1.02854  -0.53285 
 C                    -0.74821   0.00312   0.04844 
 C                    -1.42245   1.10403   0.55639 
 C                    -2.831     1.07341   0.5883 
 C                    -3.54354   0.03055   0.03757 
 C                    -2.85202  -1.05819  -0.59328 
 C                    -1.42245  -1.04095  -0.5482 
 H                     4.64496  -0.04326  -0.025 
 H                     3.41549  -1.93576   0.93513 
 H                     0.98077  -1.92836   0.97263 
 H                     0.96594   1.92156  -1.02589 
 H                     3.40237   1.90499  -0.92705 
 H                    -0.96695   1.88424   0.96864 
 H                    -3.35358   1.9266    0.99168 
 H                    -4.60899  -0.03053  -0.0208 
 H                    -3.35812  -1.8862   -0.98741 
 H                    -0.93148  -1.89134  -0.94468 
 
 ITRead=  0  0  0  0  0  0  0  0  0  0  0  0  0  0  0  0  0  0  0  0
 ITRead=  0  0
 MicOpt= -1 -1 -1 -1 -1 -1 -1 -1 -1 -1 -1 -1 -1 -1 -1 -1 -1 -1 -1 -1
 MicOpt= -1 -1
 NAtoms=     22 NQM=       22 NQMF=       0 NMMI=      0 NMMIF=      0
                NMic=       0 NMicF=      0.
                    Isotopes and Nuclear Properties:
 (Nuclear quadrupole moments (NQMom) in fm**2, nuclear magnetic moments (NMagM)
  in nuclear magnetons)

  Atom         1           2           3           4           5           6           7           8           9          10
 IAtWgt=          12          12          12          12          12          12          12          12          12          12
 AtmWgt=  12.0000000  12.0000000  12.0000000  12.0000000  12.0000000  12.0000000  12.0000000  12.0000000  12.0000000  12.0000000
 NucSpn=           0           0           0           0           0           0           0           0           0           0
 AtZEff=  -0.0000000  -0.0000000  -0.0000000  -0.0000000  -0.0000000  -0.0000000  -0.0000000  -0.0000000  -0.0000000  -0.0000000
 NQMom=    0.0000000   0.0000000   0.0000000   0.0000000   0.0000000   0.0000000   0.0000000   0.0000000   0.0000000   0.0000000
 NMagM=    0.0000000   0.0000000   0.0000000   0.0000000   0.0000000   0.0000000   0.0000000   0.0000000   0.0000000   0.0000000
 AtZNuc=   6.0000000   6.0000000   6.0000000   6.0000000   6.0000000   6.0000000   6.0000000   6.0000000   6.0000000   6.0000000

  Atom        11          12          13          14          15          16          17          18          19          20
 IAtWgt=          12          12           1           1           1           1           1           1           1           1
 AtmWgt=  12.0000000  12.0000000   1.0078250   1.0078250   1.0078250   1.0078250   1.0078250   1.0078250   1.0078250   1.0078250
 NucSpn=           0           0           1           1           1           1           1           1           1           1
 AtZEff=  -0.0000000  -0.0000000  -0.0000000  -0.0000000  -0.0000000  -0.0000000  -0.0000000  -0.0000000  -0.0000000  -0.0000000
 NQMom=    0.0000000   0.0000000   0.0000000   0.0000000   0.0000000   0.0000000   0.0000000   0.0000000   0.0000000   0.0000000
 NMagM=    0.0000000   0.0000000   2.7928460   2.7928460   2.7928460   2.7928460   2.7928460   2.7928460   2.7928460   2.7928460
 AtZNuc=   6.0000000   6.0000000   1.0000000   1.0000000   1.0000000   1.0000000   1.0000000   1.0000000   1.0000000   1.0000000

  Atom        21          22
 IAtWgt=           1           1
 AtmWgt=   1.0078250   1.0078250
 NucSpn=           1           1
 AtZEff=  -0.0000000  -0.0000000
 NQMom=    0.0000000   0.0000000
 NMagM=    2.7928460   2.7928460
 AtZNuc=   1.0000000   1.0000000
 Leave Link  101 at Thu Jul 23 15:37:56 2020, MaxMem=  4026531840 cpu:               3.1 elap:               0.4
 (Enter /opt/ohpc/pub/libs/gaussian/g16-A.03/sandybridge/g16/l103.exe)

 GradGradGradGradGradGradGradGradGradGradGradGradGradGradGradGradGradGrad
 Berny optimization.
 Initialization pass.
                           ----------------------------
                           !    Initial Parameters    !
                           ! (Angstroms and Degrees)  !
 --------------------------                            --------------------------
 ! Name  Definition              Value          Derivative Info.                !
 --------------------------------------------------------------------------------
 ! R1    R(1,2)                  1.4448         estimate D2E/DX2                !
 ! R2    R(1,6)                  1.3971         estimate D2E/DX2                !
 ! R3    R(1,13)                 1.0483         estimate D2E/DX2                !
 ! R4    R(2,3)                  1.3624         estimate D2E/DX2                !
 ! R5    R(2,14)                 1.0821         estimate D2E/DX2                !
 ! R6    R(3,4)                  1.4195         estimate D2E/DX2                !
 ! R7    R(3,15)                 1.0942         estimate D2E/DX2                !
 ! R8    R(4,5)                  1.4094         estimate D2E/DX2                !
 ! R9    R(4,7)                  1.4353         estimate D2E/DX2                !
 ! R10   R(5,6)                  1.4032         estimate D2E/DX2                !
 ! R11   R(5,16)                 1.0982         estimate D2E/DX2                !
 ! R12   R(6,17)                 1.1124         estimate D2E/DX2                !
 ! R13   R(7,8)                  1.3873         estimate D2E/DX2                !
 ! R14   R(7,12)                 1.3786         estimate D2E/DX2                !
 ! R15   R(8,9)                  1.4092         estimate D2E/DX2                !
 ! R16   R(8,18)                 0.9931         estimate D2E/DX2                !
 ! R17   R(9,10)                 1.3779         estimate D2E/DX2                !
 ! R18   R(9,19)                 1.0788         estimate D2E/DX2                !
 ! R19   R(10,11)                1.4358         estimate D2E/DX2                !
 ! R20   R(10,20)                1.0688         estimate D2E/DX2                !
 ! R21   R(11,12)                1.4304         estimate D2E/DX2                !
 ! R22   R(11,21)                1.0474         estimate D2E/DX2                !
 ! R23   R(12,22)                1.059          estimate D2E/DX2                !
 ! A1    A(2,1,6)              115.0305         estimate D2E/DX2                !
 ! A2    A(2,1,13)             121.2887         estimate D2E/DX2                !
 ! A3    A(6,1,13)             123.2514         estimate D2E/DX2                !
 ! A4    A(1,2,3)              119.7126         estimate D2E/DX2                !
 ! A5    A(1,2,14)             115.1921         estimate D2E/DX2                !
 ! A6    A(3,2,14)             125.0948         estimate D2E/DX2                !
 ! A7    A(2,3,4)              125.867          estimate D2E/DX2                !
 ! A8    A(2,3,15)             114.0986         estimate D2E/DX2                !
 ! A9    A(4,3,15)             119.806          estimate D2E/DX2                !
 ! A10   A(3,4,5)              114.1671         estimate D2E/DX2                !
 ! A11   A(3,4,7)              122.7375         estimate D2E/DX2                !
 ! A12   A(5,4,7)              123.0765         estimate D2E/DX2                !
 ! A13   A(4,5,6)              120.895          estimate D2E/DX2                !
 ! A14   A(4,5,16)             121.6882         estimate D2E/DX2                !
 ! A15   A(6,5,16)             116.713          estimate D2E/DX2                !
 ! A16   A(1,6,5)              124.0457         estimate D2E/DX2                !
 ! A17   A(1,6,17)             116.8477         estimate D2E/DX2                !
 ! A18   A(5,6,17)             118.7746         estimate D2E/DX2                !
 ! A19   A(4,7,8)              119.8216         estimate D2E/DX2                !
 ! A20   A(4,7,12)             118.3723         estimate D2E/DX2                !
 ! A21   A(8,7,12)             121.4498         estimate D2E/DX2                !
 ! A22   A(7,8,9)              118.4776         estimate D2E/DX2                !
 ! A23   A(7,8,18)             123.5419         estimate D2E/DX2                !
 ! A24   A(9,8,18)             117.7834         estimate D2E/DX2                !
 ! A25   A(8,9,10)             121.6185         estimate D2E/DX2                !
 ! A26   A(8,9,19)             118.3898         estimate D2E/DX2                !
 ! A27   A(10,9,19)            119.8376         estimate D2E/DX2                !
 ! A28   A(9,10,11)            120.0308         estimate D2E/DX2                !
 ! A29   A(9,10,20)            125.4916         estimate D2E/DX2                !
 ! A30   A(11,10,20)           114.3801         estimate D2E/DX2                !
 ! A31   A(10,11,12)           117.2813         estimate D2E/DX2                !
 ! A32   A(10,11,21)           122.1448         estimate D2E/DX2                !
 ! A33   A(12,11,21)           120.285          estimate D2E/DX2                !
 ! A34   A(7,12,11)            120.7669         estimate D2E/DX2                !
 ! A35   A(7,12,22)            122.9189         estimate D2E/DX2                !
 ! A36   A(11,12,22)           116.2239         estimate D2E/DX2                !
 ! D1    D(6,1,2,3)             -2.2387         estimate D2E/DX2                !
 ! D2    D(6,1,2,14)           177.5275         estimate D2E/DX2                !
 ! D3    D(13,1,2,3)          -174.9532         estimate D2E/DX2                !
 ! D4    D(13,1,2,14)            4.8129         estimate D2E/DX2                !
 ! D5    D(2,1,6,5)              5.9948         estimate D2E/DX2                !
 ! D6    D(2,1,6,17)           179.2809         estimate D2E/DX2                !
 ! D7    D(13,1,6,5)           178.5492         estimate D2E/DX2                !
 ! D8    D(13,1,6,17)           -8.1647         estimate D2E/DX2                !
 ! D9    D(1,2,3,4)             -1.4452         estimate D2E/DX2                !
 ! D10   D(1,2,3,15)          -175.9045         estimate D2E/DX2                !
 ! D11   D(14,2,3,4)           178.8134         estimate D2E/DX2                !
 ! D12   D(14,2,3,15)            4.3541         estimate D2E/DX2                !
 ! D13   D(2,3,4,5)              1.5526         estimate D2E/DX2                !
 ! D14   D(2,3,4,7)           -176.9053         estimate D2E/DX2                !
 ! D15   D(15,3,4,5)           175.7228         estimate D2E/DX2                !
 ! D16   D(15,3,4,7)            -2.7352         estimate D2E/DX2                !
 ! D17   D(3,4,5,6)              2.0875         estimate D2E/DX2                !
 ! D18   D(3,4,5,16)           172.1573         estimate D2E/DX2                !
 ! D19   D(7,4,5,6)           -179.4604         estimate D2E/DX2                !
 ! D20   D(7,4,5,16)            -9.3906         estimate D2E/DX2                !
 ! D21   D(3,4,7,8)            130.4994         estimate D2E/DX2                !
 ! D22   D(3,4,7,12)           -56.2538         estimate D2E/DX2                !
 ! D23   D(5,4,7,8)            -47.8216         estimate D2E/DX2                !
 ! D24   D(5,4,7,12)           125.4252         estimate D2E/DX2                !
 ! D25   D(4,5,6,1)             -6.1409         estimate D2E/DX2                !
 ! D26   D(4,5,6,17)          -179.3062         estimate D2E/DX2                !
 ! D27   D(16,5,6,1)          -176.6859         estimate D2E/DX2                !
 ! D28   D(16,5,6,17)           10.1487         estimate D2E/DX2                !
 ! D29   D(4,7,8,9)           -179.9419         estimate D2E/DX2                !
 ! D30   D(4,7,8,18)            -5.1634         estimate D2E/DX2                !
 ! D31   D(12,7,8,9)             7.0243         estimate D2E/DX2                !
 ! D32   D(12,7,8,18)         -178.1972         estimate D2E/DX2                !
 ! D33   D(4,7,12,11)         -176.806          estimate D2E/DX2                !
 ! D34   D(4,7,12,22)            6.7822         estimate D2E/DX2                !
 ! D35   D(8,7,12,11)           -3.6744         estimate D2E/DX2                !
 ! D36   D(8,7,12,22)          179.9139         estimate D2E/DX2                !
 ! D37   D(7,8,9,10)            -5.0586         estimate D2E/DX2                !
 ! D38   D(7,8,9,19)           179.4626         estimate D2E/DX2                !
 ! D39   D(18,8,9,10)          179.8597         estimate D2E/DX2                !
 ! D40   D(18,8,9,19)            4.381          estimate D2E/DX2                !
 ! D41   D(8,9,10,11)           -0.2486         estimate D2E/DX2                !
 ! D42   D(8,9,10,20)         -176.449          estimate D2E/DX2                !
 ! D43   D(19,9,10,11)         175.1659         estimate D2E/DX2                !
 ! D44   D(19,9,10,20)          -1.0345         estimate D2E/DX2                !
 ! D45   D(9,10,11,12)           3.5942         estimate D2E/DX2                !
 ! D46   D(9,10,11,21)         177.4323         estimate D2E/DX2                !
 ! D47   D(20,10,11,12)       -179.8018         estimate D2E/DX2                !
 ! D48   D(20,10,11,21)         -5.9637         estimate D2E/DX2                !
 ! D49   D(10,11,12,7)          -1.7002         estimate D2E/DX2                !
 ! D50   D(10,11,12,22)        174.9424         estimate D2E/DX2                !
 ! D51   D(21,11,12,7)        -175.6587         estimate D2E/DX2                !
 ! D52   D(21,11,12,22)          0.9839         estimate D2E/DX2                !
 --------------------------------------------------------------------------------
 Trust Radius=3.00D-01 FncErr=1.00D-07 GrdErr=1.00D-06 EigMax=2.50D+02 EigMin=1.00D-04
 Number of steps in this run=    121 maximum allowed number of steps=    132.
 GradGradGradGradGradGradGradGradGradGradGradGradGradGradGradGradGradGrad

 Leave Link  103 at Thu Jul 23 15:37:56 2020, MaxMem=  4026531840 cpu:               0.2 elap:               0.1
 (Enter /opt/ohpc/pub/libs/gaussian/g16-A.03/sandybridge/g16/l202.exe)
                          Input orientation:                          
 ---------------------------------------------------------------------
 Center     Atomic      Atomic             Coordinates (Angstroms)
 Number     Number       Type             X           Y           Z
 ---------------------------------------------------------------------
      1          6           0        3.598571   -0.004719    0.025734
      2          6           0        2.830827   -1.115485    0.539846
      3          6           0        1.469741   -1.073343    0.496139
      4          6           0        0.686393    0.003001    0.003492
      5          6           0        1.440277    1.082042   -0.500271
      6          6           0        2.842059    1.028538   -0.532854
      7          6           0       -0.748213    0.003123    0.048441
      8          6           0       -1.422448    1.104030    0.556385
      9          6           0       -2.831002    1.073410    0.588298
     10          6           0       -3.543538    0.030545    0.037570
     11          6           0       -2.852024   -1.058191   -0.593283
     12          6           0       -1.422445   -1.040946   -0.548202
     13          1           0        4.644963   -0.043255   -0.025003
     14          1           0        3.415486   -1.935763    0.935131
     15          1           0        0.980766   -1.928362    0.972633
     16          1           0        0.965942    1.921562   -1.025887
     17          1           0        3.402369    1.904986   -0.927051
     18          1           0       -0.966950    1.884235    0.968635
     19          1           0       -3.353581    1.926598    0.991684
     20          1           0       -4.608993   -0.030533   -0.020799
     21          1           0       -3.358115   -1.886196   -0.987408
     22          1           0       -0.931481   -1.891341   -0.944682
 ---------------------------------------------------------------------
                    Distance matrix (angstroms):
                    1          2          3          4          5
     1  C    0.000000
     2  C    1.444833   0.000000
     3  C    2.427994   1.362439   0.000000
     4  C    2.912273   2.477354   1.419455   0.000000
     5  C    2.473047   2.800821   2.374739   1.409414   0.000000
     6  C    1.397122   2.397425   2.712930   2.446689   1.403181
     7  C    4.346850   3.781837   2.505700   1.435310   2.500928
     8  C    5.169289   4.797590   3.620682   2.442369   3.051590
     9  C    6.543565   6.070413   4.807643   3.722881   4.407820
    10  C    7.142206   6.496014   5.153816   4.230158   5.121848
    11  C    6.565300   5.795003   4.456986   3.742013   4.797197
    12  C    5.158854   4.390869   3.075132   2.416897   3.564345
    13  H    1.048330   2.181701   3.378566   3.958943   3.429604
    14  H    2.142301   1.082096   2.173110   3.474868   3.881878
    15  H    3.383774   2.066591   1.094167   2.180838   3.382769
    16  H    3.427419   3.892682   3.397033   2.195141   1.098207
    17  H    2.143191   3.406126   3.825044   3.443833   2.170065
    18  H    5.030029   4.858528   3.861086   2.684043   2.931883
    19  H    7.279798   6.906904   5.701723   4.582373   5.091196
    20  H    8.207737   7.539388   6.189159   5.295548   6.169391
    21  H    7.277492   6.421020   5.115646   4.572635   5.663242
    22  H    5.002242   4.118342   2.917354   2.665536   3.829327
                    6          7          8          9         10
     6  C    0.000000
     7  C    3.778814   0.000000
     8  C    4.402063   1.387298   0.000000
     9  C    5.782959   2.403117   1.409248   0.000000
    10  C    6.488237   2.795481   2.433220   1.377888   0.000000
    11  C    6.064707   2.442175   2.835599   2.437273   1.435797
    12  C    4.740147   1.378641   2.412682   2.783194   2.447500
    13  H    2.158035   5.393875   6.202238   7.583741   8.189073
    14  H    3.357213   4.677808   5.726203   6.942192   7.286975
    15  H    3.804492   2.752114   3.891542   4.867024   5.018066
    16  H    2.135507   2.787995   2.979320   4.212094   5.004228
    17  H    1.112430   4.668618   5.110868   6.468595   7.258763
    18  H    4.182731   2.105513   0.993050   2.068039   3.307847
    19  H    6.443344   3.373041   2.143683   1.078767   2.131064
    20  H    7.543342   3.861548   3.431391   2.179665   1.068799
    21  H    6.866182   3.384390   3.882210   3.394107   2.181481
    22  H    4.789040   2.146829   3.386222   3.840307   3.388408
                   11         12         13         14         15
    11  C    0.000000
    12  C    1.430394   0.000000
    13  H    7.586689   6.171107   0.000000
    14  H    6.510596   5.138730   2.452561   0.000000
    15  H    4.230788   2.979240   4.239722   2.435020   0.000000
    16  H    4.862400   3.835235   4.289227   4.972405   4.337766
    17  H    6.928871   5.665763   2.480599   4.268401   4.916047
    18  H    3.827658   3.326403   6.016320   5.813712   4.281298
    19  H    3.416525   3.860939   8.300041   7.793670   5.800659
    20  H    2.114417   3.384254   9.253966   8.302769   5.986156
    21  H    1.047404   2.157352   8.268731   7.041327   4.761242
    22  H    2.122759   1.058968   5.946256   4.736221   2.708165
                   16         17         18         19         20
    16  H    0.000000
    17  H    2.438487   0.000000
    18  H    2.777694   4.762878   0.000000
    19  H    4.767483   7.023167   2.387118   0.000000
    20  H    5.991726   8.291529   4.231996   2.536049   0.000000
    21  H    5.761768   7.751184   4.874415   4.295838   2.437727
    22  H    4.259699   5.761481   4.232849   4.918612   4.223773
                   21         22
    21  H    0.000000
    22  H    2.427016   0.000000
 Stoichiometry    C12H10
 Framework group  C1[X(C12H10)]
 Deg. of freedom    60
 Full point group                 C1      NOp   1
 Largest Abelian subgroup         C1      NOp   1
 Largest concise Abelian subgroup C1      NOp   1
                         Standard orientation:                         
 ---------------------------------------------------------------------
 Center     Atomic      Atomic             Coordinates (Angstroms)
 Number     Number       Type             X           Y           Z
 ---------------------------------------------------------------------
      1          6           0        3.592639   -0.023658   -0.019574
      2          6           0        2.833650    1.082539   -0.556050
      3          6           0        1.472295    1.052446   -0.510792
      4          6           0        0.680511   -0.007085    0.004304
      5          6           0        1.425894   -1.081664    0.529787
      6          6           0        2.828088   -1.038975    0.560548
      7          6           0       -0.754078    0.003608   -0.039903
      8          6           0       -1.437630   -1.101964   -0.524735
      9          6           0       -2.845908   -1.060481   -0.556555
     10          6           0       -3.549526   -0.000707   -0.027047
     11          6           0       -2.848711    1.095085    0.580910
     12          6           0       -1.419351    1.065217    0.535466
     13          1           0        4.639346    0.007350    0.029826
     14          1           0        3.424724    1.889697   -0.968433
     15          1           0        0.990000    1.901451   -1.004536
     16          1           0        0.945070   -1.906280    1.072813
     17          1           0        3.381484   -1.911681    0.972417
     18          1           0       -0.988802   -1.894189   -0.921070
     19          1           0       -3.375715   -1.917484   -0.942028
     20          1           0       -4.614406    0.070277    0.030594
     21          1           0       -3.347752    1.935139    0.958166
     22          1           0       -0.921186    1.919545    0.914108
 ---------------------------------------------------------------------
 Rotational constants (GHZ):           2.8722979           0.5411697           0.4870734
 Leave Link  202 at Thu Jul 23 15:37:56 2020, MaxMem=  4026531840 cpu:               0.1 elap:               0.0
 (Enter /opt/ohpc/pub/libs/gaussian/g16-A.03/sandybridge/g16/l301.exe)
 Standard basis: CC-pVDZ (5D, 7F)
 Ernie: Thresh=  0.10000D-02 Tol=  0.10000D-05 Strict=F.
 Ernie:  24 primitive shells out of 314 were deleted.
 There are   230 symmetry adapted cartesian basis functions of A   symmetry.
 There are   218 symmetry adapted basis functions of A   symmetry.
   218 basis functions,   466 primitive gaussians,   230 cartesian basis functions
    41 alpha electrons       41 beta electrons
       nuclear repulsion energy       600.1768150820 Hartrees.
 IExCor=32609 DFT=T Ex+Corr=LC-wPBE ExCW=0 ScaHFX=  1.000000
 ScaDFX=  1.000000  0.000000  1.000000  1.000000 ScalE2=  1.000000  1.000000
 IRadAn=      5 IRanWt=     -1 IRanGd=            0 ICorTp=0 IEmpDi=  4
 HFx  wShort=  0.000000 wLong=  0.052500 cFull=  0.000000 cShort=  0.000000 cLong=  1.000000
 DFx  wShort=  0.000000 wLong=  0.052500 cFull=  0.000000 cShort=  0.000000 cLong=  1.000000
 NAtoms=   22 NActive=   22 NUniq=   22 SFac= 1.00D+00 NAtFMM=   60 NAOKFM=F Big=F
 Integral buffers will be    131072 words long.
 Raffenetti 2 integral format.
 Two-electron integral symmetry is turned on.
 Leave Link  301 at Thu Jul 23 15:37:57 2020, MaxMem=  4026531840 cpu:               0.8 elap:               0.1
 (Enter /opt/ohpc/pub/libs/gaussian/g16-A.03/sandybridge/g16/l302.exe)
 NPDir=0 NMtPBC=     1 NCelOv=     1 NCel=       1 NClECP=     1 NCelD=      1
         NCelK=      1 NCelE2=     1 NClLst=     1 CellRange=     0.0.
 One-electron integrals computed using PRISM.
 One-electron integral symmetry used in STVInt
 NBasis=   218 RedAO= T EigKep=  3.46D-04  NBF=   218
 NBsUse=   218 1.00D-06 EigRej= -1.00D+00 NBFU=   218
 Precomputing XC quadrature grid using
 IXCGrd= 4 IRadAn=           5 IRanWt=          -1 IRanGd=           0 AccXCQ= 0.00D+00.
 Generated NRdTot=       0 NPtTot=           0 NUsed=           0 NTot=          32
 NSgBfM=   230   230   230   230   230 MxSgAt=    22 MxSgA2=    22.
 Leave Link  302 at Thu Jul 23 15:37:57 2020, MaxMem=  4026531840 cpu:               2.0 elap:               0.3
 (Enter /opt/ohpc/pub/libs/gaussian/g16-A.03/sandybridge/g16/l303.exe)
 DipDrv:  MaxL=1.
 Leave Link  303 at Thu Jul 23 15:37:57 2020, MaxMem=  4026531840 cpu:               0.4 elap:               0.1
 (Enter /opt/ohpc/pub/libs/gaussian/g16-A.03/sandybridge/g16/l401.exe)
 ExpMin= 1.22D-01 ExpMax= 6.67D+03 ExpMxC= 2.28D+02 IAcc=3 IRadAn=         5 AccDes= 0.00D+00
 Harris functional with IExCor=32609 and IRadAn=       5 diagonalized for initial guess.
 HarFok:  IExCor=32609 AccDes= 0.00D+00 IRadAn=         5 IDoV= 1 UseB2=F ITyADJ=14
 ICtDFT=  3500011 ScaDFX=  1.000000  1.000000  1.000000  1.000000
 FoFCou: FMM=F IPFlag=           0 FMFlag=      100000 FMFlg1=           0
         NFxFlg=           0 DoJE=T BraDBF=F KetDBF=T FulRan=T
         wScrn=  0.000000 ICntrl=       500 IOpCl=  0 I1Cent=   200000004 NGrid=           0
         NMat0=    1 NMatS0=      1 NMatT0=    0 NMatD0=    1 NMtDS0=    0 NMtDT0=    0
 Petite list used in FoFCou.
 Harris En= -462.953063615867    
 JPrj=0 DoOrth=F DoCkMO=F.
 Initial guess <Sx>= 0.0000 <Sy>= 0.0000 <Sz>= 0.0000 <S**2>=-0.0000 S=-0.0000
 Leave Link  401 at Thu Jul 23 15:37:59 2020, MaxMem=  4026531840 cpu:              10.7 elap:               1.4
 (Enter /opt/ohpc/pub/libs/gaussian/g16-A.03/sandybridge/g16/l502.exe)
 Integral symmetry usage will be decided dynamically.
 UHF open shell SCF:
 Using DIIS extrapolation, IDIIS=  1040.
 NGot=  4026531840 LenX=  4026421690 LenY=  4026368349
 Requested convergence on RMS density matrix=1.00D-08 within 128 cycles.
 Requested convergence on MAX density matrix=1.00D-06.
 Requested convergence on             energy=1.00D-06.
 No special actions if energy rises.
 Fock matrices will be formed incrementally for  20 cycles.
 Integral accuracy reduced to 1.0D-05 until final iterations.

 Cycle   1  Pass 0  IDiag  1:
 FoFJK:  IHMeth= 1 ICntrl=       0 DoSepK=T KAlg= 0 I1Cent=           0 FoldK=F
 IRaf=         1 NMat=       1 IRICut=       1 DoRegI=T DoRafI=F ISym2E= 0 IDoP0=0 IntGTp=1.
 FoFCou: FMM=F IPFlag=           0 FMFlag=      100000 FMFlg1=           0
         NFxFlg=           0 DoJE=T BraDBF=F KetDBF=F FulRan=T
         wScrn=  0.000000 ICntrl=       500 IOpCl=  0 I1Cent=           0 NGrid=           0
         NMat0=    1 NMatS0=      1 NMatT0=    0 NMatD0=    1 NMtDS0=    0 NMtDT0=    0
 Symmetry not used in FoFCou.
 E= -462.562267463790    
 DIIS: error= 3.25D-02 at cycle   1 NSaved=   1.
 NSaved= 1 IEnMin= 1 EnMin= -462.562267463790     IErMin= 1 ErrMin= 3.25D-02
 ErrMax= 3.25D-02  0.00D+00 EMaxC= 1.00D-01 BMatC= 6.39D-01 BMatP= 6.39D-01
 IDIUse=3 WtCom= 6.75D-01 WtEn= 3.25D-01
 Coeff-Com:  0.100D+01
 Coeff-En:   0.100D+01
 Coeff:      0.100D+01
 Gap=     0.203 Goal=   None    Shift=    0.000
 Gap=     0.203 Goal=   None    Shift=    0.000
 GapD=    0.203 DampG=1.000 DampE=0.500 DampFc=0.5000 IDamp=-1.
 Damping current iteration by 5.00D-01
 RMSDP=4.93D-03 MaxDP=7.97D-02              OVMax= 1.46D-01

 Cycle   2  Pass 0  IDiag  1:
 RMSU=  2.39D-03    CP:  9.72D-01
 E= -462.658110902831     Delta-E=       -0.095843439041 Rises=F Damp=T
 DIIS: error= 4.69D-03 at cycle   2 NSaved=   2.
 NSaved= 2 IEnMin= 2 EnMin= -462.658110902831     IErMin= 2 ErrMin= 4.69D-03
 ErrMax= 4.69D-03  0.00D+00 EMaxC= 1.00D-01 BMatC= 2.31D-02 BMatP= 6.39D-01
 IDIUse=3 WtCom= 9.53D-01 WtEn= 4.69D-02
 Coeff-Com:  0.467D-01 0.953D+00
 Coeff-En:   0.441D-01 0.956D+00
 Coeff:      0.466D-01 0.953D+00
 Gap=     0.209 Goal=   None    Shift=    0.000
 Gap=     0.209 Goal=   None    Shift=    0.000
 RMSDP=9.11D-04 MaxDP=1.56D-02 DE=-9.58D-02 OVMax= 8.80D-02

 Cycle   3  Pass 0  IDiag  1:
 RMSU=  8.96D-04    CP:  9.67D-01  9.51D-01
 E= -462.766524218012     Delta-E=       -0.108413315181 Rises=F Damp=F
 DIIS: error= 3.13D-03 at cycle   3 NSaved=   3.
 NSaved= 3 IEnMin= 3 EnMin= -462.766524218012     IErMin= 3 ErrMin= 3.13D-03
 ErrMax= 3.13D-03  0.00D+00 EMaxC= 1.00D-01 BMatC= 8.30D-03 BMatP= 2.31D-02
 IDIUse=3 WtCom= 9.69D-01 WtEn= 3.13D-02
 Coeff-Com: -0.916D-02 0.359D+00 0.651D+00
 Coeff-En:   0.000D+00 0.000D+00 0.100D+01
 Coeff:     -0.887D-02 0.347D+00 0.661D+00
 Gap=     0.206 Goal=   None    Shift=    0.000
 Gap=     0.206 Goal=   None    Shift=    0.000
 RMSDP=3.02D-04 MaxDP=1.13D-02 DE=-1.08D-01 OVMax= 2.16D-02

 Cycle   4  Pass 0  IDiag  1:
 RMSU=  2.14D-04    CP:  9.68D-01  9.79D-01  7.74D-01
 E= -462.768035223011     Delta-E=       -0.001511004998 Rises=F Damp=F
 DIIS: error= 1.50D-03 at cycle   4 NSaved=   4.
 NSaved= 4 IEnMin= 4 EnMin= -462.768035223011     IErMin= 4 ErrMin= 1.50D-03
 ErrMax= 1.50D-03  0.00D+00 EMaxC= 1.00D-01 BMatC= 2.27D-03 BMatP= 8.30D-03
 IDIUse=3 WtCom= 9.85D-01 WtEn= 1.50D-02
 Coeff-Com: -0.757D-02 0.160D+00 0.392D+00 0.456D+00
 Coeff-En:   0.000D+00 0.000D+00 0.196D+00 0.804D+00
 Coeff:     -0.745D-02 0.158D+00 0.389D+00 0.461D+00
 Gap=     0.206 Goal=   None    Shift=    0.000
 Gap=     0.206 Goal=   None    Shift=    0.000
 RMSDP=1.38D-04 MaxDP=6.50D-03 DE=-1.51D-03 OVMax= 1.26D-02

 Cycle   5  Pass 0  IDiag  1:
 RMSU=  7.24D-05    CP:  9.67D-01  9.80D-01  8.01D-01  4.62D-01
 E= -462.768622994395     Delta-E=       -0.000587771385 Rises=F Damp=F
 DIIS: error= 4.71D-04 at cycle   5 NSaved=   5.
 NSaved= 5 IEnMin= 5 EnMin= -462.768622994395     IErMin= 5 ErrMin= 4.71D-04
 ErrMax= 4.71D-04  0.00D+00 EMaxC= 1.00D-01 BMatC= 2.06D-04 BMatP= 2.27D-03
 IDIUse=3 WtCom= 9.95D-01 WtEn= 4.71D-03
 Coeff-Com: -0.282D-02 0.267D-01 0.994D-01 0.258D+00 0.619D+00
 Coeff-En:   0.000D+00 0.000D+00 0.000D+00 0.741D-01 0.926D+00
 Coeff:     -0.281D-02 0.266D-01 0.989D-01 0.257D+00 0.620D+00
 Gap=     0.206 Goal=   None    Shift=    0.000
 Gap=     0.206 Goal=   None    Shift=    0.000
 RMSDP=4.07D-05 MaxDP=1.55D-03 DE=-5.88D-04 OVMax= 3.54D-03

 Cycle   6  Pass 0  IDiag  1:
 RMSU=  2.27D-05    CP:  9.67D-01  9.82D-01  7.99D-01  5.64D-01  6.53D-01
 E= -462.768674943286     Delta-E=       -0.000051948890 Rises=F Damp=F
 DIIS: error= 1.21D-04 at cycle   6 NSaved=   6.
 NSaved= 6 IEnMin= 6 EnMin= -462.768674943286     IErMin= 6 ErrMin= 1.21D-04
 ErrMax= 1.21D-04  0.00D+00 EMaxC= 1.00D-01 BMatC= 2.60D-05 BMatP= 2.06D-04
 IDIUse=3 WtCom= 9.99D-01 WtEn= 1.21D-03
 Coeff-Com: -0.142D-02 0.965D-02 0.434D-01 0.139D+00 0.390D+00 0.419D+00
 Coeff-En:   0.000D+00 0.000D+00 0.000D+00 0.000D+00 0.456D-01 0.954D+00
 Coeff:     -0.141D-02 0.963D-02 0.434D-01 0.138D+00 0.390D+00 0.420D+00
 Gap=     0.206 Goal=   None    Shift=    0.000
 Gap=     0.206 Goal=   None    Shift=    0.000
 RMSDP=1.35D-05 MaxDP=4.41D-04 DE=-5.19D-05 OVMax= 8.98D-04

 Cycle   7  Pass 0  IDiag  1:
 RMSU=  5.82D-06    CP:  9.67D-01  9.82D-01  8.01D-01  5.62D-01  7.04D-01
                    CP:  5.00D-01
 E= -462.768682307469     Delta-E=       -0.000007364183 Rises=F Damp=F
 DIIS: error= 2.71D-05 at cycle   7 NSaved=   7.
 NSaved= 7 IEnMin= 7 EnMin= -462.768682307469     IErMin= 7 ErrMin= 2.71D-05
 ErrMax= 2.71D-05  0.00D+00 EMaxC= 1.00D-01 BMatC= 9.13D-07 BMatP= 2.60D-05
 IDIUse=1 WtCom= 1.00D+00 WtEn= 0.00D+00
 Coeff-Com: -0.373D-03 0.164D-02 0.109D-01 0.420D-01 0.132D+00 0.206D+00
 Coeff-Com:  0.607D+00
 Coeff:     -0.373D-03 0.164D-02 0.109D-01 0.420D-01 0.132D+00 0.206D+00
 Coeff:      0.607D+00
 Gap=     0.206 Goal=   None    Shift=    0.000
 Gap=     0.206 Goal=   None    Shift=    0.000
 RMSDP=3.29D-06 MaxDP=9.63D-05 DE=-7.36D-06 OVMax= 2.40D-04

 Initial convergence to 1.0D-05 achieved.  Increase integral accuracy.
 Cycle   8  Pass 1  IDiag  1:
 E= -462.768491681364     Delta-E=        0.000190626105 Rises=F Damp=F
 DIIS: error= 1.11D-04 at cycle   1 NSaved=   1.
 NSaved= 1 IEnMin= 1 EnMin= -462.768491681364     IErMin= 1 ErrMin= 1.11D-04
 ErrMax= 1.11D-04  0.00D+00 EMaxC= 1.00D-01 BMatC= 3.45D-06 BMatP= 3.45D-06
 IDIUse=3 WtCom= 9.99D-01 WtEn= 1.11D-03
 Coeff-Com:  0.100D+01
 Coeff-En:   0.100D+01
 Coeff:      0.100D+01
 Gap=     0.206 Goal=   None    Shift=    0.000
 Gap=     0.206 Goal=   None    Shift=    0.000
 RMSDP=3.29D-06 MaxDP=9.63D-05 DE= 1.91D-04 OVMax= 3.15D-04

 Cycle   9  Pass 1  IDiag  1:
 RMSU=  9.21D-05    CP:  1.00D+00
 E= -462.768491991503     Delta-E=       -0.000000310140 Rises=F Damp=F
 DIIS: error= 5.24D-05 at cycle   2 NSaved=   2.
 NSaved= 2 IEnMin= 2 EnMin= -462.768491991503     IErMin= 2 ErrMin= 5.24D-05
 ErrMax= 5.24D-05  0.00D+00 EMaxC= 1.00D-01 BMatC= 1.86D-06 BMatP= 3.45D-06
 IDIUse=1 WtCom= 1.00D+00 WtEn= 0.00D+00
 Coeff-Com:  0.384D+00 0.616D+00
 Coeff:      0.384D+00 0.616D+00
 Gap=     0.206 Goal=   None    Shift=    0.000
 Gap=     0.206 Goal=   None    Shift=    0.000
 RMSDP=6.85D-06 MaxDP=1.62D-04 DE=-3.10D-07 OVMax= 4.53D-04

 Cycle  10  Pass 1  IDiag  1:
 RMSU=  6.65D-06    CP:  1.00D+00  1.02D+00
 E= -462.768491949800     Delta-E=        0.000000041704 Rises=F Damp=F
 DIIS: error= 5.62D-05 at cycle   3 NSaved=   3.
 NSaved= 3 IEnMin= 2 EnMin= -462.768491991503     IErMin= 2 ErrMin= 5.24D-05
 ErrMax= 5.62D-05  0.00D+00 EMaxC= 1.00D-01 BMatC= 1.98D-06 BMatP= 1.86D-06
 IDIUse=1 WtCom= 1.00D+00 WtEn= 0.00D+00
 Coeff-Com: -0.679D-02 0.510D+00 0.497D+00
 Coeff:     -0.679D-02 0.510D+00 0.497D+00
 Gap=     0.206 Goal=   None    Shift=    0.000
 Gap=     0.206 Goal=   None    Shift=    0.000
 RMSDP=3.72D-06 MaxDP=9.57D-05 DE= 4.17D-08 OVMax= 2.48D-04

 Cycle  11  Pass 1  IDiag  1:
 RMSU=  8.81D-07    CP:  1.00D+00  1.03D+00  5.02D-01
 E= -462.768492463126     Delta-E=       -0.000000513326 Rises=F Damp=F
 DIIS: error= 4.36D-06 at cycle   4 NSaved=   4.
 NSaved= 4 IEnMin= 4 EnMin= -462.768492463126     IErMin= 4 ErrMin= 4.36D-06
 ErrMax= 4.36D-06  0.00D+00 EMaxC= 1.00D-01 BMatC= 3.86D-08 BMatP= 1.86D-06
 IDIUse=1 WtCom= 1.00D+00 WtEn= 0.00D+00
 Coeff-Com: -0.106D-01 0.315D+00 0.317D+00 0.378D+00
 Coeff:     -0.106D-01 0.315D+00 0.317D+00 0.378D+00
 Gap=     0.206 Goal=   None    Shift=    0.000
 Gap=     0.206 Goal=   None    Shift=    0.000
 RMSDP=4.75D-07 MaxDP=1.47D-05 DE=-5.13D-07 OVMax= 3.27D-05

 Cycle  12  Pass 1  IDiag  1:
 RMSU=  2.64D-07    CP:  1.00D+00  1.03D+00  5.12D-01  5.63D-01
 E= -462.768492517192     Delta-E=       -0.000000054066 Rises=F Damp=F
 DIIS: error= 5.97D-07 at cycle   5 NSaved=   5.
 NSaved= 5 IEnMin= 5 EnMin= -462.768492517192     IErMin= 5 ErrMin= 5.97D-07
 ErrMax= 5.97D-07  0.00D+00 EMaxC= 1.00D-01 BMatC= 4.55D-10 BMatP= 3.86D-08
 IDIUse=1 WtCom= 1.00D+00 WtEn= 0.00D+00
 Coeff-Com: -0.569D-02 0.164D+00 0.165D+00 0.209D+00 0.468D+00
 Coeff:     -0.569D-02 0.164D+00 0.165D+00 0.209D+00 0.468D+00
 Gap=     0.206 Goal=   None    Shift=    0.000
 Gap=     0.206 Goal=   None    Shift=    0.000
 RMSDP=7.03D-08 MaxDP=2.26D-06 DE=-5.41D-08 OVMax= 4.49D-06

 Cycle  13  Pass 1  IDiag  1:
 RMSU=  6.58D-08    CP:  1.00D+00  1.03D+00  5.12D-01  5.74D-01  9.42D-01
 E= -462.768492517296     Delta-E=       -0.000000000104 Rises=F Damp=F
 DIIS: error= 1.79D-07 at cycle   6 NSaved=   6.
 NSaved= 6 IEnMin= 6 EnMin= -462.768492517296     IErMin= 6 ErrMin= 1.79D-07
 ErrMax= 1.79D-07  0.00D+00 EMaxC= 1.00D-01 BMatC= 4.64D-11 BMatP= 4.55D-10
 IDIUse=1 WtCom= 1.00D+00 WtEn= 0.00D+00
 Coeff-Com: -0.202D-03 0.282D-02 0.290D-02 0.995D-02 0.246D+00 0.739D+00
 Coeff:     -0.202D-03 0.282D-02 0.290D-02 0.995D-02 0.246D+00 0.739D+00
 Gap=     0.206 Goal=   None    Shift=    0.000
 Gap=     0.206 Goal=   None    Shift=    0.000
 RMSDP=2.68D-08 MaxDP=6.41D-07 DE=-1.04D-10 OVMax= 1.21D-06

 Cycle  14  Pass 1  IDiag  1:
 RMSU=  8.05D-09    CP:  1.00D+00  1.03D+00  5.12D-01  5.81D-01  9.88D-01
                    CP:  8.02D-01
 E= -462.768492517303     Delta-E=       -0.000000000008 Rises=F Damp=F
 DIIS: error= 3.59D-08 at cycle   7 NSaved=   7.
 NSaved= 7 IEnMin= 7 EnMin= -462.768492517303     IErMin= 7 ErrMin= 3.59D-08
 ErrMax= 3.59D-08  0.00D+00 EMaxC= 1.00D-01 BMatC= 2.51D-12 BMatP= 4.64D-11
 IDIUse=1 WtCom= 1.00D+00 WtEn= 0.00D+00
 Coeff-Com:  0.763D-04-0.374D-02-0.374D-02-0.144D-02 0.112D+00 0.383D+00
 Coeff-Com:  0.513D+00
 Coeff:      0.763D-04-0.374D-02-0.374D-02-0.144D-02 0.112D+00 0.383D+00
 Coeff:      0.513D+00
 Gap=     0.206 Goal=   None    Shift=    0.000
 Gap=     0.206 Goal=   None    Shift=    0.000
 RMSDP=4.52D-09 MaxDP=1.17D-07 DE=-7.50D-12 OVMax= 2.31D-07

 SCF Done:  E(ULC-wPBE) =  -462.768492517     A.U. after   14 cycles
            NFock= 14  Conv=0.45D-08     -V/T= 2.0057
 <Sx>= 0.0000 <Sy>= 0.0000 <Sz>= 0.0000 <S**2>=-0.0000 S=-0.0000
 <L.S>= 0.000000000000E+00
 KE= 4.601356919943D+02 PE=-2.273722112554D+03 EE= 7.506411129606D+02
 Annihilation of the first spin contaminant:
 S**2 before annihilation    -0.0000,   after     0.0000
 Leave Link  502 at Thu Jul 23 15:38:51 2020, MaxMem=  4026531840 cpu:             412.7 elap:              51.8
 (Enter /opt/ohpc/pub/libs/gaussian/g16-A.03/sandybridge/g16/l601.exe)
 Copying SCF densities to generalized density rwf, IOpCl= 1 IROHF=0.

 **********************************************************************

            Population analysis using the SCF density.

 **********************************************************************

 Orbital symmetries:
 Alpha Orbitals:
       Occupied  (A) (A) (A) (A) (A) (A) (A) (A) (A) (A) (A) (A)
                 (A) (A) (A) (A) (A) (A) (A) (A) (A) (A) (A) (A)
                 (A) (A) (A) (A) (A) (A) (A) (A) (A) (A) (A) (A)
                 (A) (A) (A) (A) (A)
       Virtual   (A) (A) (A) (A) (A) (A) (A) (A) (A) (A) (A) (A)
                 (A) (A) (A) (A) (A) (A) (A) (A) (A) (A) (A) (A)
                 (A) (A) (A) (A) (A) (A) (A) (A) (A) (A) (A) (A)
                 (A) (A) (A) (A) (A) (A) (A) (A) (A) (A) (A) (A)
                 (A) (A) (A) (A) (A) (A) (A) (A) (A) (A) (A) (A)
                 (A) (A) (A) (A) (A) (A) (A) (A) (A) (A) (A) (A)
                 (A) (A) (A) (A) (A) (A) (A) (A) (A) (A) (A) (A)
                 (A) (A) (A) (A) (A) (A) (A) (A) (A) (A) (A) (A)
                 (A) (A) (A) (A) (A) (A) (A) (A) (A) (A) (A) (A)
                 (A) (A) (A) (A) (A) (A) (A) (A) (A) (A) (A) (A)
                 (A) (A) (A) (A) (A) (A) (A) (A) (A) (A) (A) (A)
                 (A) (A) (A) (A) (A) (A) (A) (A) (A) (A) (A) (A)
                 (A) (A) (A) (A) (A) (A) (A) (A) (A) (A) (A) (A)
                 (A) (A) (A) (A) (A) (A) (A) (A) (A) (A) (A) (A)
                 (A) (A) (A) (A) (A) (A) (A) (A) (A)
 Beta  Orbitals:
       Occupied  (A) (A) (A) (A) (A) (A) (A) (A) (A) (A) (A) (A)
                 (A) (A) (A) (A) (A) (A) (A) (A) (A) (A) (A) (A)
                 (A) (A) (A) (A) (A) (A) (A) (A) (A) (A) (A) (A)
                 (A) (A) (A) (A) (A)
       Virtual   (A) (A) (A) (A) (A) (A) (A) (A) (A) (A) (A) (A)
                 (A) (A) (A) (A) (A) (A) (A) (A) (A) (A) (A) (A)
                 (A) (A) (A) (A) (A) (A) (A) (A) (A) (A) (A) (A)
                 (A) (A) (A) (A) (A) (A) (A) (A) (A) (A) (A) (A)
                 (A) (A) (A) (A) (A) (A) (A) (A) (A) (A) (A) (A)
                 (A) (A) (A) (A) (A) (A) (A) (A) (A) (A) (A) (A)
                 (A) (A) (A) (A) (A) (A) (A) (A) (A) (A) (A) (A)
                 (A) (A) (A) (A) (A) (A) (A) (A) (A) (A) (A) (A)
                 (A) (A) (A) (A) (A) (A) (A) (A) (A) (A) (A) (A)
                 (A) (A) (A) (A) (A) (A) (A) (A) (A) (A) (A) (A)
                 (A) (A) (A) (A) (A) (A) (A) (A) (A) (A) (A) (A)
                 (A) (A) (A) (A) (A) (A) (A) (A) (A) (A) (A) (A)
                 (A) (A) (A) (A) (A) (A) (A) (A) (A) (A) (A) (A)
                 (A) (A) (A) (A) (A) (A) (A) (A) (A) (A) (A) (A)
                 (A) (A) (A) (A) (A) (A) (A) (A) (A)
 The electronic state is 1-A.
 Alpha  occ. eigenvalues --   -9.93882  -9.93447  -9.93254  -9.93099  -9.93059
 Alpha  occ. eigenvalues --   -9.93049  -9.92997  -9.92933  -9.92811  -9.92801
 Alpha  occ. eigenvalues --   -9.92693  -9.92227  -0.82299  -0.79592  -0.73682
 Alpha  occ. eigenvalues --   -0.70798  -0.70013  -0.68095  -0.59824  -0.58612
 Alpha  occ. eigenvalues --   -0.56158  -0.55007  -0.50808  -0.47852  -0.45432
 Alpha  occ. eigenvalues --   -0.44305  -0.42640  -0.41968  -0.40362  -0.40137
 Alpha  occ. eigenvalues --   -0.38980  -0.36229  -0.35539  -0.34861  -0.34016
 Alpha  occ. eigenvalues --   -0.31877  -0.31169  -0.27189  -0.25607  -0.25361
 Alpha  occ. eigenvalues --   -0.23511
 Alpha virt. eigenvalues --   -0.02931  -0.01536  -0.00219   0.01275   0.07392
 Alpha virt. eigenvalues --    0.07974   0.10083   0.11193   0.11889   0.12888
 Alpha virt. eigenvalues --    0.13175   0.14072   0.14587   0.15597   0.16837
 Alpha virt. eigenvalues --    0.17013   0.23530   0.25056   0.26419   0.27715
 Alpha virt. eigenvalues --    0.27980   0.29341   0.30523   0.32890   0.34249
 Alpha virt. eigenvalues --    0.38229   0.39741   0.42122   0.43077   0.44868
 Alpha virt. eigenvalues --    0.45930   0.47026   0.47697   0.47907   0.48935
 Alpha virt. eigenvalues --    0.49265   0.49840   0.49939   0.50378   0.50690
 Alpha virt. eigenvalues --    0.51993   0.52406   0.52897   0.53010   0.54111
 Alpha virt. eigenvalues --    0.56406   0.57389   0.58430   0.59551   0.60857
 Alpha virt. eigenvalues --    0.60927   0.62520   0.62963   0.63682   0.64335
 Alpha virt. eigenvalues --    0.65449   0.65609   0.67445   0.68304   0.69035
 Alpha virt. eigenvalues --    0.70914   0.71838   0.73084   0.76600   0.78953
 Alpha virt. eigenvalues --    0.82109   0.84347   0.85816   0.86664   0.87990
 Alpha virt. eigenvalues --    0.88978   0.91281   0.91747   0.93358   0.93587
 Alpha virt. eigenvalues --    0.95486   0.96791   0.98192   0.98527   0.99464
 Alpha virt. eigenvalues --    1.00818   1.01924   1.02720   1.02998   1.03586
 Alpha virt. eigenvalues --    1.04609   1.06063   1.07781   1.08489   1.11784
 Alpha virt. eigenvalues --    1.12591   1.18204   1.22481   1.24727   1.29286
 Alpha virt. eigenvalues --    1.31928   1.32796   1.34051   1.41224   1.42333
 Alpha virt. eigenvalues --    1.44804   1.45909   1.46094   1.47135   1.47633
 Alpha virt. eigenvalues --    1.49866   1.50325   1.55016   1.56175   1.57360
 Alpha virt. eigenvalues --    1.57693   1.58419   1.58662   1.59910   1.60669
 Alpha virt. eigenvalues --    1.61686   1.62404   1.63840   1.64912   1.65627
 Alpha virt. eigenvalues --    1.65863   1.67143   1.68570   1.70265   1.71920
 Alpha virt. eigenvalues --    1.72740   1.73552   1.74614   1.76413   1.78243
 Alpha virt. eigenvalues --    1.78847   1.81329   1.82627   1.83001   1.84209
 Alpha virt. eigenvalues --    1.84799   1.85219   1.86093   1.86970   1.88627
 Alpha virt. eigenvalues --    1.88880   1.94577   1.94781   1.96390   1.96986
 Alpha virt. eigenvalues --    1.97966   1.99461   2.01375   2.04289   2.10875
 Alpha virt. eigenvalues --    2.14307   2.15579   2.18591   2.19560   2.23561
 Alpha virt. eigenvalues --    2.33343   2.37262   2.37739   2.39445   2.40464
 Alpha virt. eigenvalues --    2.41269   2.42301   2.44816   2.53689   2.59571
 Alpha virt. eigenvalues --    2.62060   2.63028   2.65235   2.66409   2.69962
 Alpha virt. eigenvalues --    2.77309   2.82345   2.85651   2.87428   2.97938
 Alpha virt. eigenvalues --    3.43168   3.58821
  Beta  occ. eigenvalues --   -9.93882  -9.93447  -9.93254  -9.93099  -9.93059
  Beta  occ. eigenvalues --   -9.93049  -9.92997  -9.92933  -9.92811  -9.92801
  Beta  occ. eigenvalues --   -9.92693  -9.92227  -0.82299  -0.79592  -0.73682
  Beta  occ. eigenvalues --   -0.70798  -0.70013  -0.68095  -0.59824  -0.58612
  Beta  occ. eigenvalues --   -0.56158  -0.55007  -0.50808  -0.47852  -0.45432
  Beta  occ. eigenvalues --   -0.44305  -0.42640  -0.41968  -0.40362  -0.40137
  Beta  occ. eigenvalues --   -0.38980  -0.36229  -0.35539  -0.34861  -0.34016
  Beta  occ. eigenvalues --   -0.31877  -0.31169  -0.27189  -0.25607  -0.25361
  Beta  occ. eigenvalues --   -0.23511
  Beta virt. eigenvalues --   -0.02931  -0.01536  -0.00219   0.01275   0.07392
  Beta virt. eigenvalues --    0.07974   0.10083   0.11193   0.11889   0.12888
  Beta virt. eigenvalues --    0.13175   0.14072   0.14587   0.15597   0.16837
  Beta virt. eigenvalues --    0.17013   0.23530   0.25056   0.26419   0.27715
  Beta virt. eigenvalues --    0.27980   0.29341   0.30523   0.32890   0.34249
  Beta virt. eigenvalues --    0.38229   0.39741   0.42122   0.43077   0.44868
  Beta virt. eigenvalues --    0.45930   0.47026   0.47697   0.47907   0.48935
  Beta virt. eigenvalues --    0.49265   0.49840   0.49939   0.50378   0.50690
  Beta virt. eigenvalues --    0.51993   0.52406   0.52897   0.53010   0.54111
  Beta virt. eigenvalues --    0.56406   0.57389   0.58430   0.59551   0.60857
  Beta virt. eigenvalues --    0.60927   0.62520   0.62963   0.63682   0.64335
  Beta virt. eigenvalues --    0.65449   0.65609   0.67445   0.68304   0.69035
  Beta virt. eigenvalues --    0.70914   0.71838   0.73084   0.76600   0.78953
  Beta virt. eigenvalues --    0.82109   0.84347   0.85816   0.86664   0.87990
  Beta virt. eigenvalues --    0.88978   0.91281   0.91747   0.93358   0.93587
  Beta virt. eigenvalues --    0.95486   0.96791   0.98192   0.98527   0.99464
  Beta virt. eigenvalues --    1.00818   1.01924   1.02720   1.02998   1.03586
  Beta virt. eigenvalues --    1.04609   1.06063   1.07781   1.08489   1.11784
  Beta virt. eigenvalues --    1.12591   1.18204   1.22481   1.24727   1.29286
  Beta virt. eigenvalues --    1.31928   1.32796   1.34051   1.41224   1.42333
  Beta virt. eigenvalues --    1.44804   1.45909   1.46094   1.47135   1.47633
  Beta virt. eigenvalues --    1.49866   1.50325   1.55016   1.56175   1.57360
  Beta virt. eigenvalues --    1.57693   1.58419   1.58662   1.59910   1.60669
  Beta virt. eigenvalues --    1.61686   1.62404   1.63840   1.64912   1.65627
  Beta virt. eigenvalues --    1.65863   1.67143   1.68570   1.70265   1.71920
  Beta virt. eigenvalues --    1.72740   1.73552   1.74614   1.76413   1.78243
  Beta virt. eigenvalues --    1.78847   1.81329   1.82627   1.83001   1.84209
  Beta virt. eigenvalues --    1.84799   1.85219   1.86093   1.86970   1.88627
  Beta virt. eigenvalues --    1.88880   1.94577   1.94781   1.96390   1.96986
  Beta virt. eigenvalues --    1.97966   1.99461   2.01375   2.04289   2.10875
  Beta virt. eigenvalues --    2.14307   2.15579   2.18591   2.19560   2.23561
  Beta virt. eigenvalues --    2.33343   2.37262   2.37739   2.39445   2.40464
  Beta virt. eigenvalues --    2.41269   2.42301   2.44816   2.53689   2.59571
  Beta virt. eigenvalues --    2.62060   2.63028   2.65235   2.66409   2.69962
  Beta virt. eigenvalues --    2.77309   2.82345   2.85651   2.87428   2.97938
  Beta virt. eigenvalues --    3.43168   3.58821
          Condensed to atoms (all electrons):
               1          2          3          4          5          6
     1  C    4.779184   0.459229   0.005288  -0.076181   0.003612   0.487769
     2  C    0.459229   4.781346   0.481146   0.026965  -0.080683   0.010676
     3  C    0.005288   0.481146   4.857750   0.426350   0.002324  -0.083839
     4  C   -0.076181   0.026965   0.426350   5.104226   0.448289   0.022807
     5  C    0.003612  -0.080683   0.002324   0.448289   4.903820   0.466048
     6  C    0.487769   0.010676  -0.083839   0.022807   0.466048   4.782535
     7  C   -0.000187   0.009520  -0.091126   0.326861  -0.104155   0.010908
     8  C   -0.000010  -0.000362   0.004479  -0.088180  -0.011015   0.000294
     9  C    0.000000   0.000006  -0.000336   0.009916   0.000505  -0.000007
    10  C   -0.000000  -0.000000   0.000008   0.000961  -0.000010  -0.000000
    11  C   -0.000001   0.000007   0.000163   0.008140  -0.000286   0.000007
    12  C    0.000001   0.000245  -0.011450  -0.092997   0.002034  -0.000226
    13  H    0.387023  -0.049666   0.011422   0.000085   0.010379  -0.048421
    14  H   -0.054872   0.382595  -0.046376   0.010796   0.000251   0.010753
    15  H    0.012752  -0.052448   0.387166  -0.062107   0.014754  -0.001104
    16  H    0.011211  -0.000750   0.012833  -0.056719   0.385827  -0.044722
    17  H   -0.055097   0.010161   0.000574   0.009959  -0.041859   0.374003
    18  H   -0.000029  -0.000087   0.000950  -0.023957   0.004093   0.000046
    19  H    0.000000  -0.000000   0.000003  -0.000604  -0.000002  -0.000000
    20  H   -0.000000   0.000000   0.000000   0.000006   0.000000   0.000000
    21  H    0.000000  -0.000000  -0.000010  -0.000468   0.000002  -0.000000
    22  H   -0.000032  -0.000172   0.004761  -0.022544   0.000371  -0.000050
               7          8          9         10         11         12
     1  C   -0.000187  -0.000010   0.000000  -0.000000  -0.000001   0.000001
     2  C    0.009520  -0.000362   0.000006  -0.000000   0.000007   0.000245
     3  C   -0.091126   0.004479  -0.000336   0.000008   0.000163  -0.011450
     4  C    0.326861  -0.088180   0.009916   0.000961   0.008140  -0.092997
     5  C   -0.104155  -0.011015   0.000505  -0.000010  -0.000286   0.002034
     6  C    0.010908   0.000294  -0.000007  -0.000000   0.000007  -0.000226
     7  C    5.095293   0.440041   0.040530  -0.082633   0.021820   0.440984
     8  C    0.440041   4.789504   0.461717   0.008765  -0.076028  -0.005439
     9  C    0.040530   0.461717   4.790858   0.454739   0.014715  -0.082913
    10  C   -0.082633   0.008765   0.454739   4.795117   0.473121   0.001169
    11  C    0.021820  -0.076028   0.014715   0.473121   4.770327   0.474499
    12  C    0.440984  -0.005439  -0.082913   0.001169   0.474499   4.845149
    13  H    0.000026   0.000000   0.000000  -0.000000   0.000000   0.000001
    14  H   -0.000304   0.000002  -0.000000   0.000000  -0.000000  -0.000002
    15  H   -0.020781   0.000858  -0.000075  -0.000017  -0.000234   0.002242
    16  H   -0.018111   0.003552  -0.000027  -0.000041  -0.000074   0.000619
    17  H   -0.000434   0.000001  -0.000001   0.000000  -0.000000   0.000001
    18  H   -0.058439   0.390993  -0.054625   0.014294  -0.001095   0.016780
    19  H    0.011138  -0.042828   0.385435  -0.062097   0.009869   0.000567
    20  H   -0.000408   0.010651  -0.061545   0.392311  -0.049703   0.011288
    21  H    0.010872   0.000306   0.011029  -0.051540   0.382809  -0.042955
    22  H   -0.052989   0.014498  -0.000953   0.011613  -0.051766   0.389319
              13         14         15         16         17         18
     1  C    0.387023  -0.054872   0.012752   0.011211  -0.055097  -0.000029
     2  C   -0.049666   0.382595  -0.052448  -0.000750   0.010161  -0.000087
     3  C    0.011422  -0.046376   0.387166   0.012833   0.000574   0.000950
     4  C    0.000085   0.010796  -0.062107  -0.056719   0.009959  -0.023957
     5  C    0.010379   0.000251   0.014754   0.385827  -0.041859   0.004093
     6  C   -0.048421   0.010753  -0.001104  -0.044722   0.374003   0.000046
     7  C    0.000026  -0.000304  -0.020781  -0.018111  -0.000434  -0.058439
     8  C    0.000000   0.000002   0.000858   0.003552   0.000001   0.390993
     9  C    0.000000  -0.000000  -0.000075  -0.000027  -0.000001  -0.054625
    10  C   -0.000000   0.000000  -0.000017  -0.000041   0.000000   0.014294
    11  C    0.000000  -0.000000  -0.000234  -0.000074  -0.000000  -0.001095
    12  C    0.000001  -0.000002   0.002242   0.000619   0.000001   0.016780
    13  H    0.761749  -0.014863  -0.000390  -0.000257  -0.015786  -0.000001
    14  H   -0.014863   0.762213  -0.020358   0.000077  -0.000528   0.000000
    15  H   -0.000390  -0.020358   0.778420  -0.000310   0.000088   0.000022
    16  H   -0.000257   0.000077  -0.000310   0.754121  -0.017904   0.000978
    17  H   -0.015786  -0.000528   0.000088  -0.017904   0.755762   0.000025
    18  H   -0.000001   0.000000   0.000022   0.000978   0.000025   0.819899
    19  H   -0.000000   0.000000   0.000000   0.000024  -0.000000  -0.020182
    20  H   -0.000000  -0.000000  -0.000001  -0.000001  -0.000000  -0.000290
    21  H   -0.000000  -0.000000   0.000019   0.000001   0.000000   0.000079
    22  H   -0.000001   0.000017   0.001885   0.000021   0.000002  -0.000185
              19         20         21         22
     1  C    0.000000  -0.000000   0.000000  -0.000032
     2  C   -0.000000   0.000000  -0.000000  -0.000172
     3  C    0.000003   0.000000  -0.000010   0.004761
     4  C   -0.000604   0.000006  -0.000468  -0.022544
     5  C   -0.000002   0.000000   0.000002   0.000371
     6  C   -0.000000   0.000000  -0.000000  -0.000050
     7  C    0.011138  -0.000408   0.010872  -0.052989
     8  C   -0.042828   0.010651   0.000306   0.014498
     9  C    0.385435  -0.061545   0.011029  -0.000953
    10  C   -0.062097   0.392311  -0.051540   0.011613
    11  C    0.009869  -0.049703   0.382809  -0.051766
    12  C    0.000567   0.011288  -0.042955   0.389319
    13  H   -0.000000  -0.000000  -0.000000  -0.000001
    14  H    0.000000  -0.000000  -0.000000   0.000017
    15  H    0.000000  -0.000001   0.000019   0.001885
    16  H    0.000024  -0.000001   0.000001   0.000021
    17  H   -0.000000  -0.000000   0.000000   0.000002
    18  H   -0.020182  -0.000290   0.000079  -0.000185
    19  H    0.767001  -0.016326  -0.000327   0.000091
    20  H   -0.016326   0.766289  -0.016383  -0.000426
    21  H   -0.000327  -0.016383   0.763865  -0.017150
    22  H    0.000091  -0.000426  -0.017150   0.773633
          Atomic-Atomic Spin Densities.
               1          2          3          4          5          6
     1  C   -0.000000   0.000000  -0.000000   0.000000  -0.000000   0.000000
     2  C    0.000000  -0.000000   0.000000  -0.000000   0.000000  -0.000000
     3  C   -0.000000   0.000000  -0.000000   0.000000  -0.000000   0.000000
     4  C    0.000000  -0.000000   0.000000  -0.000000   0.000000  -0.000000
     5  C   -0.000000   0.000000  -0.000000   0.000000  -0.000000   0.000000
     6  C    0.000000  -0.000000   0.000000  -0.000000   0.000000   0.000000
     7  C    0.000000  -0.000000   0.000000   0.000000   0.000000  -0.000000
     8  C    0.000000   0.000000  -0.000000   0.000000  -0.000000  -0.000000
     9  C    0.000000  -0.000000   0.000000   0.000000   0.000000  -0.000000
    10  C   -0.000000   0.000000  -0.000000  -0.000000  -0.000000   0.000000
    11  C    0.000000  -0.000000   0.000000   0.000000   0.000000  -0.000000
    12  C   -0.000000   0.000000  -0.000000   0.000000  -0.000000   0.000000
    13  H   -0.000000   0.000000   0.000000   0.000000  -0.000000   0.000000
    14  H    0.000000   0.000000  -0.000000  -0.000000   0.000000   0.000000
    15  H   -0.000000   0.000000  -0.000000   0.000000  -0.000000   0.000000
    16  H   -0.000000   0.000000  -0.000000   0.000000  -0.000000   0.000000
    17  H    0.000000  -0.000000   0.000000  -0.000000  -0.000000  -0.000000
    18  H   -0.000000   0.000000  -0.000000  -0.000000  -0.000000   0.000000
    19  H    0.000000  -0.000000   0.000000   0.000000   0.000000  -0.000000
    20  H   -0.000000   0.000000   0.000000  -0.000000  -0.000000   0.000000
    21  H    0.000000  -0.000000   0.000000   0.000000   0.000000  -0.000000
    22  H    0.000000   0.000000  -0.000000  -0.000000  -0.000000   0.000000
               7          8          9         10         11         12
     1  C    0.000000   0.000000   0.000000  -0.000000   0.000000  -0.000000
     2  C   -0.000000   0.000000  -0.000000   0.000000  -0.000000   0.000000
     3  C    0.000000  -0.000000   0.000000  -0.000000   0.000000  -0.000000
     4  C    0.000000   0.000000   0.000000  -0.000000   0.000000   0.000000
     5  C    0.000000  -0.000000   0.000000  -0.000000   0.000000  -0.000000
     6  C   -0.000000  -0.000000  -0.000000   0.000000  -0.000000   0.000000
     7  C   -0.000000   0.000000  -0.000000   0.000000  -0.000000   0.000000
     8  C    0.000000  -0.000000   0.000000  -0.000000   0.000000  -0.000000
     9  C   -0.000000   0.000000  -0.000000   0.000000  -0.000000   0.000000
    10  C    0.000000  -0.000000   0.000000  -0.000000   0.000000  -0.000000
    11  C   -0.000000   0.000000  -0.000000   0.000000  -0.000000   0.000000
    12  C    0.000000  -0.000000   0.000000  -0.000000   0.000000  -0.000000
    13  H    0.000000   0.000000  -0.000000   0.000000  -0.000000   0.000000
    14  H   -0.000000  -0.000000   0.000000  -0.000000  -0.000000   0.000000
    15  H    0.000000  -0.000000   0.000000  -0.000000   0.000000  -0.000000
    16  H    0.000000  -0.000000   0.000000  -0.000000   0.000000  -0.000000
    17  H   -0.000000   0.000000   0.000000  -0.000000   0.000000  -0.000000
    18  H    0.000000  -0.000000   0.000000  -0.000000   0.000000  -0.000000
    19  H   -0.000000   0.000000  -0.000000   0.000000  -0.000000   0.000000
    20  H   -0.000000   0.000000  -0.000000  -0.000000  -0.000000   0.000000
    21  H   -0.000000   0.000000  -0.000000   0.000000  -0.000000   0.000000
    22  H    0.000000  -0.000000   0.000000  -0.000000   0.000000  -0.000000
              13         14         15         16         17         18
     1  C   -0.000000   0.000000  -0.000000  -0.000000   0.000000  -0.000000
     2  C    0.000000   0.000000   0.000000   0.000000  -0.000000   0.000000
     3  C    0.000000  -0.000000  -0.000000  -0.000000   0.000000  -0.000000
     4  C    0.000000  -0.000000   0.000000   0.000000  -0.000000  -0.000000
     5  C   -0.000000   0.000000  -0.000000  -0.000000  -0.000000  -0.000000
     6  C    0.000000   0.000000   0.000000   0.000000  -0.000000   0.000000
     7  C    0.000000  -0.000000   0.000000   0.000000  -0.000000   0.000000
     8  C    0.000000  -0.000000  -0.000000  -0.000000   0.000000  -0.000000
     9  C   -0.000000   0.000000   0.000000   0.000000   0.000000   0.000000
    10  C    0.000000  -0.000000  -0.000000  -0.000000  -0.000000  -0.000000
    11  C   -0.000000  -0.000000   0.000000   0.000000   0.000000   0.000000
    12  C    0.000000   0.000000  -0.000000  -0.000000  -0.000000  -0.000000
    13  H    0.000000  -0.000000  -0.000000  -0.000000   0.000000   0.000000
    14  H   -0.000000   0.000000   0.000000   0.000000  -0.000000   0.000000
    15  H   -0.000000   0.000000  -0.000000  -0.000000   0.000000  -0.000000
    16  H   -0.000000   0.000000  -0.000000  -0.000000   0.000000  -0.000000
    17  H    0.000000  -0.000000   0.000000   0.000000   0.000000  -0.000000
    18  H    0.000000   0.000000  -0.000000  -0.000000  -0.000000  -0.000000
    19  H   -0.000000   0.000000   0.000000   0.000000   0.000000   0.000000
    20  H    0.000000  -0.000000  -0.000000  -0.000000  -0.000000  -0.000000
    21  H   -0.000000  -0.000000   0.000000   0.000000   0.000000   0.000000
    22  H    0.000000  -0.000000  -0.000000  -0.000000  -0.000000  -0.000000
              19         20         21         22
     1  C    0.000000  -0.000000   0.000000   0.000000
     2  C   -0.000000   0.000000  -0.000000   0.000000
     3  C    0.000000   0.000000   0.000000  -0.000000
     4  C    0.000000  -0.000000   0.000000  -0.000000
     5  C    0.000000  -0.000000   0.000000  -0.000000
     6  C   -0.000000   0.000000  -0.000000   0.000000
     7  C   -0.000000  -0.000000  -0.000000   0.000000
     8  C    0.000000   0.000000   0.000000  -0.000000
     9  C   -0.000000  -0.000000  -0.000000   0.000000
    10  C    0.000000  -0.000000   0.000000  -0.000000
    11  C   -0.000000  -0.000000  -0.000000   0.000000
    12  C    0.000000   0.000000   0.000000  -0.000000
    13  H   -0.000000   0.000000  -0.000000   0.000000
    14  H    0.000000  -0.000000  -0.000000  -0.000000
    15  H    0.000000  -0.000000   0.000000  -0.000000
    16  H    0.000000  -0.000000   0.000000  -0.000000
    17  H    0.000000  -0.000000   0.000000  -0.000000
    18  H    0.000000  -0.000000   0.000000  -0.000000
    19  H   -0.000000   0.000000  -0.000000   0.000000
    20  H    0.000000   0.000000   0.000000  -0.000000
    21  H   -0.000000   0.000000  -0.000000   0.000000
    22  H    0.000000  -0.000000   0.000000  -0.000000
 Mulliken charges and spin densities:
               1          2
     1  C    0.040338  -0.000000
     2  C    0.022271   0.000000
     3  C    0.037921   0.000000
     4  C    0.028396   0.000000
     5  C   -0.004299  -0.000000
     6  C    0.012523   0.000000
     7  C    0.021575  -0.000000
     8  C    0.098200   0.000000
     9  C    0.031029   0.000000
    10  C    0.044242  -0.000000
    11  C    0.023709   0.000000
    12  C    0.051083   0.000000
    13  H   -0.041299  -0.000000
    14  H   -0.029401   0.000000
    15  H   -0.040382  -0.000000
    16  H   -0.030348  -0.000000
    17  H   -0.018969   0.000000
    18  H   -0.089268  -0.000000
    19  H   -0.031763  -0.000000
    20  H   -0.035463   0.000000
    21  H   -0.040150  -0.000000
    22  H   -0.049944  -0.000000
 Sum of Mulliken charges =  -0.00000  -0.00000
 Mulliken charges and spin densities with hydrogens summed into heavy atoms:
               1          2
     1  C   -0.000961  -0.000000
     2  C   -0.007130   0.000000
     3  C   -0.002461  -0.000000
     4  C    0.028396   0.000000
     5  C   -0.034648  -0.000000
     6  C   -0.006445   0.000000
     7  C    0.021575  -0.000000
     8  C    0.008932   0.000000
     9  C   -0.000734   0.000000
    10  C    0.008778  -0.000000
    11  C   -0.016441   0.000000
    12  C    0.001138   0.000000
 Electronic spatial extent (au):  <R**2>=           2293.7838
 Charge=             -0.0000 electrons
 Dipole moment (field-independent basis, Debye):
    X=             -0.1290    Y=              0.0784    Z=              0.0324  Tot=              0.1543
 Quadrupole moment (field-independent basis, Debye-Ang):
   XX=            -61.8158   YY=            -64.8170   ZZ=            -72.6277
   XY=              0.1084   XZ=             -0.2653   YZ=              0.1228
 Traceless Quadrupole moment (field-independent basis, Debye-Ang):
   XX=              4.6043   YY=              1.6032   ZZ=             -6.2075
   XY=              0.1084   XZ=             -0.2653   YZ=              0.1228
 Octapole moment (field-independent basis, Debye-Ang**2):
  XXX=              3.0010  YYY=              0.1326  ZZZ=             -0.2150  XYY=             -2.2079
  XXY=              3.6264  XXZ=              0.5423  XZZ=             -0.3062  YZZ=             -0.1665
  YYZ=              0.3158  XYZ=            -12.2192
 Hexadecapole moment (field-independent basis, Debye-Ang**3):
 XXXX=          -2298.5940 YYYY=           -466.6602 ZZZZ=           -193.0125 XXXY=              0.6074
 XXXZ=             -6.3853 YYYX=              0.6992 YYYZ=              1.8130 ZZZX=             -0.4733
 ZZZY=              0.3788 XXYY=           -476.4642 XXZZ=           -480.3259 YYZZ=           -104.8499
 XXYZ=              0.8708 YYXZ=             -0.9718 ZZXY=              0.3331
 N-N= 6.001768150820D+02 E-N=-2.273722116479D+03  KE= 4.601356919943D+02
                          Isotropic Fermi Contact Couplings
        Atom                 a.u.       MegaHertz       Gauss      10(-4) cm-1
     1  C(13)             -0.00000      -0.00000      -0.00000      -0.00000
     2  C(13)              0.00000       0.00000       0.00000       0.00000
     3  C(13)             -0.00000      -0.00000      -0.00000      -0.00000
     4  C(13)             -0.00000      -0.00000      -0.00000      -0.00000
     5  C(13)             -0.00000      -0.00000      -0.00000      -0.00000
     6  C(13)             -0.00000      -0.00000      -0.00000      -0.00000
     7  C(13)             -0.00000      -0.00000      -0.00000      -0.00000
     8  C(13)              0.00000       0.00000       0.00000       0.00000
     9  C(13)              0.00000       0.00000       0.00000       0.00000
    10  C(13)             -0.00000      -0.00000      -0.00000      -0.00000
    11  C(13)              0.00000       0.00000       0.00000       0.00000
    12  C(13)             -0.00000      -0.00000      -0.00000      -0.00000
    13  H(1)               0.00000       0.00000       0.00000       0.00000
    14  H(1)               0.00000       0.00000       0.00000       0.00000
    15  H(1)              -0.00000      -0.00000      -0.00000      -0.00000
    16  H(1)              -0.00000      -0.00000      -0.00000      -0.00000
    17  H(1)               0.00000       0.00000       0.00000       0.00000
    18  H(1)               0.00000       0.00000       0.00000       0.00000
    19  H(1)              -0.00000      -0.00000      -0.00000      -0.00000
    20  H(1)               0.00000       0.00000       0.00000       0.00000
    21  H(1)               0.00000       0.00000       0.00000       0.00000
    22  H(1)              -0.00000      -0.00000      -0.00000      -0.00000
 --------------------------------------------------------
       Center         ----  Spin Dipole Couplings  ----
                      3XX-RR        3YY-RR        3ZZ-RR
 --------------------------------------------------------
     1   Atom       -0.000000      0.000000      0.000000
     2   Atom        0.000000     -0.000000      0.000000
     3   Atom        0.000000      0.000000     -0.000000
     4   Atom       -0.000000      0.000000      0.000000
     5   Atom       -0.000000      0.000000     -0.000000
     6   Atom        0.000000     -0.000000     -0.000000
     7   Atom       -0.000000      0.000000      0.000000
     8   Atom        0.000000     -0.000000     -0.000000
     9   Atom        0.000000     -0.000000      0.000000
    10   Atom       -0.000000      0.000000      0.000000
    11   Atom        0.000000     -0.000000      0.000000
    12   Atom        0.000000     -0.000000     -0.000000
    13   Atom        0.000000     -0.000000     -0.000000
    14   Atom        0.000000      0.000000     -0.000000
    15   Atom        0.000000     -0.000000      0.000000
    16   Atom       -0.000000      0.000000      0.000000
    17   Atom        0.000000     -0.000000     -0.000000
    18   Atom       -0.000000      0.000000      0.000000
    19   Atom       -0.000000     -0.000000      0.000000
    20   Atom        0.000000     -0.000000     -0.000000
    21   Atom        0.000000     -0.000000      0.000000
    22   Atom       -0.000000      0.000000      0.000000
 --------------------------------------------------------
                        XY            XZ            YZ
 --------------------------------------------------------
     1   Atom       -0.000000     -0.000000     -0.000000
     2   Atom       -0.000000     -0.000000     -0.000000
     3   Atom        0.000000      0.000000      0.000000
     4   Atom        0.000000     -0.000000      0.000000
     5   Atom       -0.000000      0.000000     -0.000000
     6   Atom        0.000000     -0.000000      0.000000
     7   Atom       -0.000000     -0.000000     -0.000000
     8   Atom        0.000000      0.000000     -0.000000
     9   Atom       -0.000000     -0.000000     -0.000000
    10   Atom       -0.000000     -0.000000     -0.000000
    11   Atom        0.000000      0.000000     -0.000000
    12   Atom        0.000000     -0.000000     -0.000000
    13   Atom       -0.000000      0.000000     -0.000000
    14   Atom        0.000000     -0.000000     -0.000000
    15   Atom        0.000000     -0.000000     -0.000000
    16   Atom        0.000000     -0.000000     -0.000000
    17   Atom       -0.000000      0.000000      0.000000
    18   Atom        0.000000      0.000000     -0.000000
    19   Atom       -0.000000     -0.000000     -0.000000
    20   Atom       -0.000000      0.000000      0.000000
    21   Atom        0.000000      0.000000     -0.000000
    22   Atom       -0.000000     -0.000000      0.000000
 --------------------------------------------------------


 ---------------------------------------------------------------------------------
              Anisotropic Spin Dipole Couplings in Principal Axis System
 ---------------------------------------------------------------------------------

       Atom             a.u.   MegaHertz   Gauss  10(-4) cm-1        Axes

              Baa    -0.0000    -0.000    -0.000    -0.000  0.9922  0.0687  0.1042
     1 C(13)  Bbb     0.0000     0.000     0.000     0.000 -0.1141  0.1623  0.9801
              Bcc     0.0000     0.000     0.000     0.000 -0.0504  0.9844 -0.1689
 
              Baa    -0.0000    -0.000    -0.000    -0.000  0.4121  0.8258  0.3850
     2 C(13)  Bbb     0.0000     0.000     0.000     0.000  0.0723 -0.4508  0.8897
              Bcc     0.0000     0.000     0.000     0.000  0.9082 -0.3388 -0.2455
 
              Baa    -0.0000    -0.000    -0.000    -0.000  0.3812 -0.5879  0.7135
     3 C(13)  Bbb    -0.0000    -0.000    -0.000    -0.000 -0.6040  0.4259  0.6736
              Bcc     0.0000     0.000     0.000     0.000  0.6999  0.6877  0.1928
 
              Baa    -0.0000    -0.000    -0.000    -0.000  0.9938 -0.1071  0.0312
     4 C(13)  Bbb     0.0000     0.000     0.000     0.000 -0.0785 -0.4715  0.8784
              Bcc     0.0000     0.000     0.000     0.000  0.0794  0.8753  0.4770
 
              Baa    -0.0000    -0.000    -0.000    -0.000  0.8545 -0.0172 -0.5192
     5 C(13)  Bbb    -0.0000    -0.000    -0.000    -0.000  0.4984  0.3091  0.8100
              Bcc     0.0000     0.000     0.000     0.000 -0.1466  0.9509 -0.2727
 
              Baa    -0.0000    -0.000    -0.000    -0.000 -0.3974  0.8394 -0.3708
     6 C(13)  Bbb    -0.0000    -0.000    -0.000    -0.000 -0.0611  0.3789  0.9234
              Bcc     0.0000     0.000     0.000     0.000  0.9156  0.3896 -0.0992
 
              Baa    -0.0000    -0.000    -0.000    -0.000  0.9819  0.1816  0.0538
     7 C(13)  Bbb    -0.0000    -0.000    -0.000    -0.000 -0.1880  0.8998  0.3938
              Bcc     0.0000     0.000     0.000     0.000  0.0231 -0.3968  0.9176
 
              Baa    -0.0000    -0.000    -0.000    -0.000 -0.1537  0.9259  0.3450
     8 C(13)  Bbb     0.0000     0.000     0.000     0.000  0.0230 -0.3457  0.9381
              Bcc     0.0000     0.000     0.000     0.000  0.9878  0.1522  0.0318
 
              Baa    -0.0000    -0.000    -0.000    -0.000  0.3082  0.9168  0.2540
     9 C(13)  Bbb     0.0000     0.000     0.000     0.000  0.1740 -0.3168  0.9324
              Bcc     0.0000     0.000     0.000     0.000  0.9353 -0.2432 -0.2572
 
              Baa    -0.0000    -0.000    -0.000    -0.000  0.7418  0.5125  0.4325
    10 C(13)  Bbb     0.0000     0.000     0.000     0.000 -0.3045  0.8320 -0.4637
              Bcc     0.0000     0.000     0.000     0.000 -0.5975  0.2123  0.7733
 
              Baa    -0.0000    -0.000    -0.000    -0.000 -0.2807  0.8859  0.3693
    11 C(13)  Bbb     0.0000     0.000     0.000     0.000  0.0669 -0.3658  0.9283
              Bcc     0.0000     0.000     0.000     0.000  0.9575  0.2852  0.0434
 
              Baa    -0.0000    -0.000    -0.000    -0.000 -0.2881  0.7659  0.5748
    12 C(13)  Bbb     0.0000     0.000     0.000     0.000  0.7551 -0.1875  0.6282
              Bcc     0.0000     0.000     0.000     0.000  0.5889  0.6150 -0.5243
 
              Baa    -0.0000    -0.000    -0.000    -0.000  0.1320  0.9815  0.1388
    13 H(1)   Bbb    -0.0000    -0.000    -0.000    -0.000 -0.0493 -0.1333  0.9898
              Bcc     0.0000     0.000     0.000     0.000  0.9900 -0.1375  0.0308
 
              Baa    -0.0000    -0.000    -0.000    -0.000  0.6328 -0.4300  0.6439
    14 H(1)   Bbb    -0.0000    -0.000    -0.000    -0.000 -0.3872  0.5444  0.7441
              Bcc     0.0000     0.000     0.000     0.000  0.6706  0.7202 -0.1779
 
              Baa    -0.0000    -0.000    -0.000    -0.000 -0.6377  0.7617 -0.1144
    15 H(1)   Bbb    -0.0000    -0.000    -0.000    -0.000  0.4395  0.4818  0.7581
              Bcc     0.0000     0.000     0.000     0.000 -0.6326 -0.4331  0.6421
 
              Baa    -0.0000    -0.000    -0.000    -0.000 -0.0941  0.6441  0.7591
    16 H(1)   Bbb    -0.0000    -0.000    -0.000    -0.000  0.9678 -0.1198  0.2215
              Bcc     0.0000     0.000     0.000     0.000  0.2336  0.7555 -0.6121
 
              Baa    -0.0000    -0.000    -0.000    -0.000  0.3880  0.8588 -0.3345
    17 H(1)   Bbb    -0.0000    -0.000    -0.000    -0.000  0.0359  0.3486  0.9366
              Bcc     0.0000     0.000     0.000     0.000  0.9210 -0.3754  0.1044
 
              Baa    -0.0000    -0.000    -0.000    -0.000  0.8199 -0.4485 -0.3559
    18 H(1)   Bbb     0.0000     0.000     0.000     0.000  0.0143 -0.6053  0.7958
              Bcc     0.0000     0.000     0.000     0.000  0.5723  0.6576  0.4899
 
              Baa    -0.0000    -0.000    -0.000    -0.000  0.5765  0.7225  0.3816
    19 H(1)   Bbb     0.0000     0.000     0.000     0.000  0.8170 -0.5165 -0.2565
              Bcc     0.0000     0.000     0.000     0.000 -0.0118 -0.4596  0.8880
 
              Baa    -0.0000    -0.000    -0.000    -0.000 -0.2577 -0.2203  0.9408
    20 H(1)   Bbb    -0.0000    -0.000    -0.000    -0.000  0.1443  0.9540  0.2629
              Bcc     0.0000     0.000     0.000     0.000  0.9554 -0.2035  0.2140
 
              Baa    -0.0000    -0.000    -0.000    -0.000 -0.4953  0.6994  0.5153
    21 H(1)   Bbb     0.0000     0.000     0.000     0.000  0.8659  0.3501  0.3572
              Bcc     0.0000     0.000     0.000     0.000 -0.0694 -0.6232  0.7790
 
              Baa    -0.0000    -0.000    -0.000    -0.000  0.8511  0.5169  0.0922
    22 H(1)   Bbb     0.0000     0.000     0.000     0.000  0.2177 -0.5072  0.8339
              Bcc     0.0000     0.000     0.000     0.000 -0.4778  0.6896  0.5442
 

 ---------------------------------------------------------------------------------

 No NMR shielding tensors so no spin-rotation constants.
 Leave Link  601 at Thu Jul 23 15:38:51 2020, MaxMem=  4026531840 cpu:               1.6 elap:               0.2
 (Enter /opt/ohpc/pub/libs/gaussian/g16-A.03/sandybridge/g16/l701.exe)
 ... and contract with generalized density number  0.
 Compute integral first derivatives.
 Leave Link  701 at Thu Jul 23 15:38:52 2020, MaxMem=  4026531840 cpu:               1.9 elap:               0.3
 (Enter /opt/ohpc/pub/libs/gaussian/g16-A.03/sandybridge/g16/l702.exe)
 L702 exits ... SP integral derivatives will be done elsewhere.
 Leave Link  702 at Thu Jul 23 15:38:52 2020, MaxMem=  4026531840 cpu:               0.2 elap:               0.0
 (Enter /opt/ohpc/pub/libs/gaussian/g16-A.03/sandybridge/g16/l703.exe)
 Integral derivatives from FoFJK, PRISM(SPDF).
 Compute integral first derivatives, UseDBF=F ICtDFT=           0.
 Calling FoFJK, ICntrl=      2127 FMM=F ISym2X=0 I1Cent= 0 IOpClX= 1 NMat=1 NMatS=1 NMatT=0.
 FoFJK:  IHMeth= 1 ICntrl=    2127 DoSepK=T KAlg= 0 I1Cent=           0 FoldK=F
 IRaf=         1 NMat=       1 IRICut=       1 DoRegI=T DoRafI=F ISym2E= 0 IDoP0=0 IntGTp=1.
 FoFCou: FMM=F IPFlag=           0 FMFlag=      100000 FMFlg1=         800
[...]
     6  C    0.000000  -0.000000  -0.000000  -0.000000  -0.000000   0.000000
     7  C    0.000000  -0.000000  -0.000000   0.000000  -0.000000   0.000000
     8  C   -0.000000   0.000000   0.000000  -0.000000   0.000000  -0.000000
     9  C   -0.000000   0.000000  -0.000000   0.000000  -0.000000   0.000000
    10  C    0.000000  -0.000000   0.000000  -0.000000   0.000000  -0.000000
    11  C   -0.000000   0.000000  -0.000000   0.000000  -0.000000   0.000000
    12  C    0.000000  -0.000000   0.000000  -0.000000   0.000000  -0.000000
    13  H   -0.000000  -0.000000   0.000000   0.000000   0.000000   0.000000
    14  H    0.000000   0.000000  -0.000000   0.000000  -0.000000  -0.000000
    15  H    0.000000  -0.000000   0.000000  -0.000000   0.000000  -0.000000
    16  H   -0.000000   0.000000   0.000000   0.000000   0.000000  -0.000000
    17  H    0.000000  -0.000000  -0.000000   0.000000  -0.000000   0.000000
    18  H   -0.000000   0.000000   0.000000   0.000000   0.000000  -0.000000
    19  H    0.000000  -0.000000  -0.000000  -0.000000  -0.000000   0.000000
    20  H    0.000000  -0.000000   0.000000  -0.000000   0.000000  -0.000000
    21  H   -0.000000   0.000000  -0.000000   0.000000  -0.000000   0.000000
    22  H    0.000000  -0.000000   0.000000  -0.000000   0.000000  -0.000000
              13         14         15         16         17         18
     1  C   -0.000000   0.000000  -0.000000  -0.000000   0.000000  -0.000000
     2  C    0.000000  -0.000000   0.000000   0.000000  -0.000000   0.000000
     3  C   -0.000000   0.000000  -0.000000  -0.000000   0.000000  -0.000000
     4  C    0.000000  -0.000000   0.000000   0.000000  -0.000000   0.000000
     5  C   -0.000000   0.000000  -0.000000   0.000000  -0.000000  -0.000000
     6  C    0.000000  -0.000000   0.000000  -0.000000  -0.000000   0.000000
     7  C   -0.000000   0.000000   0.000000  -0.000000   0.000000  -0.000000
     8  C   -0.000000   0.000000  -0.000000   0.000000  -0.000000   0.000000
     9  C    0.000000  -0.000000   0.000000   0.000000  -0.000000   0.000000
    10  C    0.000000   0.000000  -0.000000   0.000000   0.000000   0.000000
    11  C    0.000000  -0.000000   0.000000   0.000000  -0.000000   0.000000
    12  C    0.000000  -0.000000  -0.000000  -0.000000   0.000000  -0.000000
    13  H   -0.000000   0.000000  -0.000000  -0.000000   0.000000  -0.000000
    14  H    0.000000  -0.000000   0.000000   0.000000  -0.000000   0.000000
    15  H   -0.000000   0.000000  -0.000000  -0.000000   0.000000  -0.000000
    16  H   -0.000000   0.000000  -0.000000  -0.000000   0.000000  -0.000000
    17  H    0.000000  -0.000000   0.000000   0.000000  -0.000000   0.000000
    18  H   -0.000000   0.000000  -0.000000  -0.000000   0.000000   0.000000
    19  H   -0.000000   0.000000  -0.000000  -0.000000   0.000000  -0.000000
    20  H    0.000000  -0.000000   0.000000   0.000000   0.000000  -0.000000
    21  H   -0.000000   0.000000  -0.000000  -0.000000   0.000000   0.000000
    22  H   -0.000000   0.000000  -0.000000  -0.000000   0.000000  -0.000000
              19         20         21         22
     1  C   -0.000000   0.000000  -0.000000  -0.000000
     2  C    0.000000  -0.000000   0.000000   0.000000
     3  C   -0.000000  -0.000000  -0.000000   0.000000
     4  C   -0.000000   0.000000  -0.000000   0.000000
     5  C    0.000000   0.000000   0.000000  -0.000000
     6  C    0.000000   0.000000   0.000000   0.000000
     7  C    0.000000   0.000000  -0.000000   0.000000
     8  C   -0.000000  -0.000000   0.000000  -0.000000
     9  C   -0.000000   0.000000  -0.000000   0.000000
    10  C   -0.000000  -0.000000   0.000000  -0.000000
    11  C   -0.000000   0.000000  -0.000000   0.000000
    12  C    0.000000  -0.000000   0.000000  -0.000000
    13  H   -0.000000   0.000000  -0.000000  -0.000000
    14  H    0.000000  -0.000000   0.000000   0.000000
    15  H   -0.000000   0.000000  -0.000000  -0.000000
    16  H   -0.000000   0.000000  -0.000000  -0.000000
    17  H    0.000000   0.000000   0.000000   0.000000
    18  H   -0.000000  -0.000000   0.000000  -0.000000
    19  H    0.000000   0.000000  -0.000000   0.000000
    20  H    0.000000  -0.000000   0.000000  -0.000000
    21  H   -0.000000   0.000000  -0.000000   0.000000
    22  H    0.000000  -0.000000   0.000000  -0.000000
 Mulliken charges and spin densities:
               1          2
     1  C    0.025753   0.000000
     2  C    0.032724  -0.000000
     3  C    0.002394   0.000000
     4  C    0.027971  -0.000000
     5  C    0.002461   0.000000
     6  C    0.032709  -0.000000
     7  C    0.027965   0.000000
     8  C    0.002487  -0.000000
     9  C    0.032698   0.000000
    10  C    0.025750  -0.000000
    11  C    0.032731   0.000000
    12  C    0.002417  -0.000000
    13  H   -0.022520  -0.000000
    14  H   -0.020995  -0.000000
    15  H   -0.029758  -0.000000
    16  H   -0.029754  -0.000000
    17  H   -0.020995  -0.000000
    18  H   -0.029774   0.000000
    19  H   -0.020993   0.000000
    20  H   -0.022514  -0.000000
    21  H   -0.020999  -0.000000
    22  H   -0.029759  -0.000000
 Sum of Mulliken charges =  -0.00000  -0.00000
 Mulliken charges and spin densities with hydrogens summed into heavy atoms:
               1          2
     1  C    0.003233   0.000000
     2  C    0.011729  -0.000000
     3  C   -0.027365   0.000000
     4  C    0.027971  -0.000000
     5  C   -0.027293   0.000000
     6  C    0.011714  -0.000000
     7  C    0.027965   0.000000
     8  C   -0.027287  -0.000000
     9  C    0.011705   0.000000
    10  C    0.003236  -0.000000
    11  C    0.011732   0.000000
    12  C   -0.027343  -0.000000
 Electronic spatial extent (au):  <R**2>=           2335.3447
 Charge=              0.0000 electrons
 Dipole moment (field-independent basis, Debye):
    X=             -0.0000    Y=              0.0000    Z=              0.0000  Tot=              0.0001
 Quadrupole moment (field-independent basis, Debye-Ang):
   XX=            -61.8856   YY=            -63.6322   ZZ=            -74.3872
   XY=              0.0000   XZ=             -0.0005   YZ=              0.0002
 Traceless Quadrupole moment (field-independent basis, Debye-Ang):
   XX=              4.7494   YY=              3.0028   ZZ=             -7.7522
   XY=              0.0000   XZ=             -0.0005   YZ=              0.0002
 Octapole moment (field-independent basis, Debye-Ang**2):
  XXX=              0.0014  YYY=              0.0024  ZZZ=              0.0000  XYY=             -0.0002
  XXY=             -0.0040  XXZ=              0.0007  XZZ=             -0.0005  YZZ=              0.0007
  YYZ=             -0.0003  XYZ=             -9.7938
 Hexadecapole moment (field-independent basis, Debye-Ang**3):
 XXXX=          -2352.5678 YYYY=           -517.9502 ZZZZ=           -141.3987 XXXY=             -0.0067
 XXXZ=              0.0011 YYYX=              0.0023 YYYZ=              0.0010 ZZZX=             -0.0019
 ZZZY=              0.0006 XXYY=           -486.1837 XXZZ=           -490.5615 YYZZ=           -113.6808
 XXYZ=              0.0021 YYXZ=             -0.0052 ZZXY=              0.0003
 N-N= 5.954642549908D+02 E-N=-2.263802257030D+03  KE= 4.594845936759D+02
                          Isotropic Fermi Contact Couplings
        Atom                 a.u.       MegaHertz       Gauss      10(-4) cm-1
     1  C(13)              0.00000       0.00000       0.00000       0.00000
     2  C(13)             -0.00000      -0.00000      -0.00000      -0.00000
     3  C(13)             -0.00000      -0.00000      -0.00000      -0.00000
     4  C(13)             -0.00000      -0.00000      -0.00000      -0.00000
     5  C(13)              0.00000       0.00000       0.00000       0.00000
     6  C(13)             -0.00000      -0.00000      -0.00000      -0.00000
     7  C(13)             -0.00000      -0.00000      -0.00000      -0.00000
     8  C(13)              0.00000       0.00000       0.00000       0.00000
     9  C(13)             -0.00000      -0.00000      -0.00000      -0.00000
    10  C(13)             -0.00000      -0.00000      -0.00000      -0.00000
    11  C(13)             -0.00000      -0.00000      -0.00000      -0.00000
    12  C(13)             -0.00000      -0.00000      -0.00000      -0.00000
    13  H(1)               0.00000       0.00000       0.00000       0.00000
    14  H(1)              -0.00000      -0.00000      -0.00000      -0.00000
    15  H(1)              -0.00000      -0.00000      -0.00000      -0.00000
    16  H(1)              -0.00000      -0.00000      -0.00000      -0.00000
    17  H(1)               0.00000       0.00000       0.00000       0.00000
    18  H(1)              -0.00000      -0.00000      -0.00000      -0.00000
    19  H(1)               0.00000       0.00000       0.00000       0.00000
    20  H(1)              -0.00000      -0.00000      -0.00000      -0.00000
    21  H(1)              -0.00000      -0.00000      -0.00000      -0.00000
    22  H(1)               0.00000       0.00000       0.00000       0.00000
 --------------------------------------------------------
       Center         ----  Spin Dipole Couplings  ----
                      3XX-RR        3YY-RR        3ZZ-RR
 --------------------------------------------------------
     1   Atom       -0.000000      0.000000      0.000000
     2   Atom       -0.000000     -0.000000      0.000000
     3   Atom       -0.000000     -0.000000      0.000000
     4   Atom       -0.000000      0.000000      0.000000
     5   Atom       -0.000000      0.000000     -0.000000
     6   Atom        0.000000     -0.000000      0.000000
     7   Atom       -0.000000     -0.000000      0.000000
     8   Atom       -0.000000      0.000000     -0.000000
     9   Atom        0.000000     -0.000000     -0.000000
    10   Atom       -0.000000     -0.000000      0.000000
    11   Atom       -0.000000     -0.000000      0.000000
    12   Atom       -0.000000     -0.000000      0.000000
    13   Atom       -0.000000      0.000000      0.000000
    14   Atom       -0.000000     -0.000000      0.000000
    15   Atom        0.000000     -0.000000      0.000000
    16   Atom       -0.000000     -0.000000      0.000000
    17   Atom       -0.000000      0.000000      0.000000
    18   Atom       -0.000000      0.000000      0.000000
    19   Atom        0.000000     -0.000000      0.000000
    20   Atom       -0.000000      0.000000      0.000000
    21   Atom        0.000000     -0.000000      0.000000
    22   Atom       -0.000000      0.000000     -0.000000
 --------------------------------------------------------
                        XY            XZ            YZ
 --------------------------------------------------------
     1   Atom       -0.000000      0.000000      0.000000
     2   Atom       -0.000000      0.000000      0.000000
     3   Atom       -0.000000      0.000000      0.000000
     4   Atom       -0.000000     -0.000000      0.000000
     5   Atom        0.000000     -0.000000     -0.000000
     6   Atom        0.000000      0.000000      0.000000
     7   Atom        0.000000      0.000000      0.000000
     8   Atom        0.000000      0.000000      0.000000
     9   Atom       -0.000000     -0.000000     -0.000000
    10   Atom        0.000000      0.000000     -0.000000
    11   Atom        0.000000      0.000000     -0.000000
    12   Atom       -0.000000     -0.000000     -0.000000
    13   Atom       -0.000000      0.000000     -0.000000
    14   Atom       -0.000000      0.000000      0.000000
    15   Atom        0.000000     -0.000000      0.000000
    16   Atom       -0.000000      0.000000     -0.000000
    17   Atom        0.000000     -0.000000      0.000000
    18   Atom       -0.000000     -0.000000      0.000000
    19   Atom       -0.000000      0.000000     -0.000000
    20   Atom       -0.000000     -0.000000     -0.000000
    21   Atom        0.000000      0.000000     -0.000000
    22   Atom       -0.000000     -0.000000      0.000000
 --------------------------------------------------------


 ---------------------------------------------------------------------------------
              Anisotropic Spin Dipole Couplings in Principal Axis System
 ---------------------------------------------------------------------------------

       Atom             a.u.   MegaHertz   Gauss  10(-4) cm-1        Axes

              Baa    -0.0000    -0.000    -0.000    -0.000  0.9815  0.1673 -0.0934
     1 C(13)  Bbb    -0.0000    -0.000    -0.000    -0.000 -0.1893  0.9222 -0.3373
              Bcc     0.0000     0.000     0.000     0.000  0.0296  0.3487  0.9368
 
              Baa    -0.0000    -0.000    -0.000    -0.000  0.6304  0.7265 -0.2735
     2 C(13)  Bbb    -0.0000    -0.000    -0.000    -0.000  0.7756 -0.5744  0.2618
              Bcc     0.0000     0.000     0.000     0.000 -0.0331  0.3772  0.9255
 
              Baa    -0.0000    -0.000    -0.000    -0.000  0.7004  0.6459 -0.3037
     3 C(13)  Bbb    -0.0000    -0.000    -0.000    -0.000  0.7089 -0.6789  0.1911
              Bcc     0.0000     0.000     0.000     0.000  0.0828  0.3491  0.9334
 
              Baa    -0.0000    -0.000    -0.000    -0.000  0.9987  0.0508 -0.0054
     4 C(13)  Bbb     0.0000     0.000     0.000     0.000 -0.0446  0.8165 -0.5757
              Bcc     0.0000     0.000     0.000     0.000 -0.0248  0.5752  0.8177
 
              Baa    -0.0000    -0.000    -0.000    -0.000  0.8786 -0.3723  0.2992
     5 C(13)  Bbb    -0.0000    -0.000    -0.000    -0.000 -0.2148  0.2514  0.9437
              Bcc     0.0000     0.000     0.000     0.000  0.4265  0.8934 -0.1409
 
              Baa    -0.0000    -0.000    -0.000    -0.000 -0.2021  0.9425 -0.2661
     6 C(13)  Bbb     0.0000     0.000     0.000     0.000  0.9007  0.0722 -0.4285
              Bcc     0.0000     0.000     0.000     0.000  0.3847  0.3262  0.8635
 
              Baa    -0.0000    -0.000    -0.000    -0.000  0.7443 -0.6459 -0.1696
     7 C(13)  Bbb     0.0000     0.000     0.000     0.000 -0.2470 -0.5022  0.8287
              Bcc     0.0000     0.000     0.000     0.000  0.6205  0.5750  0.5333
 
              Baa    -0.0000    -0.000    -0.000    -0.000  0.9198 -0.3222 -0.2239
     8 C(13)  Bbb    -0.0000    -0.000    -0.000    -0.000  0.0800 -0.4045  0.9110
              Bcc     0.0000     0.000     0.000     0.000  0.3841  0.8559  0.3463
 
              Baa    -0.0000    -0.000    -0.000    -0.000  0.2274  0.8947  0.3844
     9 C(13)  Bbb    -0.0000    -0.000    -0.000    -0.000 -0.0201 -0.3904  0.9204
              Bcc     0.0000     0.000     0.000     0.000  0.9736 -0.2170 -0.0708
 
              Baa    -0.0000    -0.000    -0.000    -0.000  0.6936 -0.6738 -0.2548
    10 C(13)  Bbb    -0.0000    -0.000    -0.000    -0.000  0.7106  0.6981  0.0883
              Bcc     0.0000     0.000     0.000     0.000  0.1184 -0.2422  0.9630
 
              Baa    -0.0000    -0.000    -0.000    -0.000 -0.6074  0.7690  0.1994
    11 C(13)  Bbb    -0.0000    -0.000    -0.000    -0.000  0.7944  0.5858  0.1608
              Bcc     0.0000     0.000     0.000     0.000 -0.0069 -0.2561  0.9666
 
              Baa    -0.0000    -0.000    -0.000    -0.000  0.6516  0.7113  0.2635
    12 C(13)  Bbb     0.0000     0.000     0.000     0.000  0.7519 -0.5596 -0.3485
              Bcc     0.0000     0.000     0.000     0.000  0.1004 -0.4252  0.8995
 
              Baa    -0.0000    -0.000    -0.000    -0.000  0.9888  0.1401 -0.0519
    13 H(1)   Bbb     0.0000     0.000     0.000     0.000 -0.0205  0.4716  0.8816
              Bcc     0.0000     0.000     0.000     0.000 -0.1480  0.8706 -0.4692
 
              Baa    -0.0000    -0.000    -0.000    -0.000  0.5157  0.8068 -0.2882
    14 H(1)   Bbb     0.0000     0.000     0.000     0.000  0.8567 -0.4824  0.1824
              Bcc     0.0000     0.000     0.000     0.000 -0.0081  0.3410  0.9400
 
              Baa    -0.0000    -0.000    -0.000    -0.000 -0.5906  0.7074 -0.3882
    15 H(1)   Bbb     0.0000     0.000     0.000     0.000  0.3980  0.6739  0.6224
              Bcc     0.0000     0.000     0.000     0.000  0.7019  0.2131 -0.6796
 
              Baa    -0.0000    -0.000    -0.000    -0.000  0.8024  0.4972 -0.3299
    16 H(1)   Bbb    -0.0000    -0.000    -0.000    -0.000 -0.3211  0.8258  0.4636
              Bcc     0.0000     0.000     0.000     0.000  0.5030 -0.2661  0.8223
 
              Baa    -0.0000    -0.000    -0.000    -0.000  0.7917 -0.5619  0.2396
    17 H(1)   Bbb     0.0000     0.000     0.000     0.000 -0.4970 -0.3644  0.7876
              Bcc     0.0000     0.000     0.000     0.000  0.3552  0.7426  0.5677
 
              Baa    -0.0000    -0.000    -0.000    -0.000  0.8004  0.5991 -0.0225
    18 H(1)   Bbb    -0.0000    -0.000    -0.000    -0.000  0.2914 -0.3561  0.8878
              Bcc     0.0000     0.000     0.000     0.000 -0.5239  0.7172  0.4596
 
              Baa    -0.0000    -0.000    -0.000    -0.000  0.1047  0.9908  0.0858
    19 H(1)   Bbb     0.0000     0.000     0.000     0.000 -0.0204 -0.0841  0.9962
              Bcc     0.0000     0.000     0.000     0.000  0.9943 -0.1061  0.0114
 
              Baa    -0.0000    -0.000    -0.000    -0.000  0.9756  0.0985  0.1963
    20 H(1)   Bbb     0.0000     0.000     0.000     0.000 -0.1972  0.7861  0.5857
              Bcc     0.0000     0.000     0.000     0.000 -0.0966 -0.6101  0.7864
 
              Baa    -0.0000    -0.000    -0.000    -0.000 -0.4338  0.8351  0.3382
    21 H(1)   Bbb     0.0000     0.000     0.000     0.000  0.9005  0.4140  0.1327
              Bcc     0.0000     0.000     0.000     0.000  0.0292 -0.3622  0.9316
 
              Baa    -0.0000    -0.000    -0.000    -0.000  0.8374  0.2140  0.5030
    22 H(1)   Bbb    -0.0000    -0.000    -0.000    -0.000 -0.2411 -0.6812  0.6912
              Bcc     0.0000     0.000     0.000     0.000 -0.4906  0.7001  0.5189
 

 ---------------------------------------------------------------------------------

 No NMR shielding tensors so no spin-rotation constants.
 Leave Link  601 at Thu Jul 23 15:45:55 2020, MaxMem=  4026531840 cpu:               2.5 elap:               0.4
 (Enter /opt/ohpc/pub/libs/gaussian/g16-A.03/sandybridge/g16/l9999.exe)

 Test job not archived.
 1\1\GINC-SKYLAKE011\FOpt\ULC-wPBE\CC-pVDZ\C12H10\RDU230\23-Jul-2020\0\
 \#P uLC-wPBE/cc-pVDZ iop(3/107=0052500000, 3/108=0052500000) opt\\H10 
 C12\\0,1\C,3.5908838952,-0.0144030985,-0.0004174602\C,2.8794317597,-1.
 1637085859,0.3777983149\C,1.4779539351,-1.158683188,0.3789411247\C,0.7
 541604141,-0.0047208852,0.0020130679\C,1.4852101764,1.1443977436,-0.37
 61655233\C,2.88658387,1.1398397825,-0.3773298249\C,-0.7324946071,0.000
 4140329,0.0032980792\C,-1.4555868884,1.1479845097,0.4008390171\C,-2.85
 70057528,1.1530309057,0.4020524566\C,-3.5691691389,0.010228001,0.00570
 5514\C,-2.8656386845,-1.1374571682,-0.3918129505\C,-1.4641793022,-1.14
 20708048,-0.3929553785\H,4.6905041274,-0.0180327818,-0.0013890831\H,3.
 420449305,-2.071137076,0.6840450779\H,0.9308763978,-2.0559165125,0.704
 0130645\H,0.9435181843,2.045218983,-0.7002979693\H,3.4334668685,2.0434
 73525,-0.6843786568\H,-0.9078132625,2.0394624512,0.7400371725\H,-3.397
 6432316,2.0551138042,0.7243628736\H,-4.6688091093,0.0140906646,0.00665
 77596\H,-3.4128927052,-2.0357996132,-0.7133372775\H,-0.923202251,-2.03
 73886892,-0.7331313984\\Version=EM64L-G16RevA.03\State=1-A\HF=-462.800
 7302\S2=0.\S2-1=0.\S2A=0.\RMSD=5.870e-09\RMSF=1.993e-05\Dipole=-0.0000
 171,-0.0000032,-0.0000099\Quadrupole=3.5310237,2.2319816,-5.7630053,-0
 .0044244,-0.0072961,0.0675549\PG=C01 [X(C12H10)]\\@


 MAN IS THE MEASURE OF ALL THINGS.
  -- PROTAGORAS (5TH CENTURY B.C.)
 Job cpu time:       0 days  1 hours  3 minutes  5.9 seconds.
 Elapsed time:       0 days  0 hours  7 minutes 58.0 seconds.
 File lengths (MBytes):  RWF=    116 Int=      0 D2E=      0 Chk=     12 Scr=      8
 Normal termination of Gaussian 16 at Thu Jul 23 15:45:55 2020.
