 Entering Gaussian System, Link 0=g16
 Input=mols_65_5_38_cOC-cOC-CF_opt_0.gjf
 Output=mols_65_5_38_cOC-cOC-CF_opt_0.log
 Initial command:
 /opt/ohpc/pub/libs/gaussian/g16-A.03/sandybridge/g16/l1.exe "/mnt/gpfs2_4m/scratch/rdu230/ondemand/projects/dihedral_energies/7trial/wtuning/mols_65_5_38_cOC-cOC-CF/Gau-394257.inp" -scrdir="/mnt/gpfs2_4m/scratch/rdu230/ondemand/projects/dihedral_energies/7trial/wtuning/mols_65_5_38_cOC-cOC-CF/"
 Entering Link 1 = /opt/ohpc/pub/libs/gaussian/g16-A.03/sandybridge/g16/l1.exe PID=    394258.
  
 Copyright (c) 1988,1990,1992,1993,1995,1998,2003,2009,2016,
            Gaussian, Inc.  All Rights Reserved.
  
 This is part of the Gaussian(R) 16 program.  It is based on
 the Gaussian(R) 09 system (copyright 2009, Gaussian, Inc.),
 the Gaussian(R) 03 system (copyright 2003, Gaussian, Inc.),
 the Gaussian(R) 98 system (copyright 1998, Gaussian, Inc.),
 the Gaussian(R) 94 system (copyright 1995, Gaussian, Inc.),
 the Gaussian 92(TM) system (copyright 1992, Gaussian, Inc.),
 the Gaussian 90(TM) system (copyright 1990, Gaussian, Inc.),
 the Gaussian 88(TM) system (copyright 1988, Gaussian, Inc.),
 the Gaussian 86(TM) system (copyright 1986, Carnegie Mellon
 University), and the Gaussian 82(TM) system (copyright 1983,
 Carnegie Mellon University). Gaussian is a federally registered
 trademark of Gaussian, Inc.
  
 This software contains proprietary and confidential information,
 including trade secrets, belonging to Gaussian, Inc.
  
 This software is provided under written license and may be
 used, copied, transmitted, or stored only in accord with that
 written license.
  
 The following legend is applicable only to US Government
 contracts under FAR:
  
                    RESTRICTED RIGHTS LEGEND
  
 Use, reproduction and disclosure by the US Government is
 subject to restrictions as set forth in subparagraphs (a)
 and (c) of the Commercial Computer Software - Restricted
 Rights clause in FAR 52.227-19.
  
 Gaussian, Inc.
 340 Quinnipiac St., Bldg. 40, Wallingford CT 06492
  
  
 ---------------------------------------------------------------
 Warning -- This program may not be used in any manner that
 competes with the business of Gaussian, Inc. or will provide
 assistance to any competitor of Gaussian, Inc.  The licensee
 of this program is prohibited from giving any competitor of
 Gaussian, Inc. access to this program.  By using this program,
 the user acknowledges that Gaussian, Inc. is engaged in the
 business of creating and licensing software in the field of
 computational chemistry and represents and warrants to the
 licensee that it is not a competitor of Gaussian, Inc. and that
 it will not use this program in any manner prohibited above.
 ---------------------------------------------------------------
  

 Cite this work as:
 Gaussian 16, Revision A.03,
 M. J. Frisch, G. W. Trucks, H. B. Schlegel, G. E. Scuseria, 
 M. A. Robb, J. R. Cheeseman, G. Scalmani, V. Barone, 
 G. A. Petersson, H. Nakatsuji, X. Li, M. Caricato, A. V. Marenich, 
 J. Bloino, B. G. Janesko, R. Gomperts, B. Mennucci, H. P. Hratchian, 
 J. V. Ortiz, A. F. Izmaylov, J. L. Sonnenberg, D. Williams-Young, 
 F. Ding, F. Lipparini, F. Egidi, J. Goings, B. Peng, A. Petrone, 
 T. Henderson, D. Ranasinghe, V. G. Zakrzewski, J. Gao, N. Rega, 
 G. Zheng, W. Liang, M. Hada, M. Ehara, K. Toyota, R. Fukuda, 
 J. Hasegawa, M. Ishida, T. Nakajima, Y. Honda, O. Kitao, H. Nakai, 
 T. Vreven, K. Throssell, J. A. Montgomery, Jr., J. E. Peralta, 
 F. Ogliaro, M. J. Bearpark, J. J. Heyd, E. N. Brothers, K. N. Kudin, 
 V. N. Staroverov, T. A. Keith, R. Kobayashi, J. Normand, 
 K. Raghavachari, A. P. Rendell, J. C. Burant, S. S. Iyengar, 
 J. Tomasi, M. Cossi, J. M. Millam, M. Klene, C. Adamo, R. Cammi, 
 J. W. Ochterski, R. L. Martin, K. Morokuma, O. Farkas, 
 J. B. Foresman, and D. J. Fox, Gaussian, Inc., Wallingford CT, 2016.
 
 ******************************************
 Gaussian 16:  EM64L-G16RevA.03 25-Dec-2016
                25-Jul-2020 
 ******************************************
 %mem=30GB
 %nproc=8
 Will use up to    8 processors via shared memory.
 ---------------------------------------------------------------
 #P uLC-wPBE/cc-pVDZ iop(3/107=0393600000, 3/108=0393600000) opt
 ---------------------------------------------------------------
 1/18=20,19=15,26=3,38=1/1,3;
 2/9=110,12=2,17=6,18=5,40=1/2;
 3/5=16,11=2,25=1,30=1,71=1,74=-41,107=393600000,108=393600000,116=2/1,2,3;
 4//1;
 5/5=2,38=5/2;
 6/7=2,8=2,9=2,10=2,28=1/1;
 7//1,2,3,16;
 1/18=20,19=15,26=3/3(2);
 2/9=110/2;
 99//99;
 2/9=110/2;
 3/5=16,11=2,25=1,30=1,71=1,74=-41,107=393600000,108=393600000,116=2/1,2,3;
 4/5=5,16=3,69=1/1;
 5/5=2,38=5/2;
 7//1,2,3,16;
 1/18=20,19=15,26=3/3(-5);
 2/9=110/2;
 6/7=2,8=2,9=2,10=2,19=2,28=1/1;
 99/9=1/99;
 Leave Link    1 at Sat Jul 25 02:53:53 2020, MaxMem=  4026531840 cpu:               2.0 elap:               0.3
 (Enter /opt/ohpc/pub/libs/gaussian/g16-A.03/sandybridge/g16/l101.exe)
 -----------------
 H47 C60 S5 O10 F5
 -----------------
 Symbolic Z-matrix:
 Charge =  0 Multiplicity = 1
 C                    -19.14413  -0.81485   0.91064 
 C                    -18.74407   0.07109   0.00084 
 C                    -17.38833   0.56144  -0.08673 
 O                    -17.00519   1.48025  -1.03149 
 C                    -17.90992   2.63069  -1.06664 
 C                    -16.47117   0.02856   0.78695 
 C                    -16.87875  -0.96322   1.72749 
 O                    -15.93053  -1.46501   2.63409 
 C                    -16.03916  -2.90937   2.92502 
 C                    -18.24433  -1.3824    1.75569 
 C                    -15.08428   0.43411   0.67305 
 C                    -14.50391   1.62881   1.05329 
 F                    -15.30826   2.6574    1.56077 
 C                    -13.14896   1.70628   0.84023 
 C                    -12.60626   0.5263    0.36158 
 S                    -13.84965  -0.64718   0.09998 
 C                    -11.27518   0.27817   0.02532 
 C                    -10.57564  -0.90964   0.53278 
 C                    -9.2933   -1.11564   0.22327 
 O                    -8.55889  -2.25967   0.71265 
 C                    -9.36801  -3.45959   0.72424 
 C                    -8.48226  -0.27456  -0.58359 
 C                    -9.19245   0.90906  -1.12162 
 O                    -8.48536   1.69474  -2.02637 
 C                    -8.627     3.07981  -1.70189 
 C                    -10.53174   1.09454  -0.79313 
 C                    -7.12279  -0.61173  -0.96493 
 C                    -6.60396  -1.58762  -1.65713 
 F                    -7.33606  -2.51473  -2.35664 
 C                    -5.16157  -1.64939  -1.74974 
 C                    -4.62577  -0.63956  -0.97175 
 S                    -5.86315   0.39144  -0.29446 
 C                    -3.24256  -0.32142  -0.68239 
 C                    -2.70467   0.92654  -1.1354 
 C                    -1.33809   1.19623  -0.88019 
 O                    -0.71459   2.34734  -1.16204 
 C                    -1.56063   3.49864  -1.10799 
 C                    -0.45849   0.21403  -0.21366 
 C                    -1.10508  -1.02044   0.18811 
 O                    -0.31423  -1.88649   0.84344 
 C                    -0.44512  -3.24603   0.43771 
 C                    -2.44722  -1.22544  -0.1054 
 C                     0.9061    0.5486    0.11358 
 C                     1.39052   1.41853   0.92691 
 F                     0.68509   2.18481   1.71664 
 C                     2.82767   1.51508   0.98304 
 C                     3.38855   0.52186   0.07118 
 S                     2.19123  -0.3322   -0.77141 
 C                     4.82535   0.28028  -0.19112 
 C                     5.62667   1.45566  -0.42416 
 C                     7.03666   1.25256  -0.63817 
 O                     7.89686   2.2457   -0.98837 
 C                     7.5782    3.46747  -0.19939 
 C                     7.59117  -0.09904  -0.64681 
 C                     6.70081  -1.21129  -0.48894 
 O                     7.23494  -2.44341  -0.46811 
 C                     6.45273  -3.48695  -0.91966 
 C                     5.30104  -0.93793  -0.17946 
 C                     9.02637  -0.2852   -0.91354 
 C                     9.6387   -0.74071  -2.08855 
 F                     8.95039  -1.15588  -3.13096 
 C                     11.05631  -0.77094  -1.94413 
 C                     11.5091  -0.31215  -0.74873 
 S                     10.16434   0.03985   0.31656 
 C                     12.86581  -0.25471  -0.26836 
 C                     13.89061  -0.87627  -0.95843 
 C                     15.2408  -0.83074  -0.49625 
 O                     16.2556  -1.46809  -1.15427 
 C                     16.1508  -2.8939   -1.01113 
 C                     15.60167   0.01066   0.63 
 C                     14.5883   0.72969   1.28971 
 O                     14.88471   1.44094   2.37928 
 C                     14.35739   2.84387   2.35909 
 C                     13.17591   0.62465   0.86004 
 C                     16.98729   0.1753    0.9893 
 C                     17.77719  -0.73205   1.6418 
 F                     17.35969  -1.94868   2.0727 
 C                     19.04552  -0.25295   1.97589 
 C                     19.21256   1.00983   1.48355 
 S                     17.83422   1.5746    0.71087 
 H                    -20.20386  -1.23155   0.95477 
 H                    -19.4956   0.55118  -0.72838 
 H                    -18.28355   2.92747  -0.15093 
 H                    -18.70005   2.4069   -1.80901 
 H                    -17.33547   3.38513  -1.56668 
 H                    -15.06202  -3.1989    3.40853 
 H                    -16.17584  -3.48101   2.03488 
 H                    -16.82729  -3.00466   3.60283 
 H                    -18.59128  -2.14628   2.51703 
 H                    -12.57882   2.65577   1.01371 
 H                    -11.1301  -1.47245   1.2672 
 H                    -8.64421  -4.28306   0.8208 
 H                    -9.9183   -3.61837  -0.1565 
 H                    -10.05909  -3.41245   1.64019 
 H                    -8.4693    3.24273  -0.64674 
 H                    -9.48255   3.44561  -2.13562 
 H                    -7.77752   3.5507   -2.2902 
 H                    -10.97008   2.00293  -1.27367 
 H                    -4.59293  -2.31055  -2.33654 
 H                    -3.29844   1.61191  -1.66349 
 H                    -2.16597   3.60539  -1.91972 
 H                    -0.86127   4.35208  -1.08896 
 H                    -2.05817   3.5567   -0.14397 
 H                     0.42141  -3.86958   0.83661 
 H                    -1.38031  -3.64857   0.88602 
 H                    -0.44543  -3.3871   -0.62408 
 H                    -2.88602  -2.24359   0.2524 
 H                     3.45059   2.13415   1.6455 
 H                     5.25906   2.43376  -0.47396 
 H                     7.4279    3.2337    0.80604 
 H                     8.54392   4.05471  -0.33336 
 H                     6.7953    3.96857  -0.66677 
 H                     7.04933  -4.38789  -1.07411 
 H                     5.70878  -3.79553  -0.04452 
 H                     5.88186  -3.26712  -1.75026 
 H                     4.65857  -1.82104   0.00578 
 H                     11.60421  -1.09662  -2.79008 
 H                     13.65914  -1.5108   -1.73914 
 H                     15.28264  -3.28005  -1.65481 
 H                     15.97529  -3.08202   0.03674 
 H                     17.02671  -3.26608  -1.33464 
 H                     14.37066   3.25184   1.36333 
 H                     14.9443   3.44107   2.95826 
 H                     13.29719   2.76745   2.69263 
 H                     12.46954   1.09668   1.44143 
 H                     19.81686  -0.82912   2.5035 
 H                     20.13922   1.61607   1.64061 
 
 ITRead=  0  0  0  0  0  0  0  0  0  0  0  0  0  0  0  0  0  0  0  0
 ITRead=  0  0  0  0  0  0  0  0  0  0  0  0  0  0  0  0  0  0  0  0
 ITRead=  0  0  0  0  0  0  0  0  0  0  0  0  0  0  0  0  0  0  0  0
 ITRead=  0  0  0  0  0  0  0  0  0  0  0  0  0  0  0  0  0  0  0  0
 ITRead=  0  0  0  0  0  0  0  0  0  0  0  0  0  0  0  0  0  0  0  0
 ITRead=  0  0  0  0  0  0  0  0  0  0  0  0  0  0  0  0  0  0  0  0
 ITRead=  0  0  0  0  0  0  0
 MicOpt= -1 -1 -1 -1 -1 -1 -1 -1 -1 -1 -1 -1 -1 -1 -1 -1 -1 -1 -1 -1
 MicOpt= -1 -1 -1 -1 -1 -1 -1 -1 -1 -1 -1 -1 -1 -1 -1 -1 -1 -1 -1 -1
 MicOpt= -1 -1 -1 -1 -1 -1 -1 -1 -1 -1 -1 -1 -1 -1 -1 -1 -1 -1 -1 -1
 MicOpt= -1 -1 -1 -1 -1 -1 -1 -1 -1 -1 -1 -1 -1 -1 -1 -1 -1 -1 -1 -1
 MicOpt= -1 -1 -1 -1 -1 -1 -1 -1 -1 -1 -1 -1 -1 -1 -1 -1 -1 -1 -1 -1
 MicOpt= -1 -1 -1 -1 -1 -1 -1 -1 -1 -1 -1 -1 -1 -1 -1 -1 -1 -1 -1 -1
 MicOpt= -1 -1 -1 -1 -1 -1 -1
 NAtoms=    127 NQM=      127 NQMF=       0 NMMI=      0 NMMIF=      0
                NMic=       0 NMicF=      0.
                    Isotopes and Nuclear Properties:
 (Nuclear quadrupole moments (NQMom) in fm**2, nuclear magnetic moments (NMagM)
  in nuclear magnetons)

  Atom         1           2           3           4           5           6           7           8           9          10
 IAtWgt=          12          12          12          16          12          12          12          16          12          12
 AtmWgt=  12.0000000  12.0000000  12.0000000  15.9949146  12.0000000  12.0000000  12.0000000  15.9949146  12.0000000  12.0000000
 NucSpn=           0           0           0           0           0           0           0           0           0           0
 AtZEff=  -0.0000000  -0.0000000  -0.0000000  -0.0000000  -0.0000000  -0.0000000  -0.0000000  -0.0000000  -0.0000000  -0.0000000
 NQMom=    0.0000000   0.0000000   0.0000000   0.0000000   0.0000000   0.0000000   0.0000000   0.0000000   0.0000000   0.0000000
 NMagM=    0.0000000   0.0000000   0.0000000   0.0000000   0.0000000   0.0000000   0.0000000   0.0000000   0.0000000   0.0000000
 AtZNuc=   6.0000000   6.0000000   6.0000000   8.0000000   6.0000000   6.0000000   6.0000000   8.0000000   6.0000000   6.0000000

  Atom        11          12          13          14          15          16          17          18          19          20
 IAtWgt=          12          12          19          12          12          32          12          12          12          16
 AtmWgt=  12.0000000  12.0000000  18.9984033  12.0000000  12.0000000  31.9720718  12.0000000  12.0000000  12.0000000  15.9949146
 NucSpn=           0           0           1           0           0           0           0           0           0           0
 AtZEff=  -0.0000000  -0.0000000  -0.0000000  -0.0000000  -0.0000000  -0.0000000  -0.0000000  -0.0000000  -0.0000000  -0.0000000
 NQMom=    0.0000000   0.0000000   0.0000000   0.0000000   0.0000000   0.0000000   0.0000000   0.0000000   0.0000000   0.0000000
 NMagM=    0.0000000   0.0000000   2.6288670   0.0000000   0.0000000   0.0000000   0.0000000   0.0000000   0.0000000   0.0000000
 AtZNuc=   6.0000000   6.0000000   9.0000000   6.0000000   6.0000000  16.0000000   6.0000000   6.0000000   6.0000000   8.0000000

  Atom        21          22          23          24          25          26          27          28          29          30
 IAtWgt=          12          12          12          16          12          12          12          12          19          12
 AtmWgt=  12.0000000  12.0000000  12.0000000  15.9949146  12.0000000  12.0000000  12.0000000  12.0000000  18.9984033  12.0000000
 NucSpn=           0           0           0           0           0           0           0           0           1           0
 AtZEff=  -0.0000000  -0.0000000  -0.0000000  -0.0000000  -0.0000000  -0.0000000  -0.0000000  -0.0000000  -0.0000000  -0.0000000
 NQMom=    0.0000000   0.0000000   0.0000000   0.0000000   0.0000000   0.0000000   0.0000000   0.0000000   0.0000000   0.0000000
 NMagM=    0.0000000   0.0000000   0.0000000   0.0000000   0.0000000   0.0000000   0.0000000   0.0000000   2.6288670   0.0000000
 AtZNuc=   6.0000000   6.0000000   6.0000000   8.0000000   6.0000000   6.0000000   6.0000000   6.0000000   9.0000000   6.0000000

  Atom        31          32          33          34          35          36          37          38          39          40
 IAtWgt=          12          32          12          12          12          16          12          12          12          16
 AtmWgt=  12.0000000  31.9720718  12.0000000  12.0000000  12.0000000  15.9949146  12.0000000  12.0000000  12.0000000  15.9949146
 NucSpn=           0           0           0           0           0           0           0           0           0           0
 AtZEff=  -0.0000000  -0.0000000  -0.0000000  -0.0000000  -0.0000000  -0.0000000  -0.0000000  -0.0000000  -0.0000000  -0.0000000
 NQMom=    0.0000000   0.0000000   0.0000000   0.0000000   0.0000000   0.0000000   0.0000000   0.0000000   0.0000000   0.0000000
 NMagM=    0.0000000   0.0000000   0.0000000   0.0000000   0.0000000   0.0000000   0.0000000   0.0000000   0.0000000   0.0000000
 AtZNuc=   6.0000000  16.0000000   6.0000000   6.0000000   6.0000000   8.0000000   6.0000000   6.0000000   6.0000000   8.0000000

  Atom        41          42          43          44          45          46          47          48          49          50
 IAtWgt=          12          12          12          12          19          12          12          32          12          12
 AtmWgt=  12.0000000  12.0000000  12.0000000  12.0000000  18.9984033  12.0000000  12.0000000  31.9720718  12.0000000  12.0000000
 NucSpn=           0           0           0           0           1           0           0           0           0           0
 AtZEff=  -0.0000000  -0.0000000  -0.0000000  -0.0000000  -0.0000000  -0.0000000  -0.0000000  -0.0000000  -0.0000000  -0.0000000
 NQMom=    0.0000000   0.0000000   0.0000000   0.0000000   0.0000000   0.0000000   0.0000000   0.0000000   0.0000000   0.0000000
 NMagM=    0.0000000   0.0000000   0.0000000   0.0000000   2.6288670   0.0000000   0.0000000   0.0000000   0.0000000   0.0000000
 AtZNuc=   6.0000000   6.0000000   6.0000000   6.0000000   9.0000000   6.0000000   6.0000000  16.0000000   6.0000000   6.0000000

  Atom        51          52          53          54          55          56          57          58          59          60
 IAtWgt=          12          16          12          12          12          16          12          12          12          12
 AtmWgt=  12.0000000  15.9949146  12.0000000  12.0000000  12.0000000  15.9949146  12.0000000  12.0000000  12.0000000  12.0000000
 NucSpn=           0           0           0           0           0           0           0           0           0           0
 AtZEff=  -0.0000000  -0.0000000  -0.0000000  -0.0000000  -0.0000000  -0.0000000  -0.0000000  -0.0000000  -0.0000000  -0.0000000
 NQMom=    0.0000000   0.0000000   0.0000000   0.0000000   0.0000000   0.0000000   0.0000000   0.0000000   0.0000000   0.0000000
 NMagM=    0.0000000   0.0000000   0.0000000   0.0000000   0.0000000   0.0000000   0.0000000   0.0000000   0.0000000   0.0000000
 AtZNuc=   6.0000000   8.0000000   6.0000000   6.0000000   6.0000000   8.0000000   6.0000000   6.0000000   6.0000000   6.0000000

  Atom        61          62          63          64          65          66          67          68          69          70
 IAtWgt=          19          12          12          32          12          12          12          16          12          12
 AtmWgt=  18.9984033  12.0000000  12.0000000  31.9720718  12.0000000  12.0000000  12.0000000  15.9949146  12.0000000  12.0000000
 NucSpn=           1           0           0           0           0           0           0           0           0           0
 AtZEff=  -0.0000000  -0.0000000  -0.0000000  -0.0000000  -0.0000000  -0.0000000  -0.0000000  -0.0000000  -0.0000000  -0.0000000
 NQMom=    0.0000000   0.0000000   0.0000000   0.0000000   0.0000000   0.0000000   0.0000000   0.0000000   0.0000000   0.0000000
 NMagM=    2.6288670   0.0000000   0.0000000   0.0000000   0.0000000   0.0000000   0.0000000   0.0000000   0.0000000   0.0000000
 AtZNuc=   9.0000000   6.0000000   6.0000000  16.0000000   6.0000000   6.0000000   6.0000000   8.0000000   6.0000000   6.0000000

  Atom        71          72          73          74          75          76          77          78          79          80
 IAtWgt=          12          16          12          12          12          12          19          12          12          32
 AtmWgt=  12.0000000  15.9949146  12.0000000  12.0000000  12.0000000  12.0000000  18.9984033  12.0000000  12.0000000  31.9720718
 NucSpn=           0           0           0           0           0           0           1           0           0           0
 AtZEff=  -0.0000000  -0.0000000  -0.0000000  -0.0000000  -0.0000000  -0.0000000  -0.0000000  -0.0000000  -0.0000000  -0.0000000
 NQMom=    0.0000000   0.0000000   0.0000000   0.0000000   0.0000000   0.0000000   0.0000000   0.0000000   0.0000000   0.0000000
 NMagM=    0.0000000   0.0000000   0.0000000   0.0000000   0.0000000   0.0000000   2.6288670   0.0000000   0.0000000   0.0000000
 AtZNuc=   6.0000000   8.0000000   6.0000000   6.0000000   6.0000000   6.0000000   9.0000000   6.0000000   6.0000000  16.0000000

  Atom        81          82          83          84          85          86          87          88          89          90
 IAtWgt=           1           1           1           1           1           1           1           1           1           1
 AtmWgt=   1.0078250   1.0078250   1.0078250   1.0078250   1.0078250   1.0078250   1.0078250   1.0078250   1.0078250   1.0078250
 NucSpn=           1           1           1           1           1           1           1           1           1           1
 AtZEff=  -0.0000000  -0.0000000  -0.0000000  -0.0000000  -0.0000000  -0.0000000  -0.0000000  -0.0000000  -0.0000000  -0.0000000
 NQMom=    0.0000000   0.0000000   0.0000000   0.0000000   0.0000000   0.0000000   0.0000000   0.0000000   0.0000000   0.0000000
 NMagM=    2.7928460   2.7928460   2.7928460   2.7928460   2.7928460   2.7928460   2.7928460   2.7928460   2.7928460   2.7928460
 AtZNuc=   1.0000000   1.0000000   1.0000000   1.0000000   1.0000000   1.0000000   1.0000000   1.0000000   1.0000000   1.0000000

  Atom        91          92          93          94          95          96          97          98          99         100
 IAtWgt=           1           1           1           1           1           1           1           1           1           1
 AtmWgt=   1.0078250   1.0078250   1.0078250   1.0078250   1.0078250   1.0078250   1.0078250   1.0078250   1.0078250   1.0078250
 NucSpn=           1           1           1           1           1           1           1           1           1           1
 AtZEff=  -0.0000000  -0.0000000  -0.0000000  -0.0000000  -0.0000000  -0.0000000  -0.0000000  -0.0000000  -0.0000000  -0.0000000
 NQMom=    0.0000000   0.0000000   0.0000000   0.0000000   0.0000000   0.0000000   0.0000000   0.0000000   0.0000000   0.0000000
 NMagM=    2.7928460   2.7928460   2.7928460   2.7928460   2.7928460   2.7928460   2.7928460   2.7928460   2.7928460   2.7928460
 AtZNuc=   1.0000000   1.0000000   1.0000000   1.0000000   1.0000000   1.0000000   1.0000000   1.0000000   1.0000000   1.0000000

  Atom       101         102         103         104         105         106         107         108         109         110
 IAtWgt=           1           1           1           1           1           1           1           1           1           1
 AtmWgt=   1.0078250   1.0078250   1.0078250   1.0078250   1.0078250   1.0078250   1.0078250   1.0078250   1.0078250   1.0078250
 NucSpn=           1           1           1           1           1           1           1           1           1           1
 AtZEff=  -0.0000000  -0.0000000  -0.0000000  -0.0000000  -0.0000000  -0.0000000  -0.0000000  -0.0000000  -0.0000000  -0.0000000
 NQMom=    0.0000000   0.0000000   0.0000000   0.0000000   0.0000000   0.0000000   0.0000000   0.0000000   0.0000000   0.0000000
 NMagM=    2.7928460   2.7928460   2.7928460   2.7928460   2.7928460   2.7928460   2.7928460   2.7928460   2.7928460   2.7928460
 AtZNuc=   1.0000000   1.0000000   1.0000000   1.0000000   1.0000000   1.0000000   1.0000000   1.0000000   1.0000000   1.0000000

  Atom       111         112         113         114         115         116         117         118         119         120
 IAtWgt=           1           1           1           1           1           1           1           1           1           1
 AtmWgt=   1.0078250   1.0078250   1.0078250   1.0078250   1.0078250   1.0078250   1.0078250   1.0078250   1.0078250   1.0078250
 NucSpn=           1           1           1           1           1           1           1           1           1           1
 AtZEff=  -0.0000000  -0.0000000  -0.0000000  -0.0000000  -0.0000000  -0.0000000  -0.0000000  -0.0000000  -0.0000000  -0.0000000
 NQMom=    0.0000000   0.0000000   0.0000000   0.0000000   0.0000000   0.0000000   0.0000000   0.0000000   0.0000000   0.0000000
 NMagM=    2.7928460   2.7928460   2.7928460   2.7928460   2.7928460   2.7928460   2.7928460   2.7928460   2.7928460   2.7928460
 AtZNuc=   1.0000000   1.0000000   1.0000000   1.0000000   1.0000000   1.0000000   1.0000000   1.0000000   1.0000000   1.0000000

  Atom       121         122         123         124         125         126         127
 IAtWgt=           1           1           1           1           1           1           1
 AtmWgt=   1.0078250   1.0078250   1.0078250   1.0078250   1.0078250   1.0078250   1.0078250
 NucSpn=           1           1           1           1           1           1           1
 AtZEff=  -0.0000000  -0.0000000  -0.0000000  -0.0000000  -0.0000000  -0.0000000  -0.0000000
 NQMom=    0.0000000   0.0000000   0.0000000   0.0000000   0.0000000   0.0000000   0.0000000
 NMagM=    2.7928460   2.7928460   2.7928460   2.7928460   2.7928460   2.7928460   2.7928460
 AtZNuc=   1.0000000   1.0000000   1.0000000   1.0000000   1.0000000   1.0000000   1.0000000
 Leave Link  101 at Sat Jul 25 02:53:53 2020, MaxMem=  4026531840 cpu:               3.1 elap:               0.4
 (Enter /opt/ohpc/pub/libs/gaussian/g16-A.03/sandybridge/g16/l103.exe)

 GradGradGradGradGradGradGradGradGradGradGradGradGradGradGradGradGradGrad
 Berny optimization.
 Initialization pass.
                           ----------------------------
                           !    Initial Parameters    !
                           ! (Angstroms and Degrees)  !
 --------------------------                            --------------------------
 ! Name  Definition              Value          Derivative Info.                !
 --------------------------------------------------------------------------------
 ! R1    R(1,2)                  1.3314         estimate D2E/DX2                !
 ! R2    R(1,10)                 1.3586         estimate D2E/DX2                !
 ! R3    R(1,81)                 1.1396         estimate D2E/DX2                !
 ! R4    R(2,3)                  1.4444         estimate D2E/DX2                !
 ! R5    R(2,82)                 1.152          estimate D2E/DX2                !
 ! R6    R(3,4)                  1.3724         estimate D2E/DX2                !
 ! R7    R(3,6)                  1.3742         estimate D2E/DX2                !
 ! R8    R(4,5)                  1.464          estimate D2E/DX2                !
 ! R9    R(5,83)                 1.0326         estimate D2E/DX2                !
 ! R10   R(5,84)                 1.107          estimate D2E/DX2                !
 ! R11   R(5,85)                 1.072          estimate D2E/DX2                !
 ! R12   R(6,7)                  1.4263         estimate D2E/DX2                !
 ! R13   R(6,11)                 1.4494         estimate D2E/DX2                !
 ! R14   R(7,8)                  1.4046         estimate D2E/DX2                !
 ! R15   R(7,10)                 1.4287         estimate D2E/DX2                !
 ! R16   R(8,9)                  1.4774         estimate D2E/DX2                !
 ! R17   R(9,86)                 1.128          estimate D2E/DX2                !
 ! R18   R(9,87)                 1.0667         estimate D2E/DX2                !
 ! R19   R(9,88)                 1.0439         estimate D2E/DX2                !
 ! R20   R(10,89)                1.1329         estimate D2E/DX2                !
 ! R21   R(11,12)                1.3816         estimate D2E/DX2                !
 ! R22   R(11,16)                1.7384         estimate D2E/DX2                !
 ! R23   R(12,13)                1.4009         estimate D2E/DX2                !
 ! R24   R(12,14)                1.3738         estimate D2E/DX2                !
 ! R25   R(14,15)                1.3842         estimate D2E/DX2                !
 ! R26   R(14,90)                1.121          estimate D2E/DX2                !
 ! R27   R(15,16)                1.7296         estimate D2E/DX2                !
 ! R28   R(15,17)                1.3951         estimate D2E/DX2                !
 ! R29   R(17,18)                1.4689         estimate D2E/DX2                !
 ! R30   R(17,26)                1.3744         estimate D2E/DX2                !
 ! R31   R(18,19)                1.3352         estimate D2E/DX2                !
 ! R32   R(18,91)                1.0787         estimate D2E/DX2                !
 ! R33   R(19,20)                1.4449         estimate D2E/DX2                !
 ! R34   R(19,22)                1.4199         estimate D2E/DX2                !
 ! R35   R(20,21)                1.4473         estimate D2E/DX2                !
 ! R36   R(21,92)                1.1006         estimate D2E/DX2                !
 ! R37   R(21,93)                1.0506         estimate D2E/DX2                !
 ! R38   R(21,94)                1.1484         estimate D2E/DX2                !
 ! R39   R(22,23)                1.4815         estimate D2E/DX2                !
 ! R40   R(22,27)                1.4516         estimate D2E/DX2                !
 ! R41   R(23,24)                1.3913         estimate D2E/DX2                !
 ! R42   R(23,26)                1.3914         estimate D2E/DX2                !
 ! R43   R(24,25)                1.4296         estimate D2E/DX2                !
 ! R44   R(25,95)                1.0792         estimate D2E/DX2                !
 ! R45   R(25,96)                1.0266         estimate D2E/DX2                !
 ! R46   R(25,97)                1.1355         estimate D2E/DX2                !
 ! R47   R(26,98)                1.1172         estimate D2E/DX2                !
 ! R48   R(27,28)                1.3041         estimate D2E/DX2                !
 ! R49   R(27,32)                1.7443         estimate D2E/DX2                !
 ! R50   R(28,29)                1.3729         estimate D2E/DX2                !
 ! R51   R(28,30)                1.4467         estimate D2E/DX2                !
 ! R52   R(30,31)                1.3828         estimate D2E/DX2                !
 ! R53   R(30,99)                1.0511         estimate D2E/DX2                !
 ! R54   R(31,32)                1.7472         estimate D2E/DX2                !
 ! R55   R(31,33)                1.4485         estimate D2E/DX2                !
 ! R56   R(33,34)                1.4325         estimate D2E/DX2                !
 ! R57   R(33,42)                1.3352         estimate D2E/DX2                !
 ! R58   R(34,35)                1.4161         estimate D2E/DX2                !
 ! R59   R(34,100)               1.0494         estimate D2E/DX2                !
 ! R60   R(35,36)                1.3391         estimate D2E/DX2                !
 ! R61   R(35,38)                1.4774         estimate D2E/DX2                !
 ! R62   R(36,37)                1.4297         estimate D2E/DX2                !
 ! R63   R(37,101)               1.0182         estimate D2E/DX2                !
 ! R64   R(37,102)               1.1036         estimate D2E/DX2                !
 ! R65   R(37,103)               1.0864         estimate D2E/DX2                !
 ! R66   R(38,39)                1.4503         estimate D2E/DX2                !
 ! R67   R(38,43)                1.4426         estimate D2E/DX2                !
 ! R68   R(39,40)                1.3435         estimate D2E/DX2                !
 ! R69   R(39,42)                1.3891         estimate D2E/DX2                !
 ! R70   R(40,41)                1.4248         estimate D2E/DX2                !
 ! R71   R(41,104)               1.1397         estimate D2E/DX2                !
 ! R72   R(41,105)               1.1125         estimate D2E/DX2                !
 ! R73   R(41,106)               1.0711         estimate D2E/DX2                !
 ! R74   R(42,107)               1.165          estimate D2E/DX2                !
 ! R75   R(43,44)                1.2857         estimate D2E/DX2                !
 ! R76   R(43,48)                1.7918         estimate D2E/DX2                !
 ! R77   R(44,45)                1.3071         estimate D2E/DX2                !
 ! R78   R(44,46)                1.4415         estimate D2E/DX2                !
 ! R79   R(46,47)                1.4603         estimate D2E/DX2                !
 ! R80   R(46,108)               1.1001         estimate D2E/DX2                !
 ! R81   R(47,48)                1.695          estimate D2E/DX2                !
 ! R82   R(47,49)                1.4804         estimate D2E/DX2                !
 ! R83   R(49,50)                1.4415         estimate D2E/DX2                !
 ! R84   R(49,58)                1.3078         estimate D2E/DX2                !
 ! R85   R(50,51)                1.4405         estimate D2E/DX2                !
 ! R86   R(50,109)               1.0461         estimate D2E/DX2                !
 ! R87   R(51,52)                1.3597         estimate D2E/DX2                !
 ! R88   R(51,54)                1.461          estimate D2E/DX2                !
 ! R89   R(52,53)                1.4889         estimate D2E/DX2                !
 ! R90   R(53,110)               1.0431         estimate D2E/DX2                !
 ! R91   R(53,111)               1.1382         estimate D2E/DX2                !
 ! R92   R(53,112)               1.0404         estimate D2E/DX2                !
 ! R93   R(54,55)                1.4334         estimate D2E/DX2                !
 ! R94   R(54,59)                1.4716         estimate D2E/DX2                !
 ! R95   R(55,56)                1.3431         estimate D2E/DX2                !
 ! R96   R(55,58)                1.4594         estimate D2E/DX2                !
 ! R97   R(56,57)                1.3801         estimate D2E/DX2                !
 ! R98   R(57,113)               1.0916         estimate D2E/DX2                !
 ! R99   R(57,114)               1.1893         estimate D2E/DX2                !
 ! R100  R(57,115)               1.0316         estimate D2E/DX2                !
 ! R101  R(58,116)               1.1077         estimate D2E/DX2                !
 ! R102  R(59,60)                1.4011         estimate D2E/DX2                !
 ! R103  R(59,64)                1.707          estimate D2E/DX2                !
 ! R104  R(60,61)                1.3163         estimate D2E/DX2                !
 ! R105  R(60,62)                1.4253         estimate D2E/DX2                !
 ! R106  R(62,63)                1.3581         estimate D2E/DX2                !
 ! R107  R(62,117)               1.0592         estimate D2E/DX2                !
 ! R108  R(63,64)                1.7513         estimate D2E/DX2                !
 ! R109  R(63,65)                1.4404         estimate D2E/DX2                !
 ! R110  R(65,66)                1.383          estimate D2E/DX2                !
 ! R111  R(65,74)                1.4638         estimate D2E/DX2                !
 ! R112  R(66,67)                1.4278         estimate D2E/DX2                !
 ! R113  R(66,118)               1.0323         estimate D2E/DX2                !
 ! R114  R(67,68)                1.3671         estimate D2E/DX2                !
 ! R115  R(67,70)                1.4514         estimate D2E/DX2                !
 ! R116  R(68,69)                1.4368         estimate D2E/DX2                !
 ! R117  R(69,119)               1.1477         estimate D2E/DX2                !
 ! R118  R(69,120)               1.079          estimate D2E/DX2                !
 ! R119  R(69,121)               1.0052         estimate D2E/DX2                !
 ! R120  R(70,71)                1.4068         estimate D2E/DX2                !
 ! R121  R(70,75)                1.4409         estimate D2E/DX2                !
 ! R122  R(71,72)                1.3345         estimate D2E/DX2                !
 ! R123  R(71,74)                1.48           estimate D2E/DX2                !
 ! R124  R(72,73)                1.4989         estimate D2E/DX2                !
 ! R125  R(73,122)               1.0762         estimate D2E/DX2                !
 ! R126  R(73,123)               1.0296         estimate D2E/DX2                !
 ! R127  R(73,124)               1.1141         estimate D2E/DX2                !
 ! R128  R(74,125)               1.0295         estimate D2E/DX2                !
 ! R129  R(75,76)                1.3686         estimate D2E/DX2                !
 ! R130  R(75,80)                1.6592         estimate D2E/DX2                !
 ! R131  R(76,77)                1.3565         estimate D2E/DX2                !
 ! R132  R(76,78)                1.3963         estimate D2E/DX2                !
 ! R133  R(78,79)                1.3656         estimate D2E/DX2                !
 ! R134  R(78,126)               1.0979         estimate D2E/DX2                !
 ! R135  R(79,80)                1.678          estimate D2E/DX2                !
 ! R136  R(79,127)               1.1184         estimate D2E/DX2                !
 ! A1    A(2,1,10)             120.2647         estimate D2E/DX2                !
 ! A2    A(2,1,81)             123.3118         estimate D2E/DX2                !
 ! A3    A(10,1,81)            116.0436         estimate D2E/DX2                !
 ! A4    A(1,2,3)              123.3239         estimate D2E/DX2                !
 ! A5    A(1,2,82)             120.9208         estimate D2E/DX2                !
 ! A6    A(3,2,82)             115.626          estimate D2E/DX2                !
 ! A7    A(2,3,4)              122.077          estimate D2E/DX2                !
 ! A8    A(2,3,6)              117.1465         estimate D2E/DX2                !
 ! A9    A(4,3,6)              120.7265         estimate D2E/DX2                !
 ! A10   A(3,4,5)              111.7216         estimate D2E/DX2                !
 ! A11   A(4,5,83)             115.3525         estimate D2E/DX2                !
 ! A12   A(4,5,84)             107.3572         estimate D2E/DX2                !
 ! A13   A(4,5,85)             103.4786         estimate D2E/DX2                !
 ! A14   A(83,5,84)            113.2376         estimate D2E/DX2                !
 ! A15   A(83,5,85)            113.9086         estimate D2E/DX2                !
 ! A16   A(84,5,85)            102.2352         estimate D2E/DX2                !
 ! A17   A(3,6,7)              119.8781         estimate D2E/DX2                !
 ! A18   A(3,6,11)             118.6946         estimate D2E/DX2                !
 ! A19   A(7,6,11)             121.3189         estimate D2E/DX2                !
 ! A20   A(6,7,8)              118.759          estimate D2E/DX2                !
 ! A21   A(6,7,10)             119.3507         estimate D2E/DX2                !
 ! A22   A(8,7,10)             121.8496         estimate D2E/DX2                !
 ! A23   A(7,8,9)              115.2604         estimate D2E/DX2                !
 ! A24   A(8,9,86)             105.7625         estimate D2E/DX2                !
 ! A25   A(8,9,87)             111.6558         estimate D2E/DX2                !
 ! A26   A(8,9,88)             105.821          estimate D2E/DX2                !
 ! A27   A(86,9,87)            109.3381         estimate D2E/DX2                !
 ! A28   A(86,9,88)            110.6259         estimate D2E/DX2                !
 ! A29   A(87,9,88)            113.3406         estimate D2E/DX2                !
 ! A30   A(1,10,7)             119.8788         estimate D2E/DX2                !
 ! A31   A(1,10,89)            119.7897         estimate D2E/DX2                !
 ! A32   A(7,10,89)            120.2514         estimate D2E/DX2                !
 ! A33   A(6,11,12)            128.4821         estimate D2E/DX2                !
 ! A34   A(6,11,16)            122.103          estimate D2E/DX2                !
 ! A35   A(12,11,16)           109.2848         estimate D2E/DX2                !
 ! A36   A(11,12,13)           119.5667         estimate D2E/DX2                !
 ! A37   A(11,12,14)           114.8597         estimate D2E/DX2                !
 ! A38   A(13,12,14)           125.5258         estimate D2E/DX2                !
 ! A39   A(12,14,15)           113.0951         estimate D2E/DX2                !
 ! A40   A(12,14,90)           121.6938         estimate D2E/DX2                !
 ! A41   A(15,14,90)           125.1792         estimate D2E/DX2                !
 ! A42   A(14,15,16)           110.4147         estimate D2E/DX2                !
 ! A43   A(14,15,17)           127.5194         estimate D2E/DX2                !
 ! A44   A(16,15,17)           121.922          estimate D2E/DX2                !
 ! A45   A(11,16,15)            92.2179         estimate D2E/DX2                !
 ! A46   A(15,17,18)           120.9913         estimate D2E/DX2                !
 ! A47   A(15,17,26)           123.6398         estimate D2E/DX2                !
 ! A48   A(18,17,26)           115.3672         estimate D2E/DX2                !
 ! A49   A(17,18,19)           120.1368         estimate D2E/DX2                !
 ! A50   A(17,18,91)           114.3507         estimate D2E/DX2                !
 ! A51   A(19,18,91)           124.8211         estimate D2E/DX2                !
 ! A52   A(18,19,20)           122.1292         estimate D2E/DX2                !
 ! A53   A(18,19,22)           126.0805         estimate D2E/DX2                !
 ! A54   A(20,19,22)           111.7861         estimate D2E/DX2                !
 ! A55   A(19,20,21)           112.0246         estimate D2E/DX2                !
 ! A56   A(20,21,92)           104.6763         estimate D2E/DX2                !
 ! A57   A(20,21,93)           114.2945         estimate D2E/DX2                !
 ! A58   A(20,21,94)           107.9864         estimate D2E/DX2                !
 ! A59   A(92,21,93)           107.7549         estimate D2E/DX2                !
 ! A60   A(92,21,94)           110.8851         estimate D2E/DX2                !
 ! A61   A(93,21,94)           111.0784         estimate D2E/DX2                !
 ! A62   A(19,22,23)           113.941          estimate D2E/DX2                !
 ! A63   A(19,22,27)           123.1344         estimate D2E/DX2                !
 ! A64   A(23,22,27)           122.6228         estimate D2E/DX2                !
 ! A65   A(22,23,24)           116.3398         estimate D2E/DX2                !
 ! A66   A(22,23,26)           118.8284         estimate D2E/DX2                !
 ! A67   A(24,23,26)           124.5697         estimate D2E/DX2                !
 ! A68   A(23,24,25)           110.4364         estimate D2E/DX2                !
 ! A69   A(24,25,95)           110.7125         estimate D2E/DX2                !
 ! A70   A(24,25,96)           109.3836         estimate D2E/DX2                !
 ! A71   A(24,25,97)           102.1259         estimate D2E/DX2                !
 ! A72   A(95,25,96)           118.7537         estimate D2E/DX2                !
 ! A73   A(95,25,97)           109.5494         estimate D2E/DX2                !
 ! A74   A(96,25,97)           104.8803         estimate D2E/DX2                !
 ! A75   A(17,26,23)           125.5957         estimate D2E/DX2                !
 ! A76   A(17,26,98)           121.7919         estimate D2E/DX2                !
 ! A77   A(23,26,98)           112.6124         estimate D2E/DX2                !
 ! A78   A(22,27,28)           133.3007         estimate D2E/DX2                !
 ! A79   A(22,27,32)           116.2149         estimate D2E/DX2                !
 ! A80   A(28,27,32)           110.3097         estimate D2E/DX2                !
 ! A81   A(27,28,29)           124.3077         estimate D2E/DX2                !
 ! A82   A(27,28,30)           117.5545         estimate D2E/DX2                !
 ! A83   A(29,28,30)           118.0488         estimate D2E/DX2                !
 ! A84   A(28,30,31)           108.6101         estimate D2E/DX2                !
 ! A85   A(28,30,99)           127.012          estimate D2E/DX2                !
 ! A86   A(31,30,99)           124.3218         estimate D2E/DX2                !
 ! A87   A(30,31,32)           112.0003         estimate D2E/DX2                !
 ! A88   A(30,31,33)           130.0002         estimate D2E/DX2                !
 ! A89   A(32,31,33)           117.9843         estimate D2E/DX2                !
 ! A90   A(27,32,31)            91.3214         estimate D2E/DX2                !
 ! A91   A(31,33,34)           119.1265         estimate D2E/DX2                !
 ! A92   A(31,33,42)           120.4266         estimate D2E/DX2                !
 ! A93   A(34,33,42)           120.1888         estimate D2E/DX2                !
 ! A94   A(33,34,35)           118.1177         estimate D2E/DX2                !
 ! A95   A(33,34,100)          121.043          estimate D2E/DX2                !
 ! A96   A(35,34,100)          120.8204         estimate D2E/DX2                !
 ! A97   A(34,35,36)           125.1056         estimate D2E/DX2                !
 ! A98   A(34,35,38)           121.954          estimate D2E/DX2                !
 ! A99   A(36,35,38)           112.9069         estimate D2E/DX2                !
 ! A100  A(35,36,37)           114.1241         estimate D2E/DX2                !
 ! A101  A(36,37,101)          113.9594         estimate D2E/DX2                !
 ! A102  A(36,37,102)          104.3818         estimate D2E/DX2                !
 ! A103  A(36,37,103)          110.3399         estimate D2E/DX2                !
 ! A104  A(101,37,102)         108.0249         estimate D2E/DX2                !
 ! A105  A(101,37,103)         115.4385         estimate D2E/DX2                !
 ! A106  A(102,37,103)         103.5086         estimate D2E/DX2                !
 ! A107  A(35,38,39)           115.178          estimate D2E/DX2                !
 ! A108  A(35,38,43)           120.7523         estimate D2E/DX2                !
 ! A109  A(39,38,43)           123.7986         estimate D2E/DX2                !
 ! A110  A(38,39,40)           114.9223         estimate D2E/DX2                !
 ! A111  A(38,39,42)           119.8573         estimate D2E/DX2                !
 ! A112  A(40,39,42)           125.2189         estimate D2E/DX2                !
 ! A113  A(39,40,41)           114.9689         estimate D2E/DX2                !
 ! A114  A(40,41,104)          110.6441         estimate D2E/DX2                !
 ! A115  A(40,41,105)          107.9229         estimate D2E/DX2                !
 ! A116  A(40,41,106)          114.0777         estimate D2E/DX2                !
 ! A117  A(104,41,105)         107.4665         estimate D2E/DX2                !
 ! A118  A(104,41,106)         105.9699         estimate D2E/DX2                !
 ! A119  A(105,41,106)         110.5829         estimate D2E/DX2                !
 ! A120  A(33,42,39)           124.5371         estimate D2E/DX2                !
 ! A121  A(33,42,107)          120.0062         estimate D2E/DX2                !
 ! A122  A(39,42,107)          115.3412         estimate D2E/DX2                !
 ! A123  A(38,43,44)           131.0587         estimate D2E/DX2                !
 ! A124  A(38,43,48)           116.8976         estimate D2E/DX2                !
 ! A125  A(44,43,48)           112.0134         estimate D2E/DX2                !
 ! A126  A(43,44,45)           125.1377         estimate D2E/DX2                !
 ! A127  A(43,44,46)           116.4623         estimate D2E/DX2                !
 ! A128  A(45,44,46)           118.3774         estimate D2E/DX2                !
 ! A129  A(44,46,47)           108.2434         estimate D2E/DX2                !
 ! A130  A(44,46,108)          128.7337         estimate D2E/DX2                !
 ! A131  A(47,46,108)          122.7716         estimate D2E/DX2                !
 ! A132  A(46,47,48)           112.4449         estimate D2E/DX2                !
 ! A133  A(46,47,49)           126.4695         estimate D2E/DX2                !
 ! A134  A(48,47,49)           121.017          estimate D2E/DX2                !
 ! A135  A(43,48,47)            90.7695         estimate D2E/DX2                !
 ! A136  A(47,49,50)           115.7918         estimate D2E/DX2                !
 ! A137  A(47,49,58)           120.2277         estimate D2E/DX2                !
 ! A138  A(50,49,58)           123.9697         estimate D2E/DX2                !
 ! A139  A(49,50,51)           116.9467         estimate D2E/DX2                !
 ! A140  A(49,50,109)          125.0815         estimate D2E/DX2                !
 ! A141  A(51,50,109)          117.9511         estimate D2E/DX2                !
 ! A142  A(50,51,52)           123.6758         estimate D2E/DX2                !
 ! A143  A(50,51,54)           120.1872         estimate D2E/DX2                !
 ! A144  A(52,51,54)           115.7266         estimate D2E/DX2                !
 ! A145  A(51,52,53)           109.1156         estimate D2E/DX2                !
 ! A146  A(52,53,110)          110.9596         estimate D2E/DX2                !
 ! A147  A(52,53,111)          100.3356         estimate D2E/DX2                !
 ! A148  A(52,53,112)          108.5562         estimate D2E/DX2                !
 ! A149  A(110,53,111)         110.5685         estimate D2E/DX2                !
 ! A150  A(110,53,112)         115.6259         estimate D2E/DX2                !
 ! A151  A(111,53,112)         109.7003         estimate D2E/DX2                !
 ! A152  A(51,54,55)           118.7795         estimate D2E/DX2                !
 ! A153  A(51,54,59)           119.2275         estimate D2E/DX2                !
 ! A154  A(55,54,59)           121.8418         estimate D2E/DX2                !
 ! A155  A(54,55,56)           117.8081         estimate D2E/DX2                !
 ! A156  A(54,55,58)           118.2793         estimate D2E/DX2                !
 ! A157  A(56,55,58)           123.3665         estimate D2E/DX2                !
 ! A158  A(55,56,57)           117.5926         estimate D2E/DX2                !
 ! A159  A(56,57,113)          111.1371         estimate D2E/DX2                !
 ! A160  A(56,57,114)          108.0566         estimate D2E/DX2                !
 ! A161  A(56,57,115)          114.5798         estimate D2E/DX2                !
 ! A162  A(113,57,114)         103.4064         estimate D2E/DX2                !
 ! A163  A(113,57,115)         111.3727         estimate D2E/DX2                !
 ! A164  A(114,57,115)         107.5537         estimate D2E/DX2                !
 ! A165  A(49,58,55)           121.4291         estimate D2E/DX2                !
 ! A166  A(49,58,116)          122.2184         estimate D2E/DX2                !
 ! A167  A(55,58,116)          116.2595         estimate D2E/DX2                !
 ! A168  A(54,59,60)           128.2687         estimate D2E/DX2                !
 ! A169  A(54,59,64)           119.7006         estimate D2E/DX2                !
 ! A170  A(60,59,64)           112.0183         estimate D2E/DX2                !
 ! A171  A(59,60,61)           122.5567         estimate D2E/DX2                !
 ! A172  A(59,60,62)           110.8916         estimate D2E/DX2                !
 ! A173  A(61,60,62)           126.4154         estimate D2E/DX2                !
 ! A174  A(60,62,63)           114.4328         estimate D2E/DX2                !
 ! A175  A(60,62,117)          116.1103         estimate D2E/DX2                !
 ! A176  A(63,62,117)          129.3746         estimate D2E/DX2                !
 ! A177  A(62,63,64)           110.3222         estimate D2E/DX2                !
 ! A178  A(62,63,65)           128.3922         estimate D2E/DX2                !
 ! A179  A(64,63,65)           120.8217         estimate D2E/DX2                !
 ! A180  A(59,64,63)            92.0217         estimate D2E/DX2                !
 ! A181  A(63,65,66)           120.9046         estimate D2E/DX2                !
 ! A182  A(63,65,74)           118.7232         estimate D2E/DX2                !
 ! A183  A(66,65,74)           119.8444         estimate D2E/DX2                !
 ! A184  A(65,66,67)           121.6576         estimate D2E/DX2                !
 ! A185  A(65,66,118)          119.1725         estimate D2E/DX2                !
 ! A186  A(67,66,118)          118.4526         estimate D2E/DX2                !
 ! A187  A(66,67,68)           122.0901         estimate D2E/DX2                !
 ! A188  A(66,67,70)           120.317          estimate D2E/DX2                !
 ! A189  A(68,67,70)           117.3345         estimate D2E/DX2                !
 ! A190  A(67,68,69)           111.1332         estimate D2E/DX2                !
 ! A191  A(68,69,119)          109.4625         estimate D2E/DX2                !
 ! A192  A(68,69,120)          106.3572         estimate D2E/DX2                !
 ! A193  A(68,69,121)          105.7713         estimate D2E/DX2                !
 ! A194  A(119,69,120)         111.2825         estimate D2E/DX2                !
 ! A195  A(119,69,121)         110.7374         estimate D2E/DX2                !
 ! A196  A(120,69,121)         112.9396         estimate D2E/DX2                !
 ! A197  A(67,70,71)           118.7553         estimate D2E/DX2                !
 ! A198  A(67,70,75)           119.9226         estimate D2E/DX2                !
 ! A199  A(71,70,75)           121.1558         estimate D2E/DX2                !
 ! A200  A(70,71,72)           119.688          estimate D2E/DX2                !
 ! A201  A(70,71,74)           120.9968         estimate D2E/DX2                !
 ! A202  A(72,71,74)           119.1317         estimate D2E/DX2                !
 ! A203  A(71,72,73)           114.1867         estimate D2E/DX2                !
 ! A204  A(72,73,122)          111.2808         estimate D2E/DX2                !
 ! A205  A(72,73,123)          109.5425         estimate D2E/DX2                !
 ! A206  A(72,73,124)          105.4601         estimate D2E/DX2                !
 ! A207  A(122,73,123)         108.1522         estimate D2E/DX2                !
 ! A208  A(122,73,124)         108.3466         estimate D2E/DX2                !
 ! A209  A(123,73,124)         114.0812         estimate D2E/DX2                !
 ! A210  A(65,74,71)           117.9429         estimate D2E/DX2                !
 ! A211  A(65,74,125)          124.4334         estimate D2E/DX2                !
 ! A212  A(71,74,125)          117.2771         estimate D2E/DX2                !
 ! A213  A(70,75,76)           126.7391         estimate D2E/DX2                !
 ! A214  A(70,75,80)           123.0516         estimate D2E/DX2                !
 ! A215  A(76,75,80)           110.1534         estimate D2E/DX2                !
 ! A216  A(75,76,77)           124.6401         estimate D2E/DX2                !
 ! A217  A(75,76,78)           114.2581         estimate D2E/DX2                !
 ! A218  A(77,76,78)           120.7494         estimate D2E/DX2                !
 ! A219  A(76,78,79)           110.0061         estimate D2E/DX2                !
 ! A220  A(76,78,126)          124.9648         estimate D2E/DX2                !
 ! A221  A(79,78,126)          124.9325         estimate D2E/DX2                !
 ! A222  A(78,79,80)           112.1331         estimate D2E/DX2                !
 ! A223  A(78,79,127)          123.5003         estimate D2E/DX2                !
 ! A224  A(80,79,127)          124.2485         estimate D2E/DX2                !
 ! A225  A(75,80,79)            93.3341         estimate D2E/DX2                !
 ! D1    D(10,1,2,3)            -4.9452         estimate D2E/DX2                !
 ! D2    D(10,1,2,82)          179.3701         estimate D2E/DX2                !
 ! D3    D(81,1,2,3)          -177.585          estimate D2E/DX2                !
 ! D4    D(81,1,2,82)            6.7302         estimate D2E/DX2                !
 ! D5    D(2,1,10,7)             4.1104         estimate D2E/DX2                !
 ! D6    D(2,1,10,89)         -179.1345         estimate D2E/DX2                !
 ! D7    D(81,1,10,7)          177.267          estimate D2E/DX2                !
 ! D8    D(81,1,10,89)          -5.9779         estimate D2E/DX2                !
 ! D9    D(1,2,3,4)           -179.6782         estimate D2E/DX2                !
 ! D10   D(1,2,3,6)              2.8769         estimate D2E/DX2                !
 ! D11   D(82,2,3,4)            -3.7837         estimate D2E/DX2                !
 ! D12   D(82,2,3,6)           178.7714         estimate D2E/DX2                !
 ! D13   D(2,3,4,5)             49.7718         estimate D2E/DX2                !
 ! D14   D(6,3,4,5)           -132.8731         estimate D2E/DX2                !
 ! D15   D(2,3,6,7)             -0.0958         estimate D2E/DX2                !
 ! D16   D(2,3,6,11)           176.1697         estimate D2E/DX2                !
 ! D17   D(4,3,6,7)           -177.5773         estimate D2E/DX2                !
 ! D18   D(4,3,6,11)            -1.3117         estimate D2E/DX2                !
 ! D19   D(3,4,5,83)            36.1914         estimate D2E/DX2                !
 ! D20   D(3,4,5,84)           -91.0748         estimate D2E/DX2                !
 ! D21   D(3,4,5,85)           161.2729         estimate D2E/DX2                !
 ! D22   D(3,6,7,8)           -178.2572         estimate D2E/DX2                !
 ! D23   D(3,6,7,10)            -0.5355         estimate D2E/DX2                !
 ! D24   D(11,6,7,8)             5.5775         estimate D2E/DX2                !
 ! D25   D(11,6,7,10)         -176.7008         estimate D2E/DX2                !
 ! D26   D(3,6,11,12)           74.9107         estimate D2E/DX2                !
 ! D27   D(3,6,11,16)         -109.6977         estimate D2E/DX2                !
 ! D28   D(7,6,11,12)         -108.8798         estimate D2E/DX2                !
 ! D29   D(7,6,11,16)           66.5119         estimate D2E/DX2                !
 ! D30   D(6,7,8,9)           -142.072          estimate D2E/DX2                !
 ! D31   D(10,7,8,9)            40.2659         estimate D2E/DX2                !
 ! D32   D(6,7,10,1)            -1.4205         estimate D2E/DX2                !
 ! D33   D(6,7,10,89)         -178.1604         estimate D2E/DX2                !
 ! D34   D(8,7,10,1)           176.2282         estimate D2E/DX2                !
 ! D35   D(8,7,10,89)           -0.5117         estimate D2E/DX2                !
 ! D36   D(7,8,9,86)           164.142          estimate D2E/DX2                !
 ! D37   D(7,8,9,87)            45.3072         estimate D2E/DX2                !
 ! D38   D(7,8,9,88)           -78.4434         estimate D2E/DX2                !
 ! D39   D(6,11,12,13)          -3.6779         estimate D2E/DX2                !
 ! D40   D(6,11,12,14)         178.6957         estimate D2E/DX2                !
 ! D41   D(16,11,12,13)       -179.543          estimate D2E/DX2                !
 ! D42   D(16,11,12,14)          2.8306         estimate D2E/DX2                !
 ! D43   D(6,11,16,15)        -176.9269         estimate D2E/DX2                !
 ! D44   D(12,11,16,15)         -0.7475         estimate D2E/DX2                !
 ! D45   D(11,12,14,15)         -4.0449         estimate D2E/DX2                !
 ! D46   D(11,12,14,90)        174.0011         estimate D2E/DX2                !
 ! D47   D(13,12,14,15)        178.4919         estimate D2E/DX2                !
 ! D48   D(13,12,14,90)         -3.4622         estimate D2E/DX2                !
 ! D49   D(12,14,15,16)          3.2869         estimate D2E/DX2                !
 ! D50   D(12,14,15,17)        178.9483         estimate D2E/DX2                !
 ! D51   D(90,14,15,16)       -174.6789         estimate D2E/DX2                !
 ! D52   D(90,14,15,17)          0.9825         estimate D2E/DX2                !
 ! D53   D(14,15,16,11)         -1.4162         estimate D2E/DX2                !
 ! D54   D(17,15,16,11)       -177.3624         estimate D2E/DX2                !
 ! D55   D(14,15,17,18)        130.6561         estimate D2E/DX2                !
 ! D56   D(14,15,17,26)        -49.855          estimate D2E/DX2                !
 ! D57   D(16,15,17,18)        -54.1355         estimate D2E/DX2                !
 ! D58   D(16,15,17,26)        125.3534         estimate D2E/DX2                !
 ! D59   D(15,17,18,19)       -178.5759         estimate D2E/DX2                !
 ! D60   D(15,17,18,91)         -7.6515         estimate D2E/DX2                !
 ! D61   D(26,17,18,19)          1.895          estimate D2E/DX2                !
 ! D62   D(26,17,18,91)        172.8194         estimate D2E/DX2                !
 ! D63   D(15,17,26,23)        177.8939         estimate D2E/DX2                !
 ! D64   D(15,17,26,98)         -2.1794         estimate D2E/DX2                !
 ! D65   D(18,17,26,23)         -2.5911         estimate D2E/DX2                !
 ! D66   D(18,17,26,98)        177.3357         estimate D2E/DX2                !
 ! D67   D(17,18,19,20)        179.1855         estimate D2E/DX2                !
 ! D68   D(17,18,19,22)         -0.0095         estimate D2E/DX2                !
 ! D69   D(91,18,19,20)          9.267          estimate D2E/DX2                !
 ! D70   D(91,18,19,22)       -169.9279         estimate D2E/DX2                !
 ! D71   D(18,19,20,21)         38.9737         estimate D2E/DX2                !
 ! D72   D(22,19,20,21)       -141.727          estimate D2E/DX2                !
 ! D73   D(18,19,22,23)         -1.2592         estimate D2E/DX2                !
 ! D74   D(18,19,22,27)       -175.0916         estimate D2E/DX2                !
 ! D75   D(20,19,22,23)        179.475          estimate D2E/DX2                !
 ! D76   D(20,19,22,27)          5.6426         estimate D2E/DX2                !
 ! D77   D(19,20,21,92)        163.8515         estimate D2E/DX2                !
 ! D78   D(19,20,21,93)         46.2006         estimate D2E/DX2                !
 ! D79   D(19,20,21,94)        -77.953          estimate D2E/DX2                !
 ! D80   D(19,22,23,24)       -173.7593         estimate D2E/DX2                !
 ! D81   D(19,22,23,26)          0.6315         estimate D2E/DX2                !
 ! D82   D(27,22,23,24)          0.1087         estimate D2E/DX2                !
 ! D83   D(27,22,23,26)        174.4995         estimate D2E/DX2                !
 ! D84   D(19,22,27,28)         61.6607         estimate D2E/DX2                !
 ! D85   D(19,22,27,32)       -112.9772         estimate D2E/DX2                !
 ! D86   D(23,22,27,28)       -111.6441         estimate D2E/DX2                !
 ! D87   D(23,22,27,32)         73.718          estimate D2E/DX2                !
 ! D88   D(22,23,24,25)       -134.0793         estimate D2E/DX2                !
 ! D89   D(26,23,24,25)         51.8897         estimate D2E/DX2                !
 ! D90   D(22,23,26,17)          1.3519         estimate D2E/DX2                !
 ! D91   D(22,23,26,98)       -178.5806         estimate D2E/DX2                !
 ! D92   D(24,23,26,17)        175.2454         estimate D2E/DX2                !
 ! D93   D(24,23,26,98)         -4.6871         estimate D2E/DX2                !
 ! D94   D(23,24,25,95)         46.8227         estimate D2E/DX2                !
 ! D95   D(23,24,25,96)        -85.8822         estimate D2E/DX2                !
 ! D96   D(23,24,25,97)        163.3834         estimate D2E/DX2                !
 ! D97   D(22,27,28,29)          8.0299         estimate D2E/DX2                !
 ! D98   D(22,27,28,30)       -175.4759         estimate D2E/DX2                !
 ! D99   D(32,27,28,29)       -177.0989         estimate D2E/DX2                !
 ! D100  D(32,27,28,30)         -0.6048         estimate D2E/DX2                !
 ! D101  D(22,27,32,31)        173.9633         estimate D2E/DX2                !
 ! D102  D(28,27,32,31)         -1.878          estimate D2E/DX2                !
 ! D103  D(27,28,30,31)          3.557          estimate D2E/DX2                !
 ! D104  D(27,28,30,99)       -173.7947         estimate D2E/DX2                !
 ! D105  D(29,28,30,31)       -179.7241         estimate D2E/DX2                !
 ! D106  D(29,28,30,99)          2.9242         estimate D2E/DX2                !
 ! D107  D(28,30,31,32)         -4.7711         estimate D2E/DX2                !
 ! D108  D(28,30,31,33)        176.6988         estimate D2E/DX2                !
 ! D109  D(99,30,31,32)        172.6684         estimate D2E/DX2                !
 ! D110  D(99,30,31,33)         -5.8617         estimate D2E/DX2                !
 ! D111  D(30,31,32,27)          3.9701         estimate D2E/DX2                !
 ! D112  D(33,31,32,27)       -177.3049         estimate D2E/DX2                !
 ! D113  D(30,31,33,34)        115.7688         estimate D2E/DX2                !
 ! D114  D(30,31,33,42)        -58.4069         estimate D2E/DX2                !
 ! D115  D(32,31,33,34)        -62.6879         estimate D2E/DX2                !
 ! D116  D(32,31,33,42)        123.1364         estimate D2E/DX2                !
 ! D117  D(31,33,34,35)       -177.9085         estimate D2E/DX2                !
 ! D118  D(31,33,34,100)         0.5244         estimate D2E/DX2                !
 ! D119  D(42,33,34,35)         -3.7186         estimate D2E/DX2                !
 ! D120  D(42,33,34,100)       174.7142         estimate D2E/DX2                !
 ! D121  D(31,33,42,39)        178.8066         estimate D2E/DX2                !
 ! D122  D(31,33,42,107)        -5.2872         estimate D2E/DX2                !
 ! D123  D(34,33,42,39)          4.693          estimate D2E/DX2                !
 ! D124  D(34,33,42,107)      -179.4009         estimate D2E/DX2                !
 ! D125  D(33,34,35,36)       -175.4319         estimate D2E/DX2                !
 ! D126  D(33,34,35,38)          2.311          estimate D2E/DX2                !
 ! D127  D(100,34,35,36)         6.1317         estimate D2E/DX2                !
 ! D128  D(100,34,35,38)      -176.1255         estimate D2E/DX2                !
 ! D129  D(34,35,36,37)         30.1056         estimate D2E/DX2                !
 ! D130  D(38,35,36,37)       -147.8154         estimate D2E/DX2                !
 ! D131  D(34,35,38,39)         -1.6116         estimate D2E/DX2                !
 ! D132  D(34,35,38,43)       -175.8526         estimate D2E/DX2                !
 ! D133  D(36,35,38,39)        176.3838         estimate D2E/DX2                !
 ! D134  D(36,35,38,43)          2.1429         estimate D2E/DX2                !
 ! D135  D(35,36,37,101)       -77.1941         estimate D2E/DX2                !
 ! D136  D(35,36,37,102)       165.1921         estimate D2E/DX2                !
 ! D137  D(35,36,37,103)        54.5677         estimate D2E/DX2                !
 ! D138  D(35,38,39,40)       -177.3358         estimate D2E/DX2                !
 ! D139  D(35,38,39,42)          2.2368         estimate D2E/DX2                !
 ! D140  D(43,38,39,40)         -3.2922         estimate D2E/DX2                !
 ! D141  D(43,38,39,42)        176.2803         estimate D2E/DX2                !
 ! D142  D(35,38,43,44)         64.7949         estimate D2E/DX2                !
 ! D143  D(35,38,43,48)       -113.0167         estimate D2E/DX2                !
 ! D144  D(39,38,43,44)       -108.9313         estimate D2E/DX2                !
 ! D145  D(39,38,43,48)         73.2571         estimate D2E/DX2                !
 ! D146  D(38,39,40,41)       -136.5029         estimate D2E/DX2                !
 ! D147  D(42,39,40,41)         43.9509         estimate D2E/DX2                !
 ! D148  D(38,39,42,33)         -3.9754         estimate D2E/DX2                !
 ! D149  D(38,39,42,107)       179.947          estimate D2E/DX2                !
 ! D150  D(40,39,42,33)        175.5501         estimate D2E/DX2                !
 ! D151  D(40,39,42,107)        -0.5275         estimate D2E/DX2                !
 ! D152  D(39,40,41,104)       165.7414         estimate D2E/DX2                !
 ! D153  D(39,40,41,105)       -76.9388         estimate D2E/DX2                !
 ! D154  D(39,40,41,106)        46.3755         estimate D2E/DX2                !
 ! D155  D(38,43,44,45)          3.4268         estimate D2E/DX2                !
 ! D156  D(38,43,44,46)       -178.3371         estimate D2E/DX2                !
 ! D157  D(48,43,44,45)       -178.6783         estimate D2E/DX2                !
 ! D158  D(48,43,44,46)         -0.4422         estimate D2E/DX2                !
 ! D159  D(38,43,48,47)        179.9097         estimate D2E/DX2                !
 ! D160  D(44,43,48,47)          1.6895         estimate D2E/DX2                !
 ! D161  D(43,44,46,47)         -1.3255         estimate D2E/DX2                !
 ! D162  D(43,44,46,108)      -175.6107         estimate D2E/DX2                !
 ! D163  D(45,44,46,47)        177.0351         estimate D2E/DX2                !
 ! D164  D(45,44,46,108)         2.7499         estimate D2E/DX2                !
 ! D165  D(44,46,47,48)          2.5783         estimate D2E/DX2                !
 ! D166  D(44,46,47,49)        179.5665         estimate D2E/DX2                !
 ! D167  D(108,46,47,48)       177.2778         estimate D2E/DX2                !
 ! D168  D(108,46,47,49)        -5.734          estimate D2E/DX2                !
 ! D169  D(46,47,48,43)         -2.4206         estimate D2E/DX2                !
 ! D170  D(49,47,48,43)       -179.5946         estimate D2E/DX2                !
 ! D171  D(46,47,49,50)        -46.464          estimate D2E/DX2                !
 ! D172  D(46,47,49,58)        132.3874         estimate D2E/DX2                !
 ! D173  D(48,47,49,50)        130.2876         estimate D2E/DX2                !
 ! D174  D(48,47,49,58)        -50.861          estimate D2E/DX2                !
 ! D175  D(47,49,50,51)        178.0047         estimate D2E/DX2                !
 ! D176  D(47,49,50,109)        -3.6899         estimate D2E/DX2                !
 ! D177  D(58,49,50,51)         -0.7986         estimate D2E/DX2                !
 ! D178  D(58,49,50,109)       177.5068         estimate D2E/DX2                !
 ! D179  D(47,49,58,55)        177.4249         estimate D2E/DX2                !
 ! D180  D(47,49,58,116)         1.0648         estimate D2E/DX2                !
 ! D181  D(50,49,58,55)         -3.8221         estimate D2E/DX2                !
 ! D182  D(50,49,58,116)       179.8177         estimate D2E/DX2                !
 ! D183  D(49,50,51,52)        173.8536         estimate D2E/DX2                !
 ! D184  D(49,50,51,54)          1.5277         estimate D2E/DX2                !
 ! D185  D(109,50,51,52)        -4.5765         estimate D2E/DX2                !
 ! D186  D(109,50,51,54)      -176.9024         estimate D2E/DX2                !
 ! D187  D(50,51,52,53)         41.8735         estimate D2E/DX2                !
 ! D188  D(54,51,52,53)       -145.488          estimate D2E/DX2                !
 ! D189  D(50,51,54,55)          2.2903         estimate D2E/DX2                !
 ! D190  D(50,51,54,59)        177.9035         estimate D2E/DX2                !
 ! D191  D(52,51,54,55)       -170.6239         estimate D2E/DX2                !
 ! D192  D(52,51,54,59)          4.9894         estimate D2E/DX2                !
 ! D193  D(51,52,53,110)        45.3388         estimate D2E/DX2                !
 ! D194  D(51,52,53,111)       162.2292         estimate D2E/DX2                !
 ! D195  D(51,52,53,112)       -82.7675         estimate D2E/DX2                !
 ! D196  D(51,54,55,56)       -178.4592         estimate D2E/DX2                !
 ! D197  D(51,54,55,58)         -6.645          estimate D2E/DX2                !
 ! D198  D(59,54,55,56)          6.0475         estimate D2E/DX2                !
 ! D199  D(59,54,55,58)        177.8617         estimate D2E/DX2                !
 ! D200  D(51,54,59,60)       -104.2969         estimate D2E/DX2                !
 ! D201  D(51,54,59,64)         77.0928         estimate D2E/DX2                !
 ! D202  D(55,54,59,60)         71.1768         estimate D2E/DX2                !
 ! D203  D(55,54,59,64)       -107.4335         estimate D2E/DX2                !
 ! D204  D(54,55,56,57)       -151.1509         estimate D2E/DX2                !
 ! D205  D(58,55,56,57)         37.4839         estimate D2E/DX2                !
 ! D206  D(54,55,58,49)          7.5945         estimate D2E/DX2                !
 ! D207  D(54,55,58,116)      -175.839          estimate D2E/DX2                !
 ! D208  D(56,55,58,49)        178.9214         estimate D2E/DX2                !
 ! D209  D(56,55,58,116)        -4.5121         estimate D2E/DX2                !
 ! D210  D(55,56,57,113)       166.9653         estimate D2E/DX2                !
 ! D211  D(55,56,57,114)       -80.2358         estimate D2E/DX2                !
 ! D212  D(55,56,57,115)        39.6289         estimate D2E/DX2                !
 ! D213  D(54,59,60,61)         -4.3623         estimate D2E/DX2                !
 ! D214  D(54,59,60,62)        179.6314         estimate D2E/DX2                !
 ! D215  D(64,59,60,61)        174.3356         estimate D2E/DX2                !
 ! D216  D(64,59,60,62)         -1.6707         estimate D2E/DX2                !
 ! D217  D(54,59,64,63)       -177.2121         estimate D2E/DX2                !
 ! D218  D(60,59,64,63)          3.9648         estimate D2E/DX2                !
 ! D219  D(59,60,62,63)         -2.5063         estimate D2E/DX2                !
 ! D220  D(59,60,62,117)      -179.5214         estimate D2E/DX2                !
 ! D221  D(61,60,62,63)       -178.3231         estimate D2E/DX2                !
 ! D222  D(61,60,62,117)         4.6619         estimate D2E/DX2                !
 ! D223  D(60,62,63,64)          5.3857         estimate D2E/DX2                !
 ! D224  D(60,62,63,65)        177.5081         estimate D2E/DX2                !
 ! D225  D(117,62,63,64)      -178.0822         estimate D2E/DX2                !
 ! D226  D(117,62,63,65)        -5.9598         estimate D2E/DX2                !
 ! D227  D(62,63,64,59)         -5.3235         estimate D2E/DX2                !
 ! D228  D(65,63,64,59)       -178.1376         estimate D2E/DX2                !
 ! D229  D(62,63,65,66)         -9.6752         estimate D2E/DX2                !
 ! D230  D(62,63,65,74)        161.9787         estimate D2E/DX2                !
 ! D231  D(64,63,65,66)        161.7174         estimate D2E/DX2                !
 ! D232  D(64,63,65,74)        -26.6288         estimate D2E/DX2                !
 ! D233  D(63,65,66,67)       -179.9368         estimate D2E/DX2                !
 ! D234  D(63,65,66,118)        -9.793          estimate D2E/DX2                !
 ! D235  D(74,65,66,67)          8.5021         estimate D2E/DX2                !
 ! D236  D(74,65,66,118)       178.6459         estimate D2E/DX2                !
 ! D237  D(63,65,74,71)       -176.5547         estimate D2E/DX2                !
 ! D238  D(63,65,74,125)        10.4044         estimate D2E/DX2                !
 ! D239  D(66,65,74,71)         -4.8102         estimate D2E/DX2                !
 ! D240  D(66,65,74,125)      -177.8511         estimate D2E/DX2                !
 ! D241  D(65,66,67,68)        178.436          estimate D2E/DX2                !
 ! D242  D(65,66,67,70)         -7.5599         estimate D2E/DX2                !
 ! D243  D(118,66,67,68)         8.2236         estimate D2E/DX2                !
 ! D244  D(118,66,67,70)      -177.7723         estimate D2E/DX2                !
 ! D245  D(66,67,68,69)        -70.7979         estimate D2E/DX2                !
 ! D246  D(70,67,68,69)        115.028          estimate D2E/DX2                !
 ! D247  D(66,67,70,71)          2.7864         estimate D2E/DX2                !
 ! D248  D(66,67,70,75)       -172.5827         estimate D2E/DX2                !
 ! D249  D(68,67,70,71)        177.069          estimate D2E/DX2                !
 ! D250  D(68,67,70,75)          1.7            estimate D2E/DX2                !
 ! D251  D(67,68,69,119)        73.1565         estimate D2E/DX2                !
 ! D252  D(67,68,69,120)       -47.1698         estimate D2E/DX2                !
 ! D253  D(67,68,69,121)      -167.5002         estimate D2E/DX2                !
 ! D254  D(67,70,71,72)        175.7128         estimate D2E/DX2                !
 ! D255  D(67,70,71,74)          0.6771         estimate D2E/DX2                !
 ! D256  D(75,70,71,72)         -8.9774         estimate D2E/DX2                !
 ! D257  D(75,70,71,74)        175.9869         estimate D2E/DX2                !
 ! D258  D(67,70,75,76)        -75.8954         estimate D2E/DX2                !
 ! D259  D(67,70,75,80)        107.0952         estimate D2E/DX2                !
 ! D260  D(71,70,75,76)        108.8489         estimate D2E/DX2                !
 ! D261  D(71,70,75,80)        -68.1604         estimate D2E/DX2                !
 ! D262  D(70,71,72,73)        131.2548         estimate D2E/DX2                !
 ! D263  D(74,71,72,73)        -53.6166         estimate D2E/DX2                !
 ! D264  D(70,71,74,65)          0.2601         estimate D2E/DX2                !
 ! D265  D(70,71,74,125)       173.8045         estimate D2E/DX2                !
 ! D266  D(72,71,74,65)       -174.8027         estimate D2E/DX2                !
 ! D267  D(72,71,74,125)        -1.2584         estimate D2E/DX2                !
 ! D268  D(71,72,73,122)       -34.6366         estimate D2E/DX2                !
 ! D269  D(71,72,73,123)      -154.1765         estimate D2E/DX2                !
 ! D270  D(71,72,73,124)        82.6347         estimate D2E/DX2                !
 ! D271  D(70,75,76,77)         -0.7811         estimate D2E/DX2                !
 ! D272  D(70,75,76,78)       -173.9815         estimate D2E/DX2                !
 ! D273  D(80,75,76,77)        176.5489         estimate D2E/DX2                !
 ! D274  D(80,75,76,78)          3.3485         estimate D2E/DX2                !
 ! D275  D(70,75,80,79)        175.8228         estimate D2E/DX2                !
 ! D276  D(76,75,80,79)         -1.6246         estimate D2E/DX2                !
 ! D277  D(75,76,78,79)         -3.6914         estimate D2E/DX2                !
 ! D278  D(75,76,78,126)       179.7396         estimate D2E/DX2                !
 ! D279  D(77,76,78,79)       -177.1832         estimate D2E/DX2                !
 ! D280  D(77,76,78,126)         6.2479         estimate D2E/DX2                !
 ! D281  D(76,78,79,80)          2.3682         estimate D2E/DX2                !
 ! D282  D(76,78,79,127)       178.5648         estimate D2E/DX2                !
 ! D283  D(126,78,79,80)       178.9384         estimate D2E/DX2                !
 ! D284  D(126,78,79,127)       -4.8649         estimate D2E/DX2                !
 ! D285  D(78,79,80,75)         -0.463          estimate D2E/DX2                !
 ! D286  D(127,79,80,75)      -176.6261         estimate D2E/DX2                !
 --------------------------------------------------------------------------------
 Trust Radius=3.00D-01 FncErr=1.00D-07 GrdErr=1.00D-06 EigMax=2.50D+02 EigMin=1.00D-04
 Number of steps in this run=    657 maximum allowed number of steps=    762.
[...]
  Beta virt. eigenvalues --    2.01215   2.01469   2.01850   2.02317   2.02478
  Beta virt. eigenvalues --    2.03252   2.03523   2.03572   2.04283   2.04402
  Beta virt. eigenvalues --    2.04693   2.05028   2.05428   2.05818   2.06056
  Beta virt. eigenvalues --    2.06461   2.06612   2.06887   2.07066   2.07372
  Beta virt. eigenvalues --    2.07535   2.07743   2.07778   2.08784   2.09367
  Beta virt. eigenvalues --    2.09643   2.10002   2.10230   2.10946   2.11036
  Beta virt. eigenvalues --    2.11747   2.12550   2.12689   2.13321   2.13588
  Beta virt. eigenvalues --    2.14414   2.14706   2.15739   2.16196   2.16369
  Beta virt. eigenvalues --    2.16596   2.16724   2.16739   2.16872   2.16970
  Beta virt. eigenvalues --    2.17079   2.17290   2.17572   2.17919   2.17986
  Beta virt. eigenvalues --    2.18181   2.18255   2.18328   2.18447   2.18734
  Beta virt. eigenvalues --    2.19735   2.20124   2.20537   2.20674   2.21101
  Beta virt. eigenvalues --    2.21271   2.21388   2.21640   2.22187   2.22456
  Beta virt. eigenvalues --    2.23328   2.23816   2.24401   2.24757   2.25141
  Beta virt. eigenvalues --    2.25300   2.25542   2.25922   2.26008   2.27109
  Beta virt. eigenvalues --    2.27696   2.27925   2.28781   2.28885   2.29820
  Beta virt. eigenvalues --    2.30163   2.30457   2.30596   2.30864   2.31736
  Beta virt. eigenvalues --    2.31859   2.31959   2.32080   2.32427   2.33180
  Beta virt. eigenvalues --    2.33234   2.33319   2.33427   2.33582   2.34275
  Beta virt. eigenvalues --    2.34938   2.35560   2.36186   2.36626   2.37100
  Beta virt. eigenvalues --    2.37667   2.38101   2.38780   2.39389   2.39723
  Beta virt. eigenvalues --    2.41280   2.41369   2.41554   2.41970   2.42294
  Beta virt. eigenvalues --    2.42489   2.42788   2.42930   2.43439   2.43896
  Beta virt. eigenvalues --    2.44199   2.44359   2.45761   2.46372   2.47020
  Beta virt. eigenvalues --    2.47798   2.48475   2.49835   2.50246   2.50437
  Beta virt. eigenvalues --    2.50489   2.50563   2.50715   2.50754   2.50876
  Beta virt. eigenvalues --    2.51010   2.51145   2.51317   2.52153   2.52295
  Beta virt. eigenvalues --    2.52512   2.52776   2.53434   2.54690   2.55247
  Beta virt. eigenvalues --    2.55586   2.55922   2.56380   2.56874   2.57013
  Beta virt. eigenvalues --    2.57289   2.57730   2.57828   2.58195   2.58255
  Beta virt. eigenvalues --    2.58431   2.58558   2.58627   2.58755   2.59718
  Beta virt. eigenvalues --    2.59723   2.60003   2.60085   2.60669   2.60791
  Beta virt. eigenvalues --    2.60994   2.61660   2.62290   2.62832   2.65065
  Beta virt. eigenvalues --    2.65490   2.65984   2.66181   2.66333   2.66487
  Beta virt. eigenvalues --    2.67911   2.67957   2.68058   2.68425   2.70015
  Beta virt. eigenvalues --    2.70201   2.70453   2.70749   2.72699   2.74760
  Beta virt. eigenvalues --    2.76339   2.77498   2.78348   2.78683   2.78922
  Beta virt. eigenvalues --    2.79082   2.79183   2.79375   2.79832   2.82839
  Beta virt. eigenvalues --    2.83018   2.83076   2.83658   2.83964   2.90040
  Beta virt. eigenvalues --    2.91241   2.91786   2.92319   2.92694   2.98195
  Beta virt. eigenvalues --    2.98277   2.98339   2.98426   2.98582   3.00646
  Beta virt. eigenvalues --    3.00748   3.00842   3.00930   3.01066   3.08191
  Beta virt. eigenvalues --    3.08761   3.09410   3.09903   3.12930   3.13905
  Beta virt. eigenvalues --    3.13935   3.13991   3.14080   3.14376   3.14921
  Beta virt. eigenvalues --    3.15047   3.15158   3.15281   3.15713   3.16239
  Beta virt. eigenvalues --    3.16655   3.16750   3.16855   3.17117   3.17195
  Beta virt. eigenvalues --    3.17618   3.17846   3.18014   3.18135   3.29782
  Beta virt. eigenvalues --    3.29971   3.30155   3.30373   3.34137   3.47916
  Beta virt. eigenvalues --    3.48028   3.48088   3.48176   3.48350   3.52717
  Beta virt. eigenvalues --    3.53167   3.53322   3.53476   3.53686   3.54532
  Beta virt. eigenvalues --    3.55085   3.55159   3.55252   3.55483   3.69010
  Beta virt. eigenvalues --    3.69117   3.69182   3.69298   3.69579   3.70140
  Beta virt. eigenvalues --    3.70303   3.70447   3.70533   3.70638   3.73358
  Beta virt. eigenvalues --    3.73746   3.74156   3.74483   3.77577   3.89700
  Beta virt. eigenvalues --    3.89747   3.89808   3.89921   3.90148   4.09470
  Beta virt. eigenvalues --    4.09569   4.09651   4.09688   4.09767   4.30114
  Beta virt. eigenvalues --    4.30480   4.30558   4.30625   4.30735
          Condensed to atoms (all electrons):
          Atomic-Atomic Spin Densities.
 Mulliken charges and spin densities:
               1          2
     1  C    0.020117  -0.000000
     2  C   -0.065654   0.000000
     3  C    0.130794   0.000000
     4  O   -0.240631   0.000000
     5  C    0.045108   0.000000
     6  C   -0.052822  -0.000000
     7  C    0.130248   0.000000
     8  O   -0.243714   0.000000
     9  C    0.044548  -0.000000
    10  C   -0.065797  -0.000000
    11  C   -0.173152  -0.000000
    12  C    0.163399   0.000000
    13  F   -0.124878  -0.000000
    14  C    0.001372  -0.000000
    15  C   -0.161122  -0.000000
    16  S    0.191495   0.000000
    17  C    0.046197   0.000000
    18  C   -0.065707   0.000000
    19  C    0.137681  -0.000000
    20  O   -0.241971   0.000000
    21  C    0.045996   0.000000
    22  C   -0.040796   0.000000
    23  C    0.141548  -0.000000
    24  O   -0.245068   0.000000
    25  C    0.046808   0.000000
    26  C   -0.067320  -0.000000
    27  C   -0.176693  -0.000000
    28  C    0.161632   0.000000
    29  F   -0.124077   0.000000
    30  C    0.002342   0.000000
    31  C   -0.161002  -0.000000
    32  S    0.191952   0.000000
    33  C    0.045669   0.000000
    34  C   -0.065449  -0.000000
    35  C    0.137568  -0.000000
    36  O   -0.241939   0.000000
    37  C    0.045963   0.000000
    38  C   -0.040500   0.000000
    39  C    0.141523  -0.000000
    40  O   -0.245062  -0.000000
    41  C    0.046792   0.000000
    42  C   -0.067070   0.000000
    43  C   -0.176798  -0.000000
    44  C    0.161557   0.000000
    45  F   -0.124117  -0.000000
    46  C    0.002449  -0.000000
    47  C   -0.161020  -0.000000
    48  S    0.191987  -0.000000
    49  C    0.045466   0.000000
    50  C   -0.067129  -0.000000
    51  C    0.141385   0.000000
    52  O   -0.244951   0.000000
    53  C    0.046873   0.000000
    54  C   -0.040322  -0.000000
    55  C    0.137549  -0.000000
    56  O   -0.241712   0.000000
    57  C    0.045975  -0.000000
    58  C   -0.065377   0.000000
    59  C   -0.176849  -0.000000
    60  C    0.161241   0.000000
    61  F   -0.124262  -0.000000
    62  C    0.002753  -0.000000
    63  C   -0.159500   0.000000
    64  S    0.190980   0.000000
    65  C    0.042875  -0.000000
    66  C   -0.067453   0.000000
    67  C    0.144161  -0.000000
    68  O   -0.240876   0.000000
    69  C    0.047588  -0.000000
    70  C   -0.038370  -0.000000
    71  C    0.140434   0.000000
    72  O   -0.243961   0.000000
    73  C    0.045501  -0.000000
    74  C   -0.066658  -0.000000
    75  C   -0.181987   0.000000
    76  C    0.144363   0.000000
    77  F   -0.127026  -0.000000
    78  C    0.021419  -0.000000
    79  C   -0.141014   0.000000
    80  S    0.180921  -0.000000
    81  H    0.006040   0.000000
    82  H    0.003141  -0.000000
    83  H    0.051515  -0.000000
    84  H    0.049532  -0.000000
    85  H    0.062617   0.000000
    86  H    0.062173   0.000000
    87  H    0.050394   0.000000
    88  H    0.052041   0.000000
    89  H    0.002265   0.000000
    90  H    0.011612   0.000000
    91  H    0.005162  -0.000000
    92  H    0.061946  -0.000000
    93  H    0.053675  -0.000000
    94  H    0.051671  -0.000000
    95  H    0.049823  -0.000000
    96  H    0.054777   0.000000
    97  H    0.062030  -0.000000
    98  H   -0.002884   0.000000
    99  H    0.011776   0.000000
   100  H    0.005118   0.000000
   101  H    0.051676   0.000000
   102  H    0.061957   0.000000
   103  H    0.053723  -0.000000
   104  H    0.062071  -0.000000
   105  H    0.054764  -0.000000
   106  H    0.049842  -0.000000
   107  H   -0.002858   0.000000
   108  H    0.011718  -0.000000
   109  H   -0.002994  -0.000000
   110  H    0.049726  -0.000000
   111  H    0.061843   0.000000
   112  H    0.054656   0.000000
   113  H    0.062132   0.000000
   114  H    0.051560   0.000000
   115  H    0.053603  -0.000000
   116  H    0.004990   0.000000
   117  H    0.012024  -0.000000
   118  H   -0.002849   0.000000
   119  H    0.047956   0.000000
   120  H    0.053832  -0.000000
   121  H    0.062613  -0.000000
   122  H    0.052141   0.000000
   123  H    0.062762   0.000000
   124  H    0.053279   0.000000
   125  H    0.003995   0.000000
   126  H    0.016080  -0.000000
   127  H    0.040909   0.000000
 Sum of Mulliken charges =  -0.00000  -0.00000
 Mulliken charges and spin densities with hydrogens summed into heavy atoms:
               1          2
     1  C    0.026157  -0.000000
     2  C   -0.062513   0.000000
     3  C    0.130794   0.000000
     4  O   -0.240631   0.000000
     5  C    0.208772   0.000000
     6  C   -0.052822  -0.000000
     7  C    0.130248   0.000000
     8  O   -0.243714   0.000000
     9  C    0.209155  -0.000000
    10  C   -0.063532  -0.000000
    11  C   -0.173152  -0.000000
    12  C    0.163399   0.000000
    13  F   -0.124878  -0.000000
    14  C    0.012984  -0.000000
    15  C   -0.161122  -0.000000
    16  S    0.191495   0.000000
    17  C    0.046197   0.000000
    18  C   -0.060545   0.000000
    19  C    0.137681  -0.000000
    20  O   -0.241971   0.000000
    21  C    0.213289   0.000000
    22  C   -0.040796   0.000000
    23  C    0.141548  -0.000000
    24  O   -0.245068   0.000000
    25  C    0.213439   0.000000
    26  C   -0.070204  -0.000000
    27  C   -0.176693  -0.000000
    28  C    0.161632   0.000000
    29  F   -0.124077   0.000000
    30  C    0.014118   0.000000
    31  C   -0.161002  -0.000000
    32  S    0.191952   0.000000
    33  C    0.045669   0.000000
    34  C   -0.060330  -0.000000
    35  C    0.137568  -0.000000
    36  O   -0.241939   0.000000
    37  C    0.213319   0.000000
    38  C   -0.040500   0.000000
    39  C    0.141523  -0.000000
    40  O   -0.245062  -0.000000
    41  C    0.213468   0.000000
    42  C   -0.069927   0.000000
    43  C   -0.176798  -0.000000
    44  C    0.161557   0.000000
    45  F   -0.124117  -0.000000
    46  C    0.014167  -0.000000
    47  C   -0.161020  -0.000000
    48  S    0.191987  -0.000000
    49  C    0.045466   0.000000
    50  C   -0.070124  -0.000000
    51  C    0.141385   0.000000
    52  O   -0.244951   0.000000
    53  C    0.213099   0.000000
    54  C   -0.040322  -0.000000
    55  C    0.137549  -0.000000
    56  O   -0.241712   0.000000
    57  C    0.213270  -0.000000
    58  C   -0.060387   0.000000
    59  C   -0.176849  -0.000000
    60  C    0.161241   0.000000
    61  F   -0.124262  -0.000000
    62  C    0.014777  -0.000000
    63  C   -0.159500   0.000000
    64  S    0.190980   0.000000
    65  C    0.042875  -0.000000
    66  C   -0.070302   0.000000
    67  C    0.144161  -0.000000
    68  O   -0.240876   0.000000
    69  C    0.211989  -0.000000
    70  C   -0.038370  -0.000000
    71  C    0.140434   0.000000
    72  O   -0.243961   0.000000
    73  C    0.213683  -0.000000
    74  C   -0.062664  -0.000000
    75  C   -0.181987   0.000000
    76  C    0.144363   0.000000
    77  F   -0.127026  -0.000000
    78  C    0.037499  -0.000000
    79  C   -0.100105   0.000000
    80  S    0.180921  -0.000000
 Electronic spatial extent (au):  <R**2>=         305654.9209
 Charge=              0.0000 electrons
 Dipole moment (field-independent basis, Debye):
    X=              6.9206    Y=             -0.0001    Z=             -0.0098  Tot=              6.9206
 Quadrupole moment (field-independent basis, Debye-Ang):
   XX=           -411.3971   YY=           -421.6609   ZZ=           -477.6656
   XY=             19.1712   XZ=              3.2949   YZ=              9.3496
 Traceless Quadrupole moment (field-independent basis, Debye-Ang):
   XX=             25.5108   YY=             15.2469   ZZ=            -40.7577
   XY=             19.1712   XZ=              3.2949   YZ=              9.3496
 Octapole moment (field-independent basis, Debye-Ang**2):
  XXX=           2632.7051  YYY=              6.5139  ZZZ=              5.4995  XYY=            -81.7466
  XXY=            118.4090  XXZ=            -86.9116  XZZ=            172.4696  YZZ=             11.2963
  YYZ=              2.1114  XYZ=            466.2426
 Hexadecapole moment (field-independent basis, Debye-Ang**3):
 XXXX=        -336865.9344 YYYY=          -7600.4851 ZZZZ=          -3849.3162 XXXY=           5513.2344
 XXXZ=           -620.6537 YYYX=           -185.6079 YYYZ=             17.8461 ZZZX=            127.1124
 ZZZY=             69.7811 XXYY=         -61330.3677 XXZZ=         -62636.4062 YYZZ=          -1882.4792
 XXYZ=           1910.4231 YYXZ=            142.5599 ZZXY=           -122.2516
 N-N= 1.254929367587D+04 E-N=-3.816226588673D+04  KE= 5.527405136806D+03
 Leave Link  601 at Sat Jul 25 11:34:33 2020, MaxMem=  4026531840 cpu:              11.0 elap:               1.5
 (Enter /opt/ohpc/pub/libs/gaussian/g16-A.03/sandybridge/g16/l9999.exe)

 Test job not archived.
 1\1\GINC-SKYLAKE036\FOpt\ULC-wPBE\CC-pVDZ\C60H47F5O10S5\RDU230\25-Jul-
 2020\0\\#P uLC-wPBE/cc-pVDZ iop(3/107=0393600000, 3/108=0393600000) op
 t\\H47 C60 S5 O10 F5\\0,1\C,-19.2599765281,-0.679870981,0.3391552031\C
 ,-18.8177154678,0.2450417554,-0.5936982608\C,-17.4665947042,0.59426547
 ,-0.6145532114\O,-16.9341099288,1.4692049424,-1.4937933791\C,-17.79492
 10928,2.1132070609,-2.4021102459\C,-16.5666874102,0.027914972,0.301217
 3479\C,-17.0469977562,-0.9083268851,1.2279131628\O,-16.1219384501,-1.4
 172687826,2.0731868045\C,-16.5400267658,-2.3540763277,3.0372371711\C,-
 18.394840065,-1.2663588281,1.250483906\C,-15.1489436851,0.4258541,0.28
 26589534\C,-14.6360911649,1.6848166403,0.3657262919\F,-15.3945592293,2
 .7714964342,0.5416743329\C,-13.2258084273,1.7748570471,0.2652918933\C,
 -12.6549418842,0.5451483996,0.1006892742\S,-13.8525274882,-0.694292688
 1,0.0659601469\C,-11.2223954018,0.2247520914,-0.0286263683\C,-10.71805
 63791,-0.9703418789,0.478106263\C,-9.3601601076,-1.258339986,0.3534738
 319\O,-8.7935150305,-2.3829915705,0.8371016194\C,-9.6253144773,-3.3542
 693827,1.4263691875\C,-8.488108878,-0.3608929537,-0.280417054\C,-9.016
 4741728,0.8396929186,-0.775780377\O,-8.1264817093,1.6627683214,-1.3742
 647334\C,-8.590636087,2.880949432,-1.9066162242\C,-10.3726293675,1.132
 4420889,-0.6580580002\C,-7.0608966989,-0.6892110023,-0.4227044961\C,-6
 .5140134119,-1.8129030271,-0.9651965169\F,-7.243967903,-2.7849012,-1.5
 209399005\C,-5.1000845029,-1.8850347322,-0.917372213\C,-4.5610499998,-
 0.7813580769,-0.3202407399\S,-5.7920085507,0.3186221845,0.175703797\C,
 -3.1357779691,-0.4818961477,-0.0956457849\C,-2.675339306,0.8316845922,
 -0.1382749407\C,-1.3238583428,1.0999662642,0.0713248946\O,-0.798640968
 ,2.34159661,0.0239017679\C,-1.6688552576,3.4321812557,-0.1654788444\C,
 -0.414702097,0.0633934519,0.3296769695\C,-0.8992989467,-1.2520094218,0
 .3596542912\O,0.0249604322,-2.2059141079,0.6115994272\C,-0.3941674165,
 -3.5489793028,0.669035922\C,-2.2486904004,-1.5272059999,0.1544551168\C
 ,1.0050518105,0.3651799357,0.5709113757\C,1.5297024226,1.234455617,1.4
 793240734\F,0.7828204732,1.9153032606,2.3540303779\C,2.9399012537,1.36
 55929912,1.4512921109\C,3.4990315792,0.5704630147,0.4919345736\S,2.290
 9488272,-0.3161829101,-0.3598316937\C,4.9280311561,0.419310691,0.16533
 18341\C,5.7801707438,1.5133543206,0.3033633402\C,7.1332018843,1.375199
 6549,0.0051291066\O,8.0249940165,2.386081529,0.1083541014\C,7.56612589
 44,3.6450976927,0.5406539439\C,7.656100964,0.1538569549,-0.4430589228\
 C,6.781660998,-0.9356021767,-0.570562863\O,7.3431677152,-2.0930205703,
 -0.9763895201\C,6.5083403812,-3.2070510275,-1.1871826564\C,5.426729539
 5,-0.8055341186,-0.2709270464\C,9.0799552126,0.0058825537,-0.783334008
 2\C,9.6152703844,-0.461196312,-1.9457799682\F,8.8746684995,-0.80646709
 27,-3.0035733174\C,11.0290553589,-0.5471939302,-1.9729569501\C,11.5800
 191562,-0.1321374146,-0.794352091\S,10.3602073527,0.3489059531,0.32463
 79156\C,13.0091342844,-0.0611376669,-0.4408558405\C,13.8905188409,-1.0
 053018523,-0.9622536729\C,15.2459518805,-0.9365197634,-0.6457409297\O,
 16.1648951076,-1.8004199786,-1.1254000844\C,15.728993594,-2.8606263638
 ,-1.9420085639\C,15.7368465306,0.0590660451,0.2121949039\C,14.83149258
 89,0.9969576461,0.7264584584\O,15.3657364557,1.9379927878,1.5360653185
 \C,14.510359646,2.9056283748,2.0974843078\C,13.4778971674,0.9444037468
 ,0.4017141896\C,17.1665091871,0.0987750902,0.5616721832\C,17.919948714
 1,-0.9047204363,1.092206031\F,17.4164829757,-2.0982062212,1.4237062539
 \C,19.2934365625,-0.5985647902,1.279699622\C,19.5657716011,0.670248591
 4,0.8731593152\S,18.1754116326,1.4729616822,0.2808715252\H,-20.3162846
 098,-0.9551729752,0.3556352349\H,-19.5218743784,0.682809772,-1.2982671
 539\H,-18.5640004074,2.7057895413,-1.8811093039\H,-18.2849568599,1.394
 6480341,-3.0790096071\H,-17.1636258999,2.7865416176,-2.9927201138\H,-1
 5.6436164658,-2.6238776191,3.6069263342\H,-16.9564290408,-3.2610913029
 ,2.5698263818\H,-17.28648628,-1.9237882547,3.7241737694\H,-18.77341729
 87,-1.9891037069,1.9703300176\H,-12.6764002522,2.7103506566,0.35158555
 81\H,-11.3873827295,-1.6557604524,0.9944097929\H,-8.9684477918,-4.1854
 066413,1.7061386529\H,-10.3865320203,-3.7185477868,0.7181778653\H,-10.
 1232931208,-2.969505365,2.331010482\H,-9.0293247489,3.5244683025,-1.12
 70004929\H,-9.3329352401,2.7183164913,-2.7044163817\H,-7.7124771967,3.
 3800318961,-2.3314194971\H,-10.7869754766,2.0454415933,-1.0795788723\H
 ,-4.5262772619,-2.7050399189,-1.344887313\H,-3.373658523,1.6349464941,
 -0.3651835118\H,-2.1739089843,3.3852356519,-1.1438037928\H,-1.04117585
 56,4.329565866,-0.1300556167\H,-2.4255854439,3.4893745598,0.6331351998
 \H,0.5058325492,-4.1385138084,0.8767366303\H,-1.1251005329,-3.71155203
 11,1.4772784583\H,-0.8295883774,-3.8802686048,-0.2875293958\H,-2.62893
 05103,-2.544144578,0.2192078582\H,3.4980106135,1.9941776709,2.14253392
 82\H,5.3696848364,2.4722478959,0.6115218331\H,7.1380262941,3.595605834
 2,1.5548959006\H,8.4448678081,4.2995898886,0.5538391703\H,6.8167493001
 ,4.0630114846,-0.1505451794\H,7.1610956464,-4.0103076526,-1.5466428302
 \H,6.0190581981,-3.5317127719,-0.2546488772\H,5.7399445157,-2.99850964
 63,-1.9486169928\H,4.755831167,-1.6592502577,-0.3446776514\H,11.594306
 8886,-0.8672189856,-2.8461694715\H,13.5041536065,-1.8006463467,-1.5956
 150046\H,15.2629156525,-2.494477027,-2.8711939608\H,15.0190534962,-3.5
 152704712,-1.4116012567\H,16.6262387582,-3.4363636057,-2.1950773639\H,
 14.0266786662,3.5202095819,1.3211818791\H,15.1457107938,3.5472098465,2
 .7182603473\H,13.7358514366,2.4435118874,2.7303910339\H,12.7828545148,
 1.6900915472,0.7827405808\H,20.0162047572,-1.2955755817,1.6992642191\H
 ,20.523115413,1.18613302,0.9036414947\\Version=EM64L-G16RevA.03\State=
 1-A\HF=-5554.1428409\S2=0.\S2-1=0.\S2A=0.\RMSD=7.622e-09\RMSF=1.198e-0
 6\Dipole=-2.72278,-0.006485,-0.0002279\Quadrupole=18.8910304,11.987969
 1,-30.8789995,14.3671221,-1.80107,-4.8993989\PG=C01 [X(C60H47F5O10S5)]
 \\@


 WE HAVE LEARNED THAT NOTHING IS SIMPLE AND
 RATIONAL EXCEPT WHAT WE OURSELVES HAVE INVENTED;
 THAT GOD THINKS IN TERMS NEITHER OF EUCLID OR RIEMANN; THAT SCIENCE HAS "EXPLAINED" NOTHING;
 THAT THE MORE WE KNOW THE MORE FANTASTIC THE WORLD BECOMES
 AND THE PROFOUNDER THE SURROUNDING DARKNESS.
   --  ALDOUS HUXLEY
 Job cpu time:       2 days 20 hours 21 minutes 46.4 seconds.
 Elapsed time:       0 days  8 hours 40 minutes 37.2 seconds.
 File lengths (MBytes):  RWF=   2116 Int=      0 D2E=      0 Chk=    192 Scr=      8
 Normal termination of Gaussian 16 at Sat Jul 25 11:34:34 2020.
