 Entering Gaussian System, Link 0=g16
 Input=mols_65_1_36_cOC-cOC-C_opt_0.gjf
 Output=mols_65_1_36_cOC-cOC-C_opt_0.log
 Initial command:
 /opt/ohpc/pub/libs/gaussian/g16-A.03/sandybridge/g16/l1.exe "/mnt/gpfs2_4m/scratch/rdu230/ondemand/projects/dihedral_energies/7trial/wtuning/redos_512cycles/redo999cycles/mols_65_1_36_cOC-cOC-C/Gau-73826.inp" -scrdir="/mnt/gpfs2_4m/scratch/rdu230/ondemand/projects/dihedral_energies/7trial/wtuning/redos_512cycles/redo999cycles/mols_65_1_36_cOC-cOC-C/"
 Entering Link 1 = /opt/ohpc/pub/libs/gaussian/g16-A.03/sandybridge/g16/l1.exe PID=     73828.
  
 Copyright (c) 1988,1990,1992,1993,1995,1998,2003,2009,2016,
            Gaussian, Inc.  All Rights Reserved.
  
 This is part of the Gaussian(R) 16 program.  It is based on
 the Gaussian(R) 09 system (copyright 2009, Gaussian, Inc.),
 the Gaussian(R) 03 system (copyright 2003, Gaussian, Inc.),
 the Gaussian(R) 98 system (copyright 1998, Gaussian, Inc.),
 the Gaussian(R) 94 system (copyright 1995, Gaussian, Inc.),
 the Gaussian 92(TM) system (copyright 1992, Gaussian, Inc.),
 the Gaussian 90(TM) system (copyright 1990, Gaussian, Inc.),
 the Gaussian 88(TM) system (copyright 1988, Gaussian, Inc.),
 the Gaussian 86(TM) system (copyright 1986, Carnegie Mellon
 University), and the Gaussian 82(TM) system (copyright 1983,
 Carnegie Mellon University). Gaussian is a federally registered
 trademark of Gaussian, Inc.
  
 This software contains proprietary and confidential information,
 including trade secrets, belonging to Gaussian, Inc.
  
 This software is provided under written license and may be
 used, copied, transmitted, or stored only in accord with that
 written license.
  
 The following legend is applicable only to US Government
 contracts under FAR:
  
                    RESTRICTED RIGHTS LEGEND
  
 Use, reproduction and disclosure by the US Government is
 subject to restrictions as set forth in subparagraphs (a)
 and (c) of the Commercial Computer Software - Restricted
 Rights clause in FAR 52.227-19.
  
 Gaussian, Inc.
 340 Quinnipiac St., Bldg. 40, Wallingford CT 06492
  
  
 ---------------------------------------------------------------
 Warning -- This program may not be used in any manner that
 competes with the business of Gaussian, Inc. or will provide
 assistance to any competitor of Gaussian, Inc.  The licensee
 of this program is prohibited from giving any competitor of
 Gaussian, Inc. access to this program.  By using this program,
 the user acknowledges that Gaussian, Inc. is engaged in the
 business of creating and licensing software in the field of
 computational chemistry and represents and warrants to the
 licensee that it is not a competitor of Gaussian, Inc. and that
 it will not use this program in any manner prohibited above.
 ---------------------------------------------------------------
  

 Cite this work as:
 Gaussian 16, Revision A.03,
 M. J. Frisch, G. W. Trucks, H. B. Schlegel, G. E. Scuseria, 
 M. A. Robb, J. R. Cheeseman, G. Scalmani, V. Barone, 
 G. A. Petersson, H. Nakatsuji, X. Li, M. Caricato, A. V. Marenich, 
 J. Bloino, B. G. Janesko, R. Gomperts, B. Mennucci, H. P. Hratchian, 
 J. V. Ortiz, A. F. Izmaylov, J. L. Sonnenberg, D. Williams-Young, 
 F. Ding, F. Lipparini, F. Egidi, J. Goings, B. Peng, A. Petrone, 
 T. Henderson, D. Ranasinghe, V. G. Zakrzewski, J. Gao, N. Rega, 
 G. Zheng, W. Liang, M. Hada, M. Ehara, K. Toyota, R. Fukuda, 
 J. Hasegawa, M. Ishida, T. Nakajima, Y. Honda, O. Kitao, H. Nakai, 
 T. Vreven, K. Throssell, J. A. Montgomery, Jr., J. E. Peralta, 
 F. Ogliaro, M. J. Bearpark, J. J. Heyd, E. N. Brothers, K. N. Kudin, 
 V. N. Staroverov, T. A. Keith, R. Kobayashi, J. Normand, 
 K. Raghavachari, A. P. Rendell, J. C. Burant, S. S. Iyengar, 
 J. Tomasi, M. Cossi, J. M. Millam, M. Klene, C. Adamo, R. Cammi, 
 J. W. Ochterski, R. L. Martin, K. Morokuma, O. Farkas, 
 J. B. Foresman, and D. J. Fox, Gaussian, Inc., Wallingford CT, 2016.
 
 ******************************************
 Gaussian 16:  EM64L-G16RevA.03 25-Dec-2016
                27-Jul-2020 
 ******************************************
 %mem=30GB
 %nproc=8
 Will use up to    8 processors via shared memory.
 ---------------------------------------------------------------
 #P uLC-wPBE/cc-pVDZ iop(3/107=0216900000, 3/108=0216900000) opt
 ---------------------------------------------------------------
 1/18=20,19=15,26=3,38=1/1,3;
 2/9=110,12=2,17=6,18=5,40=1/2;
 3/5=16,11=2,25=1,30=1,71=1,74=-41,107=216900000,108=216900000,116=2/1,2,3;
 4//1;
 5/5=2,38=5/2;
 6/7=2,8=2,9=2,10=2,28=1/1;
 7//1,2,3,16;
 1/18=20,19=15,26=3/3(2);
 2/9=110/2;
 99//99;
 2/9=110/2;
 3/5=16,11=2,25=1,30=1,71=1,74=-41,107=216900000,108=216900000,116=2/1,2,3;
 4/5=5,16=3,69=1/1;
 5/5=2,38=5/2;
 7//1,2,3,16;
 1/18=20,19=15,26=3/3(-5);
 2/9=110/2;
 6/7=2,8=2,9=2,10=2,19=2,28=1/1;
 99/9=1/99;
 Leave Link    1 at Mon Jul 27 11:15:48 2020, MaxMem=  4026531840 cpu:               1.3 elap:               0.2
 (Enter /opt/ohpc/pub/libs/gaussian/g16-A.03/sandybridge/g16/l101.exe)
 -------------
 H12 C12 S1 O2
 -------------
 Symbolic Z-matrix:
 Charge =  0 Multiplicity = 1
 C                     3.20369   0.65451   0.03601 
 C                     2.73566  -0.6704   -0.02259 
 C                     1.36865  -0.91667   0.06699 
 O                     0.74957  -2.19365   0.07811 
 C                     1.6327   -3.28351  -0.11767 
 C                     0.43661   0.12701   0.15 
 C                     0.97604   1.4647    0.22808 
 O                     0.10958   2.55907   0.40905 
 C                    -0.18497   3.16985  -0.83518 
 C                     2.28351   1.726     0.17585 
 C                    -1.01374  -0.05659   0.27395 
 C                    -1.81864   0.0643    1.40882 
 C                    -3.23579  -0.20142   1.10906 
 C                    -3.33395  -0.60837  -0.21409 
 S                    -1.9308   -0.58206  -1.09775 
 H                     4.27177   0.8325   -0.01026 
 H                     3.43451  -1.47124  -0.01688 
 H                     2.40965  -3.3699    0.6937 
 H                     2.23584  -3.26484  -1.08171 
 H                     1.03648  -4.25793  -0.14563 
 H                     0.74633   3.61648  -1.2502 
 H                    -0.93494   3.90493  -0.76147 
 H                    -0.47833   2.46364  -1.61393 
 H                     2.67952   2.65363   0.25649 
 H                    -1.48695   0.42653   2.38922 
 H                    -4.05196  -0.14921   1.82794 
 H                    -4.30061  -0.91051  -0.68 
 
 ITRead=  0  0  0  0  0  0  0  0  0  0  0  0  0  0  0  0  0  0  0  0
 ITRead=  0  0  0  0  0  0  0
 MicOpt= -1 -1 -1 -1 -1 -1 -1 -1 -1 -1 -1 -1 -1 -1 -1 -1 -1 -1 -1 -1
 MicOpt= -1 -1 -1 -1 -1 -1 -1
 NAtoms=     27 NQM=       27 NQMF=       0 NMMI=      0 NMMIF=      0
                NMic=       0 NMicF=      0.
                    Isotopes and Nuclear Properties:
 (Nuclear quadrupole moments (NQMom) in fm**2, nuclear magnetic moments (NMagM)
  in nuclear magnetons)

  Atom         1           2           3           4           5           6           7           8           9          10
 IAtWgt=          12          12          12          16          12          12          12          16          12          12
 AtmWgt=  12.0000000  12.0000000  12.0000000  15.9949146  12.0000000  12.0000000  12.0000000  15.9949146  12.0000000  12.0000000
 NucSpn=           0           0           0           0           0           0           0           0           0           0
 AtZEff=  -0.0000000  -0.0000000  -0.0000000  -0.0000000  -0.0000000  -0.0000000  -0.0000000  -0.0000000  -0.0000000  -0.0000000
 NQMom=    0.0000000   0.0000000   0.0000000   0.0000000   0.0000000   0.0000000   0.0000000   0.0000000   0.0000000   0.0000000
 NMagM=    0.0000000   0.0000000   0.0000000   0.0000000   0.0000000   0.0000000   0.0000000   0.0000000   0.0000000   0.0000000
 AtZNuc=   6.0000000   6.0000000   6.0000000   8.0000000   6.0000000   6.0000000   6.0000000   8.0000000   6.0000000   6.0000000

  Atom        11          12          13          14          15          16          17          18          19          20
 IAtWgt=          12          12          12          12          32           1           1           1           1           1
 AtmWgt=  12.0000000  12.0000000  12.0000000  12.0000000  31.9720718   1.0078250   1.0078250   1.0078250   1.0078250   1.0078250
 NucSpn=           0           0           0           0           0           1           1           1           1           1
 AtZEff=  -0.0000000  -0.0000000  -0.0000000  -0.0000000  -0.0000000  -0.0000000  -0.0000000  -0.0000000  -0.0000000  -0.0000000
 NQMom=    0.0000000   0.0000000   0.0000000   0.0000000   0.0000000   0.0000000   0.0000000   0.0000000   0.0000000   0.0000000
 NMagM=    0.0000000   0.0000000   0.0000000   0.0000000   0.0000000   2.7928460   2.7928460   2.7928460   2.7928460   2.7928460
 AtZNuc=   6.0000000   6.0000000   6.0000000   6.0000000  16.0000000   1.0000000   1.0000000   1.0000000   1.0000000   1.0000000

  Atom        21          22          23          24          25          26          27
 IAtWgt=           1           1           1           1           1           1           1
 AtmWgt=   1.0078250   1.0078250   1.0078250   1.0078250   1.0078250   1.0078250   1.0078250
 NucSpn=           1           1           1           1           1           1           1
 AtZEff=  -0.0000000  -0.0000000  -0.0000000  -0.0000000  -0.0000000  -0.0000000  -0.0000000
 NQMom=    0.0000000   0.0000000   0.0000000   0.0000000   0.0000000   0.0000000   0.0000000
 NMagM=    2.7928460   2.7928460   2.7928460   2.7928460   2.7928460   2.7928460   2.7928460
 AtZNuc=   1.0000000   1.0000000   1.0000000   1.0000000   1.0000000   1.0000000   1.0000000
 Leave Link  101 at Mon Jul 27 11:15:49 2020, MaxMem=  4026531840 cpu:               4.2 elap:               0.7
 (Enter /opt/ohpc/pub/libs/gaussian/g16-A.03/sandybridge/g16/l103.exe)

 GradGradGradGradGradGradGradGradGradGradGradGradGradGradGradGradGradGrad
 Berny optimization.
 Initialization pass.
                           ----------------------------
                           !    Initial Parameters    !
                           ! (Angstroms and Degrees)  !
 --------------------------                            --------------------------
 ! Name  Definition              Value          Derivative Info.                !
 --------------------------------------------------------------------------------
 ! R1    R(1,2)                  1.4064         estimate D2E/DX2                !
 ! R2    R(1,10)                 1.4193         estimate D2E/DX2                !
 ! R3    R(1,16)                 1.0838         estimate D2E/DX2                !
 ! R4    R(2,3)                  1.3919         estimate D2E/DX2                !
 ! R5    R(2,17)                 1.0629         estimate D2E/DX2                !
 ! R6    R(3,4)                  1.4192         estimate D2E/DX2                !
 ! R7    R(3,6)                  1.4017         estimate D2E/DX2                !
 ! R8    R(4,5)                  1.4164         estimate D2E/DX2                !
 ! R9    R(5,18)                 1.1267         estimate D2E/DX2                !
 ! R10   R(5,19)                 1.1373         estimate D2E/DX2                !
 ! R11   R(5,20)                 1.1427         estimate D2E/DX2                !
 ! R12   R(6,7)                  1.4445         estimate D2E/DX2                !
 ! R13   R(6,11)                 1.4672         estimate D2E/DX2                !
 ! R14   R(7,8)                  1.4075         estimate D2E/DX2                !
 ! R15   R(7,10)                 1.3343         estimate D2E/DX2                !
 ! R16   R(8,9)                  1.417          estimate D2E/DX2                !
 ! R17   R(9,21)                 1.1131         estimate D2E/DX2                !
 ! R18   R(9,22)                 1.0527         estimate D2E/DX2                !
 ! R19   R(9,23)                 1.0914         estimate D2E/DX2                !
 ! R20   R(10,24)                1.0118         estimate D2E/DX2                !
 ! R21   R(11,12)                1.3966         estimate D2E/DX2                !
 ! R22   R(11,15)                1.7317         estimate D2E/DX2                !
 ! R23   R(12,13)                1.4727         estimate D2E/DX2                !
 ! R24   R(12,25)                1.0966         estimate D2E/DX2                !
 ! R25   R(13,14)                1.3878         estimate D2E/DX2                !
 ! R26   R(13,26)                1.0889         estimate D2E/DX2                !
 ! R27   R(14,15)                1.6584         estimate D2E/DX2                !
 ! R28   R(14,27)                1.1148         estimate D2E/DX2                !
 ! A1    A(2,1,10)             119.9712         estimate D2E/DX2                !
 ! A2    A(2,1,16)             118.7444         estimate D2E/DX2                !
 ! A3    A(10,1,16)            121.276          estimate D2E/DX2                !
 ! A4    A(1,2,3)              119.3964         estimate D2E/DX2                !
 ! A5    A(1,2,17)             119.3912         estimate D2E/DX2                !
 ! A6    A(3,2,17)             120.8022         estimate D2E/DX2                !
 ! A7    A(2,3,4)              126.0246         estimate D2E/DX2                !
 ! A8    A(2,3,6)              121.6748         estimate D2E/DX2                !
 ! A9    A(4,3,6)              112.2995         estimate D2E/DX2                !
 ! A10   A(3,4,5)              114.7911         estimate D2E/DX2                !
 ! A11   A(4,5,18)             112.919          estimate D2E/DX2                !
 ! A12   A(4,5,19)             115.7977         estimate D2E/DX2                !
 ! A13   A(4,5,20)             109.5247         estimate D2E/DX2                !
 ! A14   A(18,5,19)            104.2395         estimate D2E/DX2                !
 ! A15   A(18,5,20)            108.1826         estimate D2E/DX2                !
 ! A16   A(19,5,20)            105.6623         estimate D2E/DX2                !
 ! A17   A(3,6,7)              116.386          estimate D2E/DX2                !
 ! A18   A(3,6,11)             124.6891         estimate D2E/DX2                !
 ! A19   A(7,6,11)             118.7171         estimate D2E/DX2                !
 ! A20   A(6,7,8)              119.808          estimate D2E/DX2                !
 ! A21   A(6,7,10)             123.0354         estimate D2E/DX2                !
 ! A22   A(8,7,10)             117.1269         estimate D2E/DX2                !
 ! A23   A(7,8,9)              110.4997         estimate D2E/DX2                !
 ! A24   A(8,9,21)             109.0512         estimate D2E/DX2                !
 ! A25   A(8,9,22)             112.8036         estimate D2E/DX2                !
 ! A26   A(8,9,23)             113.7955         estimate D2E/DX2                !
 ! A27   A(21,9,22)            109.9974         estimate D2E/DX2                !
 ! A28   A(21,9,23)            102.6192         estimate D2E/DX2                !
 ! A29   A(22,9,23)            108.0774         estimate D2E/DX2                !
 ! A30   A(1,10,7)             119.4257         estimate D2E/DX2                !
 ! A31   A(1,10,24)            116.5023         estimate D2E/DX2                !
 ! A32   A(7,10,24)            124.0487         estimate D2E/DX2                !
 ! A33   A(6,11,12)            128.8697         estimate D2E/DX2                !
 ! A34   A(6,11,15)            119.641          estimate D2E/DX2                !
 ! A35   A(12,11,15)           111.3915         estimate D2E/DX2                !
 ! A36   A(11,12,13)           111.9373         estimate D2E/DX2                !
 ! A37   A(11,12,25)           125.5065         estimate D2E/DX2                !
 ! A38   A(13,12,25)           122.1862         estimate D2E/DX2                !
 ! A39   A(12,13,14)           108.3628         estimate D2E/DX2                !
 ! A40   A(12,13,26)           125.3285         estimate D2E/DX2                !
 ! A41   A(14,13,26)           126.1922         estimate D2E/DX2                !
 ! A42   A(13,14,15)           116.3286         estimate D2E/DX2                !
 ! A43   A(13,14,27)           122.6339         estimate D2E/DX2                !
 ! A44   A(15,14,27)           121.0141         estimate D2E/DX2                !
 ! A45   A(11,15,14)            91.7655         estimate D2E/DX2                !
 ! D1    D(10,1,2,3)            -0.439          estimate D2E/DX2                !
 ! D2    D(10,1,2,17)         -173.1489         estimate D2E/DX2                !
 ! D3    D(16,1,2,3)           178.5153         estimate D2E/DX2                !
 ! D4    D(16,1,2,17)            5.8055         estimate D2E/DX2                !
 ! D5    D(2,1,10,7)            -1.1151         estimate D2E/DX2                !
 ! D6    D(2,1,10,24)          177.1984         estimate D2E/DX2                !
 ! D7    D(16,1,10,7)          179.9575         estimate D2E/DX2                !
 ! D8    D(16,1,10,24)          -1.729          estimate D2E/DX2                !
 ! D9    D(1,2,3,4)           -177.2984         estimate D2E/DX2                !
 ! D10   D(1,2,3,6)              3.1175         estimate D2E/DX2                !
 ! D11   D(17,2,3,4)            -4.694          estimate D2E/DX2                !
 ! D12   D(17,2,3,6)           175.722          estimate D2E/DX2                !
 ! D13   D(2,3,4,5)             -4.7309         estimate D2E/DX2                !
 ! D14   D(6,3,4,5)            174.8865         estimate D2E/DX2                !
 ! D15   D(2,3,6,7)             -4.0214         estimate D2E/DX2                !
 ! D16   D(2,3,6,11)          -178.697          estimate D2E/DX2                !
 ! D17   D(4,3,6,7)            176.3422         estimate D2E/DX2                !
 ! D18   D(4,3,6,11)             1.6666         estimate D2E/DX2                !
 ! D19   D(3,4,5,18)            62.2391         estimate D2E/DX2                !
 ! D20   D(3,4,5,19)           -57.8267         estimate D2E/DX2                !
 ! D21   D(3,4,5,20)          -177.1376         estimate D2E/DX2                !
 ! D22   D(3,6,7,8)           -175.5142         estimate D2E/DX2                !
 ! D23   D(3,6,7,10)             2.4465         estimate D2E/DX2                !
 ! D24   D(11,6,7,8)            -0.5054         estimate D2E/DX2                !
 ! D25   D(11,6,7,10)          177.4554         estimate D2E/DX2                !
 ! D26   D(3,6,11,12)          102.5071         estimate D2E/DX2                !
 ! D27   D(3,6,11,15)          -73.5661         estimate D2E/DX2                !
 ! D28   D(7,6,11,12)          -72.0539         estimate D2E/DX2                !
 ! D29   D(7,6,11,15)          111.8729         estimate D2E/DX2                !
 ! D30   D(6,7,8,9)            -97.0672         estimate D2E/DX2                !
 ! D31   D(10,7,8,9)            84.8537         estimate D2E/DX2                !
 ! D32   D(6,7,10,1)             0.0641         estimate D2E/DX2                !
 ! D33   D(6,7,10,24)         -178.1142         estimate D2E/DX2                !
 ! D34   D(8,7,10,1)           178.076          estimate D2E/DX2                !
 ! D35   D(8,7,10,24)           -0.1024         estimate D2E/DX2                !
 ! D36   D(7,8,9,21)           -65.6308         estimate D2E/DX2                !
 ! D37   D(7,8,9,22)           171.8449         estimate D2E/DX2                !
 ! D38   D(7,8,9,23)            48.2526         estimate D2E/DX2                !
 ! D39   D(6,11,12,13)         179.9337         estimate D2E/DX2                !
 ! D40   D(6,11,12,25)           6.8243         estimate D2E/DX2                !
 ! D41   D(15,11,12,13)         -3.7314         estimate D2E/DX2                !
 ! D42   D(15,11,12,25)       -176.8408         estimate D2E/DX2                !
 ! D43   D(6,11,15,14)         177.8827         estimate D2E/DX2                !
 ! D44   D(12,11,15,14)          1.1654         estimate D2E/DX2                !
 ! D45   D(11,12,13,14)          4.9532         estimate D2E/DX2                !
 ! D46   D(11,12,13,26)       -178.7762         estimate D2E/DX2                !
 ! D47   D(25,12,13,14)        178.3266         estimate D2E/DX2                !
 ! D48   D(25,12,13,26)         -5.4029         estimate D2E/DX2                !
 ! D49   D(12,13,14,15)         -4.2362         estimate D2E/DX2                !
 ! D50   D(12,13,14,27)        177.5084         estimate D2E/DX2                !
 ! D51   D(26,13,14,15)        179.5339         estimate D2E/DX2                !
 ! D52   D(26,13,14,27)          1.2785         estimate D2E/DX2                !
 ! D53   D(13,14,15,11)          1.9306         estimate D2E/DX2                !
 ! D54   D(27,14,15,11)       -179.7836         estimate D2E/DX2                !
 --------------------------------------------------------------------------------
 Trust Radius=3.00D-01 FncErr=1.00D-07 GrdErr=1.00D-06 EigMax=2.50D+02 EigMin=1.00D-04
 Number of steps in this run=    137 maximum allowed number of steps=    162.
 GradGradGradGradGradGradGradGradGradGradGradGradGradGradGradGradGradGrad

 Leave Link  103 at Mon Jul 27 11:15:49 2020, MaxMem=  4026531840 cpu:               0.3 elap:               0.1
 (Enter /opt/ohpc/pub/libs/gaussian/g16-A.03/sandybridge/g16/l202.exe)
                          Input orientation:                          
 ---------------------------------------------------------------------
 Center     Atomic      Atomic             Coordinates (Angstroms)
 Number     Number       Type             X           Y           Z
 ---------------------------------------------------------------------
      1          6           0        3.203687    0.654510    0.036006
      2          6           0        2.735656   -0.670395   -0.022587
      3          6           0        1.368645   -0.916671    0.066991
      4          8           0        0.749570   -2.193645    0.078107
      5          6           0        1.632701   -3.283514   -0.117669
      6          6           0        0.436613    0.127008    0.149998
      7          6           0        0.976042    1.464695    0.228081
      8          8           0        0.109576    2.559073    0.409046
      9          6           0       -0.184974    3.169854   -0.835184
     10          6           0        2.283514    1.725997    0.175852
     11          6           0       -1.013741   -0.056592    0.273946
     12          6           0       -1.818643    0.064301    1.408817
     13          6           0       -3.235795   -0.201415    1.109065
     14          6           0       -3.333953   -0.608367   -0.214087
     15         16           0       -1.930801   -0.582055   -1.097752
     16          1           0        4.271771    0.832496   -0.010263
     17          1           0        3.434507   -1.471235   -0.016881
     18          1           0        2.409647   -3.369898    0.693695
     19          1           0        2.235842   -3.264839   -1.081712
     20          1           0        1.036475   -4.257928   -0.145628
     21          1           0        0.746330    3.616481   -1.250201
     22          1           0       -0.934935    3.904932   -0.761465
     23          1           0       -0.478325    2.463640   -1.613931
     24          1           0        2.679518    2.653628    0.256490
     25          1           0       -1.486945    0.426533    2.389220
     26          1           0       -4.051961   -0.149205    1.827939
     27          1           0       -4.300614   -0.910508   -0.680001
 ---------------------------------------------------------------------
                    Distance matrix (angstroms):
                    1          2          3          4          5
     1  C    0.000000
     2  C    1.406364   0.000000
     3  C    2.415978   1.391903   0.000000
     4  O    3.759847   2.504989   1.419169   0.000000
     5  C    4.242599   2.837947   2.388676   1.416356   0.000000
     6  C    2.819211   2.439515   1.401727   2.342763   3.624077
     7  C    2.378170   2.778072   2.418882   3.668410   4.805854
     8  O    3.652402   4.184742   3.712553   4.807020   6.060789
     9  C    4.309171   4.892638   4.464005   5.520380   6.742754
    10  C    1.419281   2.446734   2.798666   4.210241   5.060130
    11  C    4.283571   3.810861   2.541324   2.777519   4.191664
    12  C    5.239919   4.830149   3.594664   3.669445   5.044779
    13  C    6.584147   6.095802   4.774765   4.573291   5.891219
    14  C    6.663193   6.072946   4.721068   4.390176   5.642106
    15  S    5.401617   4.789531   3.514959   3.341295   4.577881
    16  H    1.083800   2.149066   3.390235   4.644485   4.890579
    17  H    2.138894   1.062906   2.140645   2.782047   2.557541
    18  H    4.154385   2.811878   2.737657   2.125647   1.126685
    19  H    4.188951   2.846524   2.754168   2.168327   1.137324
    20  H    5.372322   3.971492   3.364453   2.096100   1.142694
    21  H    4.057857   4.882802   4.761485   5.960032   7.048277
    22  H    5.322537   5.912089   5.407465   6.382404   7.660351
    23  H    4.421816   4.762796   4.202773   5.105000   6.302778
    24  H    2.078422   3.336190   3.808062   5.220400   6.040321
    25  H    5.252772   4.985020   3.918078   4.148322   5.457209
    26  H    7.516742   7.054632   5.750905   5.504212   6.776774
    27  H    7.699122   7.070993   5.718263   5.265503   6.414951
                    6          7          8          9         10
     6  C    0.000000
     7  C    1.444468   0.000000
     8  O    2.467590   1.407542   0.000000
     9  C    3.258200   2.320788   1.417011   0.000000
    10  C    2.443047   1.334350   2.339744   3.033208   0.000000
    11  C    1.467174   2.505126   2.849877   3.510980   3.749552
    12  C    2.583551   3.341482   3.307787   4.165198   4.594467
    13  C    3.809757   4.614285   4.393385   4.945004   5.920184
    14  C    3.858821   4.803036   4.720049   4.957498   6.095674
    15  S    2.768447   3.794306   4.037358   4.146526   4.970877
    16  H    3.902798   3.364270   4.525567   5.099639   2.187727
    17  H    3.401411   3.837153   5.242133   5.942219   3.403560
    18  H    4.051768   5.064120   6.365850   7.199853   5.123692
    19  H    4.032240   5.066670   6.376623   6.879419   5.147056
    20  H    4.435639   5.735131   6.902051   7.559059   6.120932
    21  H    3.772652   2.620738   2.068011   1.113123   2.823206
    22  H    4.121240   3.253581   2.066987   1.052718   3.998091
    23  H    3.067313   2.550702   2.108832   1.091439   3.372713
    24  H    3.380203   2.077546   2.576202   3.108626   1.011840
    25  H    2.967138   3.437238   3.319291   4.429190   4.561136
    26  H    4.799904   5.517702   5.163954   5.749953   6.810581
    27  H    4.920026   5.857414   5.716099   5.797580   7.143835
                   11         12         13         14         15
    11  C    0.000000
    12  C    1.396572   0.000000
    13  C    2.378218   1.472676   0.000000
    14  C    2.434341   2.320014   1.387795   0.000000
    15  S    1.731666   2.590993   2.591898   1.658430   0.000000
    16  H    5.367298   6.300560   7.660641   7.743686   6.454106
    17  H    4.676826   5.655623   6.882814   6.826088   5.544858
    18  H    4.782653   5.493957   6.487128   6.437318   5.460846
    19  H    4.763449   5.807302   6.642506   6.231551   4.955653
    20  H    4.693682   5.408296   6.023441   5.694262   4.819057
    21  H    4.348832   5.125178   5.999982   5.964192   4.981764
    22  H    4.095358   4.499057   5.065069   5.140504   4.608459
    23  H    3.194107   4.085375   4.703282   4.421697   3.413559
    24  H    4.581022   5.316571   6.623374   6.857397   5.792983
    25  H    2.220747   1.096552   2.256456   3.355542   3.656943
    26  H    3.413832   2.282314   1.088868   2.212744   3.639553
    27  H    3.527424   3.387269   2.199411   1.114809   2.428664
                   16         17         18         19         20
    16  H    0.000000
    17  H    2.451169   0.000000
    18  H    4.650073   2.271602   0.000000
    19  H    4.699060   2.405759   1.786985   0.000000
    20  H    6.033066   3.678694   1.838114   1.816854   0.000000
    21  H    4.660124   5.884915   7.440084   7.042698   7.956795
    22  H    6.092122   6.967754   8.137989   7.846146   8.420095
    23  H    5.272172   5.774432   6.906206   6.361244   7.044857
    24  H    2.433711   4.202289   6.045399   6.084068   7.115539
    25  H    6.251811   5.797546   5.698344   6.287507   5.893834
    26  H    8.580632   7.822936   7.308334   7.596691   6.831453
    27  H    8.773391   7.783716   7.277585   6.959131   6.322602
                   21         22         23         24         25
    21  H    0.000000
    22  H    1.774463   0.000000
    23  H    1.720791   1.735659   0.000000
    24  H    2.633329   3.958063   3.675125   0.000000
    25  H    5.329978   4.725547   4.603514   5.183426   0.000000
    26  H    6.832198   5.732093   5.607522   7.459097   2.688088
    27  H    6.803705   5.875619   5.183338   7.893182   4.373160
                   26         27
    26  H    0.000000
    27  H    2.632712   0.000000
 Stoichiometry    C12H12O2S
 Framework group  C1[X(C12H12O2S)]
 Deg. of freedom    75
 Full point group                 C1      NOp   1
 Largest Abelian subgroup         C1      NOp   1
 Largest concise Abelian subgroup C1      NOp   1
                         Standard orientation:                         
 ---------------------------------------------------------------------
 Center     Atomic      Atomic             Coordinates (Angstroms)
 Number     Number       Type             X           Y           Z
 ---------------------------------------------------------------------
      1          6           0        3.210728    0.598253    0.060465
      2          6           0        2.730201   -0.721993   -0.001997
      3          6           0        1.360335   -0.955017    0.079018
      4          8           0        0.728812   -2.225914    0.085375
      5          6           0        1.602485   -3.324189   -0.105811
      6          6           0        0.438007    0.097624    0.157102
      7          6           0        0.989933    1.429944    0.239500
      8          8           0        0.133059    2.532575    0.415981
      9          6           0       -0.147899    3.147060   -0.829568
     10          6           0        2.300181    1.678546    0.195481
     11          6           0       -1.014797   -0.071940    0.272023
     12          6           0       -1.825431    0.055989    1.402032
     13          6           0       -3.243235   -0.195715    1.093402
     14          6           0       -3.337229   -0.600770   -0.230634
     15         16           0       -1.928494   -0.587498   -1.105665
     16          1           0        4.280757    0.765869    0.020875
     17          1           0        3.421181   -1.529600    0.007385
     18          1           0        2.373562   -3.418695    0.710232
     19          1           0        2.211681   -3.310712   -1.066126
     20          1           0        0.996992   -4.292735   -0.138160
     21          1           0        0.790234    3.584892   -1.238533
     22          1           0       -0.891112    3.889350   -0.759889
     23          1           0       -0.443323    2.444277   -1.610632
     24          1           0        2.704687    2.602223    0.279245
     25          1           0       -1.496245    0.414293    2.384723
     26          1           0       -4.063249   -0.136066    1.807301
     27          1           0       -4.303907   -0.893165   -0.702690
 ---------------------------------------------------------------------
 Rotational constants (GHZ):           0.6996998           0.5156443           0.3396541
 Leave Link  202 at Mon Jul 27 11:15:49 2020, MaxMem=  4026531840 cpu:               0.1 elap:               0.0
 (Enter /opt/ohpc/pub/libs/gaussian/g16-A.03/sandybridge/g16/l301.exe)
 Standard basis: CC-pVDZ (5D, 7F)
 Ernie: Thresh=  0.10000D-02 Tol=  0.10000D-05 Strict=F.
 Ernie:  38 primitive shells out of 418 were deleted.
 There are   289 symmetry adapted cartesian basis functions of A   symmetry.
 There are   274 symmetry adapted basis functions of A   symmetry.
   274 basis functions,   617 primitive gaussians,   289 cartesian basis functions
    58 alpha electrons       58 beta electrons
       nuclear repulsion energy      1086.3941936080 Hartrees.
 IExCor=32609 DFT=T Ex+Corr=LC-wPBE ExCW=0 ScaHFX=  1.000000
 ScaDFX=  1.000000  0.000000  1.000000  1.000000 ScalE2=  1.000000  1.000000
 IRadAn=      5 IRanWt=     -1 IRanGd=            0 ICorTp=0 IEmpDi=  4
 HFx  wShort=  0.000000 wLong=  0.216900 cFull=  0.000000 cShort=  0.000000 cLong=  1.000000
 DFx  wShort=  0.000000 wLong=  0.216900 cFull=  0.000000 cShort=  0.000000 cLong=  1.000000
 NAtoms=   27 NActive=   27 NUniq=   27 SFac= 1.00D+00 NAtFMM=   60 NAOKFM=F Big=F
 Integral buffers will be    131072 words long.
 Raffenetti 2 integral format.
 Two-electron integral symmetry is turned on.
 Leave Link  301 at Mon Jul 27 11:15:49 2020, MaxMem=  4026531840 cpu:               0.4 elap:               0.1
 (Enter /opt/ohpc/pub/libs/gaussian/g16-A.03/sandybridge/g16/l302.exe)
 NPDir=0 NMtPBC=     1 NCelOv=     1 NCel=       1 NClECP=     1 NCelD=      1
         NCelK=      1 NCelE2=     1 NClLst=     1 CellRange=     0.0.
 One-electron integrals computed using PRISM.
 One-electron integral symmetry used in STVInt
 NBasis=   274 RedAO= T EigKep=  3.04D-04  NBF=   274
 NBsUse=   274 1.00D-06 EigRej= -1.00D+00 NBFU=   274
 Precomputing XC quadrature grid using
 IXCGrd= 4 IRadAn=           5 IRanWt=          -1 IRanGd=           0 AccXCQ= 0.00D+00.
 Generated NRdTot=       0 NPtTot=           0 NUsed=           0 NTot=          32
 NSgBfM=   289   289   289   289   289 MxSgAt=    27 MxSgA2=    27.
 Leave Link  302 at Mon Jul 27 11:15:50 2020, MaxMem=  4026531840 cpu:               5.7 elap:               0.9
 (Enter /opt/ohpc/pub/libs/gaussian/g16-A.03/sandybridge/g16/l303.exe)
 DipDrv:  MaxL=1.
 Leave Link  303 at Mon Jul 27 11:15:50 2020, MaxMem=  4026531840 cpu:               0.6 elap:               0.2
 (Enter /opt/ohpc/pub/libs/gaussian/g16-A.03/sandybridge/g16/l401.exe)
 ExpMin= 1.22D-01 ExpMax= 1.11D+05 ExpMxC= 1.07D+03 IAcc=3 IRadAn=         5 AccDes= 0.00D+00
 Harris functional with IExCor=32609 and IRadAn=       5 diagonalized for initial guess.
 HarFok:  IExCor=32609 AccDes= 0.00D+00 IRadAn=         5 IDoV= 1 UseB2=F ITyADJ=14
 ICtDFT=  3500011 ScaDFX=  1.000000  1.000000  1.000000  1.000000
 FoFCou: FMM=F IPFlag=           0 FMFlag=      100000 FMFlg1=           0
         NFxFlg=           0 DoJE=T BraDBF=F KetDBF=T FulRan=T
         wScrn=  0.000000 ICntrl=       500 IOpCl=  0 I1Cent=   200000004 NGrid=           0
         NMat0=    1 NMatS0=      1 NMatT0=    0 NMatD0=    1 NMtDS0=    0 NMtDT0=    0
 Petite list used in FoFCou.
 Harris En= -1012.45259400256    
 JPrj=0 DoOrth=F DoCkMO=F.
 Initial guess <Sx>= 0.0000 <Sy>= 0.0000 <Sz>= 0.0000 <S**2>= 0.0000 S= 0.0000
 Leave Link  401 at Mon Jul 27 11:15:52 2020, MaxMem=  4026531840 cpu:              14.8 elap:               1.9
 (Enter /opt/ohpc/pub/libs/gaussian/g16-A.03/sandybridge/g16/l502.exe)
 Integral symmetry usage will be decided dynamically.
 UHF open shell SCF:
 Using DIIS extrapolation, IDIIS=  1040.
 NGot=  4026531840 LenX=  4026359341 LenY=  4026275379
 Requested convergence on RMS density matrix=1.00D-08 within 128 cycles.
 Requested convergence on MAX density matrix=1.00D-06.
 Requested convergence on             energy=1.00D-06.
 No special actions if energy rises.
 Fock matrices will be formed incrementally for  20 cycles.
 Integral accuracy reduced to 1.0D-05 until final iterations.

 Cycle   1  Pass 0  IDiag  1:
 FoFJK:  IHMeth= 1 ICntrl=       0 DoSepK=T KAlg= 0 I1Cent=           0 FoldK=F
 IRaf=         1 NMat=       1 IRICut=       1 DoRegI=T DoRafI=F ISym2E= 0 IDoP0=0 IntGTp=1.
 FoFCou: FMM=F IPFlag=           0 FMFlag=      100000 FMFlg1=           0
         NFxFlg=           0 DoJE=T BraDBF=F KetDBF=F FulRan=T
         wScrn=  0.000000 ICntrl=       500 IOpCl=  0 I1Cent=           0 NGrid=           0
         NMat0=    1 NMatS0=      1 NMatT0=    0 NMatD0=    1 NMtDS0=    0 NMtDT0=    0
 Symmetry not used in FoFCou.
 E= -1012.10909799782    
 DIIS: error= 2.01D-02 at cycle   1 NSaved=   1.
 NSaved= 1 IEnMin= 1 EnMin= -1012.10909799782     IErMin= 1 ErrMin= 2.01D-02
 ErrMax= 2.01D-02  0.00D+00 EMaxC= 1.00D-01 BMatC= 1.14D+00 BMatP= 1.14D+00
 IDIUse=3 WtCom= 7.99D-01 WtEn= 2.01D-01
 Coeff-Com:  0.100D+01
 Coeff-En:   0.100D+01
 Coeff:      0.100D+01
 Gap=     0.390 Goal=   None    Shift=    0.000
 Gap=     0.390 Goal=   None    Shift=    0.000
 GapD=    0.390 DampG=1.000 DampE=0.500 DampFc=0.5000 IDamp=-1.
 Damping current iteration by 5.00D-01
 RMSDP=4.28D-03 MaxDP=1.55D-01              OVMax= 2.33D-01

 Cycle   2  Pass 0  IDiag  1:
 RMSU=  2.13D-03    CP:  9.90D-01
 E= -1012.26605450039     Delta-E=       -0.156956502574 Rises=F Damp=T
 DIIS: error= 4.41D-03 at cycle   2 NSaved=   2.
 NSaved= 2 IEnMin= 2 EnMin= -1012.26605450039     IErMin= 2 ErrMin= 4.41D-03
 ErrMax= 4.41D-03  0.00D+00 EMaxC= 1.00D-01 BMatC= 5.20D-02 BMatP= 1.14D+00
 IDIUse=3 WtCom= 9.56D-01 WtEn= 4.41D-02
 Coeff-Com:  0.146D-01 0.985D+00
 Coeff-En:   0.000D+00 0.100D+01
 Coeff:      0.139D-01 0.986D+00
 Gap=     0.386 Goal=   None    Shift=    0.000
 Gap=     0.386 Goal=   None    Shift=    0.000
 RMSDP=1.08D-03 MaxDP=2.65D-02 DE=-1.57D-01 OVMax= 1.50D-01

 Cycle   3  Pass 0  IDiag  1:
 RMSU=  1.07D-03    CP:  9.85D-01  1.02D+00
 E= -1012.43002052347     Delta-E=       -0.163966023077 Rises=F Damp=F
 DIIS: error= 3.90D-03 at cycle   3 NSaved=   3.
 NSaved= 3 IEnMin= 3 EnMin= -1012.43002052347     IErMin= 3 ErrMin= 3.90D-03
 ErrMax= 3.90D-03  0.00D+00 EMaxC= 1.00D-01 BMatC= 2.74D-02 BMatP= 5.20D-02
 IDIUse=3 WtCom= 9.61D-01 WtEn= 3.90D-02
 Coeff-Com: -0.208D-01 0.413D+00 0.608D+00
 Coeff-En:   0.000D+00 0.000D+00 0.100D+01
 Coeff:     -0.200D-01 0.397D+00 0.623D+00
 Gap=     0.321 Goal=   None    Shift=    0.000
 Gap=     0.321 Goal=   None    Shift=    0.000
 RMSDP=4.38D-04 MaxDP=1.52D-02 DE=-1.64D-01 OVMax= 3.57D-02

 Cycle   4  Pass 0  IDiag  1:
 RMSU=  3.13D-04    CP:  9.86D-01  1.09D+00  7.49D-01
 E= -1012.43655275429     Delta-E=       -0.006532230822 Rises=F Damp=F
 DIIS: error= 1.64D-03 at cycle   4 NSaved=   4.
 NSaved= 4 IEnMin= 4 EnMin= -1012.43655275429     IErMin= 4 ErrMin= 1.64D-03
 ErrMax= 1.64D-03  0.00D+00 EMaxC= 1.00D-01 BMatC= 4.12D-03 BMatP= 2.74D-02
 IDIUse=3 WtCom= 9.84D-01 WtEn= 1.64D-02
 Coeff-Com: -0.158D-02 0.586D-01 0.285D+00 0.658D+00
 Coeff-En:   0.000D+00 0.000D+00 0.499D-01 0.950D+00
 Coeff:     -0.155D-02 0.576D-01 0.282D+00 0.662D+00
 Gap=     0.315 Goal=   None    Shift=    0.000
 Gap=     0.315 Goal=   None    Shift=    0.000
 RMSDP=1.43D-04 MaxDP=6.05D-03 DE=-6.53D-03 OVMax= 9.82D-03

 Cycle   5  Pass 0  IDiag  1:
 RMSU=  9.93D-05    CP:  9.85D-01  1.08D+00  8.21D-01  8.01D-01
 E= -1012.43756083639     Delta-E=       -0.001008082099 Rises=F Damp=F
 DIIS: error= 3.38D-04 at cycle   5 NSaved=   5.
 NSaved= 5 IEnMin= 5 EnMin= -1012.43756083639     IErMin= 5 ErrMin= 3.38D-04
 ErrMax= 3.38D-04  0.00D+00 EMaxC= 1.00D-01 BMatC= 4.22D-04 BMatP= 4.12D-03
 IDIUse=3 WtCom= 9.97D-01 WtEn= 3.38D-03
 Coeff-Com:  0.372D-02-0.128D-01 0.775D-01 0.307D+00 0.624D+00
 Coeff-En:   0.000D+00 0.000D+00 0.000D+00 0.000D+00 0.100D+01
 Coeff:      0.371D-02-0.127D-01 0.772D-01 0.306D+00 0.625D+00
 Gap=     0.317 Goal=   None    Shift=    0.000
 Gap=     0.317 Goal=   None    Shift=    0.000
 RMSDP=4.85D-05 MaxDP=2.10D-03 DE=-1.01D-03 OVMax= 2.91D-03

 Cycle   6  Pass 0  IDiag  1:
 RMSU=  3.86D-05    CP:  9.85D-01  1.08D+00  8.34D-01  8.65D-01  8.44D-01
 E= -1012.43766845518     Delta-E=       -0.000107618796 Rises=F Damp=F
 DIIS: error= 1.34D-04 at cycle   6 NSaved=   6.
 NSaved= 6 IEnMin= 6 EnMin= -1012.43766845518     IErMin= 6 ErrMin= 1.34D-04
 ErrMax= 1.34D-04  0.00D+00 EMaxC= 1.00D-01 BMatC= 4.73D-05 BMatP= 4.22D-04
 IDIUse=3 WtCom= 9.99D-01 WtEn= 1.34D-03
 Coeff-Com:  0.302D-02-0.169D-01-0.920D-02 0.316D-01 0.253D+00 0.738D+00
 Coeff-En:   0.000D+00 0.000D+00 0.000D+00 0.000D+00 0.000D+00 0.100D+01
 Coeff:      0.301D-02-0.169D-01-0.919D-02 0.315D-01 0.253D+00 0.738D+00
 Gap=     0.317 Goal=   None    Shift=    0.000
 Gap=     0.317 Goal=   None    Shift=    0.000
 RMSDP=2.07D-05 MaxDP=9.43D-04 DE=-1.08D-04 OVMax= 1.79D-03

 Cycle   7  Pass 0  IDiag  1:
 RMSU=  1.45D-05    CP:  9.85D-01  1.08D+00  8.41D-01  8.76D-01  9.66D-01
                    CP:  9.63D-01
 E= -1012.43768504805     Delta-E=       -0.000016592864 Rises=F Damp=F
 DIIS: error= 7.95D-05 at cycle   7 NSaved=   7.
 NSaved= 7 IEnMin= 7 EnMin= -1012.43768504805     IErMin= 7 ErrMin= 7.95D-05
 ErrMax= 7.95D-05  0.00D+00 EMaxC= 1.00D-01 BMatC= 8.50D-06 BMatP= 4.73D-05
 IDIUse=1 WtCom= 1.00D+00 WtEn= 0.00D+00
 Coeff-Com:  0.107D-02-0.587D-02-0.114D-01-0.227D-01 0.199D-01 0.323D+00
 Coeff-Com:  0.696D+00
 Coeff:      0.107D-02-0.587D-02-0.114D-01-0.227D-01 0.199D-01 0.323D+00
 Coeff:      0.696D+00
 Gap=     0.316 Goal=   None    Shift=    0.000
 Gap=     0.316 Goal=   None    Shift=    0.000
 RMSDP=9.47D-06 MaxDP=3.81D-04 DE=-1.66D-05 OVMax= 8.11D-04

 Initial convergence to 1.0D-05 achieved.  Increase integral accuracy.
 Cycle   8  Pass 1  IDiag  1:
 E= -1012.43751877777     Delta-E=        0.000166270275 Rises=F Damp=F
 DIIS: error= 1.08D-04 at cycle   1 NSaved=   1.
 NSaved= 1 IEnMin= 1 EnMin= -1012.43751877777     IErMin= 1 ErrMin= 1.08D-04
 ErrMax= 1.08D-04  0.00D+00 EMaxC= 1.00D-01 BMatC= 4.32D-06 BMatP= 4.32D-06
 IDIUse=3 WtCom= 9.99D-01 WtEn= 1.08D-03
 Coeff-Com:  0.100D+01
 Coeff-En:   0.100D+01
 Coeff:      0.100D+01
 Gap=     0.317 Goal=   None    Shift=    0.000
 Gap=     0.317 Goal=   None    Shift=    0.000
 RMSDP=9.47D-06 MaxDP=3.81D-04 DE= 1.66D-04 OVMax= 3.78D-04

 Cycle   9  Pass 1  IDiag  1:
 RMSU=  5.48D-05    CP:  1.00D+00
 E= -1012.43751960189     Delta-E=       -0.000000824115 Rises=F Damp=F
 DIIS: error= 2.72D-05 at cycle   2 NSaved=   2.
 NSaved= 2 IEnMin= 2 EnMin= -1012.43751960189     IErMin= 2 ErrMin= 2.72D-05
 ErrMax= 2.72D-05  0.00D+00 EMaxC= 1.00D-01 BMatC= 1.93D-06 BMatP= 4.32D-06
 IDIUse=1 WtCom= 1.00D+00 WtEn= 0.00D+00
 Coeff-Com:  0.362D+00 0.638D+00
 Coeff:      0.362D+00 0.638D+00
 Gap=     0.317 Goal=   None    Shift=    0.000
 Gap=     0.317 Goal=   None    Shift=    0.000
 RMSDP=4.33D-06 MaxDP=2.00D-04 DE=-8.24D-07 OVMax= 2.49D-04

 Cycle  10  Pass 1  IDiag  1:
 RMSU=  4.09D-06    CP:  1.00D+00  1.03D+00
 E= -1012.43751997992     Delta-E=       -0.000000378033 Rises=F Damp=F
 DIIS: error= 1.47D-05 at cycle   3 NSaved=   3.
 NSaved= 3 IEnMin= 3 EnMin= -1012.43751997992     IErMin= 3 ErrMin= 1.47D-05
 ErrMax= 1.47D-05  0.00D+00 EMaxC= 1.00D-01 BMatC= 5.76D-07 BMatP= 1.93D-06
 IDIUse=1 WtCom= 1.00D+00 WtEn= 0.00D+00
 Coeff-Com: -0.187D-01 0.344D+00 0.675D+00
 Coeff:     -0.187D-01 0.344D+00 0.675D+00
 Gap=     0.317 Goal=   None    Shift=    0.000
 Gap=     0.317 Goal=   None    Shift=    0.000
 RMSDP=2.07D-06 MaxDP=6.71D-05 DE=-3.78D-07 OVMax= 1.44D-04

 Cycle  11  Pass 1  IDiag  1:
 RMSU=  1.22D-06    CP:  1.00D+00  1.05D+00  7.43D-01
 E= -1012.43752015672     Delta-E=       -0.000000176797 Rises=F Damp=F
 DIIS: error= 4.93D-06 at cycle   4 NSaved=   4.
 NSaved= 4 IEnMin= 4 EnMin= -1012.43752015672     IErMin= 4 ErrMin= 4.93D-06
 ErrMax= 4.93D-06  0.00D+00 EMaxC= 1.00D-01 BMatC= 4.46D-08 BMatP= 5.76D-07
 IDIUse=1 WtCom= 1.00D+00 WtEn= 0.00D+00
 Coeff-Com: -0.290D-01 0.143D+00 0.340D+00 0.546D+00
 Coeff:     -0.290D-01 0.143D+00 0.340D+00 0.546D+00
 Gap=     0.317 Goal=   None    Shift=    0.000
 Gap=     0.317 Goal=   None    Shift=    0.000
 RMSDP=5.11D-07 MaxDP=1.88D-05 DE=-1.77D-07 OVMax= 4.32D-05

 Cycle  12  Pass 1  IDiag  1:
 RMSU=  4.64D-07    CP:  1.00D+00  1.05D+00  7.80D-01  1.08D+00
 E= -1012.43752016274     Delta-E=       -0.000000006019 Rises=F Damp=F
 DIIS: error= 1.97D-06 at cycle   5 NSaved=   5.
 NSaved= 5 IEnMin= 5 EnMin= -1012.43752016274     IErMin= 5 ErrMin= 1.97D-06
 ErrMax= 1.97D-06  0.00D+00 EMaxC= 1.00D-01 BMatC= 3.95D-09 BMatP= 4.46D-08
 IDIUse=1 WtCom= 1.00D+00 WtEn= 0.00D+00
 Coeff-Com:  0.199D-02-0.905D-01-0.174D+00 0.222D-01 0.124D+01
 Coeff:      0.199D-02-0.905D-01-0.174D+00 0.222D-01 0.124D+01
 Gap=     0.317 Goal=   None    Shift=    0.000
 Gap=     0.317 Goal=   None    Shift=    0.000
 RMSDP=5.14D-07 MaxDP=2.56D-05 DE=-6.02D-09 OVMax= 6.31D-05

 Cycle  13  Pass 1  IDiag  1:
 RMSU=  1.98D-07    CP:  1.00D+00  1.05D+00  8.02D-01  1.44D+00  1.36D+00
 E= -1012.43752017784     Delta-E=       -0.000000015101 Rises=F Damp=F
 DIIS: error= 9.39D-07 at cycle   6 NSaved=   6.
 NSaved= 6 IEnMin= 6 EnMin= -1012.43752017784     IErMin= 6 ErrMin= 9.39D-07
 ErrMax= 9.39D-07  0.00D+00 EMaxC= 1.00D-01 BMatC= 1.45D-09 BMatP= 3.95D-09
 IDIUse=1 WtCom= 1.00D+00 WtEn= 0.00D+00
 Coeff-Com:  0.465D-02-0.636D-01-0.130D+00-0.644D-01 0.656D+00 0.597D+00
 Coeff:      0.465D-02-0.636D-01-0.130D+00-0.644D-01 0.656D+00 0.597D+00
 Gap=     0.317 Goal=   None    Shift=    0.000
 Gap=     0.317 Goal=   None    Shift=    0.000
 RMSDP=1.20D-07 MaxDP=4.94D-06 DE=-1.51D-08 OVMax= 1.62D-05

 Cycle  14  Pass 1  IDiag  1:
 RMSU=  7.52D-08    CP:  1.00D+00  1.05D+00  8.09D-01  1.49D+00  1.47D+00
                    CP:  9.39D-01
 E= -1012.43752017836     Delta-E=       -0.000000000522 Rises=F Damp=F
 DIIS: error= 1.66D-07 at cycle   7 NSaved=   7.
 NSaved= 7 IEnMin= 7 EnMin= -1012.43752017836     IErMin= 7 ErrMin= 1.66D-07
 ErrMax= 1.66D-07  0.00D+00 EMaxC= 1.00D-01 BMatC= 6.66D-11 BMatP= 1.45D-09
 IDIUse=1 WtCom= 1.00D+00 WtEn= 0.00D+00
 Coeff-Com:  0.185D-02-0.218D-01-0.449D-01-0.316D-01 0.197D+00 0.245D+00
 Coeff-Com:  0.655D+00
 Coeff:      0.185D-02-0.218D-01-0.449D-01-0.316D-01 0.197D+00 0.245D+00
 Coeff:      0.655D+00
 Gap=     0.317 Goal=   None    Shift=    0.000
 Gap=     0.317 Goal=   None    Shift=    0.000
 RMSDP=2.96D-08 MaxDP=7.11D-07 DE=-5.22D-10 OVMax= 2.72D-06

 Cycle  15  Pass 1  IDiag  1:
 RMSU=  1.89D-08    CP:  1.00D+00  1.05D+00  8.10D-01  1.50D+00  1.49D+00
                    CP:  1.02D+00  9.43D-01
 E= -1012.43752017836     Delta-E=       -0.000000000004 Rises=F Damp=F
 DIIS: error= 5.77D-08 at cycle   8 NSaved=   8.
 NSaved= 8 IEnMin= 8 EnMin= -1012.43752017836     IErMin= 8 ErrMin= 5.77D-08
 ErrMax= 5.77D-08  0.00D+00 EMaxC= 1.00D-01 BMatC= 9.40D-12 BMatP= 6.66D-11
 IDIUse=1 WtCom= 1.00D+00 WtEn= 0.00D+00
 Coeff-Com: -0.335D-03 0.573D-02 0.119D-01 0.294D-02-0.641D-01-0.420D-01
 Coeff-Com:  0.241D+00 0.845D+00
 Coeff:     -0.335D-03 0.573D-02 0.119D-01 0.294D-02-0.641D-01-0.420D-01
 Coeff:      0.241D+00 0.845D+00
 Gap=     0.317 Goal=   None    Shift=    0.000
 Gap=     0.317 Goal=   None    Shift=    0.000
 RMSDP=1.26D-08 MaxDP=2.97D-07 DE=-3.64D-12 OVMax= 8.72D-07

 Cycle  16  Pass 1  IDiag  1:
 RMSU=  7.44D-09    CP:  1.00D+00  1.05D+00  8.10D-01  1.50D+00  1.49D+00
                    CP:  1.05D+00  1.04D+00  9.67D-01
 E= -1012.43752017838     Delta-E=       -0.000000000013 Rises=F Damp=F
 DIIS: error= 1.83D-08 at cycle   9 NSaved=   9.
 NSaved= 9 IEnMin= 9 EnMin= -1012.43752017838     IErMin= 9 ErrMin= 1.83D-08
 ErrMax= 1.83D-08  0.00D+00 EMaxC= 1.00D-01 BMatC= 4.80D-13 BMatP= 9.40D-12
 IDIUse=1 WtCom= 1.00D+00 WtEn= 0.00D+00
 Coeff-Com: -0.231D-03 0.305D-02 0.639D-02 0.345D-02-0.303D-01-0.325D-01
 Coeff-Com: -0.215D-02 0.151D+00 0.902D+00
 Coeff:     -0.231D-03 0.305D-02 0.639D-02 0.345D-02-0.303D-01-0.325D-01
 Coeff:     -0.215D-02 0.151D+00 0.902D+00
 Gap=     0.317 Goal=   None    Shift=    0.000
 Gap=     0.317 Goal=   None    Shift=    0.000
 RMSDP=3.60D-09 MaxDP=8.80D-08 DE=-1.32D-11 OVMax= 3.24D-07

 SCF Done:  E(ULC-wPBE) =  -1012.43752018     A.U. after   16 cycles
            NFock= 16  Conv=0.36D-08     -V/T= 2.0049
 <Sx>= 0.0000 <Sy>= 0.0000 <Sz>= 0.0000 <S**2>=-0.0000 S=-0.0000
 <L.S>= 0.000000000000E+00
 KE= 1.007499920379D+03 PE=-4.550454581717D+03 EE= 1.444122947552D+03
 Annihilation of the first spin contaminant:
 S**2 before annihilation    -0.0000,   after    -0.0000
 Leave Link  502 at Mon Jul 27 11:17:31 2020, MaxMem=  4026531840 cpu:             789.5 elap:              99.0
 (Enter /opt/ohpc/pub/libs/gaussian/g16-A.03/sandybridge/g16/l601.exe)
 Copying SCF densities to generalized density rwf, IOpCl= 1 IROHF=0.

 **********************************************************************

            Population analysis using the SCF density.

 **********************************************************************

 Orbital symmetries:
 Alpha Orbitals:
       Occupied  (A) (A) (A) (A) (A) (A) (A) (A) (A) (A) (A) (A)
                 (A) (A) (A) (A) (A) (A) (A) (A) (A) (A) (A) (A)
                 (A) (A) (A) (A) (A) (A) (A) (A) (A) (A) (A) (A)
                 (A) (A) (A) (A) (A) (A) (A) (A) (A) (A) (A) (A)
                 (A) (A) (A) (A) (A) (A) (A) (A) (A) (A)
       Virtual   (A) (A) (A) (A) (A) (A) (A) (A) (A) (A) (A) (A)
                 (A) (A) (A) (A) (A) (A) (A) (A) (A) (A) (A) (A)
                 (A) (A) (A) (A) (A) (A) (A) (A) (A) (A) (A) (A)
                 (A) (A) (A) (A) (A) (A) (A) (A) (A) (A) (A) (A)
                 (A) (A) (A) (A) (A) (A) (A) (A) (A) (A) (A) (A)
                 (A) (A) (A) (A) (A) (A) (A) (A) (A) (A) (A) (A)
                 (A) (A) (A) (A) (A) (A) (A) (A) (A) (A) (A) (A)
                 (A) (A) (A) (A) (A) (A) (A) (A) (A) (A) (A) (A)
                 (A) (A) (A) (A) (A) (A) (A) (A) (A) (A) (A) (A)
                 (A) (A) (A) (A) (A) (A) (A) (A) (A) (A) (A) (A)
                 (A) (A) (A) (A) (A) (A) (A) (A) (A) (A) (A) (A)
                 (A) (A) (A) (A) (A) (A) (A) (A) (A) (A) (A) (A)
                 (A) (A) (A) (A) (A) (A) (A) (A) (A) (A) (A) (A)
                 (A) (A) (A) (A) (A) (A) (A) (A) (A) (A) (A) (A)
                 (A) (A) (A) (A) (A) (A) (A) (A) (A) (A) (A) (A)
                 (A) (A) (A) (A) (A) (A) (A) (A) (A) (A) (A) (A)
                 (A) (A) (A) (A) (A) (A) (A) (A) (A) (A) (A) (A)
                 (A) (A) (A) (A) (A) (A) (A) (A) (A) (A) (A) (A)
 Beta  Orbitals:
       Occupied  (A) (A) (A) (A) (A) (A) (A) (A) (A) (A) (A) (A)
                 (A) (A) (A) (A) (A) (A) (A) (A) (A) (A) (A) (A)
                 (A) (A) (A) (A) (A) (A) (A) (A) (A) (A) (A) (A)
                 (A) (A) (A) (A) (A) (A) (A) (A) (A) (A) (A) (A)
                 (A) (A) (A) (A) (A) (A) (A) (A) (A) (A)
       Virtual   (A) (A) (A) (A) (A) (A) (A) (A) (A) (A) (A) (A)
                 (A) (A) (A) (A) (A) (A) (A) (A) (A) (A) (A) (A)
                 (A) (A) (A) (A) (A) (A) (A) (A) (A) (A) (A) (A)
                 (A) (A) (A) (A) (A) (A) (A) (A) (A) (A) (A) (A)
                 (A) (A) (A) (A) (A) (A) (A) (A) (A) (A) (A) (A)
                 (A) (A) (A) (A) (A) (A) (A) (A) (A) (A) (A) (A)
                 (A) (A) (A) (A) (A) (A) (A) (A) (A) (A) (A) (A)
                 (A) (A) (A) (A) (A) (A) (A) (A) (A) (A) (A) (A)
                 (A) (A) (A) (A) (A) (A) (A) (A) (A) (A) (A) (A)
                 (A) (A) (A) (A) (A) (A) (A) (A) (A) (A) (A) (A)
                 (A) (A) (A) (A) (A) (A) (A) (A) (A) (A) (A) (A)
                 (A) (A) (A) (A) (A) (A) (A) (A) (A) (A) (A) (A)
                 (A) (A) (A) (A) (A) (A) (A) (A) (A) (A) (A) (A)
                 (A) (A) (A) (A) (A) (A) (A) (A) (A) (A) (A) (A)
                 (A) (A) (A) (A) (A) (A) (A) (A) (A) (A) (A) (A)
                 (A) (A) (A) (A) (A) (A) (A) (A) (A) (A) (A) (A)
                 (A) (A) (A) (A) (A) (A) (A) (A) (A) (A) (A) (A)
                 (A) (A) (A) (A) (A) (A) (A) (A) (A) (A) (A) (A)
 The electronic state is 1-A.
 Alpha  occ. eigenvalues --  -88.21221 -18.92020 -18.89551 -10.08498 -10.07807
 Alpha  occ. eigenvalues --  -10.07232 -10.05373 -10.04545 -10.03562 -10.03528
 Alpha  occ. eigenvalues --  -10.03332 -10.02416 -10.02014 -10.01883 -10.00796
 Alpha  occ. eigenvalues --   -7.81778  -5.83732  -5.83258  -5.82930  -1.09090
 Alpha  occ. eigenvalues --   -1.07919  -0.93015  -0.90494  -0.82787  -0.80987
 Alpha  occ. eigenvalues --   -0.78175  -0.76374  -0.74831  -0.73254  -0.67863
 Alpha  occ. eigenvalues --   -0.64814  -0.61621  -0.60859  -0.58591  -0.56781
 Alpha  occ. eigenvalues --   -0.55723  -0.54415  -0.52933  -0.52459  -0.51564
 Alpha  occ. eigenvalues --   -0.49709  -0.47417  -0.46980  -0.46170  -0.45042
 Alpha  occ. eigenvalues --   -0.44403  -0.44251  -0.43341  -0.42710  -0.40751
 Alpha  occ. eigenvalues --   -0.40314  -0.39427  -0.37905  -0.32484  -0.31727
 Alpha  occ. eigenvalues --   -0.30846  -0.30015  -0.28427
 Alpha virt. eigenvalues --    0.03230   0.06176   0.06764   0.11195   0.11956
 Alpha virt. eigenvalues --    0.12819   0.14301   0.15028   0.15777   0.17664
 Alpha virt. eigenvalues --    0.17960   0.18345   0.19263   0.19692   0.19975
 Alpha virt. eigenvalues --    0.20383   0.21297   0.21827   0.22422   0.23623
 Alpha virt. eigenvalues --    0.25600   0.27587   0.29607   0.31050   0.32662
 Alpha virt. eigenvalues --    0.35207   0.36976   0.38378   0.40772   0.43482
 Alpha virt. eigenvalues --    0.45013   0.47038   0.48349   0.48882   0.49339
 Alpha virt. eigenvalues --    0.49892   0.50419   0.51723   0.52224   0.53172
 Alpha virt. eigenvalues --    0.53619   0.54441   0.54920   0.55472   0.55920
 Alpha virt. eigenvalues --    0.56647   0.56987   0.57093   0.58083   0.58767
 Alpha virt. eigenvalues --    0.59286   0.60015   0.61157   0.62027   0.63021
 Alpha virt. eigenvalues --    0.63186   0.64536   0.65437   0.67290   0.68108
 Alpha virt. eigenvalues --    0.68334   0.69307   0.69538   0.69844   0.70987
 Alpha virt. eigenvalues --    0.72189   0.72501   0.73194   0.74086   0.74414
 Alpha virt. eigenvalues --    0.75615   0.75970   0.79101   0.79481   0.79729
 Alpha virt. eigenvalues --    0.81663   0.82669   0.83713   0.85116   0.85988
 Alpha virt. eigenvalues --    0.90638   0.91444   0.92731   0.94593   0.95388
 Alpha virt. eigenvalues --    0.95802   0.97002   0.98215   0.98772   0.99978
 Alpha virt. eigenvalues --    1.00926   1.01517   1.02921   1.03552   1.04636
 Alpha virt. eigenvalues --    1.06524   1.08320   1.09401   1.10126   1.11242
 Alpha virt. eigenvalues --    1.11851   1.12914   1.14307   1.16928   1.18487
 Alpha virt. eigenvalues --    1.19761   1.22749   1.24209   1.25938   1.28539
 Alpha virt. eigenvalues --    1.29868   1.31292   1.32139   1.35828   1.36223
 Alpha virt. eigenvalues --    1.37716   1.40863   1.41937   1.44119   1.44417
 Alpha virt. eigenvalues --    1.45478   1.46301   1.47718   1.49169   1.50232
 Alpha virt. eigenvalues --    1.54177   1.54351   1.55054   1.56522   1.57430
 Alpha virt. eigenvalues --    1.57864   1.61499   1.61797   1.62317   1.64364
 Alpha virt. eigenvalues --    1.66000   1.66590   1.66910   1.67176   1.67826
 Alpha virt. eigenvalues --    1.68270   1.69554   1.70382   1.71145   1.71361
 Alpha virt. eigenvalues --    1.73248   1.73797   1.75055   1.76145   1.77803
 Alpha virt. eigenvalues --    1.78609   1.79346   1.79786   1.81408   1.82411
 Alpha virt. eigenvalues --    1.83672   1.87060   1.87130   1.88406   1.89007
 Alpha virt. eigenvalues --    1.90096   1.92293   1.93758   1.96004   1.97125
 Alpha virt. eigenvalues --    1.98667   1.98881   1.99580   2.01822   2.03426
 Alpha virt. eigenvalues --    2.05191   2.08965   2.10572   2.10727   2.12104
 Alpha virt. eigenvalues --    2.14217   2.15294   2.16991   2.18278   2.20905
 Alpha virt. eigenvalues --    2.23379   2.24348   2.24927   2.27646   2.32910
 Alpha virt. eigenvalues --    2.36270   2.37836   2.39352   2.41148   2.43911
 Alpha virt. eigenvalues --    2.45375   2.47034   2.48603   2.49310   2.50010
 Alpha virt. eigenvalues --    2.52252   2.54593   2.58827   2.60704   2.66048
 Alpha virt. eigenvalues --    2.68139   2.75215   2.77879   2.84919   2.88939
 Alpha virt. eigenvalues --    3.00443   3.02403   3.04607   3.07004   3.13626
 Alpha virt. eigenvalues --    3.19448   3.22476   3.31503   3.35296   3.41646
 Alpha virt. eigenvalues --    3.70020
  Beta  occ. eigenvalues --  -88.21221 -18.92020 -18.89551 -10.08498 -10.07807
  Beta  occ. eigenvalues --  -10.07232 -10.05373 -10.04545 -10.03562 -10.03528
  Beta  occ. eigenvalues --  -10.03332 -10.02416 -10.02014 -10.01883 -10.00796
  Beta  occ. eigenvalues --   -7.81778  -5.83732  -5.83258  -5.82930  -1.09090
  Beta  occ. eigenvalues --   -1.07919  -0.93015  -0.90494  -0.82787  -0.80987
  Beta  occ. eigenvalues --   -0.78175  -0.76374  -0.74831  -0.73254  -0.67863
  Beta  occ. eigenvalues --   -0.64814  -0.61621  -0.60859  -0.58591  -0.56781
  Beta  occ. eigenvalues --   -0.55723  -0.54415  -0.52933  -0.52459  -0.51564
  Beta  occ. eigenvalues --   -0.49709  -0.47417  -0.46980  -0.46170  -0.45042
  Beta  occ. eigenvalues --   -0.44403  -0.44251  -0.43341  -0.42710  -0.40751
  Beta  occ. eigenvalues --   -0.40314  -0.39427  -0.37905  -0.32484  -0.31727
  Beta  occ. eigenvalues --   -0.30846  -0.30015  -0.28427
  Beta virt. eigenvalues --    0.03230   0.06176   0.06764   0.11195   0.11956
  Beta virt. eigenvalues --    0.12819   0.14301   0.15028   0.15777   0.17664
  Beta virt. eigenvalues --    0.17960   0.18345   0.19263   0.19692   0.19975
  Beta virt. eigenvalues --    0.20383   0.21297   0.21827   0.22422   0.23623
  Beta virt. eigenvalues --    0.25600   0.27587   0.29607   0.31050   0.32662
  Beta virt. eigenvalues --    0.35207   0.36976   0.38378   0.40772   0.43482
  Beta virt. eigenvalues --    0.45013   0.47038   0.48349   0.48882   0.49339
  Beta virt. eigenvalues --    0.49892   0.50419   0.51723   0.52224   0.53172
  Beta virt. eigenvalues --    0.53619   0.54441   0.54920   0.55472   0.55920
  Beta virt. eigenvalues --    0.56647   0.56987   0.57093   0.58083   0.58767
  Beta virt. eigenvalues --    0.59286   0.60015   0.61157   0.62027   0.63021
  Beta virt. eigenvalues --    0.63186   0.64536   0.65437   0.67290   0.68108
  Beta virt. eigenvalues --    0.68334   0.69307   0.69538   0.69844   0.70987
  Beta virt. eigenvalues --    0.72189   0.72501   0.73194   0.74086   0.74414
  Beta virt. eigenvalues --    0.75615   0.75970   0.79101   0.79481   0.79729
  Beta virt. eigenvalues --    0.81663   0.82669   0.83713   0.85116   0.85988
  Beta virt. eigenvalues --    0.90638   0.91444   0.92731   0.94593   0.95388
  Beta virt. eigenvalues --    0.95802   0.97002   0.98215   0.98772   0.99978
  Beta virt. eigenvalues --    1.00926   1.01517   1.02921   1.03552   1.04636
  Beta virt. eigenvalues --    1.06524   1.08320   1.09401   1.10126   1.11242
  Beta virt. eigenvalues --    1.11851   1.12914   1.14307   1.16928   1.18487
  Beta virt. eigenvalues --    1.19761   1.22749   1.24209   1.25938   1.28539
  Beta virt. eigenvalues --    1.29868   1.31292   1.32139   1.35828   1.36223
  Beta virt. eigenvalues --    1.37716   1.40863   1.41937   1.44119   1.44417
  Beta virt. eigenvalues --    1.45478   1.46301   1.47718   1.49169   1.50232
  Beta virt. eigenvalues --    1.54177   1.54351   1.55054   1.56522   1.57430
  Beta virt. eigenvalues --    1.57864   1.61499   1.61797   1.62317   1.64364
  Beta virt. eigenvalues --    1.66000   1.66590   1.66910   1.67176   1.67826
  Beta virt. eigenvalues --    1.68270   1.69554   1.70382   1.71145   1.71361
  Beta virt. eigenvalues --    1.73248   1.73797   1.75055   1.76145   1.77803
  Beta virt. eigenvalues --    1.78609   1.79346   1.79786   1.81408   1.82411
  Beta virt. eigenvalues --    1.83672   1.87060   1.87130   1.88406   1.89007
  Beta virt. eigenvalues --    1.90096   1.92293   1.93758   1.96004   1.97125
  Beta virt. eigenvalues --    1.98667   1.98881   1.99580   2.01822   2.03426
  Beta virt. eigenvalues --    2.05191   2.08965   2.10572   2.10727   2.12104
  Beta virt. eigenvalues --    2.14217   2.15294   2.16991   2.18278   2.20905
  Beta virt. eigenvalues --    2.23379   2.24348   2.24927   2.27646   2.32910
  Beta virt. eigenvalues --    2.36270   2.37836   2.39352   2.41148   2.43911
  Beta virt. eigenvalues --    2.45375   2.47034   2.48603   2.49310   2.50010
  Beta virt. eigenvalues --    2.52252   2.54593   2.58827   2.60704   2.66048
  Beta virt. eigenvalues --    2.68139   2.75215   2.77879   2.84919   2.88939
  Beta virt. eigenvalues --    3.00443   3.02403   3.04607   3.07004   3.13626
  Beta virt. eigenvalues --    3.19448   3.22476   3.31503   3.35296   3.41646
  Beta virt. eigenvalues --    3.70020
          Condensed to atoms (all electrons):
               1          2          3          4          5          6
     1  C    4.817343   0.447671   0.045451   0.003369   0.001114  -0.073302
     2  C    0.447671   5.023399   0.298403  -0.069993  -0.005787  -0.018403
     3  C    0.045451   0.298403   5.061264   0.447155  -0.077231   0.359673
     4  O    0.003369  -0.069993   0.447155   7.665147   0.350424  -0.082139
     5  C    0.001114  -0.005787  -0.077231   0.350424   4.525046   0.009663
     6  C   -0.073302  -0.018403   0.359673  -0.082139   0.009663   5.432933
     7  C    0.046181  -0.104884   0.065994   0.002023   0.000103   0.332444
     8  O    0.006825  -0.000384   0.006372  -0.000003   0.000001  -0.075205
     9  C    0.000543  -0.000121   0.000848   0.000000   0.000000  -0.005900
    10  C    0.409881   0.018681  -0.102531  -0.000005  -0.000028   0.004897
    11  C   -0.001547   0.017593  -0.120907   0.008940  -0.000755   0.228387
    12  C   -0.000028   0.000125  -0.001089  -0.000313  -0.000014  -0.057446
    13  C   -0.000000   0.000006   0.000168   0.000069  -0.000002   0.005073
    14  C   -0.000000   0.000002   0.000001   0.000001  -0.000002   0.002153
    15  S    0.000030  -0.000329  -0.005447   0.002399   0.000130  -0.059975
    16  H    0.389522  -0.044272   0.009226  -0.000056  -0.000015  -0.000084
    17  H   -0.038584   0.387897  -0.051764  -0.007914   0.006941   0.008485
    18  H    0.000189   0.008061  -0.009984  -0.029583   0.383251  -0.000269
    19  H    0.000066   0.010405  -0.010580  -0.027087   0.378642   0.000292
    20  H   -0.000024  -0.000506   0.003884  -0.017805   0.391232  -0.000108
    21  H   -0.002069   0.000090  -0.000182  -0.000000   0.000000  -0.003154
    22  H    0.000044  -0.000005   0.000047  -0.000000   0.000000   0.000142
    23  H   -0.000031   0.000101  -0.001398   0.000005  -0.000001   0.012182
    24  H   -0.059312   0.014227  -0.002480   0.000005  -0.000002   0.018504
    25  H   -0.000025   0.000012  -0.000269   0.000019  -0.000003  -0.012667
    26  H   -0.000000   0.000000   0.000005   0.000001  -0.000000  -0.000261
    27  H    0.000000  -0.000000  -0.000005  -0.000001  -0.000000  -0.000288
               7          8          9         10         11         12
     1  C    0.046181   0.006825   0.000543   0.409881  -0.001547  -0.000028
     2  C   -0.104884  -0.000384  -0.000121   0.018681   0.017593   0.000125
     3  C    0.065994   0.006372   0.000848  -0.102531  -0.120907  -0.001089
     4  O    0.002023  -0.000003   0.000000  -0.000005   0.008940  -0.000313
     5  C    0.000103   0.000001   0.000000  -0.000028  -0.000755  -0.000014
     6  C    0.332444  -0.075205  -0.005900   0.004897   0.228387  -0.057446
     7  C    5.016876   0.406361  -0.066686   0.431697  -0.106941  -0.007145
     8  O    0.406361   7.706079   0.360155  -0.058742  -0.001760   0.002279
     9  C   -0.066686   0.360155   4.448652  -0.013886  -0.001507   0.000256
    10  C    0.431697  -0.058742  -0.013886   4.778207   0.015926   0.000326
    11  C   -0.106941  -0.001760  -0.001507   0.015926   5.340517   0.565818
    12  C   -0.007145   0.002279   0.000256   0.000326   0.565818   4.731473
    13  C    0.000126  -0.000143   0.000030   0.000006  -0.033706   0.476794
    14  C    0.000110   0.000035  -0.000006   0.000006  -0.101008  -0.032550
    15  S   -0.000777   0.000031  -0.000786  -0.000337   0.350238  -0.089900
    16  H    0.010771  -0.000091  -0.000001  -0.041219   0.000027   0.000000
    17  H   -0.000763   0.000001  -0.000001   0.010108  -0.000313  -0.000000
    18  H   -0.000050  -0.000000   0.000000  -0.000026   0.000100  -0.000001
    19  H   -0.000123   0.000000  -0.000000   0.000027   0.000206  -0.000002
    20  H    0.000027  -0.000000   0.000000  -0.000001  -0.000150   0.000002
    21  H    0.001800  -0.043218   0.380423   0.009735   0.000951   0.000058
    22  H    0.002069  -0.015804   0.407420   0.000052  -0.000336  -0.000080
    23  H   -0.004202  -0.033273   0.376645  -0.000228   0.001930   0.000236
    24  H   -0.047513  -0.002385  -0.002602   0.382101  -0.000223  -0.000005
    25  H    0.000924   0.001645  -0.000053   0.000037  -0.046730   0.407413
    26  H   -0.000005  -0.000004  -0.000001  -0.000000   0.007459  -0.041702
    27  H    0.000004   0.000000   0.000000  -0.000000   0.002147   0.008205
              13         14         15         16         17         18
     1  C   -0.000000  -0.000000   0.000030   0.389522  -0.038584   0.000189
     2  C    0.000006   0.000002  -0.000329  -0.044272   0.387897   0.008061
     3  C    0.000168   0.000001  -0.005447   0.009226  -0.051764  -0.009984
     4  O    0.000069   0.000001   0.002399  -0.000056  -0.007914  -0.029583
     5  C   -0.000002  -0.000002   0.000130  -0.000015   0.006941   0.383251
     6  C    0.005073   0.002153  -0.059975  -0.000084   0.008485  -0.000269
     7  C    0.000126   0.000110  -0.000777   0.010771  -0.000763  -0.000050
     8  O   -0.000143   0.000035   0.000031  -0.000091   0.000001  -0.000000
     9  C    0.000030  -0.000006  -0.000786  -0.000001  -0.000001   0.000000
    10  C    0.000006   0.000006  -0.000337  -0.041219   0.010108  -0.000026
    11  C   -0.033706  -0.101008   0.350238   0.000027  -0.000313   0.000100
    12  C    0.476794  -0.032550  -0.089900   0.000000  -0.000000  -0.000001
    13  C    4.722825   0.548115  -0.086760   0.000000  -0.000000   0.000000
    14  C    0.548115   4.991012   0.379025  -0.000000  -0.000000   0.000001
    15  S   -0.086760   0.379025  15.349459   0.000000  -0.000003   0.000021
    16  H    0.000000  -0.000000   0.000000   0.726014  -0.015414   0.000025
    17  H   -0.000000  -0.000000  -0.000003  -0.015414   0.722664   0.002447
    18  H    0.000000   0.000001   0.000021   0.000025   0.002447   0.684690
    19  H    0.000000  -0.000000  -0.000032   0.000004   0.003461  -0.053757
    20  H   -0.000001  -0.000004   0.000072  -0.000000  -0.000575  -0.026774
    21  H   -0.000003   0.000002   0.000011   0.000039   0.000001   0.000000
    22  H    0.000025  -0.000011  -0.000025  -0.000001  -0.000000   0.000000
    23  H   -0.000060  -0.000105   0.003990  -0.000006   0.000003   0.000000
    24  H   -0.000000   0.000000   0.000001  -0.017707  -0.000177   0.000000
    25  H   -0.045189   0.008661   0.007923   0.000000  -0.000000   0.000001
    26  H    0.404870  -0.049380   0.007363  -0.000000   0.000000  -0.000000
    27  H   -0.023911   0.388274  -0.044434  -0.000000  -0.000000   0.000000
              19         20         21         22         23         24
     1  C    0.000066  -0.000024  -0.002069   0.000044  -0.000031  -0.059312
     2  C    0.010405  -0.000506   0.000090  -0.000005   0.000101   0.014227
     3  C   -0.010580   0.003884  -0.000182   0.000047  -0.001398  -0.002480
     4  O   -0.027087  -0.017805  -0.000000  -0.000000   0.000005   0.000005
     5  C    0.378642   0.391232   0.000000   0.000000  -0.000001  -0.000002
     6  C    0.000292  -0.000108  -0.003154   0.000142   0.012182   0.018504
     7  C   -0.000123   0.000027   0.001800   0.002069  -0.004202  -0.047513
     8  O    0.000000  -0.000000  -0.043218  -0.015804  -0.033273  -0.002385
     9  C   -0.000000   0.000000   0.380423   0.407420   0.376645  -0.002602
    10  C    0.000027  -0.000001   0.009735   0.000052  -0.000228   0.382101
    11  C    0.000206  -0.000150   0.000951  -0.000336   0.001930  -0.000223
    12  C   -0.000002   0.000002   0.000058  -0.000080   0.000236  -0.000005
    13  C    0.000000  -0.000001  -0.000003   0.000025  -0.000060  -0.000000
    14  C   -0.000000  -0.000004   0.000002  -0.000011  -0.000105   0.000000
    15  S   -0.000032   0.000072   0.000011  -0.000025   0.003990   0.000001
    16  H    0.000004  -0.000000   0.000039  -0.000001  -0.000006  -0.017707
    17  H    0.003461  -0.000575   0.000001  -0.000000   0.000003  -0.000177
    18  H   -0.053757  -0.026774   0.000000   0.000000   0.000000   0.000000
    19  H    0.688836  -0.029245  -0.000000  -0.000000   0.000000   0.000000
    20  H   -0.029245   0.622958  -0.000000  -0.000000  -0.000000  -0.000000
    21  H   -0.000000  -0.000000   0.725497  -0.031846  -0.050761   0.001769
    22  H   -0.000000  -0.000000  -0.031846   0.640061  -0.032166  -0.000385
    23  H    0.000000  -0.000000  -0.050761  -0.032166   0.708507   0.001406
    24  H    0.000000  -0.000000   0.001769  -0.000385   0.001406   0.776623
    25  H    0.000000  -0.000001   0.000017  -0.000029  -0.000008   0.000004
    26  H    0.000000  -0.000000  -0.000000   0.000001   0.000000   0.000000
    27  H   -0.000000  -0.000000   0.000000  -0.000001   0.000001   0.000000
              25         26         27
     1  C   -0.000025  -0.000000   0.000000
     2  C    0.000012   0.000000  -0.000000
     3  C   -0.000269   0.000005  -0.000005
     4  O    0.000019   0.000001  -0.000001
     5  C   -0.000003  -0.000000  -0.000000
     6  C   -0.012667  -0.000261  -0.000288
     7  C    0.000924  -0.000005   0.000004
     8  O    0.001645  -0.000004   0.000000
     9  C   -0.000053  -0.000001   0.000000
    10  C    0.000037  -0.000000  -0.000000
    11  C   -0.046730   0.007459   0.002147
    12  C    0.407413  -0.041702   0.008205
    13  C   -0.045189   0.404870  -0.023911
    14  C    0.008661  -0.049380   0.388274
    15  S    0.007923   0.007363  -0.044434
    16  H    0.000000  -0.000000  -0.000000
    17  H   -0.000000   0.000000  -0.000000
    18  H    0.000001  -0.000000   0.000000
    19  H    0.000000   0.000000  -0.000000
    20  H   -0.000001  -0.000000  -0.000000
    21  H    0.000017  -0.000000   0.000000
    22  H   -0.000029   0.000001  -0.000001
    23  H   -0.000008   0.000000   0.000001
    24  H    0.000004   0.000000   0.000000
    25  H    0.696992  -0.005928  -0.000178
    26  H   -0.005928   0.697013  -0.008171
    27  H   -0.000178  -0.008171   0.656058
          Atomic-Atomic Spin Densities.
               1          2          3          4          5          6
     1  C    0.000000  -0.000000   0.000000   0.000000   0.000000  -0.000000
     2  C   -0.000000   0.000000  -0.000000  -0.000000  -0.000000   0.000000
     3  C    0.000000  -0.000000   0.000000   0.000000  -0.000000   0.000000
     4  O    0.000000  -0.000000   0.000000  -0.000000   0.000000  -0.000000
     5  C    0.000000  -0.000000  -0.000000   0.000000   0.000000   0.000000
     6  C   -0.000000   0.000000   0.000000  -0.000000   0.000000  -0.000000
     7  C    0.000000  -0.000000   0.000000   0.000000   0.000000   0.000000
     8  O    0.000000  -0.000000   0.000000  -0.000000  -0.000000   0.000000
     9  C   -0.000000   0.000000  -0.000000   0.000000  -0.000000   0.000000
    10  C   -0.000000   0.000000   0.000000  -0.000000  -0.000000  -0.000000
    11  C   -0.000000   0.000000  -0.000000   0.000000  -0.000000   0.000000
    12  C   -0.000000   0.000000   0.000000   0.000000  -0.000000  -0.000000
    13  C    0.000000  -0.000000  -0.000000  -0.000000   0.000000   0.000000
    14  C   -0.000000   0.000000  -0.000000   0.000000  -0.000000  -0.000000
    15  S   -0.000000   0.000000   0.000000  -0.000000  -0.000000   0.000000
    16  H    0.000000   0.000000   0.000000   0.000000   0.000000  -0.000000
    17  H   -0.000000   0.000000  -0.000000  -0.000000  -0.000000  -0.000000
    18  H    0.000000   0.000000  -0.000000   0.000000   0.000000  -0.000000
    19  H   -0.000000   0.000000  -0.000000   0.000000  -0.000000  -0.000000
    20  H    0.000000  -0.000000   0.000000   0.000000  -0.000000   0.000000
    21  H   -0.000000   0.000000  -0.000000  -0.000000   0.000000   0.000000
    22  H    0.000000  -0.000000  -0.000000   0.000000  -0.000000  -0.000000
    23  H   -0.000000  -0.000000   0.000000   0.000000   0.000000   0.000000
    24  H   -0.000000   0.000000  -0.000000  -0.000000  -0.000000   0.000000
    25  H   -0.000000   0.000000   0.000000   0.000000  -0.000000  -0.000000
    26  H   -0.000000  -0.000000  -0.000000  -0.000000   0.000000   0.000000
    27  H   -0.000000   0.000000   0.000000   0.000000  -0.000000  -0.000000
               7          8          9         10         11         12
     1  C    0.000000   0.000000  -0.000000  -0.000000  -0.000000  -0.000000
     2  C   -0.000000  -0.000000   0.000000   0.000000   0.000000   0.000000
     3  C    0.000000   0.000000  -0.000000   0.000000  -0.000000   0.000000
     4  O    0.000000  -0.000000   0.000000  -0.000000   0.000000   0.000000
     5  C    0.000000  -0.000000  -0.000000  -0.000000  -0.000000  -0.000000
     6  C    0.000000   0.000000   0.000000  -0.000000   0.000000  -0.000000
     7  C    0.000000  -0.000000   0.000000  -0.000000   0.000000  -0.000000
     8  O   -0.000000   0.000000   0.000000  -0.000000   0.000000   0.000000
     9  C    0.000000   0.000000  -0.000000   0.000000   0.000000   0.000000
    10  C   -0.000000  -0.000000   0.000000  -0.000000   0.000000   0.000000
    11  C    0.000000   0.000000   0.000000   0.000000  -0.000000  -0.000000
    12  C   -0.000000   0.000000   0.000000   0.000000  -0.000000  -0.000000
    13  C    0.000000  -0.000000  -0.000000  -0.000000   0.000000  -0.000000
    14  C    0.000000   0.000000   0.000000   0.000000  -0.000000   0.000000
    15  S   -0.000000   0.000000   0.000000   0.000000  -0.000000   0.000000
    16  H    0.000000   0.000000  -0.000000  -0.000000  -0.000000  -0.000000
    17  H   -0.000000  -0.000000   0.000000  -0.000000   0.000000   0.000000
    18  H   -0.000000   0.000000   0.000000   0.000000   0.000000   0.000000
    19  H   -0.000000  -0.000000   0.000000   0.000000   0.000000   0.000000
    20  H   -0.000000  -0.000000  -0.000000   0.000000  -0.000000  -0.000000
    21  H    0.000000  -0.000000   0.000000  -0.000000   0.000000   0.000000
    22  H    0.000000  -0.000000  -0.000000   0.000000   0.000000  -0.000000
    23  H    0.000000   0.000000   0.000000   0.000000  -0.000000  -0.000000
    24  H   -0.000000  -0.000000  -0.000000   0.000000   0.000000   0.000000
    25  H   -0.000000   0.000000  -0.000000   0.000000  -0.000000   0.000000
    26  H   -0.000000  -0.000000   0.000000  -0.000000   0.000000  -0.000000
    27  H   -0.000000   0.000000   0.000000  -0.000000  -0.000000   0.000000
              13         14         15         16         17         18
     1  C    0.000000  -0.000000  -0.000000   0.000000  -0.000000   0.000000
     2  C   -0.000000   0.000000   0.000000   0.000000   0.000000   0.000000
     3  C   -0.000000  -0.000000   0.000000   0.000000  -0.000000  -0.000000
     4  O   -0.000000   0.000000  -0.000000   0.000000  -0.000000   0.000000
     5  C    0.000000  -0.000000  -0.000000   0.000000  -0.000000   0.000000
     6  C    0.000000  -0.000000   0.000000  -0.000000  -0.000000  -0.000000
     7  C    0.000000   0.000000  -0.000000   0.000000  -0.000000  -0.000000
     8  O   -0.000000   0.000000   0.000000   0.000000  -0.000000   0.000000
     9  C   -0.000000   0.000000   0.000000  -0.000000   0.000000   0.000000
    10  C   -0.000000   0.000000   0.000000  -0.000000  -0.000000   0.000000
    11  C    0.000000  -0.000000  -0.000000  -0.000000   0.000000   0.000000
    12  C   -0.000000   0.000000   0.000000  -0.000000   0.000000   0.000000
    13  C   -0.000000  -0.000000  -0.000000   0.000000  -0.000000  -0.000000
    14  C   -0.000000   0.000000  -0.000000  -0.000000  -0.000000   0.000000
    15  S   -0.000000  -0.000000   0.000000  -0.000000   0.000000  -0.000000
    16  H    0.000000  -0.000000  -0.000000   0.000000  -0.000000  -0.000000
    17  H   -0.000000  -0.000000   0.000000  -0.000000  -0.000000   0.000000
    18  H   -0.000000   0.000000  -0.000000  -0.000000   0.000000  -0.000000
    19  H   -0.000000   0.000000  -0.000000  -0.000000   0.000000  -0.000000
    20  H    0.000000  -0.000000   0.000000   0.000000   0.000000   0.000000
    21  H   -0.000000   0.000000  -0.000000  -0.000000   0.000000  -0.000000
    22  H    0.000000  -0.000000   0.000000   0.000000  -0.000000   0.000000
    23  H    0.000000  -0.000000  -0.000000  -0.000000  -0.000000  -0.000000
    24  H   -0.000000  -0.000000   0.000000  -0.000000   0.000000   0.000000
    25  H   -0.000000   0.000000   0.000000  -0.000000   0.000000   0.000000
    26  H    0.000000  -0.000000  -0.000000  -0.000000   0.000000  -0.000000
    27  H   -0.000000   0.000000  -0.000000  -0.000000   0.000000   0.000000
              19         20         21         22         23         24
     1  C   -0.000000   0.000000  -0.000000   0.000000  -0.000000  -0.000000
     2  C    0.000000  -0.000000   0.000000  -0.000000  -0.000000   0.000000
     3  C   -0.000000   0.000000  -0.000000  -0.000000   0.000000  -0.000000
     4  O    0.000000   0.000000  -0.000000   0.000000   0.000000  -0.000000
     5  C   -0.000000  -0.000000   0.000000  -0.000000   0.000000  -0.000000
     6  C   -0.000000   0.000000   0.000000  -0.000000   0.000000   0.000000
     7  C   -0.000000  -0.000000   0.000000   0.000000   0.000000  -0.000000
     8  O   -0.000000  -0.000000  -0.000000  -0.000000   0.000000  -0.000000
     9  C    0.000000  -0.000000   0.000000  -0.000000   0.000000  -0.000000
    10  C    0.000000   0.000000  -0.000000   0.000000   0.000000   0.000000
    11  C    0.000000  -0.000000   0.000000   0.000000  -0.000000   0.000000
    12  C    0.000000  -0.000000   0.000000  -0.000000  -0.000000   0.000000
    13  C   -0.000000   0.000000  -0.000000   0.000000   0.000000  -0.000000
    14  C    0.000000  -0.000000   0.000000  -0.000000  -0.000000  -0.000000
    15  S   -0.000000   0.000000  -0.000000   0.000000  -0.000000   0.000000
    16  H   -0.000000   0.000000  -0.000000   0.000000  -0.000000  -0.000000
    17  H    0.000000   0.000000   0.000000  -0.000000  -0.000000   0.000000
    18  H   -0.000000   0.000000  -0.000000   0.000000  -0.000000   0.000000
    19  H    0.000000   0.000000  -0.000000   0.000000   0.000000   0.000000
    20  H    0.000000  -0.000000  -0.000000  -0.000000   0.000000   0.000000
    21  H   -0.000000  -0.000000  -0.000000   0.000000   0.000000   0.000000
    22  H    0.000000  -0.000000   0.000000   0.000000  -0.000000  -0.000000
    23  H    0.000000   0.000000   0.000000  -0.000000   0.000000   0.000000
    24  H    0.000000   0.000000   0.000000  -0.000000   0.000000   0.000000
    25  H    0.000000  -0.000000   0.000000   0.000000  -0.000000   0.000000
    26  H   -0.000000   0.000000  -0.000000   0.000000   0.000000   0.000000
    27  H   -0.000000  -0.000000   0.000000   0.000000  -0.000000   0.000000
              25         26         27
     1  C   -0.000000  -0.000000  -0.000000
     2  C    0.000000  -0.000000   0.000000
     3  C    0.000000  -0.000000   0.000000
     4  O    0.000000  -0.000000   0.000000
     5  C   -0.000000   0.000000  -0.000000
     6  C   -0.000000   0.000000  -0.000000
     7  C   -0.000000  -0.000000  -0.000000
     8  O    0.000000  -0.000000   0.000000
     9  C   -0.000000   0.000000   0.000000
    10  C    0.000000  -0.000000  -0.000000
    11  C   -0.000000   0.000000  -0.000000
    12  C    0.000000  -0.000000   0.000000
    13  C   -0.000000   0.000000  -0.000000
    14  C    0.000000  -0.000000   0.000000
    15  S    0.000000  -0.000000  -0.000000
    16  H   -0.000000  -0.000000  -0.000000
    17  H    0.000000   0.000000   0.000000
    18  H    0.000000  -0.000000   0.000000
    19  H    0.000000  -0.000000  -0.000000
    20  H   -0.000000   0.000000  -0.000000
[...]
    24  H   -0.000000   0.000000  -0.000000   0.000000  -0.000000  -0.000000
    25  H   -0.000000   0.000000  -0.000000   0.000000   0.000000  -0.000000
    26  H   -0.000000   0.000000   0.000000   0.000000  -0.000000   0.000000
    27  H   -0.000000   0.000000  -0.000000   0.000000  -0.000000  -0.000000
              25         26         27
     1  C    0.000000   0.000000   0.000000
     2  C   -0.000000  -0.000000  -0.000000
     3  C    0.000000  -0.000000   0.000000
     4  O   -0.000000   0.000000  -0.000000
     5  C    0.000000   0.000000   0.000000
     6  C    0.000000   0.000000   0.000000
     7  C   -0.000000  -0.000000  -0.000000
     8  O   -0.000000   0.000000  -0.000000
     9  C    0.000000   0.000000  -0.000000
    10  C   -0.000000   0.000000  -0.000000
    11  C   -0.000000   0.000000   0.000000
    12  C    0.000000  -0.000000  -0.000000
    13  C   -0.000000   0.000000  -0.000000
    14  C    0.000000  -0.000000   0.000000
    15  S   -0.000000  -0.000000  -0.000000
    16  H    0.000000  -0.000000   0.000000
    17  H   -0.000000  -0.000000  -0.000000
    18  H    0.000000  -0.000000   0.000000
    19  H   -0.000000  -0.000000  -0.000000
    20  H    0.000000   0.000000   0.000000
    21  H   -0.000000   0.000000  -0.000000
    22  H    0.000000   0.000000   0.000000
    23  H    0.000000  -0.000000  -0.000000
    24  H   -0.000000   0.000000  -0.000000
    25  H    0.000000  -0.000000  -0.000000
    26  H   -0.000000  -0.000000  -0.000000
    27  H   -0.000000  -0.000000   0.000000
 Mulliken charges and spin densities:
               1          2
     1  C    0.037568   0.000000
     2  C   -0.028178  -0.000000
     3  C    0.098843   0.000000
     4  O   -0.239129   0.000000
     5  C    0.063130   0.000000
     6  C    0.070928   0.000000
     7  C   -0.005633   0.000000
     8  O   -0.263295   0.000000
     9  C    0.075501   0.000000
    10  C    0.049332  -0.000000
    11  C   -0.176752  -0.000000
    12  C    0.034321  -0.000000
    13  C    0.057284   0.000000
    14  C   -0.132786  -0.000000
    15  S    0.158827  -0.000000
    16  H   -0.014594   0.000000
    17  H   -0.017407  -0.000000
    18  H    0.045948   0.000000
    19  H    0.044526   0.000000
    20  H    0.053422  -0.000000
    21  H    0.029334  -0.000000
    22  H    0.043819   0.000000
    23  H    0.047523   0.000000
    24  H   -0.024175  -0.000000
    25  H   -0.011047   0.000000
    26  H   -0.015196  -0.000000
    27  H    0.017885   0.000000
 Sum of Mulliken charges =  -0.00000   0.00000
 Mulliken charges and spin densities with hydrogens summed into heavy atoms:
               1          2
     1  C    0.022974   0.000000
     2  C   -0.045585  -0.000000
     3  C    0.098843   0.000000
     4  O   -0.239129   0.000000
     5  C    0.207025   0.000000
     6  C    0.070928   0.000000
     7  C   -0.005633   0.000000
     8  O   -0.263295   0.000000
     9  C    0.196177   0.000000
    10  C    0.025157  -0.000000
    11  C   -0.176752  -0.000000
    12  C    0.023274  -0.000000
    13  C    0.042088   0.000000
    14  C   -0.114900  -0.000000
    15  S    0.158827  -0.000000
 Electronic spatial extent (au):  <R**2>=           3373.1236
 Charge=             -0.0000 electrons
 Dipole moment (field-independent basis, Debye):
    X=              1.0029    Y=             -1.0369    Z=             -0.9484  Tot=              1.7264
 Quadrupole moment (field-independent basis, Debye-Ang):
   XX=            -82.8583   YY=            -84.5682   ZZ=            -96.3489
   XY=             -4.7793   XZ=             -0.3110   YZ=             -1.1985
 Traceless Quadrupole moment (field-independent basis, Debye-Ang):
   XX=              5.0669   YY=              3.3569   ZZ=             -8.4238
   XY=             -4.7793   XZ=             -0.3110   YZ=             -1.1985
 Octapole moment (field-independent basis, Debye-Ang**2):
  XXX=             -1.3340  YYY=            -22.3518  ZZZ=             -2.0501  XYY=             14.4329
  XXY=            -11.5539  XXZ=              1.4631  XZZ=             -4.7409  YZZ=              2.5008
  YYZ=            -11.3570  XYZ=             -5.4581
 Hexadecapole moment (field-independent basis, Debye-Ang**3):
 XXXX=          -2272.8513 YYYY=          -1610.7805 ZZZZ=           -290.4381 XXXY=             17.7933
 XXXZ=             -3.8425 YYYX=            -66.4273 YYYZ=            -25.5185 ZZZX=              0.1533
 ZZZY=              4.3881 XXYY=           -647.1054 XXZZ=           -482.8245 YYZZ=           -336.2720
 XXYZ=             24.2572 YYXZ=              8.3889 ZZXY=            -15.3099
 N-N= 1.090793971606D+03 E-N=-4.559194367748D+03  KE= 1.007378836482D+03
                          Isotropic Fermi Contact Couplings
        Atom                 a.u.       MegaHertz       Gauss      10(-4) cm-1
     1  C(13)             -0.00000      -0.00000      -0.00000      -0.00000
     2  C(13)             -0.00000      -0.00000      -0.00000      -0.00000
     3  C(13)              0.00000       0.00000       0.00000       0.00000
     4  O(17)             -0.00000       0.00000       0.00000       0.00000
     5  C(13)             -0.00000      -0.00000      -0.00000      -0.00000
     6  C(13)             -0.00000      -0.00000      -0.00000      -0.00000
     7  C(13)             -0.00000      -0.00000      -0.00000      -0.00000
     8  O(17)             -0.00000       0.00000       0.00000       0.00000
     9  C(13)              0.00000       0.00000       0.00000       0.00000
    10  C(13)             -0.00000      -0.00000      -0.00000      -0.00000
    11  C(13)             -0.00000      -0.00000      -0.00000      -0.00000
    12  C(13)              0.00000       0.00000       0.00000       0.00000
    13  C(13)              0.00000       0.00000       0.00000       0.00000
    14  C(13)             -0.00000      -0.00000      -0.00000      -0.00000
    15  S(33)             -0.00000      -0.00000      -0.00000      -0.00000
    16  H(1)               0.00000       0.00000       0.00000       0.00000
    17  H(1)               0.00000       0.00000       0.00000       0.00000
    18  H(1)              -0.00000      -0.00000      -0.00000      -0.00000
    19  H(1)              -0.00000      -0.00000      -0.00000      -0.00000
    20  H(1)              -0.00000      -0.00000      -0.00000      -0.00000
    21  H(1)               0.00000       0.00000       0.00000       0.00000
    22  H(1)               0.00000       0.00000       0.00000       0.00000
    23  H(1)               0.00000       0.00000       0.00000       0.00000
    24  H(1)              -0.00000      -0.00000      -0.00000      -0.00000
    25  H(1)               0.00000       0.00000       0.00000       0.00000
    26  H(1)              -0.00000      -0.00000      -0.00000      -0.00000
    27  H(1)              -0.00000      -0.00000      -0.00000      -0.00000
 --------------------------------------------------------
       Center         ----  Spin Dipole Couplings  ----
                      3XX-RR        3YY-RR        3ZZ-RR
 --------------------------------------------------------
     1   Atom       -0.000000      0.000000      0.000000
     2   Atom        0.000000     -0.000000      0.000000
     3   Atom       -0.000000     -0.000000      0.000000
     4   Atom        0.000000     -0.000000     -0.000000
     5   Atom        0.000000      0.000000     -0.000000
     6   Atom       -0.000000     -0.000000      0.000000
     7   Atom        0.000000     -0.000000      0.000000
     8   Atom       -0.000000     -0.000000      0.000000
     9   Atom        0.000000     -0.000000      0.000000
    10   Atom       -0.000000     -0.000000      0.000000
    11   Atom        0.000000     -0.000000     -0.000000
    12   Atom       -0.000000      0.000000     -0.000000
    13   Atom        0.000000     -0.000000     -0.000000
    14   Atom        0.000000     -0.000000      0.000000
    15   Atom        0.000000     -0.000000     -0.000000
    16   Atom       -0.000000      0.000000      0.000000
    17   Atom       -0.000000      0.000000      0.000000
    18   Atom        0.000000      0.000000     -0.000000
    19   Atom        0.000000      0.000000     -0.000000
    20   Atom       -0.000000      0.000000     -0.000000
    21   Atom       -0.000000     -0.000000      0.000000
    22   Atom       -0.000000      0.000000     -0.000000
    23   Atom       -0.000000      0.000000      0.000000
    24   Atom       -0.000000     -0.000000      0.000000
    25   Atom       -0.000000      0.000000     -0.000000
    26   Atom       -0.000000      0.000000      0.000000
    27   Atom        0.000000      0.000000     -0.000000
 --------------------------------------------------------
                        XY            XZ            YZ
 --------------------------------------------------------
     1   Atom        0.000000      0.000000     -0.000000
     2   Atom       -0.000000      0.000000     -0.000000
     3   Atom       -0.000000      0.000000      0.000000
     4   Atom       -0.000000     -0.000000     -0.000000
     5   Atom        0.000000      0.000000     -0.000000
     6   Atom       -0.000000      0.000000      0.000000
     7   Atom       -0.000000      0.000000     -0.000000
     8   Atom        0.000000     -0.000000      0.000000
     9   Atom       -0.000000      0.000000      0.000000
    10   Atom       -0.000000      0.000000      0.000000
    11   Atom       -0.000000     -0.000000     -0.000000
    12   Atom       -0.000000     -0.000000      0.000000
    13   Atom       -0.000000     -0.000000      0.000000
    14   Atom       -0.000000      0.000000      0.000000
    15   Atom       -0.000000     -0.000000     -0.000000
    16   Atom        0.000000      0.000000     -0.000000
    17   Atom        0.000000     -0.000000      0.000000
    18   Atom        0.000000     -0.000000     -0.000000
    19   Atom       -0.000000      0.000000      0.000000
    20   Atom       -0.000000      0.000000      0.000000
    21   Atom        0.000000     -0.000000     -0.000000
    22   Atom       -0.000000      0.000000     -0.000000
    23   Atom       -0.000000      0.000000      0.000000
    24   Atom        0.000000     -0.000000     -0.000000
    25   Atom        0.000000      0.000000      0.000000
    26   Atom       -0.000000     -0.000000      0.000000
    27   Atom        0.000000     -0.000000     -0.000000
 --------------------------------------------------------


 ---------------------------------------------------------------------------------
              Anisotropic Spin Dipole Couplings in Principal Axis System
 ---------------------------------------------------------------------------------

       Atom             a.u.   MegaHertz   Gauss  10(-4) cm-1        Axes

              Baa    -0.0000    -0.000    -0.000    -0.000  0.9296 -0.3678 -0.0224
     1 C(13)  Bbb     0.0000     0.000     0.000     0.000  0.0883  0.1634  0.9826
              Bcc     0.0000     0.000     0.000     0.000  0.3577  0.9155 -0.1843
 
              Baa    -0.0000    -0.000    -0.000    -0.000  0.3080  0.9514 -0.0060
     2 C(13)  Bbb     0.0000     0.000     0.000     0.000  0.9498 -0.3079 -0.0558
              Bcc     0.0000     0.000     0.000     0.000  0.0549 -0.0115  0.9984
 
              Baa    -0.0000    -0.000    -0.000    -0.000  0.7623  0.6403 -0.0944
     3 C(13)  Bbb     0.0000     0.000     0.000     0.000 -0.0755  0.2327  0.9696
              Bcc     0.0000     0.000     0.000     0.000 -0.6428  0.7320 -0.2257
 
              Baa    -0.0000     0.000     0.000     0.000  0.4215  0.8439  0.3320
     4 O(17)  Bbb    -0.0000     0.000     0.000     0.000  0.0383 -0.3823  0.9232
              Bcc     0.0000    -0.000    -0.000    -0.000  0.9060 -0.3764 -0.1935
 
              Baa    -0.0000    -0.000    -0.000    -0.000 -0.2088  0.0397  0.9771
     5 C(13)  Bbb     0.0000     0.000     0.000     0.000  0.9699 -0.1194  0.2121
              Bcc     0.0000     0.000     0.000     0.000  0.1250  0.9921 -0.0135
 
              Baa    -0.0000    -0.000    -0.000    -0.000  0.6671  0.7050 -0.2409
     6 C(13)  Bbb    -0.0000    -0.000    -0.000    -0.000 -0.6274  0.7059  0.3286
              Bcc     0.0000     0.000     0.000     0.000  0.4017 -0.0681  0.9132
 
              Baa    -0.0000    -0.000    -0.000    -0.000  0.0796  0.9947  0.0652
     7 C(13)  Bbb     0.0000     0.000     0.000     0.000  0.8803 -0.0394 -0.4728
              Bcc     0.0000     0.000     0.000     0.000  0.4677 -0.0950  0.8788
 
              Baa    -0.0000     0.000     0.000     0.000  0.8595 -0.5066  0.0679
     8 O(17)  Bbb    -0.0000     0.000     0.000     0.000  0.5052  0.8622  0.0381
              Bcc     0.0000    -0.000    -0.000    -0.000 -0.0778  0.0015  0.9970
 
              Baa    -0.0000    -0.000    -0.000    -0.000  0.4000  0.7300 -0.5541
     9 C(13)  Bbb    -0.0000    -0.000    -0.000    -0.000 -0.4721  0.6824  0.5581
              Bcc     0.0000     0.000     0.000     0.000  0.7855  0.0383  0.6176
 
              Baa    -0.0000    -0.000    -0.000    -0.000  0.3820  0.9201 -0.0865
    10 C(13)  Bbb     0.0000     0.000     0.000     0.000  0.8928 -0.3916 -0.2226
              Bcc     0.0000     0.000     0.000     0.000  0.2387 -0.0078  0.9711
 
              Baa    -0.0000    -0.000    -0.000    -0.000  0.5880  0.7396  0.3275
    11 C(13)  Bbb    -0.0000    -0.000    -0.000    -0.000 -0.3605 -0.1228  0.9246
              Bcc     0.0000     0.000     0.000     0.000  0.7241 -0.6617  0.1945
 
              Baa    -0.0000    -0.000    -0.000    -0.000  0.0782 -0.6661  0.7418
    12 C(13)  Bbb    -0.0000    -0.000    -0.000    -0.000  0.9776  0.1969  0.0737
              Bcc     0.0000     0.000     0.000     0.000 -0.1951  0.7194  0.6666
 
              Baa    -0.0000    -0.000    -0.000    -0.000  0.2188  0.9153 -0.3381
    13 C(13)  Bbb    -0.0000    -0.000    -0.000    -0.000  0.4277  0.2214  0.8764
              Bcc     0.0000     0.000     0.000     0.000  0.8770 -0.3364 -0.3431
 
              Baa    -0.0000    -0.000    -0.000    -0.000  0.1838  0.8393 -0.5116
    14 C(13)  Bbb     0.0000     0.000     0.000     0.000  0.9516 -0.0214  0.3067
              Bcc     0.0000     0.000     0.000     0.000 -0.2465  0.5432  0.8026
 
              Baa    -0.0000    -0.000    -0.000    -0.000  0.4907  0.7565  0.4324
    15 S(33)  Bbb    -0.0000    -0.000    -0.000    -0.000 -0.4076 -0.2393  0.8813
              Bcc     0.0000     0.000     0.000     0.000  0.7701 -0.6087  0.1909
 
              Baa    -0.0000    -0.000    -0.000    -0.000  0.9397 -0.3289 -0.0938
    16 H(1)   Bbb     0.0000     0.000     0.000     0.000  0.0877 -0.0332  0.9956
              Bcc     0.0000     0.000     0.000     0.000  0.3305  0.9438  0.0024
 
              Baa    -0.0000    -0.000    -0.000    -0.000  0.8977 -0.4405  0.0117
    17 H(1)   Bbb     0.0000     0.000     0.000     0.000 -0.0075  0.0114  0.9999
              Bcc     0.0000     0.000     0.000     0.000  0.4405  0.8977 -0.0070
 
              Baa    -0.0000    -0.000    -0.000    -0.000  0.0238  0.1973  0.9801
    18 H(1)   Bbb     0.0000     0.000     0.000     0.000 -0.0853  0.9772 -0.1946
              Bcc     0.0000     0.000     0.000     0.000  0.9961  0.0790 -0.0401
 
              Baa    -0.0000    -0.000    -0.000    -0.000 -0.1676 -0.2945  0.9408
    19 H(1)   Bbb     0.0000     0.000     0.000     0.000 -0.1146  0.9537  0.2781
              Bcc     0.0000     0.000     0.000     0.000  0.9792  0.0612  0.1936
 
              Baa    -0.0000    -0.000    -0.000    -0.000  0.9220  0.2521 -0.2938
    20 H(1)   Bbb    -0.0000    -0.000    -0.000    -0.000  0.2961  0.0298  0.9547
              Bcc     0.0000     0.000     0.000     0.000 -0.2495  0.9672  0.0472
 
              Baa    -0.0000    -0.000    -0.000    -0.000  0.0876  0.9189  0.3847
    21 H(1)   Bbb    -0.0000    -0.000    -0.000    -0.000  0.9411 -0.2029  0.2705
              Bcc     0.0000     0.000     0.000     0.000 -0.3266 -0.3383  0.8825
 
              Baa    -0.0000    -0.000    -0.000    -0.000  0.7622  0.2243 -0.6073
    22 H(1)   Bbb    -0.0000    -0.000    -0.000    -0.000  0.5222  0.3416  0.7815
              Bcc     0.0000     0.000     0.000     0.000 -0.3827  0.9127 -0.1432
 
              Baa    -0.0000    -0.000    -0.000    -0.000  0.6510  0.4291 -0.6262
    23 H(1)   Bbb     0.0000     0.000     0.000     0.000  0.7476 -0.5056  0.4307
              Bcc     0.0000     0.000     0.000     0.000  0.1318  0.7485  0.6499
 
              Baa    -0.0000    -0.000    -0.000    -0.000 -0.0338  0.9971  0.0677
    24 H(1)   Bbb    -0.0000    -0.000    -0.000    -0.000  0.9992  0.0323  0.0231
              Bcc     0.0000     0.000     0.000     0.000 -0.0208 -0.0685  0.9974
 
              Baa    -0.0000    -0.000    -0.000    -0.000 -0.5159 -0.3000  0.8024
    25 H(1)   Bbb    -0.0000    -0.000    -0.000    -0.000  0.8057 -0.4882  0.3355
              Bcc     0.0000     0.000     0.000     0.000  0.2910  0.8196  0.4936
 
              Baa    -0.0000    -0.000    -0.000    -0.000  0.9412 -0.1138  0.3182
    26 H(1)   Bbb     0.0000     0.000     0.000     0.000  0.2965  0.7299 -0.6159
              Bcc     0.0000     0.000     0.000     0.000 -0.1622  0.6740  0.7207
 
              Baa    -0.0000    -0.000    -0.000    -0.000  0.6185 -0.4188  0.6649
    27 H(1)   Bbb    -0.0000    -0.000    -0.000    -0.000 -0.4856  0.4615  0.7424
              Bcc     0.0000     0.000     0.000     0.000  0.6178  0.7821 -0.0820
 

 ---------------------------------------------------------------------------------

 No NMR shielding tensors so no spin-rotation constants.
 Leave Link  601 at Mon Jul 27 11:41:48 2020, MaxMem=  4026531840 cpu:               1.8 elap:               0.3
 (Enter /opt/ohpc/pub/libs/gaussian/g16-A.03/sandybridge/g16/l9999.exe)

 Test job not archived.
 1\1\GINC-SKYLAKE036\FOpt\ULC-wPBE\CC-pVDZ\C12H12O2S1\RDU230\27-Jul-202
 0\0\\#P uLC-wPBE/cc-pVDZ iop(3/107=0216900000, 3/108=0216900000) opt\\
 H12 C12 S1 O2\\0,1\C,3.289339361,0.5794004608,0.1546754332\C,2.7952808
 041,-0.7202464868,0.0047522902\C,1.412258093,-0.9455215849,0.027369870
 7\O,0.8488928652,-2.1804842736,-0.107430877\C,1.7089026326,-3.29421578
 31,-0.2863269547\C,0.4953458549,0.1247419149,0.201662057\C,1.034237942
 2,1.422659673,0.3327793587\O,0.2107105215,2.5158370424,0.5241562606\C,
 -0.380421622,2.9979585943,-0.6835499644\C,2.4157213523,1.6516999235,0.
 3118619895\C,-0.9648711757,-0.1021591246,0.2840954286\C,-1.8640693548,
 0.5261966329,1.1253365723\C,-3.2163160747,0.1327877029,0.9078247832\C,
 -3.3394121475,-0.7844622456,-0.1079611746\S,-1.808710854,-1.1952617418
 ,-0.7861767408\H,4.3734372959,0.749327561,0.1425990337\H,3.4927270368,
 -1.5543124279,-0.1208675027\H,2.3842569683,-3.4340325704,0.5826562789\
 H,2.3180063216,-3.1996090096,-1.2089021354\H,1.0480197219,-4.172116631
 3,-0.3763048715\H,0.398720476,3.3312567203,-1.4008107235\H,-1.01026162
 54,3.8598685556,-0.4032361431\H,-1.0140142664,2.2251999172,-1.16470469
 37\H,2.7729699285,2.681179851,0.4295252171\H,-1.5475285844,1.263244281
 6,1.868925319\H,-4.0658207132,0.5139534326,1.4846951583\H,-4.247993757
 7,-1.2660093845,-0.4807512694\\Version=EM64L-G16RevA.03\State=1-A\HF=-
 1012.4699915\S2=0.\S2-1=0.\S2A=0.\RMSD=6.381e-09\RMSF=9.052e-06\Dipole
 =0.3831413,-0.3766175,-0.4155791\Quadrupole=3.617819,2.7219016,-6.3397
 206,-3.5330541,-0.6831185,0.0357965\PG=C01 [X(C12H12O2S1)]\\@


 WE HAVE LEFT UNDONE THOSE THINGS WHICH WE OUGHT TO HAVE DONE,
 AND WE HAVE DONE THOSE THINGS WHICH WE OUGHT NOT TO HAVE DONE.
                   BOOK OF COMMON PRAYER                      
 Job cpu time:       0 days  3 hours 20 minutes 28.1 seconds.
 Elapsed time:       0 days  0 hours 25 minutes 59.0 seconds.
 File lengths (MBytes):  RWF=    144 Int=      0 D2E=      0 Chk=     12 Scr=      8
 Normal termination of Gaussian 16 at Mon Jul 27 11:41:48 2020.
