 Entering Gaussian System, Link 0=g16
 Input=mols_65_5_05_c-n-N_opt_0.gjf
 Output=mols_65_5_05_c-n-N_opt_0.log
 Initial command:
 /opt/ohpc/pub/libs/gaussian/g16-A.03/sandybridge/g16/l1.exe "/mnt/gpfs2_4m/scratch/rdu230/ondemand/projects/dihedral_energies/7trial/wtuning/mols_65_5_05_c-n-N/Gau-380429.inp" -scrdir="/mnt/gpfs2_4m/scratch/rdu230/ondemand/projects/dihedral_energies/7trial/wtuning/mols_65_5_05_c-n-N/"
 Entering Link 1 = /opt/ohpc/pub/libs/gaussian/g16-A.03/sandybridge/g16/l1.exe PID=    380430.
  
 Copyright (c) 1988,1990,1992,1993,1995,1998,2003,2009,2016,
            Gaussian, Inc.  All Rights Reserved.
  
 This is part of the Gaussian(R) 16 program.  It is based on
 the Gaussian(R) 09 system (copyright 2009, Gaussian, Inc.),
 the Gaussian(R) 03 system (copyright 2003, Gaussian, Inc.),
 the Gaussian(R) 98 system (copyright 1998, Gaussian, Inc.),
 the Gaussian(R) 94 system (copyright 1995, Gaussian, Inc.),
 the Gaussian 92(TM) system (copyright 1992, Gaussian, Inc.),
 the Gaussian 90(TM) system (copyright 1990, Gaussian, Inc.),
 the Gaussian 88(TM) system (copyright 1988, Gaussian, Inc.),
 the Gaussian 86(TM) system (copyright 1986, Carnegie Mellon
 University), and the Gaussian 82(TM) system (copyright 1983,
 Carnegie Mellon University). Gaussian is a federally registered
 trademark of Gaussian, Inc.
  
 This software contains proprietary and confidential information,
 including trade secrets, belonging to Gaussian, Inc.
  
 This software is provided under written license and may be
 used, copied, transmitted, or stored only in accord with that
 written license.
  
 The following legend is applicable only to US Government
 contracts under FAR:
  
                    RESTRICTED RIGHTS LEGEND
  
 Use, reproduction and disclosure by the US Government is
 subject to restrictions as set forth in subparagraphs (a)
 and (c) of the Commercial Computer Software - Restricted
 Rights clause in FAR 52.227-19.
  
 Gaussian, Inc.
 340 Quinnipiac St., Bldg. 40, Wallingford CT 06492
  
  
 ---------------------------------------------------------------
 Warning -- This program may not be used in any manner that
 competes with the business of Gaussian, Inc. or will provide
 assistance to any competitor of Gaussian, Inc.  The licensee
 of this program is prohibited from giving any competitor of
 Gaussian, Inc. access to this program.  By using this program,
 the user acknowledges that Gaussian, Inc. is engaged in the
 business of creating and licensing software in the field of
 computational chemistry and represents and warrants to the
 licensee that it is not a competitor of Gaussian, Inc. and that
 it will not use this program in any manner prohibited above.
 ---------------------------------------------------------------
  

 Cite this work as:
 Gaussian 16, Revision A.03,
 M. J. Frisch, G. W. Trucks, H. B. Schlegel, G. E. Scuseria, 
 M. A. Robb, J. R. Cheeseman, G. Scalmani, V. Barone, 
 G. A. Petersson, H. Nakatsuji, X. Li, M. Caricato, A. V. Marenich, 
 J. Bloino, B. G. Janesko, R. Gomperts, B. Mennucci, H. P. Hratchian, 
 J. V. Ortiz, A. F. Izmaylov, J. L. Sonnenberg, D. Williams-Young, 
 F. Ding, F. Lipparini, F. Egidi, J. Goings, B. Peng, A. Petrone, 
 T. Henderson, D. Ranasinghe, V. G. Zakrzewski, J. Gao, N. Rega, 
 G. Zheng, W. Liang, M. Hada, M. Ehara, K. Toyota, R. Fukuda, 
 J. Hasegawa, M. Ishida, T. Nakajima, Y. Honda, O. Kitao, H. Nakai, 
 T. Vreven, K. Throssell, J. A. Montgomery, Jr., J. E. Peralta, 
 F. Ogliaro, M. J. Bearpark, J. J. Heyd, E. N. Brothers, K. N. Kudin, 
 V. N. Staroverov, T. A. Keith, R. Kobayashi, J. Normand, 
 K. Raghavachari, A. P. Rendell, J. C. Burant, S. S. Iyengar, 
 J. Tomasi, M. Cossi, J. M. Millam, M. Klene, C. Adamo, R. Cammi, 
 J. W. Ochterski, R. L. Martin, K. Morokuma, O. Farkas, 
 J. B. Foresman, and D. J. Fox, Gaussian, Inc., Wallingford CT, 2016.
 
 ******************************************
 Gaussian 16:  EM64L-G16RevA.03 25-Dec-2016
                25-Jul-2020 
 ******************************************
 %mem=30GB
 %nproc=8
 Will use up to    8 processors via shared memory.
 ---------------------------------------------------------------
 #P uLC-wPBE/cc-pVDZ iop(3/107=0396600000, 3/108=0396600000) opt
 ---------------------------------------------------------------
 1/18=20,19=15,26=3,38=1/1,3;
 2/9=110,12=2,17=6,18=5,40=1/2;
 3/5=16,11=2,25=1,30=1,71=1,74=-41,107=396600000,108=396600000,116=2/1,2,3;
 4//1;
 5/5=2,38=5/2;
 6/7=2,8=2,9=2,10=2,28=1/1;
 7//1,2,3,16;
 1/18=20,19=15,26=3/3(2);
 2/9=110/2;
 99//99;
 2/9=110/2;
 3/5=16,11=2,25=1,30=1,71=1,74=-41,107=396600000,108=396600000,116=2/1,2,3;
 4/5=5,16=3,69=1/1;
 5/5=2,38=5/2;
 7//1,2,3,16;
 1/18=20,19=15,26=3/3(-5);
 2/9=110/2;
 6/7=2,8=2,9=2,10=2,19=2,28=1/1;
 99/9=1/99;
 Leave Link    1 at Sat Jul 25 05:50:39 2020, MaxMem=  4026531840 cpu:               1.3 elap:               0.2
 (Enter /opt/ohpc/pub/libs/gaussian/g16-A.03/sandybridge/g16/l101.exe)
 --------------
 H22 C40 S5 N10
 --------------
 Symbolic Z-matrix:
 Charge =  0 Multiplicity = 1
 C                     19.07567   1.85578   0.15562 
 C                     18.95545   0.73244   0.97581 
 C                     17.64452   0.15631   1.1675 
 C                     16.53458   0.74312   0.51465 
 N                     16.73741   1.84743  -0.2958 
 C                     17.92027   2.37901  -0.48253 
 C                     15.2221   0.19525   0.66868 
 N                     14.92847  -0.91557   1.39881 
 C                     13.56637  -1.21714   1.30241 
 C                     12.87047  -0.31995   0.48982 
 S                     13.82711   0.85965  -0.21608 
 C                     11.42033  -0.3806    0.20796 
 C                     10.60083   0.73217  -0.0578 
 C                     9.26533   0.64951  -0.26809 
 C                     8.72737  -0.61795  -0.37794 
 N                     9.45883  -1.7651   -0.19031 
 C                     10.7164  -1.67037   0.05375 
 C                     7.31648  -0.87568  -0.69908 
 N                     6.75728  -1.83529  -1.45196 
 C                     5.41232  -1.73877  -1.49287 
 C                     4.81094  -0.77775  -0.81262 
 S                     6.05456   0.15572  -0.07743 
 C                     3.36577  -0.39144  -0.60963 
 C                     2.93549   0.899    -0.24546 
 C                     1.60699   1.10848  -0.14071 
 C                     0.62913   0.13223  -0.30042 
 N                     1.10714  -1.12046  -0.70506 
 C                     2.35048  -1.35065  -0.81552 
 C                    -0.7404    0.32201  -0.11054 
 N                    -1.30924   1.47981   0.35589 
 C                    -2.64319   1.40733   0.48514 
 C                    -3.23098   0.23366   0.04076 
 S                    -1.93497  -0.83166  -0.40536 
 C                    -4.58396  -0.19589  -0.00962 
 C                    -5.06315  -1.55417   0.24046 
 C                    -6.34911  -1.87706   0.1936 
 C                    -7.28239  -0.8244   -0.007 
 N                    -6.93564   0.49913  -0.18554 
 C                    -5.58154   0.74166  -0.18414 
 C                    -8.75515  -1.07683   0.03424 
 N                    -9.25101  -2.3252    0.12902 
 C                    -10.63716  -2.22616   0.16236 
 C                    -11.17423  -0.96638   0.11871 
 S                    -9.96208   0.16734  -0.08953 
 C                    -12.62801  -0.51565   0.17883 
 C                    -13.54782  -1.14792   1.0211 
 C                    -14.83734  -0.77298   1.09916 
 C                    -15.26237   0.28782   0.23799 
 N                    -14.4142   0.97136  -0.54805 
 C                    -13.14926   0.5234   -0.60962 
 C                    -16.59626   0.87105   0.33635 
 N                    -17.59582   0.24942   1.08135 
 C                    -18.80099   1.04241   0.91238 
 C                    -18.65212   2.09847   0.11314 
 S                    -17.14032   2.24588  -0.51894 
 H                     20.04828   2.3348    0.0074 
 H                     19.77984   0.38318   1.4681 
 H                     17.53511  -0.65686   1.72255 
 H                     17.93204   3.27992  -1.07479 
 H                     13.26748  -2.0486    1.85395 
 H                     11.10068   1.74128   0.03745 
 H                     8.66305   1.55736  -0.50536 
 H                     11.27197  -2.52745   0.16215 
 H                     4.89872  -2.53826  -2.00045 
 H                     3.63909   1.69094  -0.17149 
 H                     1.26101   2.18872   0.1528 
 H                     2.59691  -2.35961  -1.07716 
 H                    -3.20607   2.22528   0.76961 
 H                    -4.35073  -2.37054   0.36017 
 H                    -6.69743  -2.92664   0.34603 
 H                    -5.35624   1.77522  -0.34874 
 H                    -11.23108  -3.20939   0.25076 
 H                    -13.25349  -2.01986   1.67483 
 H                    -15.5256  -1.26633   1.72535 
 H                    -12.49724   1.04548  -1.28125 
 H                    -19.66461   0.67532   1.43512 
 H                    -19.47427   2.82506  -0.12871 
 
 ITRead=  0  0  0  0  0  0  0  0  0  0  0  0  0  0  0  0  0  0  0  0
 ITRead=  0  0  0  0  0  0  0  0  0  0  0  0  0  0  0  0  0  0  0  0
 ITRead=  0  0  0  0  0  0  0  0  0  0  0  0  0  0  0  0  0  0  0  0
 ITRead=  0  0  0  0  0  0  0  0  0  0  0  0  0  0  0  0  0
 MicOpt= -1 -1 -1 -1 -1 -1 -1 -1 -1 -1 -1 -1 -1 -1 -1 -1 -1 -1 -1 -1
 MicOpt= -1 -1 -1 -1 -1 -1 -1 -1 -1 -1 -1 -1 -1 -1 -1 -1 -1 -1 -1 -1
 MicOpt= -1 -1 -1 -1 -1 -1 -1 -1 -1 -1 -1 -1 -1 -1 -1 -1 -1 -1 -1 -1
 MicOpt= -1 -1 -1 -1 -1 -1 -1 -1 -1 -1 -1 -1 -1 -1 -1 -1 -1
 NAtoms=     77 NQM=       77 NQMF=       0 NMMI=      0 NMMIF=      0
                NMic=       0 NMicF=      0.
                    Isotopes and Nuclear Properties:
 (Nuclear quadrupole moments (NQMom) in fm**2, nuclear magnetic moments (NMagM)
  in nuclear magnetons)

  Atom         1           2           3           4           5           6           7           8           9          10
 IAtWgt=          12          12          12          12          14          12          12          14          12          12
 AtmWgt=  12.0000000  12.0000000  12.0000000  12.0000000  14.0030740  12.0000000  12.0000000  14.0030740  12.0000000  12.0000000
 NucSpn=           0           0           0           0           2           0           0           2           0           0
 AtZEff=  -0.0000000  -0.0000000  -0.0000000  -0.0000000  -0.0000000  -0.0000000  -0.0000000  -0.0000000  -0.0000000  -0.0000000
 NQMom=    0.0000000   0.0000000   0.0000000   0.0000000   2.0440000   0.0000000   0.0000000   2.0440000   0.0000000   0.0000000
 NMagM=    0.0000000   0.0000000   0.0000000   0.0000000   0.4037610   0.0000000   0.0000000   0.4037610   0.0000000   0.0000000
 AtZNuc=   6.0000000   6.0000000   6.0000000   6.0000000   7.0000000   6.0000000   6.0000000   7.0000000   6.0000000   6.0000000

  Atom        11          12          13          14          15          16          17          18          19          20
 IAtWgt=          32          12          12          12          12          14          12          12          14          12
 AtmWgt=  31.9720718  12.0000000  12.0000000  12.0000000  12.0000000  14.0030740  12.0000000  12.0000000  14.0030740  12.0000000
 NucSpn=           0           0           0           0           0           2           0           0           2           0
 AtZEff=  -0.0000000  -0.0000000  -0.0000000  -0.0000000  -0.0000000  -0.0000000  -0.0000000  -0.0000000  -0.0000000  -0.0000000
 NQMom=    0.0000000   0.0000000   0.0000000   0.0000000   0.0000000   2.0440000   0.0000000   0.0000000   2.0440000   0.0000000
 NMagM=    0.0000000   0.0000000   0.0000000   0.0000000   0.0000000   0.4037610   0.0000000   0.0000000   0.4037610   0.0000000
 AtZNuc=  16.0000000   6.0000000   6.0000000   6.0000000   6.0000000   7.0000000   6.0000000   6.0000000   7.0000000   6.0000000

  Atom        21          22          23          24          25          26          27          28          29          30
 IAtWgt=          12          32          12          12          12          12          14          12          12          14
 AtmWgt=  12.0000000  31.9720718  12.0000000  12.0000000  12.0000000  12.0000000  14.0030740  12.0000000  12.0000000  14.0030740
 NucSpn=           0           0           0           0           0           0           2           0           0           2
 AtZEff=  -0.0000000  -0.0000000  -0.0000000  -0.0000000  -0.0000000  -0.0000000  -0.0000000  -0.0000000  -0.0000000  -0.0000000
 NQMom=    0.0000000   0.0000000   0.0000000   0.0000000   0.0000000   0.0000000   2.0440000   0.0000000   0.0000000   2.0440000
 NMagM=    0.0000000   0.0000000   0.0000000   0.0000000   0.0000000   0.0000000   0.4037610   0.0000000   0.0000000   0.4037610
 AtZNuc=   6.0000000  16.0000000   6.0000000   6.0000000   6.0000000   6.0000000   7.0000000   6.0000000   6.0000000   7.0000000

  Atom        31          32          33          34          35          36          37          38          39          40
 IAtWgt=          12          12          32          12          12          12          12          14          12          12
 AtmWgt=  12.0000000  12.0000000  31.9720718  12.0000000  12.0000000  12.0000000  12.0000000  14.0030740  12.0000000  12.0000000
 NucSpn=           0           0           0           0           0           0           0           2           0           0
 AtZEff=  -0.0000000  -0.0000000  -0.0000000  -0.0000000  -0.0000000  -0.0000000  -0.0000000  -0.0000000  -0.0000000  -0.0000000
 NQMom=    0.0000000   0.0000000   0.0000000   0.0000000   0.0000000   0.0000000   0.0000000   2.0440000   0.0000000   0.0000000
 NMagM=    0.0000000   0.0000000   0.0000000   0.0000000   0.0000000   0.0000000   0.0000000   0.4037610   0.0000000   0.0000000
 AtZNuc=   6.0000000   6.0000000  16.0000000   6.0000000   6.0000000   6.0000000   6.0000000   7.0000000   6.0000000   6.0000000

  Atom        41          42          43          44          45          46          47          48          49          50
 IAtWgt=          14          12          12          32          12          12          12          12          14          12
 AtmWgt=  14.0030740  12.0000000  12.0000000  31.9720718  12.0000000  12.0000000  12.0000000  12.0000000  14.0030740  12.0000000
 NucSpn=           2           0           0           0           0           0           0           0           2           0
 AtZEff=  -0.0000000  -0.0000000  -0.0000000  -0.0000000  -0.0000000  -0.0000000  -0.0000000  -0.0000000  -0.0000000  -0.0000000
 NQMom=    2.0440000   0.0000000   0.0000000   0.0000000   0.0000000   0.0000000   0.0000000   0.0000000   2.0440000   0.0000000
 NMagM=    0.4037610   0.0000000   0.0000000   0.0000000   0.0000000   0.0000000   0.0000000   0.0000000   0.4037610   0.0000000
 AtZNuc=   7.0000000   6.0000000   6.0000000  16.0000000   6.0000000   6.0000000   6.0000000   6.0000000   7.0000000   6.0000000

  Atom        51          52          53          54          55          56          57          58          59          60
 IAtWgt=          12          14          12          12          32           1           1           1           1           1
 AtmWgt=  12.0000000  14.0030740  12.0000000  12.0000000  31.9720718   1.0078250   1.0078250   1.0078250   1.0078250   1.0078250
 NucSpn=           0           2           0           0           0           1           1           1           1           1
 AtZEff=  -0.0000000  -0.0000000  -0.0000000  -0.0000000  -0.0000000  -0.0000000  -0.0000000  -0.0000000  -0.0000000  -0.0000000
 NQMom=    0.0000000   2.0440000   0.0000000   0.0000000   0.0000000   0.0000000   0.0000000   0.0000000   0.0000000   0.0000000
 NMagM=    0.0000000   0.4037610   0.0000000   0.0000000   0.0000000   2.7928460   2.7928460   2.7928460   2.7928460   2.7928460
 AtZNuc=   6.0000000   7.0000000   6.0000000   6.0000000  16.0000000   1.0000000   1.0000000   1.0000000   1.0000000   1.0000000

  Atom        61          62          63          64          65          66          67          68          69          70
 IAtWgt=           1           1           1           1           1           1           1           1           1           1
 AtmWgt=   1.0078250   1.0078250   1.0078250   1.0078250   1.0078250   1.0078250   1.0078250   1.0078250   1.0078250   1.0078250
 NucSpn=           1           1           1           1           1           1           1           1           1           1
 AtZEff=  -0.0000000  -0.0000000  -0.0000000  -0.0000000  -0.0000000  -0.0000000  -0.0000000  -0.0000000  -0.0000000  -0.0000000
 NQMom=    0.0000000   0.0000000   0.0000000   0.0000000   0.0000000   0.0000000   0.0000000   0.0000000   0.0000000   0.0000000
 NMagM=    2.7928460   2.7928460   2.7928460   2.7928460   2.7928460   2.7928460   2.7928460   2.7928460   2.7928460   2.7928460
 AtZNuc=   1.0000000   1.0000000   1.0000000   1.0000000   1.0000000   1.0000000   1.0000000   1.0000000   1.0000000   1.0000000

  Atom        71          72          73          74          75          76          77
 IAtWgt=           1           1           1           1           1           1           1
 AtmWgt=   1.0078250   1.0078250   1.0078250   1.0078250   1.0078250   1.0078250   1.0078250
 NucSpn=           1           1           1           1           1           1           1
 AtZEff=  -0.0000000  -0.0000000  -0.0000000  -0.0000000  -0.0000000  -0.0000000  -0.0000000
 NQMom=    0.0000000   0.0000000   0.0000000   0.0000000   0.0000000   0.0000000   0.0000000
 NMagM=    2.7928460   2.7928460   2.7928460   2.7928460   2.7928460   2.7928460   2.7928460
 AtZNuc=   1.0000000   1.0000000   1.0000000   1.0000000   1.0000000   1.0000000   1.0000000
 Leave Link  101 at Sat Jul 25 05:50:39 2020, MaxMem=  4026531840 cpu:               2.8 elap:               0.4
 (Enter /opt/ohpc/pub/libs/gaussian/g16-A.03/sandybridge/g16/l103.exe)

 GradGradGradGradGradGradGradGradGradGradGradGradGradGradGradGradGradGrad
 Berny optimization.
 Initialization pass.
                           ----------------------------
                           !    Initial Parameters    !
                           ! (Angstroms and Degrees)  !
 --------------------------                            --------------------------
 ! Name  Definition              Value          Derivative Info.                !
 --------------------------------------------------------------------------------
 ! R1    R(1,2)                  1.3961         estimate D2E/DX2                !
 ! R2    R(1,6)                  1.4198         estimate D2E/DX2                !
 ! R3    R(1,56)                 1.0943         estimate D2E/DX2                !
 ! R4    R(2,3)                  1.4447         estimate D2E/DX2                !
 ! R5    R(2,57)                 1.0217         estimate D2E/DX2                !
 ! R6    R(3,4)                  1.4151         estimate D2E/DX2                !
 ! R7    R(3,58)                 0.9906         estimate D2E/DX2                !
 ! R8    R(4,5)                  1.3847         estimate D2E/DX2                !
 ! R9    R(4,7)                  1.4306         estimate D2E/DX2                !
 ! R10   R(5,6)                  1.3102         estimate D2E/DX2                !
 ! R11   R(6,59)                 1.0782         estimate D2E/DX2                !
 ! R12   R(7,8)                  1.3613         estimate D2E/DX2                !
 ! R13   R(7,11)                 1.7805         estimate D2E/DX2                !
 ! R14   R(8,9)                  1.3984         estimate D2E/DX2                !
 ! R15   R(9,10)                 1.3963         estimate D2E/DX2                !
 ! R16   R(9,60)                 1.0416         estimate D2E/DX2                !
 ! R17   R(10,11)                1.6748         estimate D2E/DX2                !
 ! R18   R(10,12)                1.4785         estimate D2E/DX2                !
 ! R19   R(12,13)                1.4073         estimate D2E/DX2                !
 ! R20   R(12,17)                1.4774         estimate D2E/DX2                !
 ! R21   R(13,14)                1.3545         estimate D2E/DX2                !
 ! R22   R(13,61)                1.1301         estimate D2E/DX2                !
 ! R23   R(14,15)                1.3813         estimate D2E/DX2                !
 ! R24   R(14,62)                1.115          estimate D2E/DX2                !
 ! R25   R(15,16)                1.3734         estimate D2E/DX2                !
 ! R26   R(15,18)                1.4697         estimate D2E/DX2                !
 ! R27   R(16,17)                1.2845         estimate D2E/DX2                !
 ! R28   R(17,63)                1.0271         estimate D2E/DX2                !
 ! R29   R(18,19)                1.3418         estimate D2E/DX2                !
 ! R30   R(18,22)                1.7443         estimate D2E/DX2                !
 ! R31   R(19,20)                1.349          estimate D2E/DX2                !
 ! R32   R(20,21)                1.3221         estimate D2E/DX2                !
 ! R33   R(20,64)                1.0773         estimate D2E/DX2                !
 ! R34   R(21,22)                1.72           estimate D2E/DX2                !
 ! R35   R(21,23)                1.5096         estimate D2E/DX2                !
 ! R36   R(23,24)                1.4082         estimate D2E/DX2                !
 ! R37   R(23,28)                1.4118         estimate D2E/DX2                !
 ! R38   R(24,25)                1.349          estimate D2E/DX2                !
 ! R39   R(24,65)                1.0619         estimate D2E/DX2                !
 ! R40   R(25,26)                1.391          estimate D2E/DX2                !
 ! R41   R(25,66)                1.1716         estimate D2E/DX2                !
 ! R42   R(26,27)                1.4005         estimate D2E/DX2                !
 ! R43   R(26,29)                1.3956         estimate D2E/DX2                !
 ! R44   R(27,28)                1.2693         estimate D2E/DX2                !
 ! R45   R(28,67)                1.0711         estimate D2E/DX2                !
 ! R46   R(29,30)                1.3717         estimate D2E/DX2                !
 ! R47   R(29,33)                1.6867         estimate D2E/DX2                !
 ! R48   R(30,31)                1.3422         estimate D2E/DX2                !
 ! R49   R(31,32)                1.3858         estimate D2E/DX2                !
 ! R50   R(31,68)                1.0329         estimate D2E/DX2                !
 ! R51   R(32,33)                1.736          estimate D2E/DX2                !
 ! R52   R(32,34)                1.4204         estimate D2E/DX2                !
 ! R53   R(34,35)                1.4619         estimate D2E/DX2                !
 ! R54   R(34,39)                1.3801         estimate D2E/DX2                !
 ! R55   R(35,36)                1.3267         estimate D2E/DX2                !
 ! R56   R(35,69)                1.0901         estimate D2E/DX2                !
 ! R57   R(36,37)                1.421          estimate D2E/DX2                !
 ! R58   R(36,70)                1.1163         estimate D2E/DX2                !
 ! R59   R(37,38)                1.3798         estimate D2E/DX2                !
 ! R60   R(37,40)                1.4948         estimate D2E/DX2                !
 ! R61   R(38,39)                1.3757         estimate D2E/DX2                !
 ! R62   R(39,71)                1.0706         estimate D2E/DX2                !
 ! R63   R(40,41)                1.3466         estimate D2E/DX2                !
 ! R64   R(40,44)                1.7378         estimate D2E/DX2                !
 ! R65   R(41,42)                1.3901         estimate D2E/DX2                !
 ! R66   R(42,43)                1.3702         estimate D2E/DX2                !
 ! R67   R(42,72)                1.1521         estimate D2E/DX2                !
 ! R68   R(43,44)                1.6727         estimate D2E/DX2                !
 ! R69   R(43,45)                1.5232         estimate D2E/DX2                !
 ! R70   R(45,46)                1.3983         estimate D2E/DX2                !
 ! R71   R(45,50)                1.4046         estimate D2E/DX2                !
 ! R72   R(46,47)                1.3452         estimate D2E/DX2                !
 ! R73   R(46,73)                1.1288         estimate D2E/DX2                !
 ! R74   R(47,48)                1.4309         estimate D2E/DX2                !
 ! R75   R(47,74)                1.0532         estimate D2E/DX2                !
 ! R76   R(48,49)                1.3433         estimate D2E/DX2                !
 ! R77   R(48,51)                1.4591         estimate D2E/DX2                !
 ! R78   R(49,50)                1.3433         estimate D2E/DX2                !
 ! R79   R(50,75)                1.0718         estimate D2E/DX2                !
 ! R80   R(51,52)                1.393          estimate D2E/DX2                !
 ! R81   R(51,55)                1.7081         estimate D2E/DX2                !
 ! R82   R(52,53)                1.4525         estimate D2E/DX2                !
 ! R83   R(53,54)                1.3327         estimate D2E/DX2                !
 ! R84   R(53,76)                1.0742         estimate D2E/DX2                !
 ! R85   R(54,55)                1.6452         estimate D2E/DX2                !
 ! R86   R(54,77)                1.1235         estimate D2E/DX2                !
 ! A1    A(2,1,6)              119.3732         estimate D2E/DX2                !
 ! A2    A(2,1,56)             120.5542         estimate D2E/DX2                !
 ! A3    A(6,1,56)             120.0719         estimate D2E/DX2                !
 ! A4    A(1,2,3)              118.4868         estimate D2E/DX2                !
 ! A5    A(1,2,57)             119.2504         estimate D2E/DX2                !
 ! A6    A(3,2,57)             122.1338         estimate D2E/DX2                !
 ! A7    A(2,3,4)              119.0219         estimate D2E/DX2                !
 ! A8    A(2,3,58)             120.1267         estimate D2E/DX2                !
 ! A9    A(4,3,58)             120.8149         estimate D2E/DX2                !
 ! A10   A(3,4,5)              119.0664         estimate D2E/DX2                !
 ! A11   A(3,4,7)              120.739          estimate D2E/DX2                !
 ! A12   A(5,4,7)              120.1872         estimate D2E/DX2                !
 ! A13   A(4,5,6)              122.6307         estimate D2E/DX2                !
 ! A14   A(1,6,5)              121.4056         estimate D2E/DX2                !
 ! A15   A(1,6,59)             123.087          estimate D2E/DX2                !
 ! A16   A(5,6,59)             115.287          estimate D2E/DX2                !
 ! A17   A(4,7,8)              124.6203         estimate D2E/DX2                !
 ! A18   A(4,7,11)             121.4936         estimate D2E/DX2                !
 ! A19   A(8,7,11)             113.7034         estimate D2E/DX2                !
 ! A20   A(7,8,9)              110.4313         estimate D2E/DX2                !
 ! A21   A(8,9,10)             112.7687         estimate D2E/DX2                !
 ! A22   A(8,9,60)             114.5292         estimate D2E/DX2                !
 ! A23   A(10,9,60)            132.6954         estimate D2E/DX2                !
 ! A24   A(9,10,11)            114.4051         estimate D2E/DX2                !
 ! A25   A(9,10,12)            124.9894         estimate D2E/DX2                !
 ! A26   A(11,10,12)           120.5824         estimate D2E/DX2                !
 ! A27   A(7,11,10)             88.5827         estimate D2E/DX2                !
 ! A28   A(10,12,13)           125.0794         estimate D2E/DX2                !
 ! A29   A(10,12,17)           121.535          estimate D2E/DX2                !
 ! A30   A(13,12,17)           113.1486         estimate D2E/DX2                !
 ! A31   A(12,13,14)           123.7266         estimate D2E/DX2                !
 ! A32   A(12,13,61)           115.6306         estimate D2E/DX2                !
 ! A33   A(14,13,61)           120.2427         estimate D2E/DX2                !
 ! A34   A(13,14,15)           116.8951         estimate D2E/DX2                !
 ! A35   A(13,14,62)           121.0605         estimate D2E/DX2                !
 ! A36   A(15,14,62)           121.3201         estimate D2E/DX2                !
 ! A37   A(14,15,16)           123.24           estimate D2E/DX2                !
 ! A38   A(14,15,18)           123.5151         estimate D2E/DX2                !
 ! A39   A(16,15,18)           113.244          estimate D2E/DX2                !
 ! A40   A(15,16,17)           119.0631         estimate D2E/DX2                !
 ! A41   A(12,17,16)           123.413          estimate D2E/DX2                !
 ! A42   A(12,17,63)           117.3692         estimate D2E/DX2                !
 ! A43   A(16,17,63)           119.2128         estimate D2E/DX2                !
 ! A44   A(15,18,19)           130.3972         estimate D2E/DX2                !
 ! A45   A(15,18,22)           120.8582         estimate D2E/DX2                !
 ! A46   A(19,18,22)           108.7438         estimate D2E/DX2                !
 ! A47   A(18,19,20)           112.417          estimate D2E/DX2                !
 ! A48   A(19,20,21)           119.334          estimate D2E/DX2                !
 ! A49   A(19,20,64)           115.8803         estimate D2E/DX2                !
 ! A50   A(21,20,64)           124.4017         estimate D2E/DX2                !
 ! A51   A(20,21,22)           106.5902         estimate D2E/DX2                !
 ! A52   A(20,21,23)           133.6811         estimate D2E/DX2                !
 ! A53   A(22,21,23)           119.7229         estimate D2E/DX2                !
 ! A54   A(18,22,21)            92.8572         estimate D2E/DX2                !
 ! A55   A(21,23,24)           124.18           estimate D2E/DX2                !
 ! A56   A(21,23,28)           119.6665         estimate D2E/DX2                !
 ! A57   A(24,23,28)           116.1403         estimate D2E/DX2                !
 ! A58   A(23,24,25)           117.6007         estimate D2E/DX2                !
 ! A59   A(23,24,65)           119.9306         estimate D2E/DX2                !
 ! A60   A(25,24,65)           122.0927         estimate D2E/DX2                !
 ! A61   A(24,25,26)           125.0592         estimate D2E/DX2                !
 ! A62   A(24,25,66)           116.964          estimate D2E/DX2                !
 ! A63   A(26,25,66)           117.9221         estimate D2E/DX2                !
 ! A64   A(25,26,27)           114.898          estimate D2E/DX2                !
 ! A65   A(25,26,29)           125.3669         estimate D2E/DX2                !
 ! A66   A(27,26,29)           119.7275         estimate D2E/DX2                !
 ! A67   A(26,27,28)           121.4452         estimate D2E/DX2                !
 ! A68   A(23,28,27)           124.6473         estimate D2E/DX2                !
 ! A69   A(23,28,67)           120.6755         estimate D2E/DX2                !
 ! A70   A(27,28,67)           114.6752         estimate D2E/DX2                !
 ! A71   A(26,29,30)           124.6101         estimate D2E/DX2                !
 ! A72   A(26,29,33)           125.3253         estimate D2E/DX2                !
 ! A73   A(30,29,33)           110.0628         estimate D2E/DX2                !
 ! A74   A(29,30,31)           113.5359         estimate D2E/DX2                !
 ! A75   A(30,31,32)           115.8753         estimate D2E/DX2                !
 ! A76   A(30,31,68)           121.6956         estimate D2E/DX2                !
 ! A77   A(32,31,68)           121.8607         estimate D2E/DX2                !
 ! A78   A(31,32,33)           106.5875         estimate D2E/DX2                !
 ! A79   A(31,32,34)           132.1832         estimate D2E/DX2                !
 ! A80   A(33,32,34)           121.0925         estimate D2E/DX2                !
 ! A81   A(29,33,32)            93.6742         estimate D2E/DX2                !
 ! A82   A(32,34,35)           125.9541         estimate D2E/DX2                !
 ! A83   A(32,34,39)           119.1809         estimate D2E/DX2                !
 ! A84   A(35,34,39)           114.5754         estimate D2E/DX2                !
 ! A85   A(34,35,36)           122.5349         estimate D2E/DX2                !
 ! A86   A(34,35,69)           120.0255         estimate D2E/DX2                !
 ! A87   A(36,35,69)           117.0695         estimate D2E/DX2                !
 ! A88   A(35,36,37)           117.4701         estimate D2E/DX2                !
 ! A89   A(35,36,70)           121.7657         estimate D2E/DX2                !
 ! A90   A(37,36,70)           120.7193         estimate D2E/DX2                !
 ! A91   A(36,37,38)           124.3175         estimate D2E/DX2                !
 ! A92   A(36,37,40)           121.2039         estimate D2E/DX2                !
 ! A93   A(38,37,40)           114.4031         estimate D2E/DX2                !
 ! A94   A(37,38,39)           114.6044         estimate D2E/DX2                !
 ! A95   A(34,39,38)           126.2906         estimate D2E/DX2                !
 ! A96   A(34,39,71)           121.546          estimate D2E/DX2                !
 ! A97   A(38,39,71)           112.1606         estimate D2E/DX2                !
 ! A98   A(37,40,41)           121.4197         estimate D2E/DX2                !
 ! A99   A(37,40,44)           124.1532         estimate D2E/DX2                !
 ! A100  A(41,40,44)           114.3927         estimate D2E/DX2                !
 ! A101  A(40,41,42)           107.6281         estimate D2E/DX2                !
 ! A102  A(41,42,43)           117.1036         estimate D2E/DX2                !
 ! A103  A(41,42,72)           117.0714         estimate D2E/DX2                !
 ! A104  A(43,42,72)           125.8062         estimate D2E/DX2                !
 ! A105  A(42,43,44)           110.0646         estimate D2E/DX2                !
 ! A106  A(42,43,45)           130.1585         estimate D2E/DX2                !
 ! A107  A(44,43,45)           119.7339         estimate D2E/DX2                !
 ! A108  A(40,44,43)            90.526          estimate D2E/DX2                !
 ! A109  A(43,45,46)           121.1837         estimate D2E/DX2                !
 ! A110  A(43,45,50)           123.4299         estimate D2E/DX2                !
 ! A111  A(46,45,50)           115.3717         estimate D2E/DX2                !
 ! A112  A(45,46,47)           122.6499         estimate D2E/DX2                !
 ! A113  A(45,46,73)           121.7754         estimate D2E/DX2                !
 ! A114  A(47,46,73)           115.5713         estimate D2E/DX2                !
 ! A115  A(46,47,48)           117.1577         estimate D2E/DX2                !
 ! A116  A(46,47,74)           122.0316         estimate D2E/DX2                !
 ! A117  A(48,47,74)           120.7298         estimate D2E/DX2                !
 ! A118  A(47,48,49)           122.8091         estimate D2E/DX2                !
 ! A119  A(47,48,51)           121.8218         estimate D2E/DX2                !
 ! A120  A(49,48,51)           114.4099         estimate D2E/DX2                !
 ! A121  A(48,49,50)           116.8522         estimate D2E/DX2                !
 ! A122  A(45,50,49)           124.7781         estimate D2E/DX2                !
 ! A123  A(45,50,75)           119.0985         estimate D2E/DX2                !
 ! A124  A(49,50,75)           116.0475         estimate D2E/DX2                !
 ! A125  A(48,51,52)           120.906          estimate D2E/DX2                !
 ! A126  A(48,51,55)           125.3897         estimate D2E/DX2                !
 ! A127  A(52,51,55)           113.4786         estimate D2E/DX2                !
 ! A128  A(51,52,53)           106.8289         estimate D2E/DX2                !
 ! A129  A(52,53,54)           114.1852         estimate D2E/DX2                !
 ! A130  A(52,53,76)           115.0805         estimate D2E/DX2                !
 ! A131  A(54,53,76)           130.7253         estimate D2E/DX2                !
 ! A132  A(53,54,55)           113.8306         estimate D2E/DX2                !
 ! A133  A(53,54,77)           124.0417         estimate D2E/DX2                !
 ! A134  A(55,54,77)           122.1238         estimate D2E/DX2                !
 ! A135  A(51,55,54)            91.6154         estimate D2E/DX2                !
 ! D1    D(6,1,2,3)             -1.2502         estimate D2E/DX2                !
 ! D2    D(6,1,2,57)          -177.21           estimate D2E/DX2                !
 ! D3    D(56,1,2,3)           178.4278         estimate D2E/DX2                !
 ! D4    D(56,1,2,57)            2.4681         estimate D2E/DX2                !
 ! D5    D(2,1,6,5)              1.4798         estimate D2E/DX2                !
 ! D6    D(2,1,6,59)           175.8286         estimate D2E/DX2                !
 ! D7    D(56,1,6,5)          -178.1998         estimate D2E/DX2                !
 ! D8    D(56,1,6,59)           -3.851          estimate D2E/DX2                !
 ! D9    D(1,2,3,4)              0.3471         estimate D2E/DX2                !
 ! D10   D(1,2,3,58)           178.1695         estimate D2E/DX2                !
 ! D11   D(57,2,3,4)           176.1841         estimate D2E/DX2                !
 ! D12   D(57,2,3,58)           -5.9935         estimate D2E/DX2                !
 ! D13   D(2,3,4,5)              0.4002         estimate D2E/DX2                !
 ! D14   D(2,3,4,7)            179.4152         estimate D2E/DX2                !
 ! D15   D(58,3,4,5)          -177.4068         estimate D2E/DX2                !
 ! D16   D(58,3,4,7)             1.6082         estimate D2E/DX2                !
 ! D17   D(3,4,5,6)             -0.2196         estimate D2E/DX2                !
 ! D18   D(7,4,5,6)           -179.2402         estimate D2E/DX2                !
 ! D19   D(3,4,7,8)             -1.6732         estimate D2E/DX2                !
 ! D20   D(3,4,7,11)          -176.4475         estimate D2E/DX2                !
 ! D21   D(5,4,7,8)            177.3308         estimate D2E/DX2                !
 ! D22   D(5,4,7,11)             2.5565         estimate D2E/DX2                !
 ! D23   D(4,5,6,1)             -0.7262         estimate D2E/DX2                !
 ! D24   D(4,5,6,59)          -175.4908         estimate D2E/DX2                !
 ! D25   D(4,7,8,9)           -177.5825         estimate D2E/DX2                !
 ! D26   D(11,7,8,9)            -2.4482         estimate D2E/DX2                !
 ! D27   D(4,7,11,10)          178.3866         estimate D2E/DX2                !
 ! D28   D(8,7,11,10)            3.082          estimate D2E/DX2                !
 ! D29   D(7,8,9,10)             0.3023         estimate D2E/DX2                !
 ! D30   D(7,8,9,60)          -178.8798         estimate D2E/DX2                !
 ! D31   D(8,9,10,11)            2.1181         estimate D2E/DX2                !
 ! D32   D(8,9,10,12)         -179.6292         estimate D2E/DX2                !
 ! D33   D(60,9,10,11)        -178.8943         estimate D2E/DX2                !
 ! D34   D(60,9,10,12)          -0.6416         estimate D2E/DX2                !
 ! D35   D(9,10,11,7)           -2.8604         estimate D2E/DX2                !
 ! D36   D(12,10,11,7)         178.8023         estimate D2E/DX2                !
 ! D37   D(9,10,12,13)         149.6686         estimate D2E/DX2                !
 ! D38   D(9,10,12,17)         -36.3149         estimate D2E/DX2                !
 ! D39   D(11,10,12,13)        -32.1797         estimate D2E/DX2                !
 ! D40   D(11,10,12,17)        141.8368         estimate D2E/DX2                !
 ! D41   D(10,12,13,14)       -177.6741         estimate D2E/DX2                !
 ! D42   D(10,12,13,61)         -4.9397         estimate D2E/DX2                !
 ! D43   D(17,12,13,14)          7.8709         estimate D2E/DX2                !
 ! D44   D(17,12,13,61)       -179.3948         estimate D2E/DX2                !
 ! D45   D(10,12,17,16)        179.9502         estimate D2E/DX2                !
 ! D46   D(10,12,17,63)          0.7743         estimate D2E/DX2                !
 ! D47   D(13,12,17,16)         -5.3732         estimate D2E/DX2                !
 ! D48   D(13,12,17,63)        175.451          estimate D2E/DX2                !
 ! D49   D(12,13,14,15)         -7.781          estimate D2E/DX2                !
 ! D50   D(12,13,14,62)       -178.1547         estimate D2E/DX2                !
 ! D51   D(61,13,14,15)        179.8036         estimate D2E/DX2                !
 ! D52   D(61,13,14,62)          9.4299         estimate D2E/DX2                !
 ! D53   D(13,14,15,16)          4.7718         estimate D2E/DX2                !
 ! D54   D(13,14,15,18)       -175.5843         estimate D2E/DX2                !
 ! D55   D(62,14,15,16)        175.1187         estimate D2E/DX2                !
 ! D56   D(62,14,15,18)         -5.2374         estimate D2E/DX2                !
 ! D57   D(14,15,16,17)         -2.5314         estimate D2E/DX2                !
 ! D58   D(18,15,16,17)        177.7917         estimate D2E/DX2                !
 ! D59   D(14,15,18,19)        142.7373         estimate D2E/DX2                !
 ! D60   D(14,15,18,22)        -36.8986         estimate D2E/DX2                !
 ! D61   D(16,15,18,19)        -37.5868         estimate D2E/DX2                !
 ! D62   D(16,15,18,22)        142.7772         estimate D2E/DX2                !
 ! D63   D(15,16,17,12)          2.9424         estimate D2E/DX2                !
 ! D64   D(15,16,17,63)       -177.8962         estimate D2E/DX2                !
 ! D65   D(15,18,19,20)        179.4243         estimate D2E/DX2                !
 ! D66   D(22,18,19,20)         -0.9057         estimate D2E/DX2                !
 ! D67   D(15,18,22,21)       -178.473          estimate D2E/DX2                !
 ! D68   D(19,18,22,21)          1.8198         estimate D2E/DX2                !
 ! D69   D(18,19,20,21)         -0.9162         estimate D2E/DX2                !
 ! D70   D(18,19,20,64)       -174.1165         estimate D2E/DX2                !
 ! D71   D(19,20,21,22)          2.2354         estimate D2E/DX2                !
 ! D72   D(19,20,21,23)       -178.6724         estimate D2E/DX2                !
 ! D73   D(64,20,21,22)        174.8176         estimate D2E/DX2                !
 ! D74   D(64,20,21,23)         -6.0902         estimate D2E/DX2                !
 ! D75   D(20,21,22,18)         -2.2091         estimate D2E/DX2                !
 ! D76   D(23,21,22,18)        178.5469         estimate D2E/DX2                !
 ! D77   D(20,21,23,24)       -156.8614         estimate D2E/DX2                !
 ! D78   D(20,21,23,28)         21.7631         estimate D2E/DX2                !
 ! D79   D(22,21,23,24)         22.1368         estimate D2E/DX2                !
 ! D80   D(22,21,23,28)       -159.2387         estimate D2E/DX2                !
 ! D81   D(21,23,24,25)        177.9529         estimate D2E/DX2                !
 ! D82   D(21,23,24,65)          4.8435         estimate D2E/DX2                !
 ! D83   D(28,23,24,25)         -0.7157         estimate D2E/DX2                !
 ! D84   D(28,23,24,65)       -173.8252         estimate D2E/DX2                !
 ! D85   D(21,23,28,27)       -178.1423         estimate D2E/DX2                !
 ! D86   D(21,23,28,67)          2.392          estimate D2E/DX2                !
 ! D87   D(24,23,28,27)          0.5902         estimate D2E/DX2                !
 ! D88   D(24,23,28,67)       -178.8755         estimate D2E/DX2                !
 ! D89   D(23,24,25,26)          3.3296         estimate D2E/DX2                !
 ! D90   D(23,24,25,66)       -179.4269         estimate D2E/DX2                !
 ! D91   D(65,24,25,26)        176.2802         estimate D2E/DX2                !
 ! D92   D(65,24,25,66)         -6.4763         estimate D2E/DX2                !
 ! D93   D(24,25,26,27)         -5.3136         estimate D2E/DX2                !
 ! D94   D(24,25,26,29)        175.6948         estimate D2E/DX2                !
 ! D95   D(66,25,26,27)        177.467          estimate D2E/DX2                !
 ! D96   D(66,25,26,29)         -1.5246         estimate D2E/DX2                !
 ! D97   D(25,26,27,28)          4.9234         estimate D2E/DX2                !
 ! D98   D(29,26,27,28)       -176.0236         estimate D2E/DX2                !
 ! D99   D(25,26,29,30)         -4.9356         estimate D2E/DX2                !
 ! D100  D(25,26,29,33)        175.5883         estimate D2E/DX2                !
 ! D101  D(27,26,29,30)        176.1177         estimate D2E/DX2                !
 ! D102  D(27,26,29,33)         -3.3584         estimate D2E/DX2                !
 ! D103  D(26,27,28,23)         -2.8643         estimate D2E/DX2                !
 ! D104  D(26,27,28,67)        176.6301         estimate D2E/DX2                !
 ! D105  D(26,29,30,31)       -178.3955         estimate D2E/DX2                !
 ! D106  D(33,29,30,31)          1.1494         estimate D2E/DX2                !
 ! D107  D(26,29,33,32)       -178.6709         estimate D2E/DX2                !
 ! D108  D(30,29,33,32)          1.7882         estimate D2E/DX2                !
 ! D109  D(29,30,31,32)         -4.5927         estimate D2E/DX2                !
 ! D110  D(29,30,31,68)       -176.0965         estimate D2E/DX2                !
 ! D111  D(30,31,32,33)          5.5928         estimate D2E/DX2                !
 ! D112  D(30,31,32,34)       -178.7545         estimate D2E/DX2                !
 ! D113  D(68,31,32,33)        177.0813         estimate D2E/DX2                !
 ! D114  D(68,31,32,34)         -7.266          estimate D2E/DX2                !
 ! D115  D(31,32,33,29)         -4.048          estimate D2E/DX2                !
 ! D116  D(34,32,33,29)        179.713          estimate D2E/DX2                !
 ! D117  D(31,32,34,35)       -142.6465         estimate D2E/DX2                !
 ! D118  D(31,32,34,39)         30.8186         estimate D2E/DX2                !
 ! D119  D(33,32,34,35)         32.4869         estimate D2E/DX2                !
 ! D120  D(33,32,34,39)       -154.048          estimate D2E/DX2                !
 ! D121  D(32,34,35,36)        179.0057         estimate D2E/DX2                !
 ! D122  D(32,34,35,69)         -8.185          estimate D2E/DX2                !
 ! D123  D(39,34,35,36)          5.2785         estimate D2E/DX2                !
 ! D124  D(39,34,35,69)        178.0878         estimate D2E/DX2                !
 ! D125  D(32,34,39,38)       -176.4346         estimate D2E/DX2                !
 ! D126  D(32,34,39,71)          4.2148         estimate D2E/DX2                !
 ! D127  D(35,34,39,38)         -2.2488         estimate D2E/DX2                !
 ! D128  D(35,34,39,71)        178.4006         estimate D2E/DX2                !
 ! D129  D(34,35,36,37)         -4.9415         estimate D2E/DX2                !
 ! D130  D(34,35,36,70)        177.483          estimate D2E/DX2                !
 ! D131  D(69,35,36,37)       -177.9508         estimate D2E/DX2                !
 ! D132  D(69,35,36,70)          4.4736         estimate D2E/DX2                !
 ! D133  D(35,36,37,38)          1.5481         estimate D2E/DX2                !
 ! D134  D(35,36,37,40)       -175.1124         estimate D2E/DX2                !
 ! D135  D(70,36,37,38)        179.1504         estimate D2E/DX2                !
 ! D136  D(70,36,37,40)          2.4899         estimate D2E/DX2                !
 ! D137  D(36,37,38,39)          1.2875         estimate D2E/DX2                !
 ! D138  D(40,37,38,39)        178.1511         estimate D2E/DX2                !
 ! D139  D(36,37,40,41)         -6.7116         estimate D2E/DX2                !
 ! D140  D(36,37,40,44)        175.5406         estimate D2E/DX2                !
 ! D141  D(38,37,40,41)        176.3169         estimate D2E/DX2                !
 ! D142  D(38,37,40,44)         -1.4309         estimate D2E/DX2                !
 ! D143  D(37,38,39,34)         -0.774          estimate D2E/DX2                !
 ! D144  D(37,38,39,71)        178.6284         estimate D2E/DX2                !
 ! D145  D(37,40,41,42)        179.2266         estimate D2E/DX2                !
 ! D146  D(44,40,41,42)         -2.8198         estimate D2E/DX2                !
 ! D147  D(37,40,44,43)       -177.4879         estimate D2E/DX2                !
 ! D148  D(41,40,44,43)          4.6224         estimate D2E/DX2                !
 ! D149  D(40,41,42,43)         -1.0434         estimate D2E/DX2                !
 ! D150  D(40,41,42,72)       -179.5588         estimate D2E/DX2                !
 ! D151  D(41,42,43,44)          4.4677         estimate D2E/DX2                !
 ! D152  D(41,42,43,45)       -177.9736         estimate D2E/DX2                !
 ! D153  D(72,42,43,44)       -177.1625         estimate D2E/DX2                !
 ! D154  D(72,42,43,45)          0.3962         estimate D2E/DX2                !
 ! D155  D(42,43,44,40)         -4.8496         estimate D2E/DX2                !
 ! D156  D(45,43,44,40)        177.2989         estimate D2E/DX2                !
 ! D157  D(42,43,45,46)         38.5965         estimate D2E/DX2                !
 ! D158  D(42,43,45,50)       -139.9416         estimate D2E/DX2                !
 ! D159  D(44,43,45,46)       -144.0445         estimate D2E/DX2                !
 ! D160  D(44,43,45,50)         37.4175         estimate D2E/DX2                !
 ! D161  D(43,45,46,47)        179.8909         estimate D2E/DX2                !
 ! D162  D(43,45,46,73)         -0.8054         estimate D2E/DX2                !
 ! D163  D(50,45,46,47)         -1.4594         estimate D2E/DX2                !
 ! D164  D(50,45,46,73)        177.8443         estimate D2E/DX2                !
 ! D165  D(43,45,50,49)       -177.7459         estimate D2E/DX2                !
 ! D166  D(43,45,50,75)         -1.0449         estimate D2E/DX2                !
 ! D167  D(46,45,50,49)          3.6383         estimate D2E/DX2                !
 ! D168  D(46,45,50,75)       -179.6607         estimate D2E/DX2                !
 ! D169  D(45,46,47,48)          2.2274         estimate D2E/DX2                !
 ! D170  D(45,46,47,74)        178.9774         estimate D2E/DX2                !
 ! D171  D(73,46,47,48)       -177.1164         estimate D2E/DX2                !
 ! D172  D(73,46,47,74)         -0.3664         estimate D2E/DX2                !
 ! D173  D(46,47,48,49)         -5.2189         estimate D2E/DX2                !
 ! D174  D(46,47,48,51)       -173.3818         estimate D2E/DX2                !
 ! D175  D(74,47,48,49)        177.9863         estimate D2E/DX2                !
 ! D176  D(74,47,48,51)          9.8234         estimate D2E/DX2                !
 ! D177  D(47,48,49,50)          7.1203         estimate D2E/DX2                !
 ! D178  D(51,48,49,50)        176.0854         estimate D2E/DX2                !
 ! D179  D(47,48,51,52)        -12.9973         estimate D2E/DX2                !
 ! D180  D(47,48,51,55)        172.8261         estimate D2E/DX2                !
 ! D181  D(49,48,51,52)        177.9164         estimate D2E/DX2                !
 ! D182  D(49,48,51,55)          3.7399         estimate D2E/DX2                !
 ! D183  D(48,49,50,45)         -6.427          estimate D2E/DX2                !
 ! D184  D(48,49,50,75)        176.7815         estimate D2E/DX2                !
 ! D185  D(48,51,52,53)       -177.0239         estimate D2E/DX2                !
 ! D186  D(55,51,52,53)         -2.198          estimate D2E/DX2                !
 ! D187  D(48,51,55,54)        176.9799         estimate D2E/DX2                !
 ! D188  D(52,51,55,54)          2.4264         estimate D2E/DX2                !
 ! D189  D(51,52,53,54)          0.8132         estimate D2E/DX2                !
 ! D190  D(51,52,53,76)        179.8443         estimate D2E/DX2                !
 ! D191  D(52,53,54,55)          0.9701         estimate D2E/DX2                !
 ! D192  D(52,53,54,77)       -179.741          estimate D2E/DX2                !
 ! D193  D(76,53,54,55)       -177.8719         estimate D2E/DX2                !
 ! D194  D(76,53,54,77)          1.417          estimate D2E/DX2                !
 ! D195  D(53,54,55,51)         -1.9074         estimate D2E/DX2                !
 ! D196  D(77,54,55,51)        178.7883         estimate D2E/DX2                !
 --------------------------------------------------------------------------------
 Trust Radius=3.00D-01 FncErr=1.00D-07 GrdErr=1.00D-06 EigMax=2.50D+02 EigMin=1.00D-04
 Number of steps in this run=    427 maximum allowed number of steps=    462.
 GradGradGradGradGradGradGradGradGradGradGradGradGradGradGradGradGradGrad

 Leave Link  103 at Sat Jul 25 05:50:39 2020, MaxMem=  4026531840 cpu:               0.2 elap:               0.1
 (Enter /opt/ohpc/pub/libs/gaussian/g16-A.03/sandybridge/g16/l202.exe)
 Stoichiometry    C40H22N10S5
 Framework group  C1[X(C40H22N10S5)]
 Deg. of freedom   225
 Full point group                 C1      NOp   1
 Largest Abelian subgroup         C1      NOp   1
 Largest concise Abelian subgroup C1      NOp   1
                         Standard orientation:                         
 ---------------------------------------------------------------------
 Center     Atomic      Atomic             Coordinates (Angstroms)
 Number     Number       Type             X           Y           Z
 ---------------------------------------------------------------------
      1          6           0       19.076311    1.866095    0.160979
      2          6           0       18.956696    0.739049    0.976166
      3          6           0       17.646115    0.161223    1.165073
      4          6           0       16.535899    0.750187    0.514642
      5          7           0       16.738140    1.858205   -0.290872
      6          6           0       17.920679    2.391387   -0.475040
      7          6           0       15.223755    0.200783    0.666025
      8          7           0       14.930736   -0.913455    1.391184
      9          6           0       13.568845   -1.215489    1.293218
     10          6           0       12.872492   -0.315168    0.484495
     11         16           0       13.828473    0.868171   -0.216011
     12          6           0       11.422441   -0.375523    0.202122
     13          6           0       10.602251    0.737876   -0.058843
     14          6           0        9.266843    0.655272   -0.269723
     15          6           0        8.729728   -0.612039   -0.385275
     16          7           0        9.461918   -1.759533   -0.202611
     17          6           0       10.719386   -1.665054    0.042083
     18          6           0        7.319068   -0.869270   -0.707792
     19          7           0        6.760616   -1.825907   -1.465014
     20          6           0        5.415604   -1.730088   -1.505717
     21          6           0        4.813476   -0.772486   -0.821318
     22         16           0        6.056367    0.158536   -0.081799
     23          6           0        3.368025   -0.388020   -0.616868
     24          6           0        2.936830    0.900502   -0.247057
     25          6           0        1.608175    1.108648   -0.141602
     26          6           0        0.630991    0.132473   -0.305800
     27          7           0        1.109889   -1.118101   -0.715907
     28          6           0        2.353399   -1.346982   -0.827169
     29          6           0       -0.738693    0.320515   -0.115312
     30          7           0       -1.308375    1.475862    0.356147
     31          6           0       -2.642295    1.401939    0.484851
     32          6           0       -3.229249    0.229863    0.035174
     33         16           0       -1.932459   -0.832621   -0.415436
     34          6           0       -4.581934   -0.200347   -0.017338
     35          6           0       -5.060272   -1.560038    0.226646
     36          6           0       -6.346012   -1.883567    0.178140
     37          6           0       -7.279952   -0.830639   -0.017957
     38          7           0       -6.934041    0.493892   -0.190570
     39          6           0       -5.580098    0.737302   -0.187866
     40          6           0       -8.752548   -1.084214    0.021916
     41          7           0       -9.247609   -2.333315    0.111087
     42          6           0      -10.633829   -2.235339    0.144627
     43          6           0      -11.171721   -0.975727    0.106466
     44         16           0       -9.960280    0.159697   -0.096541
     45          6           0      -12.625799   -0.526217    0.168338
     46          6           0      -13.545335   -1.162824    1.007644
     47          6           0      -14.835117   -0.789072    1.087156
     48          6           0      -15.260697    0.275252    0.230618
     49          7           0      -14.412846    0.962820   -0.552244
     50          6           0      -13.147606    0.515963   -0.615582
     51          6           0      -16.594991    0.857165    0.331335
     52          7           0      -17.594267    0.231585    1.073402
     53          6           0      -18.799922    1.024519    0.907741
     54          6           0      -18.651621    2.084204    0.113213
     55         16           0      -17.139814    2.235412   -0.517955
     56          1           0       20.048635    2.346405    0.015039
     57          1           0       19.781234    0.388158    1.467038
     58          1           0       17.537146   -0.654475    1.716498
     59          1           0       17.931959    3.294918   -1.063307
     60          1           0       13.270412   -2.049576    1.841015
     61          1           0       11.101418    1.746883    0.040953
     62          1           0        8.664004    1.563767   -0.503077
     63          1           0       11.275502   -2.522240    0.146779
     64          1           0        4.902610   -2.527655   -2.016919
     65          1           0        3.639903    1.692568   -0.169461
     66          1           0        1.261443    2.187348    0.156633
     67          1           0        2.600538   -2.354607   -1.093234
     68          1           0       -3.205762    2.218243    0.772838
     69          1           0       -4.347332   -2.376470    0.342861
     70          1           0       -6.693664   -2.934039    0.325859
     71          1           0       -5.355451    1.771734   -0.347850
     72          1           0      -11.227116   -3.219332    0.228573
     73          1           0      -13.250540   -2.037457    1.657560
     74          1           0      -15.523151   -1.285650    1.711037
     75          1           0      -12.495815    1.041445   -1.284792
     76          1           0      -19.663389    0.654549    1.428703
     77          1           0      -19.474202    2.811321   -0.125553
 ---------------------------------------------------------------------
 Rotational constants (GHZ):           0.3372839           0.0047813           0.0047411
 Leave Link  202 at Sat Jul 25 05:50:40 2020, MaxMem=  4026531840 cpu:               0.3 elap:               0.1
 (Enter /opt/ohpc/pub/libs/gaussian/g16-A.03/sandybridge/g16/l301.exe)
 Standard basis: CC-pVDZ (5D, 7F)
 Ernie: Thresh=  0.10000D-02 Tol=  0.10000D-05 Strict=F.
 Ernie:  150 primitive shells out of 1460 were deleted.
 There are   955 symmetry adapted cartesian basis functions of A   symmetry.
 There are   900 symmetry adapted basis functions of A   symmetry.
   900 basis functions,  2159 primitive gaussians,   955 cartesian basis functions
   206 alpha electrons      206 beta electrons
       nuclear repulsion energy      6222.9233944052 Hartrees.
 IExCor=32609 DFT=T Ex+Corr=LC-wPBE ExCW=0 ScaHFX=  1.000000
 ScaDFX=  1.000000  0.000000  1.000000  1.000000 ScalE2=  1.000000  1.000000
 IRadAn=      5 IRanWt=     -1 IRanGd=            0 ICorTp=0 IEmpDi=  4
 HFx  wShort=  0.000000 wLong=  0.396600 cFull=  0.000000 cShort=  0.000000 cLong=  1.000000
 DFx  wShort=  0.000000 wLong=  0.396600 cFull=  0.000000 cShort=  0.000000 cLong=  1.000000
 NAtoms=   77 NActive=   77 NUniq=   77 SFac= 1.00D+00 NAtFMM=   60 NAOKFM=T Big=T
 Integral buffers will be    131072 words long.
 Raffenetti 2 integral format.
 Two-electron integral symmetry is turned on.
 Leave Link  301 at Sat Jul 25 05:50:40 2020, MaxMem=  4026531840 cpu:               0.6 elap:               0.1
 (Enter /opt/ohpc/pub/libs/gaussian/g16-A.03/sandybridge/g16/l302.exe)
 NPDir=0 NMtPBC=     1 NCelOv=     1 NCel=       1 NClECP=     1 NCelD=      1
         NCelK=      1 NCelE2=     1 NClLst=     1 CellRange=     0.0.
 One-electron integrals computed using PRISM.
 One-electron integral symmetry used in STVInt
 NBasis=   900 RedAO= T EigKep=  3.84D-04  NBF=   900
 NBsUse=   900 1.00D-06 EigRej= -1.00D+00 NBFU=   900
 Precomputing XC quadrature grid using
 IXCGrd= 4 IRadAn=           5 IRanWt=          -1 IRanGd=           0 AccXCQ= 0.00D+00.
 Generated NRdTot=       0 NPtTot=           0 NUsed=           0 NTot=          32
 NSgBfM=   552   552   552   552   552 MxSgAt=    77 MxSgA2=    70.
 Leave Link  302 at Sat Jul 25 05:50:42 2020, MaxMem=  4026531840 cpu:              20.2 elap:               2.6
 (Enter /opt/ohpc/pub/libs/gaussian/g16-A.03/sandybridge/g16/l303.exe)
 DipDrv:  MaxL=1.
 Leave Link  303 at Sat Jul 25 05:50:42 2020, MaxMem=  4026531840 cpu:               1.4 elap:               0.2
 (Enter /opt/ohpc/pub/libs/gaussian/g16-A.03/sandybridge/g16/l401.exe)
 ExpMin= 1.22D-01 ExpMax= 1.11D+05 ExpMxC= 1.07D+03 IAcc=3 IRadAn=         5 AccDes= 0.00D+00
 Harris functional with IExCor=32609 and IRadAn=       5 diagonalized for initial guess.
 HarFok:  IExCor=32609 AccDes= 0.00D+00 IRadAn=         5 IDoV= 1 UseB2=F ITyADJ=14
 ICtDFT=  3500011 ScaDFX=  1.000000  1.000000  1.000000  1.000000
 FoFCou: FMM=F IPFlag=           0 FMFlag=      100000 FMFlg1=        2001
         NFxFlg=           0 DoJE=T BraDBF=F KetDBF=T FulRan=T
         wScrn=  0.000000 ICntrl=       500 IOpCl=  0 I1Cent=   200000004 NGrid=           0
         NMat0=    1 NMatS0=      1 NMatT0=    0 NMatD0=    1 NMtDS0=    0 NMtDT0=    0
 Petite list used in FoFCou.
 Harris En= -4073.25002823007    
 JPrj=0 DoOrth=F DoCkMO=F.
 Initial guess <Sx>= 0.0000 <Sy>= 0.0000 <Sz>= 0.0000 <S**2>= 0.0000 S= 0.0000
 Leave Link  401 at Sat Jul 25 05:50:51 2020, MaxMem=  4026531840 cpu:              68.7 elap:               8.7
 (Enter /opt/ohpc/pub/libs/gaussian/g16-A.03/sandybridge/g16/l502.exe)
 Integral symmetry usage will be decided dynamically.
 UHF open shell SCF:
 Using DIIS extrapolation, IDIIS=  1040.
 NGot=  4026531840 LenX=  4024690709 LenY=  4023777729
 Requested convergence on RMS density matrix=1.00D-08 within 128 cycles.
 Requested convergence on MAX density matrix=1.00D-06.
 Requested convergence on             energy=1.00D-06.
 No special actions if energy rises.
 Fock matrices will be formed incrementally for  20 cycles.
 Integral accuracy reduced to 1.0D-05 until final iterations.

 Cycle   1  Pass 0  IDiag  1:
 FoFJK:  IHMeth= 1 ICntrl=       0 DoSepK=T KAlg= 0 I1Cent=           0 FoldK=F
 IRaf=         1 NMat=       1 IRICut=       1 DoRegI=T DoRafI=F ISym2E= 0 IDoP0=0 IntGTp=1.
 FoFCou: FMM=T IPFlag=           0 FMFlag=      100000 FMFlg1=        2001
         NFxFlg=           0 DoJE=T BraDBF=F KetDBF=F FulRan=T
         wScrn=  0.000000 ICntrl=       500 IOpCl=  0 I1Cent=           0 NGrid=           0
         NMat0=    1 NMatS0=      1 NMatT0=    0 NMatD0=    1 NMtDS0=    0 NMtDT0=    0
 Symmetry not used in FoFCou.
 FMM levels:  10  Number of levels for PrismC:   9
 E= -4072.84379403523    
 DIIS: error= 1.64D-02 at cycle   1 NSaved=   1.
 NSaved= 1 IEnMin= 1 EnMin= -4072.84379403523     IErMin= 1 ErrMin= 1.64D-02
 ErrMax= 1.64D-02  0.00D+00 EMaxC= 1.00D-01 BMatC= 3.41D+00 BMatP= 3.41D+00
 IDIUse=3 WtCom= 8.36D-01 WtEn= 1.64D-01
 Coeff-Com:  0.100D+01
 Coeff-En:   0.100D+01
 Coeff:      0.100D+01
 Gap=     0.244 Goal=   None    Shift=    0.000
 Gap=     0.244 Goal=   None    Shift=    0.000
 GapD=    0.244 DampG=1.000 DampE=0.500 DampFc=0.5000 IDamp=-1.
 Damping current iteration by 5.00D-01
 RMSDP=2.30D-03 MaxDP=1.44D-01              OVMax= 1.98D-01

 Cycle   2  Pass 0  IDiag  1:
 RMSU=  1.14D-03    CP:  9.88D-01
 E= -4073.34609605926     Delta-E=       -0.502302024033 Rises=F Damp=T
 DIIS: error= 5.23D-03 at cycle   2 NSaved=   2.
 NSaved= 2 IEnMin= 2 EnMin= -4073.34609605926     IErMin= 2 ErrMin= 5.23D-03
 ErrMax= 5.23D-03  0.00D+00 EMaxC= 1.00D-01 BMatC= 2.25D-01 BMatP= 3.41D+00
 IDIUse=3 WtCom= 9.48D-01 WtEn= 5.23D-02
 Coeff-Com: -0.695D-01 0.107D+01
 Coeff-En:   0.000D+00 0.100D+01
 Coeff:     -0.659D-01 0.107D+01
 Gap=     0.250 Goal=   None    Shift=    0.000
 Gap=     0.250 Goal=   None    Shift=    0.000
 RMSDP=7.48D-04 MaxDP=3.25D-02 DE=-5.02D-01 OVMax= 1.07D-01

 Cycle   3  Pass 0  IDiag  1:
 RMSU=  7.01D-04    CP:  9.76D-01  1.19D+00
 E= -4073.82592192202     Delta-E=       -0.479825862760 Rises=F Damp=F
 DIIS: error= 2.71D-03 at cycle   3 NSaved=   3.
 NSaved= 3 IEnMin= 3 EnMin= -4073.82592192202     IErMin= 3 ErrMin= 2.71D-03
 ErrMax= 2.71D-03  0.00D+00 EMaxC= 1.00D-01 BMatC= 1.05D-01 BMatP= 2.25D-01
 IDIUse=3 WtCom= 9.73D-01 WtEn= 2.71D-02
 Coeff-Com: -0.686D-01 0.438D+00 0.631D+00
 Coeff-En:   0.000D+00 0.000D+00 0.100D+01
 Coeff:     -0.667D-01 0.426D+00 0.641D+00
 Gap=     0.254 Goal=   None    Shift=    0.000
 Gap=     0.254 Goal=   None    Shift=    0.000
 RMSDP=2.17D-04 MaxDP=1.73D-02 DE=-4.80D-01 OVMax= 2.60D-02

 Cycle   4  Pass 0  IDiag  1:
 RMSU=  1.90D-04    CP:  9.76D-01  1.24D+00  8.78D-01
 E= -4073.85035905910     Delta-E=       -0.024437137079 Rises=F Damp=F
 DIIS: error= 1.22D-03 at cycle   4 NSaved=   4.
 NSaved= 4 IEnMin= 4 EnMin= -4073.85035905910     IErMin= 4 ErrMin= 1.22D-03
 ErrMax= 1.22D-03  0.00D+00 EMaxC= 1.00D-01 BMatC= 1.21D-02 BMatP= 1.05D-01
 IDIUse=3 WtCom= 9.88D-01 WtEn= 1.22D-02
 Coeff-Com: -0.821D-02 0.119D-01 0.242D+00 0.755D+00
 Coeff-En:   0.000D+00 0.000D+00 0.000D+00 0.100D+01
 Coeff:     -0.811D-02 0.117D-01 0.239D+00 0.758D+00
 Gap=     0.258 Goal=   None    Shift=    0.000
 Gap=     0.258 Goal=   None    Shift=    0.000
 RMSDP=8.35D-05 MaxDP=5.62D-03 DE=-2.44D-02 OVMax= 1.23D-02

 Cycle   5  Pass 0  IDiag  1:
 RMSU=  6.54D-05    CP:  9.76D-01  1.24D+00  9.50D-01  9.57D-01
 E= -4073.85429315324     Delta-E=       -0.003934094142 Rises=F Damp=F
 DIIS: error= 2.66D-04 at cycle   5 NSaved=   5.
 NSaved= 5 IEnMin= 5 EnMin= -4073.85429315324     IErMin= 5 ErrMin= 2.66D-04
 ErrMax= 2.66D-04  0.00D+00 EMaxC= 1.00D-01 BMatC= 9.06D-04 BMatP= 1.21D-02
 IDIUse=3 WtCom= 9.97D-01 WtEn= 2.66D-03
 Coeff-Com:  0.772D-02-0.410D-01-0.906D-02 0.158D+00 0.884D+00
 Coeff-En:   0.000D+00 0.000D+00 0.000D+00 0.000D+00 0.100D+01
 Coeff:      0.770D-02-0.409D-01-0.904D-02 0.158D+00 0.884D+00
 Gap=     0.261 Goal=   None    Shift=    0.000
 Gap=     0.261 Goal=   None    Shift=    0.000
 RMSDP=3.82D-05 MaxDP=2.10D-03 DE=-3.93D-03 OVMax= 5.93D-03

 Cycle   6  Pass 0  IDiag  1:
 RMSU=  2.59D-05    CP:  9.75D-01  1.23D+00  9.73D-01  1.05D+00  1.20D+00
 E= -4073.85490524733     Delta-E=       -0.000612094089 Rises=F Damp=F
 DIIS: error= 1.71D-04 at cycle   6 NSaved=   6.
 NSaved= 6 IEnMin= 6 EnMin= -4073.85490524733     IErMin= 6 ErrMin= 1.71D-04
 ErrMax= 1.71D-04  0.00D+00 EMaxC= 1.00D-01 BMatC= 2.59D-04 BMatP= 9.06D-04
 IDIUse=3 WtCom= 9.98D-01 WtEn= 1.71D-03
 Coeff-Com:  0.536D-02-0.208D-01-0.410D-01-0.494D-01 0.333D+00 0.773D+00
 Coeff-En:   0.000D+00 0.000D+00 0.000D+00 0.000D+00 0.000D+00 0.100D+01
 Coeff:      0.535D-02-0.208D-01-0.409D-01-0.493D-01 0.333D+00 0.773D+00
 Gap=     0.262 Goal=   None    Shift=    0.000
 Gap=     0.262 Goal=   None    Shift=    0.000
 RMSDP=1.99D-05 MaxDP=1.20D-03 DE=-6.12D-04 OVMax= 4.29D-03

 Cycle   7  Pass 0  IDiag  1:
 RMSU=  1.37D-05    CP:  9.75D-01  1.23D+00  9.81D-01  1.09D+00  1.37D+00
                    CP:  1.14D+00
 E= -4073.85508332069     Delta-E=       -0.000178073355 Rises=F Damp=F
 DIIS: error= 1.08D-04 at cycle   7 NSaved=   7.
 NSaved= 7 IEnMin= 7 EnMin= -4073.85508332069     IErMin= 7 ErrMin= 1.08D-04
 ErrMax= 1.08D-04  0.00D+00 EMaxC= 1.00D-01 BMatC= 5.21D-05 BMatP= 2.59D-04
 IDIUse=3 WtCom= 9.99D-01 WtEn= 1.08D-03
 Coeff-Com:  0.253D-04 0.352D-02-0.755D-02-0.463D-01-0.151D+00 0.218D+00
 Coeff-Com:  0.983D+00
 Coeff-En:   0.000D+00 0.000D+00 0.000D+00 0.000D+00 0.000D+00 0.000D+00
 Coeff-En:   0.100D+01
 Coeff:      0.253D-04 0.351D-02-0.754D-02-0.462D-01-0.150D+00 0.217D+00
 Coeff:      0.983D+00
 Gap=     0.263 Goal=   None    Shift=    0.000
 Gap=     0.263 Goal=   None    Shift=    0.000
 RMSDP=1.48D-05 MaxDP=7.72D-04 DE=-1.78D-04 OVMax= 2.43D-03

 Cycle   8  Pass 0  IDiag  1:
 RMSU=  7.92D-06    CP:  9.75D-01  1.23D+00  9.83D-01  1.11D+00  1.47D+00
                    CP:  1.48D+00  1.28D+00
 E= -4073.85513549931     Delta-E=       -0.000052178626 Rises=F Damp=F
 DIIS: error= 2.58D-05 at cycle   8 NSaved=   8.
 NSaved= 8 IEnMin= 8 EnMin= -4073.85513549931     IErMin= 8 ErrMin= 2.58D-05
 ErrMax= 2.58D-05  0.00D+00 EMaxC= 1.00D-01 BMatC= 1.15D-05 BMatP= 5.21D-05
 IDIUse=1 WtCom= 1.00D+00 WtEn= 0.00D+00
 Coeff-Com: -0.625D-03 0.404D-02 0.303D-02-0.886D-02-0.109D+00-0.343D-01
 Coeff-Com:  0.382D+00 0.763D+00
 Coeff:     -0.625D-03 0.404D-02 0.303D-02-0.886D-02-0.109D+00-0.343D-01
 Coeff:      0.382D+00 0.763D+00
 Gap=     0.263 Goal=   None    Shift=    0.000
 Gap=     0.263 Goal=   None    Shift=    0.000
 RMSDP=7.90D-06 MaxDP=2.41D-04 DE=-5.22D-05 OVMax= 9.56D-04

 Initial convergence to 1.0D-05 achieved.  Increase integral accuracy.
 Cycle   9  Pass 1  IDiag  1:
 E= -4073.85434361364     Delta-E=        0.000791885670 Rises=F Damp=F
 DIIS: error= 1.81D-04 at cycle   1 NSaved=   1.
 NSaved= 1 IEnMin= 1 EnMin= -4073.85434361364     IErMin= 1 ErrMin= 1.81D-04
 ErrMax= 1.81D-04  0.00D+00 EMaxC= 1.00D-01 BMatC= 1.06D-04 BMatP= 1.06D-04
 IDIUse=3 WtCom= 9.98D-01 WtEn= 1.81D-03
 Coeff-Com:  0.100D+01
 Coeff-En:   0.100D+01
 Coeff:      0.100D+01
 Gap=     0.263 Goal=   None    Shift=    0.000
 Gap=     0.263 Goal=   None    Shift=    0.000
 RMSDP=7.90D-06 MaxDP=2.41D-04 DE= 7.92D-04 OVMax= 5.26D-04

 Cycle  10  Pass 1  IDiag  1:
 RMSU=  1.01D-04    CP:  1.00D+00
 E= -4073.85436709569     Delta-E=       -0.000023482045 Rises=F Damp=F
 DIIS: error= 9.59D-06 at cycle   2 NSaved=   2.
 NSaved= 2 IEnMin= 2 EnMin= -4073.85436709569     IErMin= 2 ErrMin= 9.59D-06
 ErrMax= 9.59D-06  0.00D+00 EMaxC= 1.00D-01 BMatC= 1.27D-06 BMatP= 1.06D-04
 IDIUse=1 WtCom= 1.00D+00 WtEn= 0.00D+00
 Coeff-Com: -0.253D-01 0.103D+01
 Coeff:     -0.253D-01 0.103D+01
 Gap=     0.263 Goal=   None    Shift=    0.000
 Gap=     0.263 Goal=   None    Shift=    0.000
 RMSDP=6.11D-06 MaxDP=2.72D-04 DE=-2.35D-05 OVMax= 2.73D-04

 Cycle  11  Pass 1  IDiag  1:
 RMSU=  2.42D-06    CP:  1.00D+00  1.06D+00
 E= -4073.85436739895     Delta-E=       -0.000000303262 Rises=F Damp=F
 DIIS: error= 1.16D-05 at cycle   3 NSaved=   3.
 NSaved= 3 IEnMin= 3 EnMin= -4073.85436739895     IErMin= 2 ErrMin= 9.59D-06
 ErrMax= 1.16D-05  0.00D+00 EMaxC= 1.00D-01 BMatC= 1.48D-06 BMatP= 1.27D-06
 IDIUse=1 WtCom= 1.00D+00 WtEn= 0.00D+00
 Coeff-Com: -0.236D-01 0.548D+00 0.475D+00
 Coeff:     -0.236D-01 0.548D+00 0.475D+00
 Gap=     0.263 Goal=   None    Shift=    0.000
 Gap=     0.263 Goal=   None    Shift=    0.000
 RMSDP=7.71D-07 MaxDP=5.91D-05 DE=-3.03D-07 OVMax= 9.69D-05

 Cycle  12  Pass 1  IDiag  1:
 RMSU=  7.33D-07    CP:  1.00D+00  1.06D+00  9.81D-01
 E= -4073.85436774899     Delta-E=       -0.000000350039 Rises=F Damp=F
 DIIS: error= 2.48D-06 at cycle   4 NSaved=   4.
 NSaved= 4 IEnMin= 4 EnMin= -4073.85436774899     IErMin= 4 ErrMin= 2.48D-06
 ErrMax= 2.48D-06  0.00D+00 EMaxC= 1.00D-01 BMatC= 6.13D-08 BMatP= 1.27D-06
 IDIUse=1 WtCom= 1.00D+00 WtEn= 0.00D+00
 Coeff-Com:  0.220D-02-0.101D+00-0.325D-02 0.110D+01
 Coeff:      0.220D-02-0.101D+00-0.325D-02 0.110D+01
 Gap=     0.263 Goal=   None    Shift=    0.000
 Gap=     0.263 Goal=   None    Shift=    0.000
 RMSDP=5.07D-07 MaxDP=2.39D-05 DE=-3.50D-07 OVMax= 1.28D-04

 Cycle  13  Pass 1  IDiag  1:
 RMSU=  3.41D-07    CP:  1.00D+00  1.06D+00  1.11D+00  1.20D+00
 E= -4073.85436782741     Delta-E=       -0.000000078418 Rises=F Damp=F
 DIIS: error= 1.43D-06 at cycle   5 NSaved=   5.
 NSaved= 5 IEnMin= 5 EnMin= -4073.85436782741     IErMin= 5 ErrMin= 1.43D-06
 ErrMax= 1.43D-06  0.00D+00 EMaxC= 1.00D-01 BMatC= 2.96D-08 BMatP= 6.13D-08
 IDIUse=1 WtCom= 1.00D+00 WtEn= 0.00D+00
 Coeff-Com:  0.941D-02-0.242D+00-0.176D+00 0.511D+00 0.898D+00
 Coeff:      0.941D-02-0.242D+00-0.176D+00 0.511D+00 0.898D+00
 Gap=     0.263 Goal=   None    Shift=    0.000
 Gap=     0.263 Goal=   None    Shift=    0.000
 RMSDP=3.41D-07 MaxDP=1.55D-05 DE=-7.84D-08 OVMax= 1.01D-04

 Cycle  14  Pass 1  IDiag  1:
 RMSU=  1.50D-07    CP:  1.00D+00  1.06D+00  1.17D+00  1.41D+00  1.61D+00
 E= -4073.85436785391     Delta-E=       -0.000000026504 Rises=F Damp=F
 DIIS: error= 7.38D-07 at cycle   6 NSaved=   6.
 NSaved= 6 IEnMin= 6 EnMin= -4073.85436785391     IErMin= 6 ErrMin= 7.38D-07
 ErrMax= 7.38D-07  0.00D+00 EMaxC= 1.00D-01 BMatC= 2.48D-09 BMatP= 2.96D-08
 IDIUse=1 WtCom= 1.00D+00 WtEn= 0.00D+00
 Coeff-Com:  0.965D-03-0.171D-01-0.269D-01-0.115D+00 0.137D+00 0.102D+01
 Coeff:      0.965D-03-0.171D-01-0.269D-01-0.115D+00 0.137D+00 0.102D+01
 Gap=     0.263 Goal=   None    Shift=    0.000
 Gap=     0.263 Goal=   None    Shift=    0.000
 RMSDP=1.32D-07 MaxDP=7.34D-06 DE=-2.65D-08 OVMax= 4.15D-05

 Cycle  15  Pass 1  IDiag  1:
 RMSU=  5.13D-08    CP:  1.00D+00  1.06D+00  1.17D+00  1.43D+00  1.93D+00
                    CP:  1.26D+00
 E= -4073.85436785111     Delta-E=        0.000000002805 Rises=F Damp=F
 DIIS: error= 2.61D-07 at cycle   7 NSaved=   7.
 NSaved= 7 IEnMin= 6 EnMin= -4073.85436785391     IErMin= 7 ErrMin= 2.61D-07
 ErrMax= 2.61D-07  0.00D+00 EMaxC= 1.00D-01 BMatC= 8.10D-10 BMatP= 2.48D-09
 IDIUse=1 WtCom= 1.00D+00 WtEn= 0.00D+00
 Coeff-Com: -0.807D-03 0.244D-01 0.110D-01-0.127D+00-0.653D-01 0.478D+00
 Coeff-Com:  0.680D+00
 Coeff:     -0.807D-03 0.244D-01 0.110D-01-0.127D+00-0.653D-01 0.478D+00
 Coeff:      0.680D+00
 Gap=     0.263 Goal=   None    Shift=    0.000
 Gap=     0.263 Goal=   None    Shift=    0.000
 RMSDP=4.08D-08 MaxDP=2.12D-06 DE= 2.80D-09 OVMax= 1.20D-05

 Cycle  16  Pass 1  IDiag  1:
 RMSU=  2.05D-08    CP:  1.00D+00  1.06D+00  1.17D+00  1.43D+00  2.01D+00
                    CP:  1.37D+00  1.13D+00
 E= -4073.85436785174     Delta-E=       -0.000000000629 Rises=F Damp=F
 DIIS: error= 1.17D-07 at cycle   8 NSaved=   8.
 NSaved= 8 IEnMin= 6 EnMin= -4073.85436785391     IErMin= 8 ErrMin= 1.17D-07
 ErrMax= 1.17D-07  0.00D+00 EMaxC= 1.00D-01 BMatC= 6.72D-11 BMatP= 8.10D-10
 IDIUse=1 WtCom= 1.00D+00 WtEn= 0.00D+00
 Coeff-Com: -0.272D-03 0.680D-02 0.569D-02-0.108D-01-0.326D-01-0.184D-01
 Coeff-Com:  0.138D+00 0.911D+00
 Coeff:     -0.272D-03 0.680D-02 0.569D-02-0.108D-01-0.326D-01-0.184D-01
 Coeff:      0.138D+00 0.911D+00
 Gap=     0.263 Goal=   None    Shift=    0.000
 Gap=     0.263 Goal=   None    Shift=    0.000
 RMSDP=1.43D-08 MaxDP=7.75D-07 DE=-6.29D-10 OVMax= 4.69D-06

 Cycle  17  Pass 1  IDiag  1:
 RMSU=  8.11D-09    CP:  1.00D+00  1.06D+00  1.17D+00  1.43D+00  2.03D+00
                    CP:  1.39D+00  1.29D+00  1.21D+00
 E= -4073.85436785185     Delta-E=       -0.000000000113 Rises=F Damp=F
 DIIS: error= 4.61D-08 at cycle   9 NSaved=   9.
 NSaved= 9 IEnMin= 6 EnMin= -4073.85436785391     IErMin= 9 ErrMin= 4.61D-08
 ErrMax= 4.61D-08  0.00D+00 EMaxC= 1.00D-01 BMatC= 2.61D-11 BMatP= 6.72D-11
 IDIUse=1 WtCom= 1.00D+00 WtEn= 0.00D+00
 Coeff-Com:  0.182D-03-0.609D-02-0.140D-02 0.424D-01 0.825D-02-0.178D+00
 Coeff-Com: -0.187D+00 0.398D+00 0.924D+00
 Coeff:      0.182D-03-0.609D-02-0.140D-02 0.424D-01 0.825D-02-0.178D+00
 Coeff:     -0.187D+00 0.398D+00 0.924D+00
 Gap=     0.263 Goal=   None    Shift=    0.000
 Gap=     0.263 Goal=   None    Shift=    0.000
 RMSDP=9.42D-09 MaxDP=5.59D-07 DE=-1.13D-10 OVMax= 3.35D-06

 SCF Done:  E(ULC-wPBE) =  -4073.85436785     A.U. after   17 cycles
            NFock= 17  Conv=0.94D-08     -V/T= 2.0046
 <Sx>= 0.0000 <Sy>= 0.0000 <Sz>= 0.0000 <S**2>=-0.0000 S=-0.0000
 <L.S>= 0.000000000000E+00
 KE= 4.055124715603D+03 PE=-2.201645468393D+04 EE= 7.664552206070D+03
 Annihilation of the first spin contaminant:
 S**2 before annihilation    -0.0000,   after    -0.0000
 Leave Link  502 at Sat Jul 25 05:59:53 2020, MaxMem=  4026531840 cpu:            4244.5 elap:             541.6
 (Enter /opt/ohpc/pub/libs/gaussian/g16-A.03/sandybridge/g16/l601.exe)
 Copying SCF densities to generalized density rwf, IOpCl= 1 IROHF=0.

 **********************************************************************

            Population analysis using the SCF density.

 **********************************************************************

 Orbital symmetries:
 Alpha Orbitals:
       Occupied  (A) (A) (A) (A) (A) (A) (A) (A) (A) (A) (A) (A)
                 (A) (A) (A) (A) (A) (A) (A) (A) (A) (A) (A) (A)
                 (A) (A) (A) (A) (A) (A) (A) (A) (A) (A) (A) (A)
                 (A) (A) (A) (A) (A) (A) (A) (A) (A) (A) (A) (A)
                 (A) (A) (A) (A) (A) (A) (A) (A) (A) (A) (A) (A)
                 (A) (A) (A) (A) (A) (A) (A) (A) (A) (A) (A) (A)
                 (A) (A) (A) (A) (A) (A) (A) (A) (A) (A) (A) (A)
                 (A) (A) (A) (A) (A) (A) (A) (A) (A) (A) (A) (A)
                 (A) (A) (A) (A) (A) (A) (A) (A) (A) (A) (A) (A)
                 (A) (A) (A) (A) (A) (A) (A) (A) (A) (A) (A) (A)
                 (A) (A) (A) (A) (A) (A) (A) (A) (A) (A) (A) (A)
                 (A) (A) (A) (A) (A) (A) (A) (A) (A) (A) (A) (A)
                 (A) (A) (A) (A) (A) (A) (A) (A) (A) (A) (A) (A)
                 (A) (A) (A) (A) (A) (A) (A) (A) (A) (A) (A) (A)
                 (A) (A) (A) (A) (A) (A) (A) (A) (A) (A) (A) (A)
                 (A) (A) (A) (A) (A) (A) (A) (A) (A) (A) (A) (A)
                 (A) (A) (A) (A) (A) (A) (A) (A) (A) (A) (A) (A)
                 (A) (A)
       Virtual   (A) (A) (A) (A) (A) (A) (A) (A) (A) (A) (A) (A)
                 (A) (A) (A) (A) (A) (A) (A) (A) (A) (A) (A) (A)
                 (A) (A) (A) (A) (A) (A) (A) (A) (A) (A) (A) (A)
                 (A) (A) (A) (A) (A) (A) (A) (A) (A) (A) (A) (A)
                 (A) (A) (A) (A) (A) (A) (A) (A) (A) (A) (A) (A)
                 (A) (A) (A) (A) (A) (A) (A) (A) (A) (A) (A) (A)
                 (A) (A) (A) (A) (A) (A) (A) (A) (A) (A) (A) (A)
                 (A) (A) (A) (A) (A) (A) (A) (A) (A) (A) (A) (A)
                 (A) (A) (A) (A) (A) (A) (A) (A) (A) (A) (A) (A)
                 (A) (A) (A) (A) (A) (A) (A) (A) (A) (A) (A) (A)
                 (A) (A) (A) (A) (A) (A) (A) (A) (A) (A) (A) (A)
                 (A) (A) (A) (A) (A) (A) (A) (A) (A) (A) (A) (A)
                 (A) (A) (A) (A) (A) (A) (A) (A) (A) (A) (A) (A)
                 (A) (A) (A) (A) (A) (A) (A) (A) (A) (A) (A) (A)
                 (A) (A) (A) (A) (A) (A) (A) (A) (A) (A) (A) (A)
                 (A) (A) (A) (A) (A) (A) (A) (A) (A) (A) (A) (A)
                 (A) (A) (A) (A) (A) (A) (A) (A) (A) (A) (A) (A)
                 (A) (A) (A) (A) (A) (A) (A) (A) (A) (A) (A) (A)
                 (A) (A) (A) (A) (A) (A) (A) (A) (A) (A) (A) (A)
                 (A) (A) (A) (A) (A) (A) (A) (A) (A) (A) (A) (A)
                 (A) (A) (A) (A) (A) (A) (A) (A) (A) (A) (A) (A)
                 (A) (A) (A) (A) (A) (A) (A) (A) (A) (A) (A) (A)
                 (A) (A) (A) (A) (A) (A) (A) (A) (A) (A) (A) (A)
                 (A) (A) (A) (A) (A) (A) (A) (A) (A) (A) (A) (A)
[...]
    16 N(14)  Bbb     0.0000     0.000     0.000     0.000  0.9415 -0.2836 -0.1820
              Bcc     0.0000     0.000     0.000     0.000 -0.0590 -0.6703  0.7397
 
              Baa    -0.0000    -0.000    -0.000    -0.000  0.5203  0.6976  0.4926
    17 C(13)  Bbb    -0.0000    -0.000    -0.000    -0.000  0.0541 -0.6025  0.7963
              Bcc     0.0000     0.000     0.000     0.000  0.8523 -0.3876 -0.3512
 
              Baa    -0.0000    -0.000    -0.000    -0.000 -0.4846  0.5423  0.6863
    18 C(13)  Bbb    -0.0000    -0.000    -0.000    -0.000  0.8573  0.4503  0.2494
              Bcc     0.0000     0.000     0.000     0.000 -0.1738  0.7093 -0.6832
 
              Baa    -0.0000    -0.000    -0.000    -0.000  0.9993 -0.0333 -0.0138
    19 N(14)  Bbb     0.0000     0.000     0.000     0.000  0.0255  0.9233 -0.3831
              Bcc     0.0000     0.000     0.000     0.000  0.0255  0.3825  0.9236
 
              Baa    -0.0000    -0.000    -0.000    -0.000 -0.3505  0.9021  0.2516
    20 C(13)  Bbb     0.0000     0.000     0.000     0.000  0.7667  0.4307 -0.4762
              Bcc     0.0000     0.000     0.000     0.000  0.5379 -0.0260  0.8426
 
              Baa    -0.0000    -0.000    -0.000    -0.000  0.7453  0.6598 -0.0956
    21 C(13)  Bbb     0.0000     0.000     0.000     0.000  0.5877 -0.5824  0.5616
              Bcc     0.0000     0.000     0.000     0.000 -0.3149  0.4747  0.8219
 
              Baa    -0.0000    -0.000    -0.000    -0.000 -0.1544  0.9006  0.4063
    22 S(33)  Bbb     0.0000     0.000     0.000     0.000  0.5109 -0.2792  0.8130
              Bcc     0.0000     0.000     0.000     0.000  0.8456  0.3331 -0.4170
 
              Baa    -0.0000    -0.000    -0.000    -0.000  0.9196 -0.2262 -0.3212
    23 C(13)  Bbb     0.0000     0.000     0.000     0.000  0.3396  0.8688  0.3603
              Bcc     0.0000     0.000     0.000     0.000  0.1976 -0.4404  0.8758
 
              Baa    -0.0000    -0.000    -0.000    -0.000  0.4283  0.8606  0.2757
    24 C(13)  Bbb     0.0000     0.000     0.000     0.000  0.8744 -0.4716  0.1140
              Bcc     0.0000     0.000     0.000     0.000 -0.2281 -0.1923  0.9545
 
              Baa    -0.0000    -0.000    -0.000    -0.000  0.1382 -0.2419  0.9604
    25 C(13)  Bbb     0.0000     0.000     0.000     0.000  0.9168 -0.3355 -0.2164
              Bcc     0.0000     0.000     0.000     0.000  0.3746  0.9104  0.1754
 
              Baa    -0.0000    -0.000    -0.000    -0.000  0.1403 -0.2291  0.9632
    26 C(13)  Bbb     0.0000     0.000     0.000     0.000  0.0837  0.9721  0.2190
              Bcc     0.0000     0.000     0.000     0.000  0.9866 -0.0499 -0.1556
 
              Baa    -0.0000    -0.000    -0.000    -0.000  0.9994  0.0188 -0.0307
    27 N(14)  Bbb     0.0000     0.000     0.000     0.000  0.0325 -0.1042  0.9940
              Bcc     0.0000     0.000     0.000     0.000 -0.0155  0.9944  0.1047
 
              Baa    -0.0000    -0.000    -0.000    -0.000  0.0128  0.9657  0.2592
    28 C(13)  Bbb     0.0000     0.000     0.000     0.000  0.8822 -0.1329  0.4518
              Bcc     0.0000     0.000     0.000     0.000 -0.4708 -0.2229  0.8536
 
              Baa    -0.0000    -0.000    -0.000    -0.000 -0.3474  0.8567  0.3812
    29 C(13)  Bbb     0.0000     0.000     0.000     0.000  0.0814 -0.3774  0.9225
              Bcc     0.0000     0.000     0.000     0.000  0.9342  0.3515  0.0614
 
              Baa    -0.0000    -0.000    -0.000    -0.000  0.9267  0.3288  0.1821
    30 N(14)  Bbb     0.0000     0.000     0.000     0.000 -0.3042  0.9407 -0.1501
              Bcc     0.0000     0.000     0.000     0.000 -0.2206  0.0837  0.9718
 
              Baa    -0.0000    -0.000    -0.000    -0.000 -0.0372 -0.0633  0.9973
    31 C(13)  Bbb    -0.0000    -0.000    -0.000    -0.000  0.8141 -0.5807 -0.0065
              Bcc     0.0000     0.000     0.000     0.000  0.5796  0.8116  0.0731
 
              Baa    -0.0000    -0.000    -0.000    -0.000  0.9235  0.3827 -0.0240
    32 C(13)  Bbb     0.0000     0.000     0.000     0.000 -0.1226  0.3540  0.9272
              Bcc     0.0000     0.000     0.000     0.000 -0.3634  0.8533 -0.3739
 
              Baa    -0.0000    -0.000    -0.000    -0.000 -0.1547 -0.2869  0.9454
    33 S(33)  Bbb    -0.0000    -0.000    -0.000    -0.000  0.7630 -0.6426 -0.0701
              Bcc     0.0000     0.000     0.000     0.000  0.6276  0.7105  0.3183
 
              Baa    -0.0000    -0.000    -0.000    -0.000 -0.1749 -0.0521  0.9832
    34 C(13)  Bbb     0.0000     0.000     0.000     0.000  0.9832  0.0439  0.1772
              Bcc     0.0000     0.000     0.000     0.000 -0.0524  0.9977  0.0436
 
              Baa    -0.0000    -0.000    -0.000    -0.000  0.0023  0.3084  0.9513
    35 C(13)  Bbb     0.0000     0.000     0.000     0.000  0.8702  0.4681 -0.1539
              Bcc     0.0000     0.000     0.000     0.000 -0.4928  0.8281 -0.2673
 
              Baa    -0.0000    -0.000    -0.000    -0.000 -0.1898  0.9603 -0.2044
    36 C(13)  Bbb    -0.0000    -0.000    -0.000    -0.000  0.0114  0.2103  0.9776
              Bcc     0.0000     0.000     0.000     0.000  0.9817  0.1832 -0.0509
 
              Baa    -0.0000    -0.000    -0.000    -0.000  0.6415  0.7655  0.0490
    37 C(13)  Bbb    -0.0000    -0.000    -0.000    -0.000 -0.0381 -0.0320  0.9988
              Bcc     0.0000     0.000     0.000     0.000  0.7662 -0.6426  0.0087
 
              Baa    -0.0000    -0.000    -0.000    -0.000  0.8472 -0.5198 -0.1100
    38 N(14)  Bbb    -0.0000    -0.000    -0.000    -0.000  0.1650  0.0606  0.9844
              Bcc     0.0000     0.000     0.000     0.000  0.5050  0.8521 -0.1371
 
              Baa    -0.0000    -0.000    -0.000    -0.000 -0.2991  0.1764  0.9378
    39 C(13)  Bbb     0.0000     0.000     0.000     0.000  0.9541  0.0732  0.2906
              Bcc     0.0000     0.000     0.000     0.000 -0.0174  0.9816 -0.1902
 
              Baa    -0.0000    -0.000    -0.000    -0.000  1.0000 -0.0094  0.0007
    40 C(13)  Bbb     0.0000     0.000     0.000     0.000  0.0075  0.7454 -0.6665
              Bcc     0.0000     0.000     0.000     0.000  0.0058  0.6665  0.7455
 
              Baa    -0.0000    -0.000    -0.000    -0.000  0.8607 -0.4974  0.1085
    41 N(14)  Bbb     0.0000     0.000     0.000     0.000 -0.0058  0.2035  0.9791
              Bcc     0.0000     0.000     0.000     0.000  0.5091  0.8433 -0.1723
 
              Baa    -0.0000    -0.000    -0.000    -0.000 -0.2966  0.1195  0.9475
    42 C(13)  Bbb    -0.0000    -0.000    -0.000    -0.000  0.9125  0.3282  0.2442
              Bcc     0.0000     0.000     0.000     0.000 -0.2817  0.9370 -0.2064
 
              Baa    -0.0000    -0.000    -0.000    -0.000  0.9909 -0.1005  0.0900
    43 C(13)  Bbb     0.0000     0.000     0.000     0.000  0.1218  0.9535 -0.2755
              Bcc     0.0000     0.000     0.000     0.000 -0.0581  0.2840  0.9571
 
              Baa    -0.0000    -0.000    -0.000    -0.000  0.9770  0.1945  0.0878
    44 S(33)  Bbb     0.0000     0.000     0.000     0.000 -0.1847  0.5645  0.8045
              Bcc     0.0000     0.000     0.000     0.000 -0.1069  0.8022 -0.5875
 
              Baa    -0.0000    -0.000    -0.000    -0.000  0.2486  0.6845  0.6854
    45 C(13)  Bbb    -0.0000    -0.000    -0.000    -0.000  0.9239  0.0450 -0.3800
              Bcc     0.0000     0.000     0.000     0.000 -0.2910  0.7277 -0.6212
 
              Baa    -0.0000    -0.000    -0.000    -0.000  0.8765 -0.3840  0.2904
    46 C(13)  Bbb    -0.0000    -0.000    -0.000    -0.000  0.1289  0.7682  0.6271
              Bcc     0.0000     0.000     0.000     0.000 -0.4639 -0.5122  0.7228
 
              Baa    -0.0000    -0.000    -0.000    -0.000 -0.0516  0.8146 -0.5777
    47 C(13)  Bbb     0.0000     0.000     0.000     0.000 -0.5708  0.4506  0.6864
              Bcc     0.0000     0.000     0.000     0.000  0.8195  0.3652  0.4417
 
              Baa    -0.0000    -0.000    -0.000    -0.000  0.1070  0.8847  0.4536
    48 C(13)  Bbb    -0.0000    -0.000    -0.000    -0.000  0.3963 -0.4564  0.7967
              Bcc     0.0000     0.000     0.000     0.000  0.9119  0.0945 -0.3994
 
              Baa    -0.0000    -0.000    -0.000    -0.000  0.1159  0.7133  0.6912
    49 N(14)  Bbb    -0.0000    -0.000    -0.000    -0.000 -0.3701 -0.6148  0.6965
              Bcc     0.0000     0.000     0.000     0.000  0.9217 -0.3365  0.1927
 
              Baa    -0.0000    -0.000    -0.000    -0.000  0.0932  0.7124  0.6956
    50 C(13)  Bbb     0.0000     0.000     0.000     0.000  0.9878  0.0215 -0.1543
              Bcc     0.0000     0.000     0.000     0.000  0.1249 -0.7015  0.7016
 
              Baa    -0.0000    -0.000    -0.000    -0.000  0.9609  0.2617 -0.0903
    51 C(13)  Bbb     0.0000     0.000     0.000     0.000 -0.2447  0.9556  0.1644
              Bcc     0.0000     0.000     0.000     0.000  0.1293 -0.1358  0.9823
 
              Baa    -0.0000    -0.000    -0.000    -0.000  0.9609 -0.1982  0.1935
    52 N(14)  Bbb     0.0000     0.000     0.000     0.000 -0.1021  0.3957  0.9127
              Bcc     0.0000     0.000     0.000     0.000  0.2575  0.8967 -0.3600
 
              Baa    -0.0000    -0.000    -0.000    -0.000  0.8232  0.3778 -0.4239
    53 C(13)  Bbb     0.0000     0.000     0.000     0.000 -0.2555  0.9131  0.3177
              Bcc     0.0000     0.000     0.000     0.000  0.5071 -0.1532  0.8482
 
              Baa    -0.0000    -0.000    -0.000    -0.000 -0.1708  0.8884 -0.4261
    54 C(13)  Bbb     0.0000     0.000     0.000     0.000 -0.4844  0.3009  0.8214
              Bcc     0.0000     0.000     0.000     0.000  0.8580  0.3468  0.3790
 
              Baa    -0.0000    -0.000    -0.000    -0.000  0.8992  0.3663 -0.2395
    55 S(33)  Bbb     0.0000     0.000     0.000     0.000 -0.0278  0.5939  0.8041
              Bcc     0.0000     0.000     0.000     0.000 -0.4367  0.7163 -0.5442
 
              Baa    -0.0000    -0.000    -0.000    -0.000  0.8746  0.4548  0.1680
    56 H(1)   Bbb     0.0000     0.000     0.000     0.000 -0.3532  0.8351 -0.4217
              Bcc     0.0000     0.000     0.000     0.000 -0.3321  0.3095  0.8910
 
              Baa    -0.0000    -0.000    -0.000    -0.000  0.5116  0.8592  0.0056
    57 H(1)   Bbb    -0.0000    -0.000    -0.000    -0.000  0.8590 -0.5116  0.0205
              Bcc     0.0000     0.000     0.000     0.000 -0.0205  0.0057  0.9998
 
              Baa    -0.0000    -0.000    -0.000    -0.000  0.3151  0.9473  0.0578
    58 H(1)   Bbb     0.0000     0.000     0.000     0.000  0.9474 -0.3104 -0.0778
              Bcc     0.0000     0.000     0.000     0.000  0.0558 -0.0793  0.9953
 
              Baa    -0.0000    -0.000    -0.000    -0.000 -0.1694 -0.1462  0.9746
    59 H(1)   Bbb    -0.0000    -0.000    -0.000    -0.000  0.9855 -0.0252  0.1675
              Bcc     0.0000     0.000     0.000     0.000  0.0001  0.9889  0.1484
 
              Baa    -0.0000    -0.000    -0.000    -0.000 -0.5564  0.4919  0.6697
    60 H(1)   Bbb    -0.0000    -0.000    -0.000    -0.000  0.4743 -0.4737  0.7421
              Bcc     0.0000     0.000     0.000     0.000  0.6823  0.7305  0.0303
 
              Baa    -0.0000    -0.000    -0.000    -0.000  0.6684  0.3764 -0.6416
    61 H(1)   Bbb    -0.0000    -0.000    -0.000    -0.000  0.7331 -0.4794  0.4824
              Bcc     0.0000     0.000     0.000     0.000  0.1260  0.7928  0.5963
 
              Baa    -0.0000    -0.000    -0.000    -0.000 -0.4999  0.8631 -0.0720
    62 H(1)   Bbb     0.0000     0.000     0.000     0.000 -0.3264 -0.1107  0.9387
              Bcc     0.0000     0.000     0.000     0.000  0.8022  0.4927  0.3371
 
              Baa    -0.0000    -0.000    -0.000    -0.000 -0.6613  0.6962  0.2794
    63 H(1)   Bbb    -0.0000    -0.000    -0.000    -0.000  0.4087  0.6467 -0.6440
              Bcc     0.0000     0.000     0.000     0.000  0.6290  0.3117  0.7121
 
              Baa    -0.0000    -0.000    -0.000    -0.000 -0.0808 -0.5218  0.8493
    64 H(1)   Bbb    -0.0000    -0.000    -0.000    -0.000  0.9441 -0.3134 -0.1028
              Bcc     0.0000     0.000     0.000     0.000  0.3198  0.7934  0.5179
 
              Baa    -0.0000    -0.000    -0.000    -0.000  0.6050  0.7952  0.0407
    65 H(1)   Bbb     0.0000     0.000     0.000     0.000  0.7311 -0.5346 -0.4240
              Bcc     0.0000     0.000     0.000     0.000  0.3154 -0.2863  0.9047
 
              Baa    -0.0000    -0.000    -0.000    -0.000  0.2433 -0.4194  0.8746
    66 H(1)   Bbb    -0.0000    -0.000    -0.000    -0.000  0.9699  0.0932 -0.2251
              Bcc     0.0000     0.000     0.000     0.000  0.0129  0.9030  0.4294
 
              Baa    -0.0000    -0.000    -0.000    -0.000 -0.2027  0.9280  0.3126
    67 H(1)   Bbb     0.0000     0.000     0.000     0.000  0.7221 -0.0739  0.6878
              Bcc     0.0000     0.000     0.000     0.000  0.6614  0.3651 -0.6552
 
              Baa    -0.0000    -0.000    -0.000    -0.000  0.7867 -0.5976 -0.1549
    68 H(1)   Bbb     0.0000     0.000     0.000     0.000 -0.0830 -0.3511  0.9327
              Bcc     0.0000     0.000     0.000     0.000  0.6117  0.7209  0.3258
 
              Baa    -0.0000    -0.000    -0.000    -0.000  0.0675  0.2629  0.9624
    69 H(1)   Bbb    -0.0000    -0.000    -0.000    -0.000  0.5240  0.8115 -0.2585
              Bcc     0.0000     0.000     0.000     0.000  0.8490 -0.5218  0.0830
 
              Baa    -0.0000    -0.000    -0.000    -0.000 -0.0292  0.2235  0.9743
    70 H(1)   Bbb    -0.0000    -0.000    -0.000    -0.000  0.9821 -0.1749  0.0695
              Bcc     0.0000     0.000     0.000     0.000  0.1859  0.9589 -0.2144
 
              Baa    -0.0000    -0.000    -0.000    -0.000 -0.0159  0.2536  0.9672
    71 H(1)   Bbb    -0.0000    -0.000    -0.000    -0.000  0.9597 -0.2675  0.0859
              Bcc     0.0000     0.000     0.000     0.000  0.2804  0.9296 -0.2391
 
              Baa    -0.0000    -0.000    -0.000    -0.000  0.8326 -0.5521  0.0445
    72 H(1)   Bbb     0.0000     0.000     0.000     0.000 -0.3428 -0.4505  0.8243
              Bcc     0.0000     0.000     0.000     0.000  0.4350  0.7016  0.5644
 
              Baa    -0.0000    -0.000    -0.000    -0.000 -0.0854  0.6762  0.7318
    73 H(1)   Bbb    -0.0000    -0.000    -0.000    -0.000  0.9350  0.3082 -0.1757
              Bcc     0.0000     0.000     0.000     0.000 -0.3443  0.6692 -0.6585
 
              Baa    -0.0000    -0.000    -0.000    -0.000  0.7016  0.4526 -0.5504
    74 H(1)   Bbb     0.0000     0.000     0.000     0.000  0.7108 -0.4999  0.4949
              Bcc     0.0000     0.000     0.000     0.000  0.0511  0.7384  0.6724
 
              Baa    -0.0000    -0.000    -0.000    -0.000  0.3132  0.4269  0.8483
    75 H(1)   Bbb    -0.0000    -0.000    -0.000    -0.000 -0.5728  0.7974 -0.1899
              Bcc     0.0000     0.000     0.000     0.000  0.7575  0.4264 -0.4943
 
              Baa    -0.0000    -0.000    -0.000    -0.000  0.9483  0.0822 -0.3065
    76 H(1)   Bbb     0.0000     0.000     0.000     0.000  0.2471  0.4149  0.8757
              Bcc     0.0000     0.000     0.000     0.000 -0.1991  0.9061 -0.3732
 
              Baa    -0.0000    -0.000    -0.000    -0.000  0.1055  0.1338  0.9854
    77 H(1)   Bbb    -0.0000    -0.000    -0.000    -0.000  0.7216  0.6715 -0.1684
              Bcc     0.0000     0.000     0.000     0.000 -0.6842  0.7288 -0.0257
 

 ---------------------------------------------------------------------------------

 No NMR shielding tensors so no spin-rotation constants.
 Leave Link  601 at Sat Jul 25 08:51:37 2020, MaxMem=  4026531840 cpu:              10.3 elap:               1.4
 (Enter /opt/ohpc/pub/libs/gaussian/g16-A.03/sandybridge/g16/l9999.exe)

 Test job not archived.
 1\1\GINC-SKYLAKE041\FOpt\ULC-wPBE\CC-pVDZ\C40H22N10S5\RDU230\25-Jul-20
 20\0\\#P uLC-wPBE/cc-pVDZ iop(3/107=0396600000, 3/108=0396600000) opt\
 \H22 C40 S5 N10\\0,1\C,18.9226519952,1.7559353047,0.4157336188\C,18.86
 84879925,0.3724512484,0.5250822185\C,17.6368554623,-0.2575971765,0.452
 7512157\C,16.5069864433,0.5351654496,0.2730316612\N,16.5443065714,1.86
 27626248,0.1669910804\C,17.733198985,2.4515112713,0.237912166\C,15.170
 488786,-0.0807544577,0.1882572652\N,14.9407266432,-1.3559188969,0.2754
 777097\C,13.604671333,-1.6081355709,0.1584812826\C,12.7996695669,-0.51
 86490554,-0.0223667101\S,13.7747148931,0.9039367339,-0.0480712197\C,11
 .3395311966,-0.4866011946,-0.1736059367\C,10.5601097625,0.568730739,0.
 2937938288\C,9.1869928912,0.5243601565,0.1275074391\C,8.6194654007,-0.
 5865305218,-0.4934363182\N,9.3516958394,-1.6009800032,-0.9534458832\C,
 10.6642842847,-1.5382924188,-0.8031257497\C,7.1549034169,-0.6981065396
 ,-0.6880577669\N,6.5920575849,-1.5334582337,-1.5047484409\C,5.23514003
 28,-1.4074074361,-1.467511196\C,4.7301393599,-0.4703631208,-0.61171819
 5\S,6.044302271,0.2955586466,0.1982117211\C,3.3263070633,-0.1195567249
 ,-0.362922857\C,2.9194290127,1.1813790116,-0.0633496791\C,1.5783621474
 ,1.4458718536,0.1437361678\C,0.6755448317,0.3922071607,0.0364384136\N,
 1.0425989467,-0.8579050676,-0.2426912222\C,2.3318447072,-1.0998729004,
 -0.427717281\C,-0.7655325601,0.6184156829,0.2350252152\N,-1.2943879778
 ,1.7709675368,0.517074687\C,-2.6482393198,1.6557493079,0.6392403396\C,
 -3.1664250086,0.4054584765,0.4473421464\S,-1.8812641446,-0.688278142,0
 .0928805319\C,-4.5724134307,-0.0135034768,0.5172593526\C,-4.95669231,-
 1.2726149624,0.9809680543\C,-6.2991269968,-1.5985385279,1.0358034951\C
 ,-7.2258679576,-0.6437145481,0.6278619839\N,-6.880988561,0.5613589213,
 0.1758042681\C,-5.5908606883,0.8567013925,0.1180867082\C,-8.6687228089
 ,-0.9321254242,0.6763293989\N,-9.1783238517,-2.0537755602,1.0889151743
 \C,-10.5396215124,-2.0130122179,1.0130567983\C,-11.0836208052,-0.85144
 61623,0.5403857188\S,-9.8129924768,0.2543656808,0.1712219811\C,-12.504
 4587182,-0.5310200304,0.3501564449\C,-13.4875361467,-1.0637105381,1.18
 64167915\C,-14.8154123654,-0.7548780041,0.9595663062\C,-15.1239567803,
 0.0964019134,-0.0980616764\N,-14.2016983875,0.6215776467,-0.9029312671
 \C,-12.9333274659,0.3086572744,-0.6807047484\C,-16.522755221,0.4652925
 695,-0.3764794828\N,-17.5395582395,0.041522207,0.3122012027\C,-18.7020
 941677,0.5582681465,-0.1903226133\C,-18.5617993268,1.3782209037,-1.266
 447206\S,-16.9080804742,1.5222878498,-1.6839968268\H,19.8706789486,2.2
 924465148,0.4668288751\H,19.7802617833,-0.2110712713,0.6654805529\H,17
 .5218847096,-1.338398659,0.5303738335\H,17.7353675876,3.5416699048,0.1
 475068699\H,13.2479631529,-2.6351810347,0.2357323148\H,11.0253132695,1
 .4214108893,0.7925248171\H,8.5662131234,1.3506995269,0.476959283\H,11.
 2333555166,-2.3756033292,-1.2187097383\H,4.6268017522,-2.02835705,-2.1
 25372384\H,3.6538440942,1.9875535078,-0.0052253398\H,1.2086772696,2.44
 38178025,0.3769802233\H,2.6035936387,-2.1401089937,-0.6286037297\H,-3.
 2363033159,2.5355568876,0.9002961803\H,-4.2028260903,-1.9912286841,1.3
 095217064\H,-6.6512417874,-2.5659201657,1.3923615676\H,-5.3398456594,1
 .8429059552,-0.2829338787\H,-11.1151194561,-2.8921658034,1.3030167742\
 H,-13.2065246643,-1.7060647403,2.0228217995\H,-15.6205785396,-1.142250
 3645,1.5830011382\H,-12.2036661587,0.7450420424,-1.3703490296\H,-19.65
 00231353,0.2970986084,0.2791739107\H,-19.340736757,1.8945916591,-1.822
 5268575\\Version=EM64L-G16RevA.03\State=1-A\HF=-4074.0040834\S2=0.\S2-
 1=0.\S2A=0.\RMSD=9.350e-09\RMSF=2.126e-06\Dipole=1.7361498,0.7738861,0
 .7972903\Quadrupole=55.1106425,-22.5266813,-32.5839612,19.6592361,10.2
 388507,-3.5963464\PG=C01 [X(C40H22N10S5)]\\@


 KNOWLEDGE IS EXPERIMENT'S DAUGHTER.
 -- LEONARDO DA VINCI, IN "PENSIERI" CA. 1492
 Job cpu time:       0 days 23 hours 36 minutes 30.6 seconds.
 Elapsed time:       0 days  3 hours  0 minutes 56.7 seconds.
 File lengths (MBytes):  RWF=    940 Int=      0 D2E=      0 Chk=     84 Scr=      8
 Normal termination of Gaussian 16 at Sat Jul 25 08:51:38 2020.
