 Entering Gaussian System, Link 0=g16
 Input=mols_65_1_34_cF-cOC-CF_opt_0.gjf
 Output=mols_65_1_34_cF-cOC-CF_opt_0.log
 Initial command:
 /opt/ohpc/pub/libs/gaussian/g16-A.03/sandybridge/g16/l1.exe "/mnt/gpfs2_4m/scratch/rdu230/ondemand/projects/dihedral_energies/7trial/wtuning/redos_512cycles/mols_65_1_34_cF-cOC-CF/Gau-294598.inp" -scrdir="/mnt/gpfs2_4m/scratch/rdu230/ondemand/projects/dihedral_energies/7trial/wtuning/redos_512cycles/mols_65_1_34_cF-cOC-CF/"
 Entering Link 1 = /opt/ohpc/pub/libs/gaussian/g16-A.03/sandybridge/g16/l1.exe PID=    294599.
  
 Copyright (c) 1988,1990,1992,1993,1995,1998,2003,2009,2016,
            Gaussian, Inc.  All Rights Reserved.
  
 This is part of the Gaussian(R) 16 program.  It is based on
 the Gaussian(R) 09 system (copyright 2009, Gaussian, Inc.),
 the Gaussian(R) 03 system (copyright 2003, Gaussian, Inc.),
 the Gaussian(R) 98 system (copyright 1998, Gaussian, Inc.),
 the Gaussian(R) 94 system (copyright 1995, Gaussian, Inc.),
 the Gaussian 92(TM) system (copyright 1992, Gaussian, Inc.),
 the Gaussian 90(TM) system (copyright 1990, Gaussian, Inc.),
 the Gaussian 88(TM) system (copyright 1988, Gaussian, Inc.),
 the Gaussian 86(TM) system (copyright 1986, Carnegie Mellon
 University), and the Gaussian 82(TM) system (copyright 1983,
 Carnegie Mellon University). Gaussian is a federally registered
 trademark of Gaussian, Inc.
  
 This software contains proprietary and confidential information,
 including trade secrets, belonging to Gaussian, Inc.
  
 This software is provided under written license and may be
 used, copied, transmitted, or stored only in accord with that
 written license.
  
 The following legend is applicable only to US Government
 contracts under FAR:
  
                    RESTRICTED RIGHTS LEGEND
  
 Use, reproduction and disclosure by the US Government is
 subject to restrictions as set forth in subparagraphs (a)
 and (c) of the Commercial Computer Software - Restricted
 Rights clause in FAR 52.227-19.
  
 Gaussian, Inc.
 340 Quinnipiac St., Bldg. 40, Wallingford CT 06492
  
  
 ---------------------------------------------------------------
 Warning -- This program may not be used in any manner that
 competes with the business of Gaussian, Inc. or will provide
 assistance to any competitor of Gaussian, Inc.  The licensee
 of this program is prohibited from giving any competitor of
 Gaussian, Inc. access to this program.  By using this program,
 the user acknowledges that Gaussian, Inc. is engaged in the
 business of creating and licensing software in the field of
 computational chemistry and represents and warrants to the
 licensee that it is not a competitor of Gaussian, Inc. and that
 it will not use this program in any manner prohibited above.
 ---------------------------------------------------------------
  

 Cite this work as:
 Gaussian 16, Revision A.03,
 M. J. Frisch, G. W. Trucks, H. B. Schlegel, G. E. Scuseria, 
 M. A. Robb, J. R. Cheeseman, G. Scalmani, V. Barone, 
 G. A. Petersson, H. Nakatsuji, X. Li, M. Caricato, A. V. Marenich, 
 J. Bloino, B. G. Janesko, R. Gomperts, B. Mennucci, H. P. Hratchian, 
 J. V. Ortiz, A. F. Izmaylov, J. L. Sonnenberg, D. Williams-Young, 
 F. Ding, F. Lipparini, F. Egidi, J. Goings, B. Peng, A. Petrone, 
 T. Henderson, D. Ranasinghe, V. G. Zakrzewski, J. Gao, N. Rega, 
 G. Zheng, W. Liang, M. Hada, M. Ehara, K. Toyota, R. Fukuda, 
 J. Hasegawa, M. Ishida, T. Nakajima, Y. Honda, O. Kitao, H. Nakai, 
 T. Vreven, K. Throssell, J. A. Montgomery, Jr., J. E. Peralta, 
 F. Ogliaro, M. J. Bearpark, J. J. Heyd, E. N. Brothers, K. N. Kudin, 
 V. N. Staroverov, T. A. Keith, R. Kobayashi, J. Normand, 
 K. Raghavachari, A. P. Rendell, J. C. Burant, S. S. Iyengar, 
 J. Tomasi, M. Cossi, J. M. Millam, M. Klene, C. Adamo, R. Cammi, 
 J. W. Ochterski, R. L. Martin, K. Morokuma, O. Farkas, 
 J. B. Foresman, and D. J. Fox, Gaussian, Inc., Wallingford CT, 2016.
 
 ******************************************
 Gaussian 16:  EM64L-G16RevA.03 25-Dec-2016
                26-Jul-2020 
 ******************************************
 %mem=30GB
 %nproc=8
 Will use up to    8 processors via shared memory.
 ---------------------------------------------------------------
 #P uLC-wPBE/cc-pVDZ iop(3/107=0165100000, 3/108=0165100000) opt
 ---------------------------------------------------------------
 1/18=20,19=15,26=3,38=1/1,3;
 2/9=110,12=2,17=6,18=5,40=1/2;
 3/5=16,11=2,25=1,30=1,71=1,74=-41,107=165100000,108=165100000,116=2/1,2,3;
 4//1;
 5/5=2,38=5/2;
 6/7=2,8=2,9=2,10=2,28=1/1;
 7//1,2,3,16;
 1/18=20,19=15,26=3/3(2);
 2/9=110/2;
 99//99;
 2/9=110/2;
 3/5=16,11=2,25=1,30=1,71=1,74=-41,107=165100000,108=165100000,116=2/1,2,3;
 4/5=5,16=3,69=1/1;
 5/5=2,38=5/2;
 7//1,2,3,16;
 1/18=20,19=15,26=3/3(-5);
 2/9=110/2;
 6/7=2,8=2,9=2,10=2,19=2,28=1/1;
 99/9=1/99;
 Leave Link    1 at Sun Jul 26 12:21:18 2020, MaxMem=  4026531840 cpu:               1.4 elap:               0.2
 (Enter /opt/ohpc/pub/libs/gaussian/g16-A.03/sandybridge/g16/l101.exe)
 ---------------
 H8 C11 S1 O1 F2
 ---------------
 Symbolic Z-matrix:
 Charge =  0 Multiplicity = 1
 C                    -3.27109  -0.90829   0.00369 
 C                    -2.32293  -1.95404   0.21483 
 C                    -1.01566  -1.67935   0.2612 
 F                    -0.12669  -2.72067   0.45359 
 C                    -0.5453   -0.35662  -0.02576 
 C                    -1.4001    0.69225  -0.22892 
 O                    -0.88629   1.88764  -0.42456 
 C                    -1.75958   3.04998  -0.5183 
 C                    -2.783     0.37066  -0.19617 
 C                     0.93323  -0.1594    0.02425 
 C                     1.74847   0.49907   0.95533 
 F                     1.21503   1.09289   2.07192 
 C                     3.07319   0.57041   0.63592 
 C                     3.31182  -0.03876  -0.66016 
 S                     1.94157  -0.6241   -1.31211 
 H                    -4.33385  -1.13859   0.03392 
 H                    -2.65895  -2.91594   0.40539 
 H                    -2.4742    2.88743  -1.39353 
 H                    -2.44056   3.10427   0.40145 
 H                    -1.23039   3.95582  -0.67744 
 H                    -3.59447   1.19367  -0.31217 
 H                     3.87143   1.01147   1.19483 
 H                     4.28113  -0.15872  -1.15977 
 
 ITRead=  0  0  0  0  0  0  0  0  0  0  0  0  0  0  0  0  0  0  0  0
 ITRead=  0  0  0
 MicOpt= -1 -1 -1 -1 -1 -1 -1 -1 -1 -1 -1 -1 -1 -1 -1 -1 -1 -1 -1 -1
 MicOpt= -1 -1 -1
 NAtoms=     23 NQM=       23 NQMF=       0 NMMI=      0 NMMIF=      0
                NMic=       0 NMicF=      0.
                    Isotopes and Nuclear Properties:
 (Nuclear quadrupole moments (NQMom) in fm**2, nuclear magnetic moments (NMagM)
  in nuclear magnetons)

  Atom         1           2           3           4           5           6           7           8           9          10
 IAtWgt=          12          12          12          19          12          12          16          12          12          12
 AtmWgt=  12.0000000  12.0000000  12.0000000  18.9984033  12.0000000  12.0000000  15.9949146  12.0000000  12.0000000  12.0000000
 NucSpn=           0           0           0           1           0           0           0           0           0           0
 AtZEff=  -0.0000000  -0.0000000  -0.0000000  -0.0000000  -0.0000000  -0.0000000  -0.0000000  -0.0000000  -0.0000000  -0.0000000
 NQMom=    0.0000000   0.0000000   0.0000000   0.0000000   0.0000000   0.0000000   0.0000000   0.0000000   0.0000000   0.0000000
 NMagM=    0.0000000   0.0000000   0.0000000   2.6288670   0.0000000   0.0000000   0.0000000   0.0000000   0.0000000   0.0000000
 AtZNuc=   6.0000000   6.0000000   6.0000000   9.0000000   6.0000000   6.0000000   8.0000000   6.0000000   6.0000000   6.0000000

  Atom        11          12          13          14          15          16          17          18          19          20
 IAtWgt=          12          19          12          12          32           1           1           1           1           1
 AtmWgt=  12.0000000  18.9984033  12.0000000  12.0000000  31.9720718   1.0078250   1.0078250   1.0078250   1.0078250   1.0078250
 NucSpn=           0           1           0           0           0           1           1           1           1           1
 AtZEff=  -0.0000000  -0.0000000  -0.0000000  -0.0000000  -0.0000000  -0.0000000  -0.0000000  -0.0000000  -0.0000000  -0.0000000
 NQMom=    0.0000000   0.0000000   0.0000000   0.0000000   0.0000000   0.0000000   0.0000000   0.0000000   0.0000000   0.0000000
 NMagM=    0.0000000   2.6288670   0.0000000   0.0000000   0.0000000   2.7928460   2.7928460   2.7928460   2.7928460   2.7928460
 AtZNuc=   6.0000000   9.0000000   6.0000000   6.0000000  16.0000000   1.0000000   1.0000000   1.0000000   1.0000000   1.0000000

  Atom        21          22          23
 IAtWgt=           1           1           1
 AtmWgt=   1.0078250   1.0078250   1.0078250
 NucSpn=           1           1           1
 AtZEff=  -0.0000000  -0.0000000  -0.0000000
 NQMom=    0.0000000   0.0000000   0.0000000
 NMagM=    2.7928460   2.7928460   2.7928460
 AtZNuc=   1.0000000   1.0000000   1.0000000
 Leave Link  101 at Sun Jul 26 12:21:19 2020, MaxMem=  4026531840 cpu:               2.9 elap:               0.4
 (Enter /opt/ohpc/pub/libs/gaussian/g16-A.03/sandybridge/g16/l103.exe)

 GradGradGradGradGradGradGradGradGradGradGradGradGradGradGradGradGradGrad
 Berny optimization.
 Initialization pass.
                           ----------------------------
                           !    Initial Parameters    !
                           ! (Angstroms and Degrees)  !
 --------------------------                            --------------------------
 ! Name  Definition              Value          Derivative Info.                !
 --------------------------------------------------------------------------------
 ! R1    R(1,2)                  1.4273         estimate D2E/DX2                !
 ! R2    R(1,9)                  1.3834         estimate D2E/DX2                !
 ! R3    R(1,16)                 1.0878         estimate D2E/DX2                !
 ! R4    R(2,3)                  1.3366         estimate D2E/DX2                !
 ! R5    R(2,17)                 1.0366         estimate D2E/DX2                !
 ! R6    R(3,4)                  1.3826         estimate D2E/DX2                !
 ! R7    R(3,5)                  1.4329         estimate D2E/DX2                !
 ! R8    R(5,6)                  1.3682         estimate D2E/DX2                !
 ! R9    R(5,10)                 1.4925         estimate D2E/DX2                !
 ! R10   R(6,7)                  1.3158         estimate D2E/DX2                !
 ! R11   R(6,9)                  1.4202         estimate D2E/DX2                !
 ! R12   R(7,8)                  1.4569         estimate D2E/DX2                !
 ! R13   R(8,18)                 1.1415         estimate D2E/DX2                !
 ! R14   R(8,19)                 1.1457         estimate D2E/DX2                !
 ! R15   R(8,20)                 1.0611         estimate D2E/DX2                !
 ! R16   R(9,21)                 1.1616         estimate D2E/DX2                !
 ! R17   R(10,11)                1.4018         estimate D2E/DX2                !
 ! R18   R(10,15)                1.7374         estimate D2E/DX2                !
 ! R19   R(11,12)                1.3726         estimate D2E/DX2                !
 ! R20   R(11,13)                1.3646         estimate D2E/DX2                !
 ! R21   R(13,14)                1.4518         estimate D2E/DX2                !
 ! R22   R(13,22)                1.0696         estimate D2E/DX2                !
 ! R23   R(14,15)                1.6264         estimate D2E/DX2                !
 ! R24   R(14,23)                1.0971         estimate D2E/DX2                !
 ! A1    A(2,1,9)              117.6681         estimate D2E/DX2                !
 ! A2    A(2,1,16)             119.3248         estimate D2E/DX2                !
 ! A3    A(9,1,16)             122.9836         estimate D2E/DX2                !
 ! A4    A(1,2,3)              120.2826         estimate D2E/DX2                !
 ! A5    A(1,2,17)             119.456          estimate D2E/DX2                !
 ! A6    A(3,2,17)             120.0914         estimate D2E/DX2                !
 ! A7    A(2,3,4)              118.6126         estimate D2E/DX2                !
 ! A8    A(2,3,5)              120.2529         estimate D2E/DX2                !
 ! A9    A(4,3,5)              120.8007         estimate D2E/DX2                !
 ! A10   A(3,5,6)              122.1608         estimate D2E/DX2                !
 ! A11   A(3,5,10)             116.1339         estimate D2E/DX2                !
 ! A12   A(6,5,10)             121.506          estimate D2E/DX2                !
 ! A13   A(5,6,7)              118.3305         estimate D2E/DX2                !
 ! A14   A(5,6,9)              115.5523         estimate D2E/DX2                !
 ! A15   A(7,6,9)              126.1155         estimate D2E/DX2                !
 ! A16   A(6,7,8)              120.0215         estimate D2E/DX2                !
 ! A17   A(7,8,18)             108.118          estimate D2E/DX2                !
 ! A18   A(7,8,19)             110.0256         estimate D2E/DX2                !
 ! A19   A(7,8,20)             113.0662         estimate D2E/DX2                !
 ! A20   A(18,8,19)            104.4874         estimate D2E/DX2                !
 ! A21   A(18,8,20)            108.5892         estimate D2E/DX2                !
 ! A22   A(19,8,20)            112.1096         estimate D2E/DX2                !
 ! A23   A(1,9,6)              123.7948         estimate D2E/DX2                !
 ! A24   A(1,9,21)             115.0225         estimate D2E/DX2                !
 ! A25   A(6,9,21)             121.165          estimate D2E/DX2                !
 ! A26   A(5,10,11)            131.3346         estimate D2E/DX2                !
 ! A27   A(5,10,15)            120.9197         estimate D2E/DX2                !
 ! A28   A(11,10,15)           107.3973         estimate D2E/DX2                !
 ! A29   A(10,11,12)           121.1666         estimate D2E/DX2                !
 ! A30   A(10,11,13)           115.7007         estimate D2E/DX2                !
 ! A31   A(12,11,13)           123.031          estimate D2E/DX2                !
 ! A32   A(11,13,14)           110.2786         estimate D2E/DX2                !
 ! A33   A(11,13,22)           128.5903         estimate D2E/DX2                !
 ! A34   A(14,13,22)           121.1193         estimate D2E/DX2                !
 ! A35   A(13,14,15)           111.739          estimate D2E/DX2                !
 ! A36   A(13,14,23)           126.7012         estimate D2E/DX2                !
 ! A37   A(15,14,23)           121.4986         estimate D2E/DX2                !
 ! A38   A(10,15,14)            94.8402         estimate D2E/DX2                !
 ! D1    D(9,1,2,3)              2.2848         estimate D2E/DX2                !
 ! D2    D(9,1,2,17)           177.5512         estimate D2E/DX2                !
 ! D3    D(16,1,2,3)          -176.0025         estimate D2E/DX2                !
 ! D4    D(16,1,2,17)           -0.7361         estimate D2E/DX2                !
 ! D5    D(2,1,9,6)              1.2975         estimate D2E/DX2                !
 ! D6    D(2,1,9,21)          -177.184          estimate D2E/DX2                !
 ! D7    D(16,1,9,6)           179.5174         estimate D2E/DX2                !
 ! D8    D(16,1,9,21)            1.0358         estimate D2E/DX2                !
 ! D9    D(1,2,3,4)           -179.3359         estimate D2E/DX2                !
 ! D10   D(1,2,3,5)             -5.916          estimate D2E/DX2                !
 ! D11   D(17,2,3,4)             5.4279         estimate D2E/DX2                !
 ! D12   D(17,2,3,5)           178.8477         estimate D2E/DX2                !
 ! D13   D(2,3,5,6)              6.3245         estimate D2E/DX2                !
 ! D14   D(2,3,5,10)          -178.7354         estimate D2E/DX2                !
 ! D15   D(4,3,5,6)            179.5988         estimate D2E/DX2                !
 ! D16   D(4,3,5,10)            -5.4611         estimate D2E/DX2                !
 ! D17   D(3,5,6,7)            176.8299         estimate D2E/DX2                !
 ! D18   D(3,5,6,9)             -2.7235         estimate D2E/DX2                !
 ! D19   D(10,5,6,7)             2.1588         estimate D2E/DX2                !
 ! D20   D(10,5,6,9)          -177.3946         estimate D2E/DX2                !
 ! D21   D(3,5,10,11)         -107.3107         estimate D2E/DX2                !
 ! D22   D(3,5,10,15)           80.3818         estimate D2E/DX2                !
 ! D23   D(6,5,10,11)           67.6652         estimate D2E/DX2                !
 ! D24   D(6,5,10,15)         -104.6423         estimate D2E/DX2                !
 ! D25   D(5,6,7,8)           -174.1918         estimate D2E/DX2                !
 ! D26   D(9,6,7,8)              5.3094         estimate D2E/DX2                !
 ! D27   D(5,6,9,1)             -0.9993         estimate D2E/DX2                !
 ! D28   D(5,6,9,21)           177.3927         estimate D2E/DX2                !
 ! D29   D(7,6,9,1)            179.4873         estimate D2E/DX2                !
 ! D30   D(7,6,9,21)            -2.1206         estimate D2E/DX2                !
 ! D31   D(6,7,8,18)           -59.6808         estimate D2E/DX2                !
 ! D32   D(6,7,8,19)            53.8607         estimate D2E/DX2                !
 ! D33   D(6,7,8,20)          -179.9385         estimate D2E/DX2                !
 ! D34   D(5,10,11,12)           1.0518         estimate D2E/DX2                !
 ! D35   D(5,10,11,13)        -175.389          estimate D2E/DX2                !
 ! D36   D(15,10,11,12)        174.1402         estimate D2E/DX2                !
 ! D37   D(15,10,11,13)         -2.3006         estimate D2E/DX2                !
 ! D38   D(5,10,15,14)         175.5588         estimate D2E/DX2                !
 ! D39   D(11,10,15,14)          1.6048         estimate D2E/DX2                !
 ! D40   D(10,11,13,14)          1.9317         estimate D2E/DX2                !
 ! D41   D(10,11,13,22)       -179.3218         estimate D2E/DX2                !
 ! D42   D(12,11,13,14)       -174.4357         estimate D2E/DX2                !
 ! D43   D(12,11,13,22)          4.3109         estimate D2E/DX2                !
 ! D44   D(11,13,14,15)         -0.6089         estimate D2E/DX2                !
 ! D45   D(11,13,14,23)       -177.7779         estimate D2E/DX2                !
 ! D46   D(22,13,14,15)       -179.4645         estimate D2E/DX2                !
 ! D47   D(22,13,14,23)          3.3665         estimate D2E/DX2                !
 ! D48   D(13,14,15,10)         -0.6044         estimate D2E/DX2                !
 ! D49   D(23,14,15,10)        176.7337         estimate D2E/DX2                !
 --------------------------------------------------------------------------------
 Trust Radius=3.00D-01 FncErr=1.00D-07 GrdErr=1.00D-06 EigMax=2.50D+02 EigMin=1.00D-04
 Number of steps in this run=    121 maximum allowed number of steps=    138.
 GradGradGradGradGradGradGradGradGradGradGradGradGradGradGradGradGradGrad

 Leave Link  103 at Sun Jul 26 12:21:19 2020, MaxMem=  4026531840 cpu:               0.1 elap:               0.0
 (Enter /opt/ohpc/pub/libs/gaussian/g16-A.03/sandybridge/g16/l202.exe)
                          Input orientation:                          
 ---------------------------------------------------------------------
 Center     Atomic      Atomic             Coordinates (Angstroms)
 Number     Number       Type             X           Y           Z
 ---------------------------------------------------------------------
      1          6           0       -3.271087   -0.908288    0.003690
      2          6           0       -2.322933   -1.954044    0.214830
      3          6           0       -1.015661   -1.679348    0.261196
      4          9           0       -0.126693   -2.720666    0.453591
      5          6           0       -0.545296   -0.356618   -0.025761
      6          6           0       -1.400103    0.692254   -0.228919
      7          8           0       -0.886285    1.887642   -0.424558
      8          6           0       -1.759584    3.049984   -0.518301
      9          6           0       -2.783003    0.370661   -0.196173
     10          6           0        0.933227   -0.159396    0.024250
     11          6           0        1.748465    0.499065    0.955332
     12          9           0        1.215033    1.092894    2.071921
     13          6           0        3.073193    0.570412    0.635922
     14          6           0        3.311816   -0.038761   -0.660156
     15         16           0        1.941569   -0.624097   -1.312109
     16          1           0       -4.333846   -1.138587    0.033920
     17          1           0       -2.658951   -2.915935    0.405385
     18          1           0       -2.474200    2.887432   -1.393534
     19          1           0       -2.440555    3.104273    0.401445
     20          1           0       -1.230388    3.955822   -0.677439
     21          1           0       -3.594470    1.193672   -0.312170
     22          1           0        3.871433    1.011473    1.194826
     23          1           0        4.281128   -0.158723   -1.159766
 ---------------------------------------------------------------------
                    Distance matrix (angstroms):
                    1          2          3          4          5
     1  C    0.000000
     2  C    1.427299   0.000000
     3  C    2.397455   1.336626   0.000000
     4  F    3.657094   2.338415   1.382615   0.000000
     5  C    2.781213   2.402009   1.432900   2.448210   0.000000
     6  C    2.473140   2.837503   2.452041   3.706132   1.368247
     7  O    3.699716   4.151063   3.634613   4.752329   2.304781
     8  C    4.269079   5.088727   4.850528   6.075468   3.649935
     9  C    1.383431   2.405170   2.745036   4.127285   2.359090
    10  C    4.270541   3.722856   2.482854   2.804972   1.492457
    11  C    5.299261   4.810652   3.587158   3.759605   2.637437
    12  F    5.329876   5.024920   3.992499   4.354591   3.098405
    13  C    6.544934   5.972300   4.681940   4.593877   3.793504
    14  C    6.673184   6.015339   4.718842   4.500710   3.921837
    15  S    5.383667   4.720835   3.511987   3.433803   2.812603
    16  H    1.087846   2.177492   3.369633   4.514337   3.868869
    17  H    2.136988   1.036559   2.061635   2.540233   3.347167
    18  H    4.122469   5.103881   5.071582   6.354008   4.014391
    19  H    4.116872   5.063125   4.993298   6.267902   3.968914
    20  H    5.318642   6.075880   5.716842   6.860967   4.414881
    21  H    2.150019   3.435499   3.902979   5.285254   3.432622
    22  H    7.491320   6.937208   5.656489   5.519357   4.782154
    23  H    7.677983   6.980424   5.690994   5.347463   4.961804
                    6          7          8          9         10
     6  C    0.000000
     7  O    1.315764   0.000000
     8  C    2.402469   1.456873   0.000000
     9  C    1.420178   2.439453   2.886161   0.000000
    10  C    2.496764   2.775323   4.224419   3.760307   0.000000
    11  C    3.369459   3.282400   4.580959   4.677249   1.401819
    12  F    3.506182   3.358507   4.403158   4.652974   2.416734
    13  C    4.557760   4.305482   5.553039   5.918388   2.342267
    14  C    4.787748   4.624996   5.939660   6.126151   2.478033
    15  S    3.751380   3.885015   5.275181   4.955445   1.737399
    16  H    3.468128   4.610200   4.947312   2.176209   5.357328
    17  H    3.873767   5.187051   6.103626   3.343497   4.543954
    18  H    2.707179   2.111864   1.141548   2.804134   4.785795
    19  H    2.701432   2.139679   1.145688   2.819052   4.709163
    20  H    3.298613   2.111806   1.061092   3.936446   4.701980
    21  H    2.252465   2.797944   2.618242   1.161586   4.737511
    22  H    5.469739   5.101564   6.228859   6.828399   3.372571
    23  H    5.819538   5.606273   6.870042   7.149175   3.551103
                   11         12         13         14         15
    11  C    0.000000
    12  F    1.372572   0.000000
    13  C    1.364558   2.405793   0.000000
    14  C    2.311520   3.625105   1.451844   0.000000
    15  S    2.537729   3.863622   2.549951   1.626419   0.000000
    16  H    6.365957   6.318466   7.625438   7.755482   6.438736
    17  H    5.602676   5.818574   6.713065   6.712940   5.419141
    18  H    5.390025   5.370306   6.345143   6.525215   5.642383
    19  H    4.964050   4.494381   6.072631   6.640439   6.003334
    20  H    4.846512   4.662126   5.630873   6.048852   5.607118
    21  H    5.534979   5.368926   6.763510   7.024014   5.912012
    22  H    2.197024   2.798640   1.069624   2.203888   3.561487
    23  H    3.364626   4.627233   2.283690   1.097072   2.390255
                   16         17         18         19         20
    16  H    0.000000
    17  H    2.470268   0.000000
    18  H    4.658834   6.078594   0.000000
    19  H    4.660632   6.024169   1.808342   0.000000
    20  H    6.007536   7.101714   1.789223   1.831292   0.000000
    21  H    2.471009   4.275389   2.300690   2.343323   3.654008
    22  H    8.561370   7.661179   7.105342   6.697048   6.180869
    23  H    8.752302   7.629981   7.414052   7.633187   6.894848
                   21         22         23
    21  H    0.000000
    22  H    7.618657   0.000000
    23  H    8.035698   2.661073   0.000000
 Stoichiometry    C11H8F2OS
 Framework group  C1[X(C11H8F2OS)]
 Deg. of freedom    63
 Full point group                 C1      NOp   1
 Largest Abelian subgroup         C1      NOp   1
 Largest concise Abelian subgroup C1      NOp   1
                         Standard orientation:                         
 ---------------------------------------------------------------------
 Center     Atomic      Atomic             Coordinates (Angstroms)
 Number     Number       Type             X           Y           Z
 ---------------------------------------------------------------------
      1          6           0       -3.282357   -0.889165    0.021424
      2          6           0       -2.336268   -1.938375    0.224541
      3          6           0       -1.027950   -1.667736    0.264873
      4          9           0       -0.141131   -2.712275    0.449568
      5          6           0       -0.555107   -0.345583   -0.020669
      6          6           0       -1.407800    0.706440   -0.216283
      7          8           0       -0.891411    1.900852   -0.411108
      8          6           0       -1.761682    3.066078   -0.496881
      9          6           0       -2.791472    0.388898   -0.177246
     10          6           0        0.924244   -0.152941    0.022186
     11          6           0        1.746313    0.500331    0.950914
     12          9           0        1.220509    1.092469    2.072010
     13          6           0        3.069564    0.568647    0.624790
     14          6           0        3.299580   -0.037423   -0.674295
     15         16           0        1.924190   -0.616729   -1.320783
     16          1           0       -4.345633   -1.116365    0.056538
     17          1           0       -2.674183   -2.899810    0.414035
     18          1           0       -2.481345    2.908244   -1.368836
     19          1           0       -2.437675    3.119701    0.426569
     20          1           0       -1.230598    3.970790   -0.656133
     21          1           0       -3.601051    1.214675   -0.286589
     22          1           0        3.872036    1.005667    1.180800
     23          1           0        4.265904   -0.158820   -1.179317
 ---------------------------------------------------------------------
 Rotational constants (GHZ):           0.7530348           0.4688301           0.3615331
 Leave Link  202 at Sun Jul 26 12:21:19 2020, MaxMem=  4026531840 cpu:               0.2 elap:               0.0
 (Enter /opt/ohpc/pub/libs/gaussian/g16-A.03/sandybridge/g16/l301.exe)
 Standard basis: CC-pVDZ (5D, 7F)
 Ernie: Thresh=  0.10000D-02 Tol=  0.10000D-05 Strict=F.
 Ernie:  38 primitive shells out of 398 were deleted.
 There are   269 symmetry adapted cartesian basis functions of A   symmetry.
 There are   254 symmetry adapted basis functions of A   symmetry.
   254 basis functions,   589 primitive gaussians,   269 cartesian basis functions
    58 alpha electrons       58 beta electrons
       nuclear repulsion energy      1092.4879762715 Hartrees.
 IExCor=32609 DFT=T Ex+Corr=LC-wPBE ExCW=0 ScaHFX=  1.000000
 ScaDFX=  1.000000  0.000000  1.000000  1.000000 ScalE2=  1.000000  1.000000
 IRadAn=      5 IRanWt=     -1 IRanGd=            0 ICorTp=0 IEmpDi=  4
 HFx  wShort=  0.000000 wLong=  0.165100 cFull=  0.000000 cShort=  0.000000 cLong=  1.000000
 DFx  wShort=  0.000000 wLong=  0.165100 cFull=  0.000000 cShort=  0.000000 cLong=  1.000000
 NAtoms=   23 NActive=   23 NUniq=   23 SFac= 1.00D+00 NAtFMM=   60 NAOKFM=F Big=F
 Integral buffers will be    131072 words long.
 Raffenetti 2 integral format.
 Two-electron integral symmetry is turned on.
 Leave Link  301 at Sun Jul 26 12:21:19 2020, MaxMem=  4026531840 cpu:               0.5 elap:               0.1
 (Enter /opt/ohpc/pub/libs/gaussian/g16-A.03/sandybridge/g16/l302.exe)
 NPDir=0 NMtPBC=     1 NCelOv=     1 NCel=       1 NClECP=     1 NCelD=      1
         NCelK=      1 NCelE2=     1 NClLst=     1 CellRange=     0.0.
 One-electron integrals computed using PRISM.
 One-electron integral symmetry used in STVInt
 NBasis=   254 RedAO= T EigKep=  3.95D-04  NBF=   254
 NBsUse=   254 1.00D-06 EigRej= -1.00D+00 NBFU=   254
 Precomputing XC quadrature grid using
 IXCGrd= 4 IRadAn=           5 IRanWt=          -1 IRanGd=           0 AccXCQ= 0.00D+00.
 Generated NRdTot=       0 NPtTot=           0 NUsed=           0 NTot=          32
 NSgBfM=   269   269   269   269   269 MxSgAt=    23 MxSgA2=    23.
 Leave Link  302 at Sun Jul 26 12:21:19 2020, MaxMem=  4026531840 cpu:               2.2 elap:               0.3
 (Enter /opt/ohpc/pub/libs/gaussian/g16-A.03/sandybridge/g16/l303.exe)
 DipDrv:  MaxL=1.
 Leave Link  303 at Sun Jul 26 12:21:19 2020, MaxMem=  4026531840 cpu:               0.5 elap:               0.1
 (Enter /opt/ohpc/pub/libs/gaussian/g16-A.03/sandybridge/g16/l401.exe)
 ExpMin= 1.22D-01 ExpMax= 1.11D+05 ExpMxC= 1.07D+03 IAcc=3 IRadAn=         5 AccDes= 0.00D+00
 Harris functional with IExCor=32609 and IRadAn=       5 diagonalized for initial guess.
 HarFok:  IExCor=32609 AccDes= 0.00D+00 IRadAn=         5 IDoV= 1 UseB2=F ITyADJ=14
 ICtDFT=  3500011 ScaDFX=  1.000000  1.000000  1.000000  1.000000
 FoFCou: FMM=F IPFlag=           0 FMFlag=      100000 FMFlg1=           0
         NFxFlg=           0 DoJE=T BraDBF=F KetDBF=T FulRan=T
         wScrn=  0.000000 ICntrl=       500 IOpCl=  0 I1Cent=   200000004 NGrid=           0
         NMat0=    1 NMatS0=      1 NMatT0=    0 NMatD0=    1 NMtDS0=    0 NMtDT0=    0
 Petite list used in FoFCou.
 Harris En= -1096.31151577101    
 JPrj=0 DoOrth=F DoCkMO=F.
 Initial guess <Sx>= 0.0000 <Sy>= 0.0000 <Sz>= 0.0000 <S**2>= 0.0000 S= 0.0000
 Leave Link  401 at Sun Jul 26 12:21:21 2020, MaxMem=  4026531840 cpu:              11.7 elap:               1.5
 (Enter /opt/ohpc/pub/libs/gaussian/g16-A.03/sandybridge/g16/l502.exe)
 Integral symmetry usage will be decided dynamically.
 UHF open shell SCF:
 Using DIIS extrapolation, IDIIS=  1040.
 NGot=  4026531840 LenX=  4026382097 LenY=  4026309295
 Requested convergence on RMS density matrix=1.00D-08 within 128 cycles.
 Requested convergence on MAX density matrix=1.00D-06.
 Requested convergence on             energy=1.00D-06.
 No special actions if energy rises.
 Fock matrices will be formed incrementally for  20 cycles.
 Integral accuracy reduced to 1.0D-05 until final iterations.

 Cycle   1  Pass 0  IDiag  1:
 FoFJK:  IHMeth= 1 ICntrl=       0 DoSepK=T KAlg= 0 I1Cent=           0 FoldK=F
 IRaf=         1 NMat=       1 IRICut=       1 DoRegI=T DoRafI=F ISym2E= 0 IDoP0=0 IntGTp=1.
 FoFCou: FMM=F IPFlag=           0 FMFlag=      100000 FMFlg1=           0
         NFxFlg=           0 DoJE=T BraDBF=F KetDBF=F FulRan=T
         wScrn=  0.000000 ICntrl=       500 IOpCl=  0 I1Cent=           0 NGrid=           0
         NMat0=    1 NMatS0=      1 NMatT0=    0 NMatD0=    1 NMtDS0=    0 NMtDT0=    0
 Symmetry not used in FoFCou.
 E= -1096.02943818792    
 DIIS: error= 2.03D-02 at cycle   1 NSaved=   1.
 NSaved= 1 IEnMin= 1 EnMin= -1096.02943818792     IErMin= 1 ErrMin= 2.03D-02
 ErrMax= 2.03D-02  0.00D+00 EMaxC= 1.00D-01 BMatC= 9.70D-01 BMatP= 9.70D-01
 IDIUse=3 WtCom= 7.97D-01 WtEn= 2.03D-01
 Coeff-Com:  0.100D+01
 Coeff-En:   0.100D+01
 Coeff:      0.100D+01
 Gap=     0.312 Goal=   None    Shift=    0.000
 Gap=     0.312 Goal=   None    Shift=    0.000
 GapD=    0.312 DampG=1.000 DampE=0.500 DampFc=0.5000 IDamp=-1.
 Damping current iteration by 5.00D-01
 RMSDP=4.23D-03 MaxDP=1.49D-01              OVMax= 1.78D-01

 Cycle   2  Pass 0  IDiag  1:
 RMSU=  2.11D-03    CP:  9.95D-01
 E= -1096.15567713858     Delta-E=       -0.126238950658 Rises=F Damp=T
 DIIS: error= 3.67D-03 at cycle   2 NSaved=   2.
 NSaved= 2 IEnMin= 2 EnMin= -1096.15567713858     IErMin= 2 ErrMin= 3.67D-03
 ErrMax= 3.67D-03  0.00D+00 EMaxC= 1.00D-01 BMatC= 4.11D-02 BMatP= 9.70D-01
 IDIUse=3 WtCom= 9.63D-01 WtEn= 3.67D-02
 Coeff-Com:  0.477D-01 0.952D+00
 Coeff-En:   0.634D-01 0.937D+00
 Coeff:      0.483D-01 0.952D+00
 Gap=     0.359 Goal=   None    Shift=    0.000
 Gap=     0.359 Goal=   None    Shift=    0.000
 RMSDP=1.15D-03 MaxDP=2.71D-02 DE=-1.26D-01 OVMax= 1.69D-01

 Cycle   3  Pass 0  IDiag  1:
 RMSU=  1.14D-03    CP:  9.97D-01  1.06D+00
 E= -1096.29665651947     Delta-E=       -0.140979380891 Rises=F Damp=F
 DIIS: error= 2.65D-03 at cycle   3 NSaved=   3.
 NSaved= 3 IEnMin= 3 EnMin= -1096.29665651947     IErMin= 3 ErrMin= 2.65D-03
 ErrMax= 2.65D-03  0.00D+00 EMaxC= 1.00D-01 BMatC= 1.95D-02 BMatP= 4.11D-02
 IDIUse=3 WtCom= 9.73D-01 WtEn= 2.65D-02
 Coeff-Com:  0.124D-02 0.390D+00 0.609D+00
 Coeff-En:   0.000D+00 0.000D+00 0.100D+01
 Coeff:      0.120D-02 0.379D+00 0.619D+00
 Gap=     0.292 Goal=   None    Shift=    0.000
 Gap=     0.292 Goal=   None    Shift=    0.000
 RMSDP=4.15D-04 MaxDP=1.21D-02 DE=-1.41D-01 OVMax= 3.21D-02

 Cycle   4  Pass 0  IDiag  1:
 RMSU=  2.76D-04    CP:  9.96D-01  1.09D+00  7.35D-01
 E= -1096.30078627263     Delta-E=       -0.004129753156 Rises=F Damp=F
 DIIS: error= 1.61D-03 at cycle   4 NSaved=   4.
 NSaved= 4 IEnMin= 4 EnMin= -1096.30078627263     IErMin= 4 ErrMin= 1.61D-03
 ErrMax= 1.61D-03  0.00D+00 EMaxC= 1.00D-01 BMatC= 3.66D-03 BMatP= 1.95D-02
 IDIUse=3 WtCom= 9.84D-01 WtEn= 1.61D-02
 Coeff-Com:  0.254D-02 0.727D-01 0.310D+00 0.614D+00
 Coeff-En:   0.000D+00 0.000D+00 0.110D+00 0.890D+00
 Coeff:      0.250D-02 0.716D-01 0.307D+00 0.619D+00
 Gap=     0.290 Goal=   None    Shift=    0.000
 Gap=     0.290 Goal=   None    Shift=    0.000
 RMSDP=1.38D-04 MaxDP=5.32D-03 DE=-4.13D-03 OVMax= 1.03D-02

 Cycle   5  Pass 0  IDiag  1:
 RMSU=  9.16D-05    CP:  9.96D-01  1.09D+00  8.02D-01  7.53D-01
 E= -1096.30164173542     Delta-E=       -0.000855462794 Rises=F Damp=F
 DIIS: error= 3.22D-04 at cycle   5 NSaved=   5.
 NSaved= 5 IEnMin= 5 EnMin= -1096.30164173542     IErMin= 5 ErrMin= 3.22D-04
 ErrMax= 3.22D-04  0.00D+00 EMaxC= 1.00D-01 BMatC= 3.56D-04 BMatP= 3.66D-03
 IDIUse=3 WtCom= 9.97D-01 WtEn= 3.22D-03
 Coeff-Com:  0.403D-02-0.397D-02 0.922D-01 0.299D+00 0.608D+00
 Coeff-En:   0.000D+00 0.000D+00 0.000D+00 0.000D+00 0.100D+01
 Coeff:      0.401D-02-0.396D-02 0.919D-01 0.298D+00 0.610D+00
 Gap=     0.291 Goal=   None    Shift=    0.000
 Gap=     0.291 Goal=   None    Shift=    0.000
 RMSDP=4.52D-05 MaxDP=2.08D-03 DE=-8.55D-04 OVMax= 2.81D-03

 Cycle   6  Pass 0  IDiag  1:
 RMSU=  3.59D-05    CP:  9.96D-01  1.08D+00  8.13D-01  8.17D-01  8.22D-01
 E= -1096.30172261729     Delta-E=       -0.000080881866 Rises=F Damp=F
 DIIS: error= 1.35D-04 at cycle   6 NSaved=   6.
 NSaved= 6 IEnMin= 6 EnMin= -1096.30172261729     IErMin= 6 ErrMin= 1.35D-04
 ErrMax= 1.35D-04  0.00D+00 EMaxC= 1.00D-01 BMatC= 4.95D-05 BMatP= 3.56D-04
 IDIUse=3 WtCom= 9.99D-01 WtEn= 1.35D-03
 Coeff-Com:  0.286D-02-0.155D-01-0.618D-03 0.583D-01 0.295D+00 0.660D+00
 Coeff-En:   0.000D+00 0.000D+00 0.000D+00 0.000D+00 0.000D+00 0.100D+01
 Coeff:      0.286D-02-0.155D-01-0.617D-03 0.582D-01 0.295D+00 0.660D+00
 Gap=     0.291 Goal=   None    Shift=    0.000
 Gap=     0.291 Goal=   None    Shift=    0.000
 RMSDP=2.05D-05 MaxDP=7.55D-04 DE=-8.09D-05 OVMax= 1.77D-03

 Cycle   7  Pass 0  IDiag  1:
 RMSU=  1.47D-05    CP:  9.96D-01  1.08D+00  8.15D-01  8.26D-01  9.62D-01
                    CP:  8.73D-01
 E= -1096.30173600756     Delta-E=       -0.000013390276 Rises=F Damp=F
 DIIS: error= 6.85D-05 at cycle   7 NSaved=   7.
 NSaved= 7 IEnMin= 7 EnMin= -1096.30173600756     IErMin= 7 ErrMin= 6.85D-05
 ErrMax= 6.85D-05  0.00D+00 EMaxC= 1.00D-01 BMatC= 1.04D-05 BMatP= 4.95D-05
 IDIUse=1 WtCom= 1.00D+00 WtEn= 0.00D+00
 Coeff-Com:  0.125D-02-0.789D-02-0.986D-02-0.627D-02 0.694D-01 0.366D+00
 Coeff-Com:  0.587D+00
 Coeff:      0.125D-02-0.789D-02-0.986D-02-0.627D-02 0.694D-01 0.366D+00
 Coeff:      0.587D+00
 Gap=     0.291 Goal=   None    Shift=    0.000
 Gap=     0.291 Goal=   None    Shift=    0.000
 RMSDP=8.85D-06 MaxDP=3.12D-04 DE=-1.34D-05 OVMax= 5.70D-04

 Initial convergence to 1.0D-05 achieved.  Increase integral accuracy.
 Cycle   8  Pass 1  IDiag  1:
 E= -1096.30158483222     Delta-E=        0.000151175343 Rises=F Damp=F
 DIIS: error= 7.86D-05 at cycle   1 NSaved=   1.
 NSaved= 1 IEnMin= 1 EnMin= -1096.30158483222     IErMin= 1 ErrMin= 7.86D-05
 ErrMax= 7.86D-05  0.00D+00 EMaxC= 1.00D-01 BMatC= 2.73D-06 BMatP= 2.73D-06
 IDIUse=1 WtCom= 1.00D+00 WtEn= 0.00D+00
 Coeff-Com:  0.100D+01
 Coeff:      0.100D+01
 Gap=     0.291 Goal=   None    Shift=    0.000
 Gap=     0.291 Goal=   None    Shift=    0.000
 RMSDP=8.85D-06 MaxDP=3.12D-04 DE= 1.51D-04 OVMax= 3.48D-04

 Cycle   9  Pass 1  IDiag  1:
 RMSU=  4.05D-05    CP:  1.00D+00
 E= -1096.30158532612     Delta-E=       -0.000000493897 Rises=F Damp=F
 DIIS: error= 2.10D-05 at cycle   2 NSaved=   2.
 NSaved= 2 IEnMin= 2 EnMin= -1096.30158532612     IErMin= 2 ErrMin= 2.10D-05
 ErrMax= 2.10D-05  0.00D+00 EMaxC= 1.00D-01 BMatC= 1.26D-06 BMatP= 2.73D-06
 IDIUse=1 WtCom= 1.00D+00 WtEn= 0.00D+00
 Coeff-Com:  0.366D+00 0.634D+00
 Coeff:      0.366D+00 0.634D+00
 Gap=     0.291 Goal=   None    Shift=    0.000
 Gap=     0.291 Goal=   None    Shift=    0.000
 RMSDP=3.71D-06 MaxDP=1.42D-04 DE=-4.94D-07 OVMax= 2.21D-04

 Cycle  10  Pass 1  IDiag  1:
 RMSU=  3.54D-06    CP:  1.00D+00  1.03D+00
 E= -1096.30158557118     Delta-E=       -0.000000245065 Rises=F Damp=F
 DIIS: error= 1.55D-05 at cycle   3 NSaved=   3.
 NSaved= 3 IEnMin= 3 EnMin= -1096.30158557118     IErMin= 3 ErrMin= 1.55D-05
 ErrMax= 1.55D-05  0.00D+00 EMaxC= 1.00D-01 BMatC= 4.84D-07 BMatP= 1.26D-06
 IDIUse=1 WtCom= 1.00D+00 WtEn= 0.00D+00
 Coeff-Com: -0.553D-02 0.377D+00 0.629D+00
 Coeff:     -0.553D-02 0.377D+00 0.629D+00
 Gap=     0.291 Goal=   None    Shift=    0.000
 Gap=     0.291 Goal=   None    Shift=    0.000
 RMSDP=1.81D-06 MaxDP=6.35D-05 DE=-2.45D-07 OVMax= 1.55D-04

 Cycle  11  Pass 1  IDiag  1:
 RMSU=  1.09D-06    CP:  1.00D+00  1.05D+00  7.00D-01
 E= -1096.30158570612     Delta-E=       -0.000000134937 Rises=F Damp=F
 DIIS: error= 3.72D-06 at cycle   4 NSaved=   4.
 NSaved= 4 IEnMin= 4 EnMin= -1096.30158570612     IErMin= 4 ErrMin= 3.72D-06
 ErrMax= 3.72D-06  0.00D+00 EMaxC= 1.00D-01 BMatC= 4.90D-08 BMatP= 4.84D-07
 IDIUse=1 WtCom= 1.00D+00 WtEn= 0.00D+00
 Coeff-Com: -0.292D-01 0.178D+00 0.367D+00 0.485D+00
 Coeff:     -0.292D-01 0.178D+00 0.367D+00 0.485D+00
 Gap=     0.291 Goal=   None    Shift=    0.000
 Gap=     0.291 Goal=   None    Shift=    0.000
 RMSDP=4.92D-07 MaxDP=2.00D-05 DE=-1.35D-07 OVMax= 2.98D-05

 Cycle  12  Pass 1  IDiag  1:
 RMSU=  4.48D-07    CP:  1.00D+00  1.05D+00  7.45D-01  9.43D-01
 E= -1096.30158571988     Delta-E=       -0.000000013760 Rises=F Damp=F
 DIIS: error= 9.39D-07 at cycle   5 NSaved=   5.
 NSaved= 5 IEnMin= 5 EnMin= -1096.30158571988     IErMin= 5 ErrMin= 9.39D-07
 ErrMax= 9.39D-07  0.00D+00 EMaxC= 1.00D-01 BMatC= 1.80D-09 BMatP= 4.90D-08
 IDIUse=1 WtCom= 1.00D+00 WtEn= 0.00D+00
 Coeff-Com: -0.291D-02-0.486D-01-0.702D-01 0.109D-01 0.111D+01
 Coeff:     -0.291D-02-0.486D-01-0.702D-01 0.109D-01 0.111D+01
 Gap=     0.291 Goal=   None    Shift=    0.000
 Gap=     0.291 Goal=   None    Shift=    0.000
 RMSDP=3.33D-07 MaxDP=1.05D-05 DE=-1.38D-08 OVMax= 3.51D-05

 Cycle  13  Pass 1  IDiag  1:
 RMSU=  1.60D-07    CP:  1.00D+00  1.05D+00  7.61D-01  1.18D+00  1.28D+00
 E= -1096.30158572206     Delta-E=       -0.000000002181 Rises=F Damp=F
 DIIS: error= 6.40D-07 at cycle   6 NSaved=   6.
 NSaved= 6 IEnMin= 6 EnMin= -1096.30158572206     IErMin= 6 ErrMin= 6.40D-07
 ErrMax= 6.40D-07  0.00D+00 EMaxC= 1.00D-01 BMatC= 1.15D-09 BMatP= 1.80D-09
 IDIUse=1 WtCom= 1.00D+00 WtEn= 0.00D+00
 Coeff-Com:  0.378D-02-0.582D-01-0.104D+00-0.998D-01 0.618D+00 0.640D+00
 Coeff:      0.378D-02-0.582D-01-0.104D+00-0.998D-01 0.618D+00 0.640D+00
 Gap=     0.291 Goal=   None    Shift=    0.000
 Gap=     0.291 Goal=   None    Shift=    0.000
 RMSDP=1.26D-07 MaxDP=3.50D-06 DE=-2.18D-09 OVMax= 1.33D-05

 Cycle  14  Pass 1  IDiag  1:
 RMSU=  6.51D-08    CP:  1.00D+00  1.05D+00  7.70D-01  1.24D+00  1.45D+00
                    CP:  8.77D-01
 E= -1096.30158572248     Delta-E=       -0.000000000421 Rises=F Damp=F
 DIIS: error= 1.59D-07 at cycle   7 NSaved=   7.
 NSaved= 7 IEnMin= 7 EnMin= -1096.30158572248     IErMin= 7 ErrMin= 1.59D-07
 ErrMax= 1.59D-07  0.00D+00 EMaxC= 1.00D-01 BMatC= 5.96D-11 BMatP= 1.15D-09
 IDIUse=1 WtCom= 1.00D+00 WtEn= 0.00D+00
 Coeff-Com:  0.195D-02-0.252D-01-0.459D-01-0.488D-01 0.223D+00 0.298D+00
 Coeff-Com:  0.597D+00
 Coeff:      0.195D-02-0.252D-01-0.459D-01-0.488D-01 0.223D+00 0.298D+00
 Coeff:      0.597D+00
 Gap=     0.291 Goal=   None    Shift=    0.000
 Gap=     0.291 Goal=   None    Shift=    0.000
 RMSDP=2.51D-08 MaxDP=5.73D-07 DE=-4.21D-10 OVMax= 1.91D-06

 Cycle  15  Pass 1  IDiag  1:
 RMSU=  1.81D-08    CP:  1.00D+00  1.05D+00  7.71D-01  1.24D+00  1.46D+00
                    CP:  9.50D-01  9.41D-01
 E= -1096.30158572251     Delta-E=       -0.000000000027 Rises=F Damp=F
 DIIS: error= 5.00D-08 at cycle   8 NSaved=   8.
 NSaved= 8 IEnMin= 8 EnMin= -1096.30158572251     IErMin= 8 ErrMin= 5.00D-08
 ErrMax= 5.00D-08  0.00D+00 EMaxC= 1.00D-01 BMatC= 7.17D-12 BMatP= 5.96D-11
 IDIUse=1 WtCom= 1.00D+00 WtEn= 0.00D+00
 Coeff-Com:  0.250D-04 0.145D-02 0.224D-02 0.129D-02-0.266D-01-0.341D-02
 Coeff-Com:  0.244D+00 0.781D+00
 Coeff:      0.250D-04 0.145D-02 0.224D-02 0.129D-02-0.266D-01-0.341D-02
 Coeff:      0.244D+00 0.781D+00
 Gap=     0.291 Goal=   None    Shift=    0.000
 Gap=     0.291 Goal=   None    Shift=    0.000
 RMSDP=1.01D-08 MaxDP=2.23D-07 DE=-2.73D-11 OVMax= 8.12D-07

 Cycle  16  Pass 1  IDiag  1:
 RMSU=  6.35D-09    CP:  1.00D+00  1.05D+00  7.71D-01  1.24D+00  1.47D+00
                    CP:  9.74D-01  1.03D+00  9.38D-01
 E= -1096.30158572251     Delta-E=        0.000000000002 Rises=F Damp=F
 DIIS: error= 1.25D-08 at cycle   9 NSaved=   9.
 NSaved= 9 IEnMin= 8 EnMin= -1096.30158572251     IErMin= 9 ErrMin= 1.25D-08
 ErrMax= 1.25D-08  0.00D+00 EMaxC= 1.00D-01 BMatC= 5.08D-13 BMatP= 7.17D-12
 IDIUse=1 WtCom= 1.00D+00 WtEn= 0.00D+00
 Coeff-Com: -0.258D-03 0.375D-02 0.674D-02 0.742D-02-0.390D-01-0.429D-01
 Coeff-Com: -0.885D-02 0.182D+00 0.892D+00
 Coeff:     -0.258D-03 0.375D-02 0.674D-02 0.742D-02-0.390D-01-0.429D-01
 Coeff:     -0.885D-02 0.182D+00 0.892D+00
 Gap=     0.291 Goal=   None    Shift=    0.000
 Gap=     0.291 Goal=   None    Shift=    0.000
 RMSDP=4.18D-09 MaxDP=1.11D-07 DE= 1.82D-12 OVMax= 4.90D-07

 SCF Done:  E(ULC-wPBE) =  -1096.30158572     A.U. after   16 cycles
            NFock= 16  Conv=0.42D-08     -V/T= 2.0045
 <Sx>= 0.0000 <Sy>= 0.0000 <Sz>= 0.0000 <S**2>=-0.0000 S=-0.0000
 <L.S>= 0.000000000000E+00
 KE= 1.091393866305D+03 PE=-4.768006306682D+03 EE= 1.487822878383D+03
 Annihilation of the first spin contaminant:
 S**2 before annihilation    -0.0000,   after    -0.0000
 Leave Link  502 at Sun Jul 26 12:22:36 2020, MaxMem=  4026531840 cpu:             593.9 elap:              74.7
 (Enter /opt/ohpc/pub/libs/gaussian/g16-A.03/sandybridge/g16/l601.exe)
 Copying SCF densities to generalized density rwf, IOpCl= 1 IROHF=0.

 **********************************************************************

            Population analysis using the SCF density.

 **********************************************************************

 Orbital symmetries:
 Alpha Orbitals:
       Occupied  (A) (A) (A) (A) (A) (A) (A) (A) (A) (A) (A) (A)
                 (A) (A) (A) (A) (A) (A) (A) (A) (A) (A) (A) (A)
                 (A) (A) (A) (A) (A) (A) (A) (A) (A) (A) (A) (A)
                 (A) (A) (A) (A) (A) (A) (A) (A) (A) (A) (A) (A)
                 (A) (A) (A) (A) (A) (A) (A) (A) (A) (A)
       Virtual   (A) (A) (A) (A) (A) (A) (A) (A) (A) (A) (A) (A)
                 (A) (A) (A) (A) (A) (A) (A) (A) (A) (A) (A) (A)
                 (A) (A) (A) (A) (A) (A) (A) (A) (A) (A) (A) (A)
                 (A) (A) (A) (A) (A) (A) (A) (A) (A) (A) (A) (A)
                 (A) (A) (A) (A) (A) (A) (A) (A) (A) (A) (A) (A)
                 (A) (A) (A) (A) (A) (A) (A) (A) (A) (A) (A) (A)
                 (A) (A) (A) (A) (A) (A) (A) (A) (A) (A) (A) (A)
                 (A) (A) (A) (A) (A) (A) (A) (A) (A) (A) (A) (A)
                 (A) (A) (A) (A) (A) (A) (A) (A) (A) (A) (A) (A)
                 (A) (A) (A) (A) (A) (A) (A) (A) (A) (A) (A) (A)
                 (A) (A) (A) (A) (A) (A) (A) (A) (A) (A) (A) (A)
                 (A) (A) (A) (A) (A) (A) (A) (A) (A) (A) (A) (A)
                 (A) (A) (A) (A) (A) (A) (A) (A) (A) (A) (A) (A)
                 (A) (A) (A) (A) (A) (A) (A) (A) (A) (A) (A) (A)
                 (A) (A) (A) (A) (A) (A) (A) (A) (A) (A) (A) (A)
                 (A) (A) (A) (A) (A) (A) (A) (A) (A) (A) (A) (A)
                 (A) (A) (A) (A)
 Beta  Orbitals:
       Occupied  (A) (A) (A) (A) (A) (A) (A) (A) (A) (A) (A) (A)
                 (A) (A) (A) (A) (A) (A) (A) (A) (A) (A) (A) (A)
                 (A) (A) (A) (A) (A) (A) (A) (A) (A) (A) (A) (A)
                 (A) (A) (A) (A) (A) (A) (A) (A) (A) (A) (A) (A)
                 (A) (A) (A) (A) (A) (A) (A) (A) (A) (A)
       Virtual   (A) (A) (A) (A) (A) (A) (A) (A) (A) (A) (A) (A)
                 (A) (A) (A) (A) (A) (A) (A) (A) (A) (A) (A) (A)
                 (A) (A) (A) (A) (A) (A) (A) (A) (A) (A) (A) (A)
                 (A) (A) (A) (A) (A) (A) (A) (A) (A) (A) (A) (A)
                 (A) (A) (A) (A) (A) (A) (A) (A) (A) (A) (A) (A)
                 (A) (A) (A) (A) (A) (A) (A) (A) (A) (A) (A) (A)
                 (A) (A) (A) (A) (A) (A) (A) (A) (A) (A) (A) (A)
                 (A) (A) (A) (A) (A) (A) (A) (A) (A) (A) (A) (A)
                 (A) (A) (A) (A) (A) (A) (A) (A) (A) (A) (A) (A)
                 (A) (A) (A) (A) (A) (A) (A) (A) (A) (A) (A) (A)
                 (A) (A) (A) (A) (A) (A) (A) (A) (A) (A) (A) (A)
                 (A) (A) (A) (A) (A) (A) (A) (A) (A) (A) (A) (A)
                 (A) (A) (A) (A) (A) (A) (A) (A) (A) (A) (A) (A)
                 (A) (A) (A) (A) (A) (A) (A) (A) (A) (A) (A) (A)
                 (A) (A) (A) (A) (A) (A) (A) (A) (A) (A) (A) (A)
                 (A) (A) (A) (A) (A) (A) (A) (A) (A) (A) (A) (A)
                 (A) (A) (A) (A)
 The electronic state is 1-A.
 Alpha  occ. eigenvalues --  -88.19382 -24.37138 -24.36594 -18.90599 -10.07049
 Alpha  occ. eigenvalues --  -10.06293 -10.06268 -10.06251 -10.01894 -10.01782
 Alpha  occ. eigenvalues --  -10.00976 -10.00776 -10.00376  -9.99364  -9.98410
 Alpha  occ. eigenvalues --   -7.79894  -5.81881  -5.81410  -5.81168  -1.19632
 Alpha  occ. eigenvalues --   -1.19310  -1.09413  -0.91456  -0.88410  -0.80761
 Alpha  occ. eigenvalues --   -0.78052  -0.77081  -0.74888  -0.72580  -0.65722
 Alpha  occ. eigenvalues --   -0.63965  -0.60743  -0.59908  -0.58515  -0.56216
 Alpha  occ. eigenvalues --   -0.54835  -0.53369  -0.51267  -0.51046  -0.48795
 Alpha  occ. eigenvalues --   -0.48481  -0.47906  -0.47732  -0.46755  -0.46191
 Alpha  occ. eigenvalues --   -0.43903  -0.42452  -0.41823  -0.41079  -0.40831
 Alpha  occ. eigenvalues --   -0.39712  -0.37819  -0.37721  -0.37134  -0.30327
 Alpha  occ. eigenvalues --   -0.29871  -0.28366  -0.27007
 Alpha virt. eigenvalues --    0.02080   0.03531   0.05524   0.08789   0.09965
 Alpha virt. eigenvalues --    0.11601   0.12168   0.13650   0.13942   0.15961
 Alpha virt. eigenvalues --    0.16534   0.16711   0.18020   0.18746   0.19332
 Alpha virt. eigenvalues --    0.20074   0.20256   0.23586   0.27410   0.28904
 Alpha virt. eigenvalues --    0.31178   0.33759   0.34548   0.36722   0.38370
 Alpha virt. eigenvalues --    0.41249   0.42052   0.46240   0.46641   0.46996
 Alpha virt. eigenvalues --    0.47586   0.48092   0.48393   0.49412   0.50259
 Alpha virt. eigenvalues --    0.50951   0.52197   0.52315   0.53346   0.53989
 Alpha virt. eigenvalues --    0.54344   0.55109   0.55894   0.56144   0.56890
 Alpha virt. eigenvalues --    0.57858   0.58200   0.59585   0.60572   0.61218
 Alpha virt. eigenvalues --    0.61844   0.62676   0.64291   0.64999   0.66655
 Alpha virt. eigenvalues --    0.67503   0.68346   0.69200   0.69560   0.70805
 Alpha virt. eigenvalues --    0.71496   0.73244   0.74132   0.75338   0.75665
 Alpha virt. eigenvalues --    0.78610   0.79730   0.80355   0.81878   0.84470
 Alpha virt. eigenvalues --    0.86284   0.87527   0.89577   0.91680   0.92549
 Alpha virt. eigenvalues --    0.94450   0.95284   0.95570   0.97001   0.98099
 Alpha virt. eigenvalues --    1.00992   1.01958   1.02520   1.03847   1.05341
 Alpha virt. eigenvalues --    1.05770   1.08216   1.09253   1.10157   1.12301
 Alpha virt. eigenvalues --    1.13174   1.14301   1.16457   1.17352   1.20307
 Alpha virt. eigenvalues --    1.21634   1.22118   1.25923   1.27402   1.31029
 Alpha virt. eigenvalues --    1.31967   1.33700   1.33975   1.35184   1.37455
 Alpha virt. eigenvalues --    1.39156   1.39951   1.40710   1.44069   1.44538
 Alpha virt. eigenvalues --    1.46603   1.49115   1.49968   1.50721   1.51907
 Alpha virt. eigenvalues --    1.54081   1.55690   1.56886   1.58206   1.58846
 Alpha virt. eigenvalues --    1.59492   1.60686   1.61822   1.63219   1.63559
 Alpha virt. eigenvalues --    1.65514   1.66081   1.67572   1.69176   1.70457
 Alpha virt. eigenvalues --    1.70680   1.72280   1.73368   1.74992   1.76097
 Alpha virt. eigenvalues --    1.76965   1.77792   1.78334   1.80863   1.82456
 Alpha virt. eigenvalues --    1.85886   1.86089   1.88446   1.88916   1.89977
 Alpha virt. eigenvalues --    1.91535   1.93777   1.97245   1.98608   1.99772
 Alpha virt. eigenvalues --    2.03828   2.05103   2.05983   2.07653   2.09037
 Alpha virt. eigenvalues --    2.09971   2.12362   2.15360   2.17747   2.20439
 Alpha virt. eigenvalues --    2.22159   2.24386   2.27218   2.31711   2.35378
 Alpha virt. eigenvalues --    2.35898   2.37043   2.43032   2.44803   2.46588
 Alpha virt. eigenvalues --    2.48775   2.51696   2.52086   2.54835   2.57922
 Alpha virt. eigenvalues --    2.63790   2.68344   2.74398   2.78864   2.85708
 Alpha virt. eigenvalues --    2.97644   3.00659   3.02972   3.24709   3.39977
 Alpha virt. eigenvalues --    3.49744   3.57208   3.57545   3.58836   3.60672
 Alpha virt. eigenvalues --    3.74220   3.75766   3.93233   3.94406   4.15536
 Alpha virt. eigenvalues --    4.19745
  Beta  occ. eigenvalues --  -88.19382 -24.37138 -24.36594 -18.90599 -10.07049
  Beta  occ. eigenvalues --  -10.06293 -10.06268 -10.06251 -10.01894 -10.01782
  Beta  occ. eigenvalues --  -10.00976 -10.00776 -10.00376  -9.99364  -9.98410
  Beta  occ. eigenvalues --   -7.79894  -5.81881  -5.81410  -5.81168  -1.19632
  Beta  occ. eigenvalues --   -1.19310  -1.09413  -0.91456  -0.88410  -0.80761
  Beta  occ. eigenvalues --   -0.78052  -0.77081  -0.74888  -0.72580  -0.65722
  Beta  occ. eigenvalues --   -0.63965  -0.60743  -0.59908  -0.58515  -0.56216
  Beta  occ. eigenvalues --   -0.54835  -0.53369  -0.51267  -0.51046  -0.48795
  Beta  occ. eigenvalues --   -0.48481  -0.47906  -0.47732  -0.46755  -0.46191
  Beta  occ. eigenvalues --   -0.43903  -0.42452  -0.41823  -0.41079  -0.40831
  Beta  occ. eigenvalues --   -0.39712  -0.37819  -0.37721  -0.37134  -0.30327
  Beta  occ. eigenvalues --   -0.29871  -0.28366  -0.27007
  Beta virt. eigenvalues --    0.02080   0.03531   0.05524   0.08789   0.09965
  Beta virt. eigenvalues --    0.11601   0.12168   0.13650   0.13942   0.15961
  Beta virt. eigenvalues --    0.16534   0.16711   0.18020   0.18746   0.19332
  Beta virt. eigenvalues --    0.20074   0.20256   0.23586   0.27410   0.28904
  Beta virt. eigenvalues --    0.31178   0.33759   0.34548   0.36722   0.38370
  Beta virt. eigenvalues --    0.41249   0.42052   0.46240   0.46641   0.46996
  Beta virt. eigenvalues --    0.47586   0.48092   0.48393   0.49412   0.50259
  Beta virt. eigenvalues --    0.50951   0.52197   0.52315   0.53346   0.53989
  Beta virt. eigenvalues --    0.54344   0.55109   0.55894   0.56144   0.56890
  Beta virt. eigenvalues --    0.57858   0.58200   0.59585   0.60572   0.61218
  Beta virt. eigenvalues --    0.61844   0.62676   0.64291   0.64999   0.66655
  Beta virt. eigenvalues --    0.67503   0.68346   0.69200   0.69560   0.70805
  Beta virt. eigenvalues --    0.71496   0.73244   0.74132   0.75338   0.75665
  Beta virt. eigenvalues --    0.78610   0.79730   0.80355   0.81878   0.84470
  Beta virt. eigenvalues --    0.86284   0.87527   0.89577   0.91680   0.92549
  Beta virt. eigenvalues --    0.94450   0.95284   0.95570   0.97001   0.98099
  Beta virt. eigenvalues --    1.00992   1.01958   1.02520   1.03847   1.05341
  Beta virt. eigenvalues --    1.05770   1.08216   1.09253   1.10157   1.12301
  Beta virt. eigenvalues --    1.13174   1.14301   1.16457   1.17352   1.20307
  Beta virt. eigenvalues --    1.21634   1.22118   1.25923   1.27402   1.31029
  Beta virt. eigenvalues --    1.31967   1.33700   1.33975   1.35184   1.37455
  Beta virt. eigenvalues --    1.39156   1.39951   1.40710   1.44069   1.44538
  Beta virt. eigenvalues --    1.46603   1.49115   1.49968   1.50721   1.51907
  Beta virt. eigenvalues --    1.54081   1.55690   1.56886   1.58206   1.58846
  Beta virt. eigenvalues --    1.59492   1.60686   1.61822   1.63219   1.63559
  Beta virt. eigenvalues --    1.65514   1.66081   1.67572   1.69176   1.70457
  Beta virt. eigenvalues --    1.70680   1.72280   1.73368   1.74992   1.76097
  Beta virt. eigenvalues --    1.76965   1.77792   1.78334   1.80863   1.82456
  Beta virt. eigenvalues --    1.85886   1.86089   1.88446   1.88916   1.89977
  Beta virt. eigenvalues --    1.91535   1.93777   1.97245   1.98608   1.99772
  Beta virt. eigenvalues --    2.03828   2.05103   2.05983   2.07653   2.09037
  Beta virt. eigenvalues --    2.09971   2.12362   2.15360   2.17747   2.20439
  Beta virt. eigenvalues --    2.22159   2.24386   2.27218   2.31711   2.35378
  Beta virt. eigenvalues --    2.35898   2.37043   2.43032   2.44803   2.46588
  Beta virt. eigenvalues --    2.48775   2.51696   2.52086   2.54835   2.57922
  Beta virt. eigenvalues --    2.63790   2.68344   2.74398   2.78864   2.85708
  Beta virt. eigenvalues --    2.97644   3.00659   3.02972   3.24709   3.39977
  Beta virt. eigenvalues --    3.49744   3.57208   3.57545   3.58836   3.60672
  Beta virt. eigenvalues --    3.74220   3.75766   3.93233   3.94406   4.15536
  Beta virt. eigenvalues --    4.19745
          Condensed to atoms (all electrons):
               1          2          3          4          5          6
     1  C    4.767398   0.409049   0.050344   0.004400  -0.071602   0.030417
     2  C    0.409049   4.939877   0.400143  -0.064919  -0.016146  -0.105833
     3  C    0.050344   0.400143   4.888590   0.454770   0.236900   0.047464
     4  F    0.004400  -0.064919   0.454770   8.809969  -0.081034   0.004390
     5  C   -0.071602  -0.016146   0.236900  -0.081034   5.636685   0.342311
     6  C    0.030417  -0.105833   0.047464   0.004390   0.342311   4.985366
     7  O    0.003842  -0.000004   0.001745  -0.000001  -0.081283   0.499736
     8  C    0.001537  -0.000089   0.000235   0.000000   0.008453  -0.075655
     9  C    0.459469   0.026374  -0.106385  -0.000458   0.004454   0.271942
    10  C    0.000035   0.013727  -0.074076   0.007327   0.196487  -0.106721
    11  C   -0.000081   0.000244  -0.003081  -0.000801  -0.060949  -0.004175
    12  F   -0.000005   0.000005  -0.000627   0.000001   0.001406   0.002578
    13  C   -0.000002   0.000018  -0.000213   0.000035   0.008568   0.000927
    14  C    0.000000  -0.000001   0.000178   0.000018   0.002577  -0.000183
    15  S    0.000007  -0.000302  -0.005401   0.000868  -0.054827   0.000238
    16  H    0.392746  -0.046878   0.010077  -0.000036  -0.001117   0.009779
    17  H   -0.055117   0.362950  -0.035210   0.000767   0.017233  -0.000134
    18  H    0.000141   0.000003  -0.000082   0.000000  -0.000178  -0.008294
    19  H    0.000056  -0.000023  -0.000093   0.000000   0.000755  -0.005741
    20  H   -0.000038  -0.000001   0.000018   0.000000  -0.000442   0.001610
    21  H   -0.029592   0.009294   0.000297   0.000000   0.007977  -0.054791
    22  H    0.000000  -0.000000   0.000002   0.000001  -0.000285   0.000007
    23  H    0.000000  -0.000000  -0.000002   0.000000  -0.000241   0.000001
               7          8          9         10         11         12
     1  C    0.003842   0.001537   0.459469   0.000035  -0.000081  -0.000005
     2  C   -0.000004  -0.000089   0.026374   0.013727   0.000244   0.000005
     3  C    0.001745   0.000235  -0.106385  -0.074076  -0.003081  -0.000627
     4  F   -0.000001   0.000000  -0.000458   0.007327  -0.000801   0.000001
     5  C   -0.081283   0.008453   0.004454   0.196487  -0.060949   0.001406
     6  C    0.499736  -0.075655   0.271942  -0.106721  -0.004175   0.002578
     7  O    7.587251   0.337850  -0.073367   0.005807   0.002548  -0.000345
     8  C    0.337850   4.501938  -0.005736  -0.000391  -0.000157  -0.000030
     9  C   -0.073367  -0.005736   5.145265   0.011726   0.000875   0.000122
    10  C    0.005807  -0.000391   0.011726   5.697347   0.341425  -0.078062
    11  C    0.002548  -0.000157   0.000875   0.341425   4.831129   0.459220
    12  F   -0.000345  -0.000030   0.000122  -0.078062   0.459220   8.811068
    13  C    0.000182  -0.000002   0.000026  -0.075797   0.378218  -0.060273
    14  C    0.000008  -0.000001  -0.000001  -0.092887   0.008247   0.003375
    15  S    0.000032  -0.000014  -0.000164   0.341733  -0.067786   0.002694
    16  H   -0.000053  -0.000014  -0.041994   0.000021  -0.000000  -0.000000
    17  H    0.000004  -0.000001   0.012795  -0.000698   0.000005   0.000000
    18  H   -0.029340   0.378987   0.010997   0.000028   0.000017  -0.000000
    19  H   -0.028061   0.378311   0.010422   0.000178  -0.000015   0.000012
    20  H   -0.012864   0.401712  -0.000427  -0.000043   0.000004  -0.000003
    21  H   -0.006079   0.004546   0.368248  -0.000456   0.000002   0.000003
    22  H    0.000006  -0.000000  -0.000000   0.011418  -0.040075  -0.000707
    23  H   -0.000000  -0.000000  -0.000000   0.001885   0.007698  -0.000022
              13         14         15         16         17         18
     1  C   -0.000002   0.000000   0.000007   0.392746  -0.055117   0.000141
     2  C    0.000018  -0.000001  -0.000302  -0.046878   0.362950   0.000003
     3  C   -0.000213   0.000178  -0.005401   0.010077  -0.035210  -0.000082
     4  F    0.000035   0.000018   0.000868  -0.000036   0.000767   0.000000
     5  C    0.008568   0.002577  -0.054827  -0.001117   0.017233  -0.000178
     6  C    0.000927  -0.000183   0.000238   0.009779  -0.000134  -0.008294
     7  O    0.000182   0.000008   0.000032  -0.000053   0.000004  -0.029340
     8  C   -0.000002  -0.000001  -0.000014  -0.000014  -0.000001   0.378987
     9  C    0.000026  -0.000001  -0.000164  -0.041994   0.012795   0.010997
    10  C   -0.075797  -0.092887   0.341733   0.000021  -0.000698   0.000028
    11  C    0.378218   0.008247  -0.067786  -0.000000   0.000005   0.000017
    12  F   -0.060273   0.003375   0.002694  -0.000000   0.000000  -0.000000
    13  C    4.936528   0.472393  -0.081907   0.000000  -0.000000   0.000001
    14  C    0.472393   5.020909   0.379504   0.000000   0.000000   0.000000
    15  S   -0.081907   0.379504  15.300295   0.000000  -0.000002  -0.000009
    16  H    0.000000   0.000000   0.000000   0.722678  -0.016607   0.000015
    17  H   -0.000000   0.000000  -0.000002  -0.016607   0.755555   0.000000
    18  H    0.000001   0.000000  -0.000009   0.000015   0.000000   0.666710
    19  H   -0.000001   0.000000   0.000004   0.000014  -0.000000  -0.044286
    20  H   -0.000000  -0.000002   0.000002  -0.000001   0.000000  -0.028308
    21  H   -0.000000  -0.000000   0.000004  -0.014949  -0.000285   0.002347
    22  H    0.393411  -0.052318   0.008093   0.000000   0.000000   0.000000
    23  H   -0.023736   0.395290  -0.044671  -0.000000   0.000000  -0.000000
              19         20         21         22         23
     1  C    0.000056  -0.000038  -0.029592   0.000000   0.000000
     2  C   -0.000023  -0.000001   0.009294  -0.000000  -0.000000
     3  C   -0.000093   0.000018   0.000297   0.000002  -0.000002
     4  F    0.000000   0.000000   0.000000   0.000001   0.000000
     5  C    0.000755  -0.000442   0.007977  -0.000285  -0.000241
     6  C   -0.005741   0.001610  -0.054791   0.000007   0.000001
     7  O   -0.028061  -0.012864  -0.006079   0.000006  -0.000000
     8  C    0.378311   0.401712   0.004546  -0.000000  -0.000000
     9  C    0.010422  -0.000427   0.368248  -0.000000  -0.000000
    10  C    0.000178  -0.000043  -0.000456   0.011418   0.001885
    11  C   -0.000015   0.000004   0.000002  -0.040075   0.007698
    12  F    0.000012  -0.000003   0.000003  -0.000707  -0.000022
    13  C   -0.000001  -0.000000  -0.000000   0.393411  -0.023736
    14  C    0.000000  -0.000002  -0.000000  -0.052318   0.395290
    15  S    0.000004   0.000002   0.000004   0.008093  -0.044671
    16  H    0.000014  -0.000001  -0.014949   0.000000  -0.000000
    17  H   -0.000000   0.000000  -0.000285   0.000000   0.000000
    18  H   -0.044286  -0.028308   0.002347   0.000000  -0.000000
    19  H    0.655722  -0.026913   0.002528  -0.000000   0.000000
    20  H   -0.026913   0.616853  -0.000301  -0.000000  -0.000000
    21  H    0.002528  -0.000301   0.710536   0.000000   0.000000
    22  H   -0.000000  -0.000000   0.000000   0.704618  -0.008224
    23  H    0.000000  -0.000000   0.000000  -0.008224   0.646924
          Atomic-Atomic Spin Densities.
               1          2          3          4          5          6
     1  C    0.000000  -0.000000   0.000000   0.000000  -0.000000   0.000000
     2  C   -0.000000  -0.000000  -0.000000   0.000000   0.000000   0.000000
     3  C    0.000000  -0.000000   0.000000  -0.000000  -0.000000   0.000000
     4  F    0.000000   0.000000  -0.000000   0.000000  -0.000000  -0.000000
     5  C   -0.000000   0.000000  -0.000000  -0.000000   0.000000   0.000000
     6  C    0.000000   0.000000   0.000000  -0.000000   0.000000  -0.000000
     7  O    0.000000  -0.000000   0.000000   0.000000   0.000000  -0.000000
     8  C    0.000000   0.000000  -0.000000  -0.000000  -0.000000  -0.000000
     9  C   -0.000000   0.000000  -0.000000  -0.000000   0.000000  -0.000000
    10  C    0.000000  -0.000000  -0.000000   0.000000  -0.000000   0.000000
    11  C    0.000000   0.000000   0.000000   0.000000   0.000000  -0.000000
    12  F   -0.000000   0.000000   0.000000  -0.000000   0.000000  -0.000000
    13  C   -0.000000   0.000000   0.000000  -0.000000  -0.000000  -0.000000
    14  C   -0.000000   0.000000   0.000000  -0.000000   0.000000   0.000000
    15  S    0.000000  -0.000000   0.000000  -0.000000   0.000000   0.000000
    16  H    0.000000  -0.000000   0.000000  -0.000000  -0.000000   0.000000
    17  H   -0.000000   0.000000  -0.000000   0.000000   0.000000  -0.000000
    18  H   -0.000000   0.000000  -0.000000   0.000000   0.000000  -0.000000
    19  H    0.000000  -0.000000  -0.000000   0.000000  -0.000000  -0.000000
    20  H   -0.000000  -0.000000   0.000000  -0.000000   0.000000   0.000000
    21  H   -0.000000  -0.000000  -0.000000   0.000000  -0.000000   0.000000
    22  H    0.000000  -0.000000  -0.000000  -0.000000  -0.000000   0.000000
    23  H    0.000000  -0.000000  -0.000000   0.000000   0.000000   0.000000
               7          8          9         10         11         12
     1  C    0.000000   0.000000  -0.000000   0.000000   0.000000  -0.000000
     2  C   -0.000000   0.000000   0.000000  -0.000000   0.000000   0.000000
     3  C    0.000000  -0.000000  -0.000000  -0.000000   0.000000   0.000000
     4  F    0.000000  -0.000000  -0.000000   0.000000   0.000000  -0.000000
     5  C    0.000000  -0.000000   0.000000  -0.000000   0.000000   0.000000
     6  C   -0.000000  -0.000000  -0.000000   0.000000  -0.000000  -0.000000
     7  O    0.000000   0.000000  -0.000000  -0.000000  -0.000000   0.000000
     8  C    0.000000  -0.000000   0.000000   0.000000  -0.000000   0.000000
     9  C   -0.000000   0.000000   0.000000   0.000000  -0.000000  -0.000000
    10  C   -0.000000   0.000000   0.000000  -0.000000   0.000000  -0.000000
    11  C   -0.000000  -0.000000  -0.000000   0.000000  -0.000000   0.000000
    12  F    0.000000   0.000000  -0.000000  -0.000000   0.000000   0.000000
    13  C    0.000000  -0.000000  -0.000000  -0.000000   0.000000   0.000000
    14  C   -0.000000   0.000000   0.000000  -0.000000   0.000000  -0.000000
    15  S    0.000000   0.000000  -0.000000  -0.000000   0.000000  -0.000000
    16  H    0.000000  -0.000000  -0.000000   0.000000   0.000000  -0.000000
    17  H   -0.000000  -0.000000   0.000000  -0.000000  -0.000000  -0.000000
    18  H   -0.000000  -0.000000  -0.000000   0.000000  -0.000000   0.000000
    19  H   -0.000000   0.000000   0.000000   0.000000  -0.000000   0.000000
    20  H   -0.000000   0.000000  -0.000000  -0.000000   0.000000  -0.000000
    21  H   -0.000000   0.000000   0.000000  -0.000000  -0.000000   0.000000
    22  H   -0.000000  -0.000000   0.000000  -0.000000   0.000000  -0.000000
    23  H    0.000000   0.000000  -0.000000   0.000000  -0.000000  -0.000000
              13         14         15         16         17         18
     1  C   -0.000000  -0.000000   0.000000   0.000000  -0.000000  -0.000000
     2  C    0.000000   0.000000  -0.000000  -0.000000   0.000000   0.000000
     3  C    0.000000   0.000000   0.000000   0.000000  -0.000000  -0.000000
     4  F   -0.000000  -0.000000  -0.000000  -0.000000   0.000000   0.000000
     5  C   -0.000000   0.000000   0.000000  -0.000000   0.000000   0.000000
     6  C   -0.000000   0.000000   0.000000   0.000000  -0.000000  -0.000000
     7  O    0.000000  -0.000000   0.000000   0.000000  -0.000000  -0.000000
     8  C   -0.000000   0.000000   0.000000  -0.000000  -0.000000  -0.000000
     9  C   -0.000000   0.000000  -0.000000  -0.000000   0.000000  -0.000000
    10  C   -0.000000  -0.000000  -0.000000   0.000000  -0.000000   0.000000
    11  C    0.000000   0.000000   0.000000   0.000000  -0.000000  -0.000000
    12  F    0.000000  -0.000000  -0.000000  -0.000000  -0.000000   0.000000
    13  C   -0.000000  -0.000000  -0.000000  -0.000000   0.000000  -0.000000
    14  C   -0.000000   0.000000  -0.000000   0.000000  -0.000000   0.000000
    15  S   -0.000000  -0.000000   0.000000   0.000000  -0.000000   0.000000
    16  H   -0.000000   0.000000   0.000000   0.000000  -0.000000  -0.000000
    17  H    0.000000  -0.000000  -0.000000  -0.000000   0.000000  -0.000000
    18  H   -0.000000   0.000000   0.000000  -0.000000  -0.000000   0.000000
    19  H   -0.000000  -0.000000   0.000000   0.000000   0.000000  -0.000000
    20  H   -0.000000  -0.000000   0.000000   0.000000  -0.000000  -0.000000
    21  H    0.000000  -0.000000  -0.000000  -0.000000   0.000000   0.000000
    22  H   -0.000000  -0.000000  -0.000000  -0.000000   0.000000  -0.000000
    23  H    0.000000   0.000000  -0.000000   0.000000  -0.000000   0.000000
              19         20         21         22         23
     1  C    0.000000  -0.000000  -0.000000   0.000000   0.000000
     2  C   -0.000000  -0.000000  -0.000000  -0.000000  -0.000000
     3  C   -0.000000   0.000000  -0.000000  -0.000000  -0.000000
     4  F    0.000000  -0.000000   0.000000  -0.000000   0.000000
     5  C   -0.000000   0.000000  -0.000000  -0.000000   0.000000
     6  C   -0.000000   0.000000   0.000000   0.000000   0.000000
     7  O   -0.000000  -0.000000  -0.000000  -0.000000   0.000000
     8  C    0.000000   0.000000   0.000000  -0.000000   0.000000
     9  C    0.000000  -0.000000   0.000000   0.000000  -0.000000
    10  C    0.000000  -0.000000  -0.000000  -0.000000   0.000000
    11  C   -0.000000   0.000000  -0.000000   0.000000  -0.000000
    12  F    0.000000  -0.000000   0.000000  -0.000000  -0.000000
    13  C   -0.000000  -0.000000   0.000000  -0.000000   0.000000
    14  C   -0.000000  -0.000000  -0.000000  -0.000000   0.000000
    15  S    0.000000   0.000000  -0.000000  -0.000000  -0.000000
    16  H    0.000000   0.000000  -0.000000  -0.000000   0.000000
    17  H    0.000000  -0.000000   0.000000   0.000000  -0.000000
    18  H   -0.000000  -0.000000   0.000000  -0.000000   0.000000
    19  H    0.000000  -0.000000  -0.000000  -0.000000   0.000000
    20  H   -0.000000  -0.000000   0.000000   0.000000  -0.000000
    21  H   -0.000000   0.000000  -0.000000   0.000000  -0.000000
    22  H   -0.000000   0.000000   0.000000  -0.000000   0.000000
    23  H    0.000000  -0.000000  -0.000000   0.000000  -0.000000
 Mulliken charges and spin densities:
               1          2
     1  C    0.036995   0.000000
     2  C    0.072511  -0.000000
     3  C    0.134407   0.000000
     4  F   -0.135297   0.000000
     5  C   -0.095702   0.000000
     6  C    0.164761  -0.000000
     7  O   -0.207614   0.000000
     8  C    0.068519   0.000000
     9  C   -0.094183  -0.000000
    10  C   -0.200013  -0.000000
    11  C    0.147489  -0.000000
    12  F   -0.140408   0.000000
    13  C    0.051620  -0.000000
    14  C   -0.137107   0.000000
    15  S    0.221611   0.000000
    16  H   -0.013680   0.000000
    17  H   -0.041254  -0.000000
    18  H    0.051251   0.000000
    19  H    0.057130   0.000000
    20  H    0.049142  -0.000000
    21  H    0.000670  -0.000000
    22  H   -0.015946  -0.000000
    23  H    0.025097   0.000000
 Sum of Mulliken charges =  -0.00000  -0.00000
 Mulliken charges and spin densities with hydrogens summed into heavy atoms:
               1          2
     1  C    0.023315   0.000000
     2  C    0.031257  -0.000000
     3  C    0.134407   0.000000
     4  F   -0.135297   0.000000
     5  C   -0.095702   0.000000
     6  C    0.164761  -0.000000
     7  O   -0.207614   0.000000
     8  C    0.226042   0.000000
     9  C   -0.093513  -0.000000
    10  C   -0.200013  -0.000000
    11  C    0.147489  -0.000000
    12  F   -0.140408   0.000000
    13  C    0.035675  -0.000000
    14  C   -0.112010   0.000000
    15  S    0.221611   0.000000
 Electronic spatial extent (au):  <R**2>=           3217.4643
 Charge=             -0.0000 electrons
 Dipole moment (field-independent basis, Debye):
    X=             -1.5894    Y=              2.1944    Z=             -1.2626  Tot=              2.9893
 Quadrupole moment (field-independent basis, Debye-Ang):
   XX=            -74.9728   YY=            -84.8536   ZZ=            -93.6910
   XY=             -2.7472   XZ=             -1.4522   YZ=             -1.1960
 Traceless Quadrupole moment (field-independent basis, Debye-Ang):
   XX=              9.5329   YY=             -0.3478   ZZ=             -9.1852
   XY=             -2.7472   XZ=             -1.4522   YZ=             -1.1960
 Octapole moment (field-independent basis, Debye-Ang**2):
  XXX=             13.3613  YYY=             33.2021  ZZZ=              9.4568  XYY=            -25.6022
  XXY=              5.2229  XXZ=             -1.3846  XZZ=              9.5753  YZZ=             -1.2093
  YYZ=             -0.5808  XYZ=              7.9822
 Hexadecapole moment (field-independent basis, Debye-Ang**3):
 XXXX=          -2198.5041 YYYY=          -1110.4754 ZZZZ=           -458.9165 XXXY=             21.9775
 XXXZ=            -12.0968 YYYX=            -37.5939 YYYZ=            -16.6789 ZZZX=              6.0463
 ZZZY=              2.8298 XXYY=           -573.5934 XXZZ=           -487.2650 YYZZ=           -281.6806
 XXYZ=              8.0201 YYXZ=             10.3660 ZZXY=             -9.6859
 N-N= 1.092487976271D+03 E-N=-4.768006307136D+03  KE= 1.091393866305D+03
                          Isotropic Fermi Contact Couplings
        Atom                 a.u.       MegaHertz       Gauss      10(-4) cm-1
     1  C(13)              0.00000       0.00000       0.00000       0.00000
     2  C(13)             -0.00000      -0.00000      -0.00000      -0.00000
     3  C(13)             -0.00000      -0.00000      -0.00000      -0.00000
     4  F(19)              0.00000       0.00000       0.00000       0.00000
     5  C(13)              0.00000       0.00000       0.00000       0.00000
     6  C(13)             -0.00000      -0.00000      -0.00000      -0.00000
     7  O(17)             -0.00000       0.00000       0.00000       0.00000
     8  C(13)             -0.00000      -0.00000      -0.00000      -0.00000
     9  C(13)              0.00000       0.00000       0.00000       0.00000
    10  C(13)              0.00000       0.00000       0.00000       0.00000
    11  C(13)             -0.00000      -0.00000      -0.00000      -0.00000
    12  F(19)              0.00000       0.00000       0.00000       0.00000
    13  C(13)             -0.00000      -0.00000      -0.00000      -0.00000
    14  C(13)             -0.00000      -0.00000      -0.00000      -0.00000
    15  S(33)              0.00000       0.00000       0.00000       0.00000
    16  H(1)               0.00000       0.00000       0.00000       0.00000
    17  H(1)              -0.00000      -0.00000      -0.00000      -0.00000
    18  H(1)               0.00000       0.00000       0.00000       0.00000
    19  H(1)              -0.00000      -0.00000      -0.00000      -0.00000
    20  H(1)              -0.00000      -0.00000      -0.00000      -0.00000
    21  H(1)              -0.00000      -0.00000      -0.00000      -0.00000
    22  H(1)               0.00000       0.00000       0.00000       0.00000
    23  H(1)              -0.00000      -0.00000      -0.00000      -0.00000
 --------------------------------------------------------
       Center         ----  Spin Dipole Couplings  ----
                      3XX-RR        3YY-RR        3ZZ-RR
 --------------------------------------------------------
     1   Atom        0.000000     -0.000000     -0.000000
     2   Atom        0.000000     -0.000000     -0.000000
     3   Atom       -0.000000      0.000000     -0.000000
     4   Atom       -0.000000      0.000000     -0.000000
     5   Atom        0.000000      0.000000     -0.000000
     6   Atom       -0.000000      0.000000      0.000000
     7   Atom        0.000000     -0.000000      0.000000
     8   Atom       -0.000000      0.000000     -0.000000
     9   Atom       -0.000000      0.000000     -0.000000
    10   Atom        0.000000     -0.000000      0.000000
    11   Atom        0.000000      0.000000     -0.000000
    12   Atom        0.000000      0.000000     -0.000000
    13   Atom        0.000000     -0.000000     -0.000000
    14   Atom        0.000000      0.000000     -0.000000
    15   Atom        0.000000      0.000000     -0.000000
    16   Atom       -0.000000      0.000000     -0.000000
    17   Atom       -0.000000      0.000000     -0.000000
    18   Atom        0.000000     -0.000000     -0.000000
    19   Atom        0.000000     -0.000000      0.000000
    20   Atom       -0.000000      0.000000     -0.000000
    21   Atom       -0.000000      0.000000     -0.000000
    22   Atom        0.000000     -0.000000      0.000000
    23   Atom       -0.000000      0.000000     -0.000000
 --------------------------------------------------------
                        XY            XZ            YZ
 --------------------------------------------------------
     1   Atom       -0.000000      0.000000      0.000000
     2   Atom        0.000000     -0.000000     -0.000000
     3   Atom       -0.000000     -0.000000     -0.000000
     4   Atom       -0.000000      0.000000     -0.000000
     5   Atom        0.000000     -0.000000     -0.000000
     6   Atom        0.000000     -0.000000     -0.000000
     7   Atom        0.000000     -0.000000      0.000000
     8   Atom       -0.000000      0.000000      0.000000
     9   Atom       -0.000000     -0.000000     -0.000000
    10   Atom       -0.000000     -0.000000     -0.000000
    11   Atom        0.000000     -0.000000     -0.000000
    12   Atom        0.000000      0.000000     -0.000000
    13   Atom        0.000000     -0.000000     -0.000000
    14   Atom       -0.000000      0.000000      0.000000
    15   Atom        0.000000     -0.000000     -0.000000
    16   Atom       -0.000000      0.000000     -0.000000
    17   Atom        0.000000     -0.000000     -0.000000
    18   Atom       -0.000000      0.000000      0.000000
    19   Atom        0.000000     -0.000000     -0.000000
    20   Atom        0.000000      0.000000      0.000000
    21   Atom       -0.000000      0.000000     -0.000000
    22   Atom        0.000000      0.000000      0.000000
    23   Atom        0.000000      0.000000     -0.000000
 --------------------------------------------------------


 ---------------------------------------------------------------------------------
              Anisotropic Spin Dipole Couplings in Principal Axis System
 ---------------------------------------------------------------------------------

       Atom             a.u.   MegaHertz   Gauss  10(-4) cm-1        Axes

              Baa    -0.0000    -0.000    -0.000    -0.000  0.1076  0.9176 -0.3826
     1 C(13)  Bbb     0.0000     0.000     0.000     0.000  0.0814  0.3754  0.9233
              Bcc     0.0000     0.000     0.000     0.000  0.9909 -0.1305 -0.0343
 
              Baa    -0.0000    -0.000    -0.000    -0.000 -0.0536  0.2994  0.9526
     2 C(13)  Bbb    -0.0000    -0.000    -0.000    -0.000 -0.4949  0.8206 -0.2858
              Bcc     0.0000     0.000     0.000     0.000  0.8673  0.4868 -0.1042
 
              Baa    -0.0000    -0.000    -0.000    -0.000  0.9141  0.2317  0.3328
     3 C(13)  Bbb    -0.0000    -0.000    -0.000    -0.000 -0.3792  0.1976  0.9040
              Bcc     0.0000     0.000     0.000     0.000 -0.1437  0.9525 -0.2685
 
              Baa    -0.0000    -0.000    -0.000    -0.000  0.9147  0.2109 -0.3446
     4 F(19)  Bbb    -0.0000    -0.000    -0.000    -0.000  0.1669  0.5794  0.7977
              Bcc     0.0000     0.000     0.000     0.000 -0.3679  0.7873 -0.4948
 
              Baa    -0.0000    -0.000    -0.000    -0.000  0.6303 -0.2866  0.7215
     5 C(13)  Bbb    -0.0000    -0.000    -0.000    -0.000 -0.5057  0.5535  0.6617
              Bcc     0.0000     0.000     0.000     0.000  0.5891  0.7819 -0.2040
 
              Baa    -0.0000    -0.000    -0.000    -0.000  0.7430 -0.6685  0.0322
     6 C(13)  Bbb     0.0000     0.000     0.000     0.000  0.1163  0.1764  0.9774
              Bcc     0.0000     0.000     0.000     0.000  0.6591  0.7225 -0.2088
 
[...]
    21  H   -0.000000  -0.000000   0.000000  -0.000000  -0.000000  -0.000000
    22  H   -0.000000  -0.000000   0.000000   0.000000  -0.000000  -0.000000
    23  H   -0.000000  -0.000000   0.000000  -0.000000   0.000000   0.000000
              13         14         15         16         17         18
     1  C   -0.000000   0.000000   0.000000   0.000000  -0.000000   0.000000
     2  C   -0.000000   0.000000  -0.000000  -0.000000   0.000000  -0.000000
     3  C   -0.000000   0.000000  -0.000000   0.000000   0.000000   0.000000
     4  F   -0.000000   0.000000   0.000000  -0.000000  -0.000000  -0.000000
     5  C    0.000000  -0.000000  -0.000000  -0.000000   0.000000  -0.000000
     6  C    0.000000  -0.000000   0.000000  -0.000000  -0.000000  -0.000000
     7  O    0.000000  -0.000000  -0.000000   0.000000  -0.000000   0.000000
     8  C    0.000000  -0.000000  -0.000000  -0.000000   0.000000   0.000000
     9  C    0.000000  -0.000000   0.000000  -0.000000   0.000000  -0.000000
    10  C    0.000000   0.000000   0.000000   0.000000  -0.000000  -0.000000
    11  C   -0.000000   0.000000  -0.000000   0.000000  -0.000000  -0.000000
    12  F   -0.000000   0.000000  -0.000000   0.000000  -0.000000   0.000000
    13  C    0.000000  -0.000000   0.000000  -0.000000   0.000000   0.000000
    14  C   -0.000000  -0.000000  -0.000000   0.000000  -0.000000  -0.000000
    15  S    0.000000  -0.000000   0.000000   0.000000  -0.000000  -0.000000
    16  H   -0.000000   0.000000   0.000000   0.000000  -0.000000   0.000000
    17  H    0.000000  -0.000000  -0.000000  -0.000000   0.000000  -0.000000
    18  H    0.000000  -0.000000  -0.000000   0.000000  -0.000000  -0.000000
    19  H   -0.000000   0.000000   0.000000   0.000000  -0.000000  -0.000000
    20  H    0.000000   0.000000  -0.000000  -0.000000   0.000000   0.000000
    21  H    0.000000  -0.000000   0.000000  -0.000000   0.000000  -0.000000
    22  H    0.000000  -0.000000   0.000000  -0.000000   0.000000   0.000000
    23  H   -0.000000   0.000000  -0.000000   0.000000  -0.000000  -0.000000
              19         20         21         22         23
     1  C   -0.000000  -0.000000  -0.000000  -0.000000   0.000000
     2  C    0.000000   0.000000   0.000000   0.000000  -0.000000
     3  C    0.000000  -0.000000  -0.000000   0.000000   0.000000
     4  F   -0.000000  -0.000000   0.000000  -0.000000   0.000000
     5  C   -0.000000   0.000000  -0.000000  -0.000000  -0.000000
     6  C    0.000000  -0.000000  -0.000000   0.000000   0.000000
     7  O   -0.000000   0.000000  -0.000000  -0.000000  -0.000000
     8  C   -0.000000   0.000000  -0.000000  -0.000000  -0.000000
     9  C   -0.000000   0.000000   0.000000   0.000000   0.000000
    10  C    0.000000   0.000000  -0.000000   0.000000  -0.000000
    11  C   -0.000000   0.000000  -0.000000  -0.000000   0.000000
    12  F    0.000000   0.000000  -0.000000  -0.000000   0.000000
    13  C   -0.000000   0.000000   0.000000   0.000000  -0.000000
    14  C    0.000000   0.000000  -0.000000  -0.000000   0.000000
    15  S    0.000000  -0.000000   0.000000   0.000000  -0.000000
    16  H    0.000000  -0.000000  -0.000000  -0.000000   0.000000
    17  H   -0.000000   0.000000   0.000000   0.000000  -0.000000
    18  H   -0.000000   0.000000  -0.000000   0.000000  -0.000000
    19  H    0.000000   0.000000  -0.000000  -0.000000   0.000000
    20  H    0.000000  -0.000000   0.000000  -0.000000   0.000000
    21  H   -0.000000   0.000000   0.000000   0.000000  -0.000000
    22  H   -0.000000  -0.000000   0.000000  -0.000000  -0.000000
    23  H    0.000000   0.000000  -0.000000  -0.000000   0.000000
 Mulliken charges and spin densities:
               1          2
     1  C    0.037931  -0.000000
     2  C    0.012084  -0.000000
     3  C    0.103086  -0.000000
     4  F   -0.121174   0.000000
     5  C   -0.021545   0.000000
     6  C    0.107296  -0.000000
     7  O   -0.224710   0.000000
     8  C    0.062077   0.000000
     9  C   -0.029943   0.000000
    10  C   -0.174610  -0.000000
    11  C    0.135244   0.000000
    12  F   -0.120260   0.000000
    13  C    0.052989   0.000000
    14  C   -0.122903  -0.000000
    15  S    0.177153   0.000000
    16  H   -0.011650  -0.000000
    17  H   -0.009136   0.000000
    18  H    0.044885   0.000000
    19  H    0.046894  -0.000000
    20  H    0.053132   0.000000
    21  H   -0.016932   0.000000
    22  H   -0.004282  -0.000000
    23  H    0.024374   0.000000
 Sum of Mulliken charges =  -0.00000   0.00000
 Mulliken charges and spin densities with hydrogens summed into heavy atoms:
               1          2
     1  C    0.026281  -0.000000
     2  C    0.002949   0.000000
     3  C    0.103086  -0.000000
     4  F   -0.121174   0.000000
     5  C   -0.021545   0.000000
     6  C    0.107296  -0.000000
     7  O   -0.224710   0.000000
     8  C    0.206987   0.000000
     9  C   -0.046874   0.000000
    10  C   -0.174610  -0.000000
    11  C    0.135244   0.000000
    12  F   -0.120260   0.000000
    13  C    0.048707   0.000000
    14  C   -0.098530  -0.000000
    15  S    0.177153   0.000000
 Electronic spatial extent (au):  <R**2>=           3239.9970
 Charge=             -0.0000 electrons
 Dipole moment (field-independent basis, Debye):
    X=             -1.2307    Y=              1.6968    Z=             -0.8545  Tot=              2.2636
 Quadrupole moment (field-independent basis, Debye-Ang):
   XX=            -74.8907   YY=            -85.4225   ZZ=            -94.1446
   XY=             -1.9817   XZ=             -0.1441   YZ=             -1.1095
 Traceless Quadrupole moment (field-independent basis, Debye-Ang):
   XX=              9.9286   YY=             -0.6032   ZZ=             -9.3253
   XY=             -1.9817   XZ=             -0.1441   YZ=             -1.1095
 Octapole moment (field-independent basis, Debye-Ang**2):
  XXX=             16.8632  YYY=             27.0157  ZZZ=              9.8219  XYY=            -19.5514
  XXY=              7.0256  XXZ=             -2.1207  XZZ=              4.8172  YZZ=              1.6348
  YYZ=             -2.1784  XYZ=             10.5528
 Hexadecapole moment (field-independent basis, Debye-Ang**3):
 XXXX=          -2255.4471 YYYY=          -1261.6306 ZZZZ=           -312.3760 XXXY=             10.4118
 XXXZ=            -12.0140 YYYX=            -16.1512 YYYZ=            -13.9002 ZZZX=             12.9179
 ZZZY=              5.8537 XXYY=           -590.6908 XXZZ=           -492.6797 YYZZ=           -275.8396
 XXYZ=             10.8105 YYXZ=              8.0214 ZZXY=            -10.5403
 N-N= 1.094033940346D+03 E-N=-4.770914630083D+03  KE= 1.091188545957D+03
                          Isotropic Fermi Contact Couplings
        Atom                 a.u.       MegaHertz       Gauss      10(-4) cm-1
     1  C(13)              0.00000       0.00000       0.00000       0.00000
     2  C(13)              0.00000       0.00000       0.00000       0.00000
     3  C(13)             -0.00000      -0.00000      -0.00000      -0.00000
     4  F(19)             -0.00000      -0.00000      -0.00000      -0.00000
     5  C(13)              0.00000       0.00000       0.00000       0.00000
     6  C(13)             -0.00000      -0.00000      -0.00000      -0.00000
     7  O(17)              0.00000      -0.00000      -0.00000      -0.00000
     8  C(13)              0.00000       0.00000       0.00000       0.00000
     9  C(13)              0.00000       0.00000       0.00000       0.00000
    10  C(13)              0.00000       0.00000       0.00000       0.00000
    11  C(13)              0.00000       0.00000       0.00000       0.00000
    12  F(19)              0.00000       0.00000       0.00000       0.00000
    13  C(13)              0.00000       0.00000       0.00000       0.00000
    14  C(13)             -0.00000      -0.00000      -0.00000      -0.00000
    15  S(33)              0.00000       0.00000       0.00000       0.00000
    16  H(1)              -0.00000      -0.00000      -0.00000      -0.00000
    17  H(1)               0.00000       0.00000       0.00000       0.00000
    18  H(1)              -0.00000      -0.00000      -0.00000      -0.00000
    19  H(1)              -0.00000      -0.00000      -0.00000      -0.00000
    20  H(1)              -0.00000      -0.00000      -0.00000      -0.00000
    21  H(1)              -0.00000      -0.00000      -0.00000      -0.00000
    22  H(1)              -0.00000      -0.00000      -0.00000      -0.00000
    23  H(1)               0.00000       0.00000       0.00000       0.00000
 --------------------------------------------------------
       Center         ----  Spin Dipole Couplings  ----
                      3XX-RR        3YY-RR        3ZZ-RR
 --------------------------------------------------------
     1   Atom        0.000000      0.000000     -0.000000
     2   Atom        0.000000      0.000000     -0.000000
     3   Atom        0.000000     -0.000000      0.000000
     4   Atom       -0.000000      0.000000     -0.000000
     5   Atom        0.000000      0.000000     -0.000000
     6   Atom       -0.000000     -0.000000      0.000000
     7   Atom       -0.000000      0.000000     -0.000000
     8   Atom        0.000000     -0.000000     -0.000000
     9   Atom        0.000000      0.000000     -0.000000
    10   Atom        0.000000      0.000000     -0.000000
    11   Atom        0.000000     -0.000000     -0.000000
    12   Atom       -0.000000      0.000000     -0.000000
    13   Atom        0.000000     -0.000000     -0.000000
    14   Atom       -0.000000      0.000000      0.000000
    15   Atom       -0.000000     -0.000000      0.000000
    16   Atom        0.000000     -0.000000     -0.000000
    17   Atom       -0.000000      0.000000     -0.000000
    18   Atom       -0.000000     -0.000000      0.000000
    19   Atom       -0.000000     -0.000000      0.000000
    20   Atom       -0.000000      0.000000     -0.000000
    21   Atom       -0.000000      0.000000     -0.000000
    22   Atom       -0.000000      0.000000      0.000000
    23   Atom        0.000000     -0.000000     -0.000000
 --------------------------------------------------------
                        XY            XZ            YZ
 --------------------------------------------------------
     1   Atom        0.000000      0.000000     -0.000000
     2   Atom       -0.000000      0.000000     -0.000000
     3   Atom        0.000000      0.000000      0.000000
     4   Atom        0.000000     -0.000000     -0.000000
     5   Atom        0.000000     -0.000000     -0.000000
     6   Atom        0.000000     -0.000000      0.000000
     7   Atom        0.000000     -0.000000      0.000000
     8   Atom        0.000000      0.000000     -0.000000
     9   Atom       -0.000000      0.000000     -0.000000
    10   Atom        0.000000     -0.000000     -0.000000
    11   Atom       -0.000000     -0.000000      0.000000
    12   Atom       -0.000000     -0.000000      0.000000
    13   Atom        0.000000      0.000000      0.000000
    14   Atom       -0.000000     -0.000000      0.000000
    15   Atom       -0.000000     -0.000000      0.000000
    16   Atom        0.000000     -0.000000     -0.000000
    17   Atom        0.000000     -0.000000     -0.000000
    18   Atom        0.000000      0.000000      0.000000
    19   Atom        0.000000     -0.000000      0.000000
    20   Atom        0.000000     -0.000000     -0.000000
    21   Atom       -0.000000      0.000000     -0.000000
    22   Atom        0.000000      0.000000      0.000000
    23   Atom       -0.000000      0.000000      0.000000
 --------------------------------------------------------


 ---------------------------------------------------------------------------------
              Anisotropic Spin Dipole Couplings in Principal Axis System
 ---------------------------------------------------------------------------------

       Atom             a.u.   MegaHertz   Gauss  10(-4) cm-1        Axes

              Baa    -0.0000    -0.000    -0.000    -0.000 -0.0299  0.0655  0.9974
     1 C(13)  Bbb     0.0000     0.000     0.000     0.000 -0.3305  0.9411 -0.0717
              Bcc     0.0000     0.000     0.000     0.000  0.9433  0.3318  0.0065
 
              Baa    -0.0000    -0.000    -0.000    -0.000 -0.1841  0.1128  0.9764
     2 C(13)  Bbb    -0.0000    -0.000    -0.000    -0.000  0.8097  0.5806  0.0856
              Bcc     0.0000     0.000     0.000     0.000 -0.5572  0.8063 -0.1982
 
              Baa    -0.0000    -0.000    -0.000    -0.000 -0.4774  0.8779 -0.0375
     3 C(13)  Bbb     0.0000     0.000     0.000     0.000 -0.1379 -0.0327  0.9899
              Bcc     0.0000     0.000     0.000     0.000  0.8678  0.4778  0.1367
 
              Baa    -0.0000    -0.000    -0.000    -0.000  0.9994  0.0005  0.0340
     4 F(19)  Bbb    -0.0000    -0.000    -0.000    -0.000 -0.0338  0.1299  0.9909
              Bcc     0.0000     0.000     0.000     0.000  0.0039  0.9915 -0.1299
 
              Baa    -0.0000    -0.000    -0.000    -0.000 -0.0098  0.1321  0.9912
     5 C(13)  Bbb     0.0000     0.000     0.000     0.000 -0.3096  0.9421 -0.1286
              Bcc     0.0000     0.000     0.000     0.000  0.9508  0.3081 -0.0317
 
              Baa    -0.0000    -0.000    -0.000    -0.000 -0.3193  0.9305 -0.1794
     6 C(13)  Bbb     0.0000     0.000     0.000     0.000  0.9477  0.3131 -0.0622
              Bcc     0.0000     0.000     0.000     0.000  0.0017  0.1899  0.9818
 
              Baa    -0.0000     0.000     0.000     0.000  0.9103 -0.3961  0.1204
     7 O(17)  Bbb    -0.0000     0.000     0.000     0.000 -0.0962  0.0804  0.9921
              Bcc     0.0000    -0.000    -0.000    -0.000  0.4026  0.9147 -0.0351
 
              Baa    -0.0000    -0.000    -0.000    -0.000 -0.3727  0.8589  0.3513
     8 C(13)  Bbb    -0.0000    -0.000    -0.000    -0.000  0.0045 -0.3769  0.9262
              Bcc     0.0000     0.000     0.000     0.000  0.9280  0.3468  0.1366
 
              Baa    -0.0000    -0.000    -0.000    -0.000 -0.0600  0.0732  0.9955
     9 C(13)  Bbb     0.0000     0.000     0.000     0.000  0.5902  0.8069 -0.0237
              Bcc     0.0000     0.000     0.000     0.000  0.8051 -0.5861  0.0916
 
              Baa    -0.0000    -0.000    -0.000    -0.000  0.0597  0.0024  0.9982
    10 C(13)  Bbb    -0.0000    -0.000    -0.000    -0.000  0.7884 -0.6135 -0.0456
              Bcc     0.0000     0.000     0.000     0.000  0.6123  0.7897 -0.0385
 
              Baa    -0.0000    -0.000    -0.000    -0.000  0.1180  0.9920  0.0448
    11 C(13)  Bbb    -0.0000    -0.000    -0.000    -0.000  0.5049 -0.0987  0.8575
              Bcc     0.0000     0.000     0.000     0.000  0.8551 -0.0785 -0.5125
 
              Baa    -0.0000    -0.000    -0.000    -0.000  0.8192  0.1408  0.5559
    12 F(19)  Bbb    -0.0000    -0.000    -0.000    -0.000 -0.3947 -0.5647  0.7248
              Bcc     0.0000     0.000     0.000     0.000 -0.4160  0.8132  0.4071
 
              Baa    -0.0000    -0.000    -0.000    -0.000 -0.2890  0.8406 -0.4581
    13 C(13)  Bbb    -0.0000    -0.000    -0.000    -0.000 -0.4231  0.3171  0.8488
              Bcc     0.0000     0.000     0.000     0.000  0.8588  0.4391  0.2640
 
              Baa    -0.0000    -0.000    -0.000    -0.000  0.9739  0.1806  0.1374
    14 C(13)  Bbb    -0.0000    -0.000    -0.000    -0.000 -0.0316  0.7077 -0.7058
              Bcc     0.0000     0.000     0.000     0.000 -0.2247  0.6830  0.6950
 
              Baa    -0.0000    -0.000    -0.000    -0.000 -0.3256  0.7273 -0.6042
    15 S(33)  Bbb    -0.0000    -0.000    -0.000    -0.000  0.8987  0.4366  0.0413
              Bcc     0.0000     0.000     0.000     0.000 -0.2938  0.5296  0.7957
 
              Baa    -0.0000    -0.000    -0.000    -0.000  0.0911  0.3359  0.9375
    16 H(1)   Bbb    -0.0000    -0.000    -0.000    -0.000 -0.2301  0.9230 -0.3083
              Bcc     0.0000     0.000     0.000     0.000  0.9689  0.1876 -0.1613
 
              Baa    -0.0000    -0.000    -0.000    -0.000 -0.0635  0.2420  0.9682
    17 H(1)   Bbb    -0.0000    -0.000    -0.000    -0.000  0.9226 -0.3558  0.1494
              Bcc     0.0000     0.000     0.000     0.000  0.3806  0.9027 -0.2007
 
              Baa    -0.0000    -0.000    -0.000    -0.000  0.7472 -0.6558  0.1075
    18 H(1)   Bbb     0.0000     0.000     0.000     0.000  0.6524  0.6931 -0.3065
              Bcc     0.0000     0.000     0.000     0.000  0.1265  0.2992  0.9458
 
              Baa    -0.0000    -0.000    -0.000    -0.000  0.6945 -0.6831  0.2260
    19 H(1)   Bbb    -0.0000    -0.000    -0.000    -0.000  0.7124  0.6970 -0.0824
              Bcc     0.0000     0.000     0.000     0.000 -0.1012  0.2183  0.9706
 
              Baa    -0.0000    -0.000    -0.000    -0.000  0.6586 -0.5833 -0.4755
    20 H(1)   Bbb    -0.0000    -0.000    -0.000    -0.000  0.4813 -0.1592  0.8620
              Bcc     0.0000     0.000     0.000     0.000  0.5785  0.7965 -0.1759
 
              Baa    -0.0000    -0.000    -0.000    -0.000  0.1409  0.3222  0.9361
    21 H(1)   Bbb    -0.0000    -0.000    -0.000    -0.000  0.8415  0.4592 -0.2847
              Bcc     0.0000     0.000     0.000     0.000 -0.5216  0.8279 -0.2064
 
              Baa    -0.0000    -0.000    -0.000    -0.000  0.6575  0.5084 -0.5561
    22 H(1)   Bbb    -0.0000    -0.000    -0.000    -0.000  0.7405 -0.5725  0.3521
              Bcc     0.0000     0.000     0.000     0.000  0.1393  0.6432  0.7529
 
              Baa    -0.0000    -0.000    -0.000    -0.000 -0.1212 -0.5851  0.8018
    23 H(1)   Bbb    -0.0000    -0.000    -0.000    -0.000  0.0338  0.8049  0.5925
              Bcc     0.0000     0.000     0.000     0.000  0.9921 -0.0989  0.0778
 

 ---------------------------------------------------------------------------------

 No NMR shielding tensors so no spin-rotation constants.
 Leave Link  601 at Sun Jul 26 12:39:12 2020, MaxMem=  4026531840 cpu:               1.7 elap:               0.2
 (Enter /opt/ohpc/pub/libs/gaussian/g16-A.03/sandybridge/g16/l9999.exe)

 Test job not archived.
 1\1\GINC-SKYLAKE036\FOpt\ULC-wPBE\CC-pVDZ\C11H8F2O1S1\RDU230\26-Jul-20
 20\0\\#P uLC-wPBE/cc-pVDZ iop(3/107=0165100000, 3/108=0165100000) opt\
 \H8 C11 S1 O1 F2\\0,1\C,-3.2907968528,-0.9188250991,0.0273776853\C,-2.
 4059301236,-1.9933008172,0.1344703016\C,-1.0375653271,-1.7209815125,0.
 1090830144\F,-0.1745140229,-2.7604203018,0.2163931334\C,-0.5057167902,
 -0.429121472,-0.0193891488\C,-1.4357866265,0.6404494532,-0.146243825\O
 ,-0.8845227715,1.8733786235,-0.3102655375\C,-1.7626350501,2.9888009,-0
 .3911978401\C,-2.8189521129,0.3928573349,-0.1128321938\C,0.9465021852,
 -0.1857046764,-0.0227934688\C,1.6665344221,0.7298941538,0.7208990013\F
 ,1.0963607153,1.5405466106,1.634848515\C,3.068423656,0.7496675787,0.47
 55788154\C,3.4179678323,-0.1765106908,-0.4788108048\S,2.0497844295,-1.
 0592623315,-1.0617714471\H,-4.3735326512,-1.1016596855,0.0490930596\H,
 -2.7460180259,-3.0297821403,0.2432507209\H,-2.4351874385,2.9207206725,
 -1.2728680981\H,-2.3760916208,3.0945032552,0.5286101975\H,-1.112200098
 7,3.8739029848,-0.4980500444\H,-3.5339806255,1.2176964929,-0.204435836
 9\H,3.7652589453,1.4160648112,0.9946383583\H,4.4154069525,-0.401793144
 2,-0.8681625572\\Version=EM64L-G16RevA.03\State=1-A\HF=-1096.3395079\S
 2=0.\S2-1=0.\S2A=0.\RMSD=7.380e-09\RMSF=8.158e-06\Dipole=-0.4755657,0.
 7035373,-0.2683124\Quadrupole=7.3246873,-0.3021867,-7.0225006,-1.58590
 19,-0.3993043,-0.196173\PG=C01 [X(C11H8F2O1S1)]\\@


 ARTHROPOD AXIOM: A COMPUTER SYSTEM IS LIKE A SPIDER'S WEB.
 YOU CANNOT PULL ON ONE END WITHOUT MAKING THE OTHER END MOVE.
     -- GREG WETTSTEIN
 Job cpu time:       0 days  2 hours 16 minutes 34.2 seconds.
 Elapsed time:       0 days  0 hours 17 minutes 53.6 seconds.
 File lengths (MBytes):  RWF=    132 Int=      0 D2E=      0 Chk=     12 Scr=      8
 Normal termination of Gaussian 16 at Sun Jul 26 12:39:12 2020.
