 Entering Gaussian System, Link 0=g16
 Input=mols_66_1_01_c-n-c-c_opt_0.gjf
 Output=mols_66_1_01_c-n-c-c_opt_0.log
 Initial command:
 /opt/ohpc/pub/libs/gaussian/g16-A.03/sandybridge/g16/l1.exe "/mnt/gpfs2_4m/scratch/rdu230/ondemand/projects/dihedral_energies/7trial/wtuning/mols_66_1_01_c-n-c-c/Gau-127037.inp" -scrdir="/mnt/gpfs2_4m/scratch/rdu230/ondemand/projects/dihedral_energies/7trial/wtuning/mols_66_1_01_c-n-c-c/"
 Entering Link 1 = /opt/ohpc/pub/libs/gaussian/g16-A.03/sandybridge/g16/l1.exe PID=    127047.
  
 Copyright (c) 1988,1990,1992,1993,1995,1998,2003,2009,2016,
            Gaussian, Inc.  All Rights Reserved.
  
 This is part of the Gaussian(R) 16 program.  It is based on
 the Gaussian(R) 09 system (copyright 2009, Gaussian, Inc.),
 the Gaussian(R) 03 system (copyright 2003, Gaussian, Inc.),
 the Gaussian(R) 98 system (copyright 1998, Gaussian, Inc.),
 the Gaussian(R) 94 system (copyright 1995, Gaussian, Inc.),
 the Gaussian 92(TM) system (copyright 1992, Gaussian, Inc.),
 the Gaussian 90(TM) system (copyright 1990, Gaussian, Inc.),
 the Gaussian 88(TM) system (copyright 1988, Gaussian, Inc.),
 the Gaussian 86(TM) system (copyright 1986, Carnegie Mellon
 University), and the Gaussian 82(TM) system (copyright 1983,
 Carnegie Mellon University). Gaussian is a federally registered
 trademark of Gaussian, Inc.
  
 This software contains proprietary and confidential information,
 including trade secrets, belonging to Gaussian, Inc.
  
 This software is provided under written license and may be
 used, copied, transmitted, or stored only in accord with that
 written license.
  
 The following legend is applicable only to US Government
 contracts under FAR:
  
                    RESTRICTED RIGHTS LEGEND
  
 Use, reproduction and disclosure by the US Government is
 subject to restrictions as set forth in subparagraphs (a)
 and (c) of the Commercial Computer Software - Restricted
 Rights clause in FAR 52.227-19.
  
 Gaussian, Inc.
 340 Quinnipiac St., Bldg. 40, Wallingford CT 06492
  
  
 ---------------------------------------------------------------
 Warning -- This program may not be used in any manner that
 competes with the business of Gaussian, Inc. or will provide
 assistance to any competitor of Gaussian, Inc.  The licensee
 of this program is prohibited from giving any competitor of
 Gaussian, Inc. access to this program.  By using this program,
 the user acknowledges that Gaussian, Inc. is engaged in the
 business of creating and licensing software in the field of
 computational chemistry and represents and warrants to the
 licensee that it is not a competitor of Gaussian, Inc. and that
 it will not use this program in any manner prohibited above.
 ---------------------------------------------------------------
  

 Cite this work as:
 Gaussian 16, Revision A.03,
 M. J. Frisch, G. W. Trucks, H. B. Schlegel, G. E. Scuseria, 
 M. A. Robb, J. R. Cheeseman, G. Scalmani, V. Barone, 
 G. A. Petersson, H. Nakatsuji, X. Li, M. Caricato, A. V. Marenich, 
 J. Bloino, B. G. Janesko, R. Gomperts, B. Mennucci, H. P. Hratchian, 
 J. V. Ortiz, A. F. Izmaylov, J. L. Sonnenberg, D. Williams-Young, 
 F. Ding, F. Lipparini, F. Egidi, J. Goings, B. Peng, A. Petrone, 
 T. Henderson, D. Ranasinghe, V. G. Zakrzewski, J. Gao, N. Rega, 
 G. Zheng, W. Liang, M. Hada, M. Ehara, K. Toyota, R. Fukuda, 
 J. Hasegawa, M. Ishida, T. Nakajima, Y. Honda, O. Kitao, H. Nakai, 
 T. Vreven, K. Throssell, J. A. Montgomery, Jr., J. E. Peralta, 
 F. Ogliaro, M. J. Bearpark, J. J. Heyd, E. N. Brothers, K. N. Kudin, 
 V. N. Staroverov, T. A. Keith, R. Kobayashi, J. Normand, 
 K. Raghavachari, A. P. Rendell, J. C. Burant, S. S. Iyengar, 
 J. Tomasi, M. Cossi, J. M. Millam, M. Klene, C. Adamo, R. Cammi, 
 J. W. Ochterski, R. L. Martin, K. Morokuma, O. Farkas, 
 J. B. Foresman, and D. J. Fox, Gaussian, Inc., Wallingford CT, 2016.
 
 ******************************************
 Gaussian 16:  EM64L-G16RevA.03 25-Dec-2016
                23-Jul-2020 
 ******************************************
 %mem=30GB
 %nproc=8
 Will use up to    8 processors via shared memory.
 ---------------------------------------------------------------
 #P uLC-wPBE/cc-pVDZ iop(3/107=0441100000, 3/108=0441100000) opt
 ---------------------------------------------------------------
 1/18=20,19=15,26=3,38=1/1,3;
 2/9=110,12=2,17=6,18=5,40=1/2;
 3/5=16,11=2,25=1,30=1,71=1,74=-41,107=441100000,108=441100000,116=2/1,2,3;
 4//1;
 5/5=2,38=5/2;
 6/7=2,8=2,9=2,10=2,28=1/1;
 7//1,2,3,16;
 1/18=20,19=15,26=3/3(2);
 2/9=110/2;
 99//99;
 2/9=110/2;
 3/5=16,11=2,25=1,30=1,71=1,74=-41,107=441100000,108=441100000,116=2/1,2,3;
 4/5=5,16=3,69=1/1;
 5/5=2,38=5/2;
 7//1,2,3,16;
 1/18=20,19=15,26=3/3(-5);
 2/9=110/2;
 6/7=2,8=2,9=2,10=2,19=2,28=1/1;
 99/9=1/99;
 Leave Link    1 at Thu Jul 23 15:43:23 2020, MaxMem=  4026531840 cpu:               2.8 elap:               0.4
 (Enter /opt/ohpc/pub/libs/gaussian/g16-A.03/sandybridge/g16/l101.exe)
 ---------
 H9 C11 N1
 ---------
 Symbolic Z-matrix:
 Charge =  0 Multiplicity = 1
 C                    -3.54063  -0.1399    0.04212 
 C                    -2.91855   1.16941  -0.03199 
 C                    -1.58522   1.24684  -0.01001 
 C                    -0.79931   0.08159  -0.03435 
 N                    -1.40363  -1.18727   0.02458 
 C                    -2.72908  -1.19745  -0.04123 
 C                     0.74759   0.04462   0.04122 
 C                     1.5044    1.16947  -0.00406 
 C                     2.94869   1.19031  -0.00064 
 C                     3.60885  -0.05458  -0.01832 
 C                     2.78684  -1.25988   0.00249 
 C                     1.39085  -1.16848  -0.03536 
 H                    -4.62461  -0.26396  -0.01753 
 H                    -3.54629   1.98902   0.0134 
 H                    -1.06177   2.17332  -0.01716 
 H                    -3.13154  -2.21375   0.0481 
 H                     1.00065   2.18874   0.02461 
 H                     3.45147   2.07266  -0.03736 
 H                     4.60377  -0.09501   0.02094 
 H                     3.36881  -2.19003  -0.02888 
 H                     0.84709  -2.08041   0.01548 
 
 ITRead=  0  0  0  0  0  0  0  0  0  0  0  0  0  0  0  0  0  0  0  0
 ITRead=  0
 MicOpt= -1 -1 -1 -1 -1 -1 -1 -1 -1 -1 -1 -1 -1 -1 -1 -1 -1 -1 -1 -1
 MicOpt= -1
 NAtoms=     21 NQM=       21 NQMF=       0 NMMI=      0 NMMIF=      0
                NMic=       0 NMicF=      0.
                    Isotopes and Nuclear Properties:
 (Nuclear quadrupole moments (NQMom) in fm**2, nuclear magnetic moments (NMagM)
  in nuclear magnetons)

  Atom         1           2           3           4           5           6           7           8           9          10
 IAtWgt=          12          12          12          12          14          12          12          12          12          12
 AtmWgt=  12.0000000  12.0000000  12.0000000  12.0000000  14.0030740  12.0000000  12.0000000  12.0000000  12.0000000  12.0000000
 NucSpn=           0           0           0           0           2           0           0           0           0           0
 AtZEff=  -0.0000000  -0.0000000  -0.0000000  -0.0000000  -0.0000000  -0.0000000  -0.0000000  -0.0000000  -0.0000000  -0.0000000
 NQMom=    0.0000000   0.0000000   0.0000000   0.0000000   2.0440000   0.0000000   0.0000000   0.0000000   0.0000000   0.0000000
 NMagM=    0.0000000   0.0000000   0.0000000   0.0000000   0.4037610   0.0000000   0.0000000   0.0000000   0.0000000   0.0000000
 AtZNuc=   6.0000000   6.0000000   6.0000000   6.0000000   7.0000000   6.0000000   6.0000000   6.0000000   6.0000000   6.0000000

  Atom        11          12          13          14          15          16          17          18          19          20
 IAtWgt=          12          12           1           1           1           1           1           1           1           1
 AtmWgt=  12.0000000  12.0000000   1.0078250   1.0078250   1.0078250   1.0078250   1.0078250   1.0078250   1.0078250   1.0078250
 NucSpn=           0           0           1           1           1           1           1           1           1           1
 AtZEff=  -0.0000000  -0.0000000  -0.0000000  -0.0000000  -0.0000000  -0.0000000  -0.0000000  -0.0000000  -0.0000000  -0.0000000
 NQMom=    0.0000000   0.0000000   0.0000000   0.0000000   0.0000000   0.0000000   0.0000000   0.0000000   0.0000000   0.0000000
 NMagM=    0.0000000   0.0000000   2.7928460   2.7928460   2.7928460   2.7928460   2.7928460   2.7928460   2.7928460   2.7928460
 AtZNuc=   6.0000000   6.0000000   1.0000000   1.0000000   1.0000000   1.0000000   1.0000000   1.0000000   1.0000000   1.0000000

  Atom        21
 IAtWgt=           1
 AtmWgt=   1.0078250
 NucSpn=           1
 AtZEff=  -0.0000000
 NQMom=    0.0000000
 NMagM=    2.7928460
 AtZNuc=   1.0000000
 Leave Link  101 at Thu Jul 23 15:43:23 2020, MaxMem=  4026531840 cpu:               2.1 elap:               0.4
 (Enter /opt/ohpc/pub/libs/gaussian/g16-A.03/sandybridge/g16/l103.exe)

 GradGradGradGradGradGradGradGradGradGradGradGradGradGradGradGradGradGrad
 Berny optimization.
 Initialization pass.
                           ----------------------------
                           !    Initial Parameters    !
                           ! (Angstroms and Degrees)  !
 --------------------------                            --------------------------
 ! Name  Definition              Value          Derivative Info.                !
 --------------------------------------------------------------------------------
 ! R1    R(1,2)                  1.4515         estimate D2E/DX2                !
 ! R2    R(1,6)                  1.3357         estimate D2E/DX2                !
 ! R3    R(1,13)                 1.0927         estimate D2E/DX2                !
 ! R4    R(2,3)                  1.3358         estimate D2E/DX2                !
 ! R5    R(2,14)                 1.0334         estimate D2E/DX2                !
 ! R6    R(3,4)                  1.4057         estimate D2E/DX2                !
 ! R7    R(3,15)                 1.0641         estimate D2E/DX2                !
 ! R8    R(4,5)                  1.4067         estimate D2E/DX2                !
 ! R9    R(4,7)                  1.5492         estimate D2E/DX2                !
 ! R10   R(5,6)                  1.3271         estimate D2E/DX2                !
 ! R11   R(6,16)                 1.0967         estimate D2E/DX2                !
 ! R12   R(7,8)                  1.3565         estimate D2E/DX2                !
 ! R13   R(7,12)                 1.3752         estimate D2E/DX2                !
 ! R14   R(8,9)                  1.4444         estimate D2E/DX2                !
 ! R15   R(8,17)                 1.1373         estimate D2E/DX2                !
 ! R16   R(9,10)                 1.4092         estimate D2E/DX2                !
 ! R17   R(9,18)                 1.0162         estimate D2E/DX2                !
 ! R18   R(10,11)                1.4591         estimate D2E/DX2                !
 ! R19   R(10,19)                0.9965         estimate D2E/DX2                !
 ! R20   R(11,12)                1.3995         estimate D2E/DX2                !
 ! R21   R(11,20)                1.0977         estimate D2E/DX2                !
 ! R22   R(12,21)                1.063          estimate D2E/DX2                !
 ! A1    A(2,1,6)              116.7844         estimate D2E/DX2                !
 ! A2    A(2,1,13)             121.6549         estimate D2E/DX2                !
 ! A3    A(6,1,13)             120.628          estimate D2E/DX2                !
 ! A4    A(1,2,3)              118.6373         estimate D2E/DX2                !
 ! A5    A(1,2,14)             116.9277         estimate D2E/DX2                !
 ! A6    A(3,2,14)             124.0314         estimate D2E/DX2                !
 ! A7    A(2,3,4)              120.6452         estimate D2E/DX2                !
 ! A8    A(2,3,15)             122.7765         estimate D2E/DX2                !
 ! A9    A(4,3,15)             116.5239         estimate D2E/DX2                !
 ! A10   A(3,4,5)              120.4521         estimate D2E/DX2                !
 ! A11   A(3,4,7)              125.2532         estimate D2E/DX2                !
 ! A12   A(5,4,7)              113.9169         estimate D2E/DX2                !
 ! A13   A(4,5,6)              115.7168         estimate D2E/DX2                !
 ! A14   A(1,6,5)              126.7029         estimate D2E/DX2                !
 ! A15   A(1,6,16)             120.375          estimate D2E/DX2                !
 ! A16   A(5,6,16)             111.6898         estimate D2E/DX2                !
 ! A17   A(4,7,8)              122.3892         estimate D2E/DX2                !
 ! A18   A(4,7,12)             119.0382         estimate D2E/DX2                !
 ! A19   A(8,7,12)             117.9466         estimate D2E/DX2                !
 ! A20   A(7,8,9)              124.7317         estimate D2E/DX2                !
 ! A21   A(7,8,17)             119.6834         estimate D2E/DX2                !
 ! A22   A(9,8,17)             115.4604         estimate D2E/DX2                !
 ! A23   A(8,9,10)             117.1059         estimate D2E/DX2                !
 ! A24   A(8,9,18)             120.4741         estimate D2E/DX2                !
 ! A25   A(10,9,18)            122.3305         estimate D2E/DX2                !
 ! A26   A(9,10,11)            117.7525         estimate D2E/DX2                !
 ! A27   A(9,10,19)            120.2025         estimate D2E/DX2                !
 ! A28   A(11,10,19)           121.8972         estimate D2E/DX2                !
 ! A29   A(10,11,12)           120.5061         estimate D2E/DX2                !
 ! A30   A(10,11,20)           113.6351         estimate D2E/DX2                !
 ! A31   A(12,11,20)           125.6925         estimate D2E/DX2                !
 ! A32   A(7,12,11)            121.5123         estimate D2E/DX2                !
 ! A33   A(7,12,21)            120.9866         estimate D2E/DX2                !
 ! A34   A(11,12,21)           116.9329         estimate D2E/DX2                !
 ! D1    D(6,1,2,3)             -8.1739         estimate D2E/DX2                !
 ! D2    D(6,1,2,14)           178.8204         estimate D2E/DX2                !
 ! D3    D(13,1,2,3)          -177.1826         estimate D2E/DX2                !
 ! D4    D(13,1,2,14)            9.8117         estimate D2E/DX2                !
 ! D5    D(2,1,6,5)             11.3327         estimate D2E/DX2                !
 ! D6    D(2,1,6,16)           177.5568         estimate D2E/DX2                !
 ! D7    D(13,1,6,5)          -179.5387         estimate D2E/DX2                !
 ! D8    D(13,1,6,16)          -13.3146         estimate D2E/DX2                !
 ! D9    D(1,2,3,4)              5.5634         estimate D2E/DX2                !
 ! D10   D(1,2,3,15)          -177.2137         estimate D2E/DX2                !
 ! D11   D(14,2,3,4)           178.0357         estimate D2E/DX2                !
 ! D12   D(14,2,3,15)           -4.7414         estimate D2E/DX2                !
 ! D13   D(2,3,4,5)             -5.054          estimate D2E/DX2                !
 ! D14   D(2,3,4,7)           -177.5562         estimate D2E/DX2                !
 ! D15   D(15,3,4,5)           177.5555         estimate D2E/DX2                !
 ! D16   D(15,3,4,7)             5.0533         estimate D2E/DX2                !
 ! D17   D(3,4,5,6)              6.8828         estimate D2E/DX2                !
 ! D18   D(7,4,5,6)           -179.8112         estimate D2E/DX2                !
 ! D19   D(3,4,7,8)             -7.2416         estimate D2E/DX2                !
 ! D20   D(3,4,7,12)          -177.9811         estimate D2E/DX2                !
 ! D21   D(5,4,7,8)            179.8267         estimate D2E/DX2                !
 ! D22   D(5,4,7,12)             9.0873         estimate D2E/DX2                !
 ! D23   D(4,5,6,1)            -10.6418         estimate D2E/DX2                !
 ! D24   D(4,5,6,16)          -177.8686         estimate D2E/DX2                !
 ! D25   D(4,7,8,9)           -176.9618         estimate D2E/DX2                !
 ! D26   D(4,7,8,17)             7.2853         estimate D2E/DX2                !
 ! D27   D(12,7,8,9)            -6.1263         estimate D2E/DX2                !
 ! D28   D(12,7,8,17)          178.1209         estimate D2E/DX2                !
 ! D29   D(4,7,12,11)          178.8005         estimate D2E/DX2                !
 ! D30   D(4,7,12,21)          -10.11           estimate D2E/DX2                !
 ! D31   D(8,7,12,11)            7.6493         estimate D2E/DX2                !
 ! D32   D(8,7,12,21)          178.7388         estimate D2E/DX2                !
 ! D33   D(7,8,9,10)             3.2994         estimate D2E/DX2                !
 ! D34   D(7,8,9,18)           179.9392         estimate D2E/DX2                !
 ! D35   D(17,8,9,10)          179.213          estimate D2E/DX2                !
 ! D36   D(17,8,9,18)           -4.1472         estimate D2E/DX2                !
 ! D37   D(8,9,10,11)           -1.8228         estimate D2E/DX2                !
 ! D38   D(8,9,10,19)         -177.4883         estimate D2E/DX2                !
 ! D39   D(18,9,10,11)        -178.3953         estimate D2E/DX2                !
 ! D40   D(18,9,10,19)           5.9391         estimate D2E/DX2                !
 ! D41   D(9,10,11,12)           3.5239         estimate D2E/DX2                !
 ! D42   D(9,10,11,20)         179.097          estimate D2E/DX2                !
 ! D43   D(19,10,11,12)        179.1114         estimate D2E/DX2                !
 ! D44   D(19,10,11,20)         -5.3155         estimate D2E/DX2                !
 ! D45   D(10,11,12,7)          -6.5624         estimate D2E/DX2                !
 ! D46   D(10,11,12,21)       -177.9969         estimate D2E/DX2                !
 ! D47   D(20,11,12,7)         178.4325         estimate D2E/DX2                !
 ! D48   D(20,11,12,21)          6.998          estimate D2E/DX2                !
 --------------------------------------------------------------------------------
 Trust Radius=3.00D-01 FncErr=1.00D-07 GrdErr=1.00D-06 EigMax=2.50D+02 EigMin=1.00D-04
 Number of steps in this run=    114 maximum allowed number of steps=    126.
 GradGradGradGradGradGradGradGradGradGradGradGradGradGradGradGradGradGrad

 Leave Link  103 at Thu Jul 23 15:43:23 2020, MaxMem=  4026531840 cpu:               0.1 elap:               0.0
 (Enter /opt/ohpc/pub/libs/gaussian/g16-A.03/sandybridge/g16/l202.exe)
                          Input orientation:                          
 ---------------------------------------------------------------------
 Center     Atomic      Atomic             Coordinates (Angstroms)
 Number     Number       Type             X           Y           Z
 ---------------------------------------------------------------------
      1          6           0       -3.540635   -0.139901    0.042121
      2          6           0       -2.918554    1.169406   -0.031988
      3          6           0       -1.585222    1.246844   -0.010008
      4          6           0       -0.799313    0.081589   -0.034345
      5          7           0       -1.403633   -1.187265    0.024583
      6          6           0       -2.729080   -1.197454   -0.041234
      7          6           0        0.747589    0.044616    0.041223
      8          6           0        1.504396    1.169470   -0.004058
      9          6           0        2.948686    1.190309   -0.000636
     10          6           0        3.608845   -0.054577   -0.018323
     11          6           0        2.786843   -1.259878    0.002490
     12          6           0        1.390846   -1.168477   -0.035362
     13          1           0       -4.624607   -0.263960   -0.017527
     14          1           0       -3.546287    1.989021    0.013400
     15          1           0       -1.061773    2.173322   -0.017158
     16          1           0       -3.131544   -2.213746    0.048101
     17          1           0        1.000653    2.188737    0.024609
     18          1           0        3.451467    2.072662   -0.037356
     19          1           0        4.603773   -0.095008    0.020941
     20          1           0        3.368809   -2.190026   -0.028882
     21          1           0        0.847088   -2.080413    0.015484
 ---------------------------------------------------------------------
                    Distance matrix (angstroms):
                    1          2          3          4          5
     1  C    0.000000
     2  C    1.451469   0.000000
     3  C    2.397795   1.335760   0.000000
     4  C    2.751318   2.382128   1.405726   0.000000
     5  N    2.379928   2.802157   2.441118   1.406651   0.000000
     6  C    1.335660   2.374450   2.698885   2.315167   1.327119
     7  C    4.292192   3.835507   2.624878   1.549188   2.479025
     8  C    5.212382   4.423038   3.090592   2.547838   3.743214
     9  C    6.624392   5.867361   4.534270   3.908695   4.959453
    10  C    7.150245   6.641179   5.354633   4.410290   5.139043
    11  C    6.425955   6.201142   5.039719   3.829021   4.191163
    12  C    5.038202   4.902717   3.832936   2.521797   2.795185
    13  H    1.092677   2.228310   3.394178   3.840906   3.350961
    14  H    2.129123   1.033382   2.096938   3.344614   3.831434
    15  H    3.391058   2.110854   1.064148   2.108205   3.378188
    16  H    2.113817   3.390796   3.790801   3.273326   2.009948
    17  H    5.103544   4.049990   2.752292   2.771899   4.144633
    18  H    7.334251   6.433744   5.104014   4.693987   5.848329
    19  H    8.144559   7.628037   6.332865   5.406254   6.105896
    20  H    7.207529   7.128585   6.029499   4.746947   4.876945
    21  H    4.797750   4.974298   4.121580   2.717972   2.421475
                    6          7          8          9         10
     6  C    0.000000
     7  C    3.692799   0.000000
     8  C    4.850364   1.356504   0.000000
     9  C    6.159553   2.481772   1.444444   0.000000
    10  C    6.440185   2.863594   2.434584   1.409207   0.000000
    11  C    5.516449   2.421108   2.747079   2.455528   1.459065
    12  C    4.120032   1.375223   2.340912   2.827002   2.482052
    13  H    2.113054   5.381372   6.294409   7.711676   8.236114
    14  H    3.290051   4.713688   5.116773   6.543914   7.441318
    15  H    3.760668   2.794385   2.755561   4.129209   5.174766
    16  H    1.096726   4.488643   5.739409   6.968440   7.078084
    17  H    5.038009   2.159067   1.137314   2.189139   3.440489
    18  H    6.992341   3.380843   2.146614   1.016211   2.133138
    19  H    7.415523   3.858764   3.347487   2.095667   0.996523
    20  H    6.178155   3.445190   3.842247   3.406459   2.148923
    21  H    3.683994   2.127513   3.315747   3.887750   3.425267
                   11         12         13         14         15
    11  C    0.000000
    12  C    1.399498   0.000000
    13  H    7.478091   6.083103   0.000000
    14  H    7.117865   5.860670   2.497930   0.000000
    15  H    5.157431   4.145273   4.316727   2.491528   0.000000
    16  H    5.994935   4.642366   2.456666   4.223324   4.851245
    17  H    3.883801   3.380345   6.136860   4.551338   2.062906
    18  H    3.398402   3.840722   8.407328   6.998438   4.514408
    19  H    2.158355   3.387980   9.230007   8.412295   6.102883
    20  H    1.097654   2.226195   8.222199   8.079899   6.218440
    21  H    2.106204   1.062961   5.765417   5.988492   4.662518
                   16         17         18         19         20
    16  H    0.000000
    17  H    6.038001   0.000000
    18  H    7.855993   2.454344   0.000000
    19  H    8.020282   4.265909   2.455606   0.000000
    20  H    6.500852   4.978412   4.263498   2.432431   0.000000
    21  H    3.980999   4.271921   4.902409   4.249064   2.524492
                   21
    21  H    0.000000
 Stoichiometry    C11H9N
 Framework group  C1[X(C11H9N)]
 Deg. of freedom    57
 Full point group                 C1      NOp   1
 Largest Abelian subgroup         C1      NOp   1
 Largest concise Abelian subgroup C1      NOp   1
                         Standard orientation:                         
 ---------------------------------------------------------------------
 Center     Atomic      Atomic             Coordinates (Angstroms)
 Number     Number       Type             X           Y           Z
 ---------------------------------------------------------------------
      1          6           0       -3.535367   -0.138035    0.043692
      2          6           0       -2.913596    1.171554   -0.028010
      3          6           0       -1.580302    1.249326   -0.004987
      4          6           0       -0.794054    0.084325   -0.030537
      5          7           0       -1.398064   -1.184783    0.026057
      6          6           0       -2.723462   -1.195237   -0.040695
      7          6           0        0.752806    0.047664    0.046049
      8          6           0        1.509333    1.172794    0.002991
      9          6           0        2.953614    1.194025    0.007447
     10          6           0        3.614130   -0.050651   -0.011660
     11          6           0        2.792447   -1.256208    0.006764
     12          6           0        1.396451   -1.165135   -0.031919
     13          1           0       -4.619263   -0.262302   -0.016896
     14          1           0       -3.541587    1.990926    0.018179
     15          1           0       -1.057104    2.175958   -0.010376
     16          1           0       -3.125707   -2.211774    0.046827
     17          1           0        1.005288    2.191877    0.032846
     18          1           0        3.456177    2.076571   -0.027593
     19          1           0        4.609041   -0.090867    0.028234
     20          1           0        3.374691   -2.186147   -0.025607
     21          1           0        0.852910   -2.077296    0.017174
 ---------------------------------------------------------------------
 Rotational constants (GHZ):           2.9138281           0.5552275           0.4664661
 Leave Link  202 at Thu Jul 23 15:43:23 2020, MaxMem=  4026531840 cpu:               0.1 elap:               0.1
 (Enter /opt/ohpc/pub/libs/gaussian/g16-A.03/sandybridge/g16/l301.exe)
 Standard basis: CC-pVDZ (5D, 7F)
 Ernie: Thresh=  0.10000D-02 Tol=  0.10000D-05 Strict=F.
 Ernie:  24 primitive shells out of 309 were deleted.
 There are   225 symmetry adapted cartesian basis functions of A   symmetry.
 There are   213 symmetry adapted basis functions of A   symmetry.
   213 basis functions,   459 primitive gaussians,   225 cartesian basis functions
    41 alpha electrons       41 beta electrons
       nuclear repulsion energy       601.2663670885 Hartrees.
 IExCor=32609 DFT=T Ex+Corr=LC-wPBE ExCW=0 ScaHFX=  1.000000
 ScaDFX=  1.000000  0.000000  1.000000  1.000000 ScalE2=  1.000000  1.000000
 IRadAn=      5 IRanWt=     -1 IRanGd=            0 ICorTp=0 IEmpDi=  4
 HFx  wShort=  0.000000 wLong=  0.441100 cFull=  0.000000 cShort=  0.000000 cLong=  1.000000
 DFx  wShort=  0.000000 wLong=  0.441100 cFull=  0.000000 cShort=  0.000000 cLong=  1.000000
 NAtoms=   21 NActive=   21 NUniq=   21 SFac= 1.00D+00 NAtFMM=   60 NAOKFM=F Big=F
 Integral buffers will be    131072 words long.
 Raffenetti 2 integral format.
 Two-electron integral symmetry is turned on.
 Leave Link  301 at Thu Jul 23 15:43:24 2020, MaxMem=  4026531840 cpu:               0.4 elap:               0.3
 (Enter /opt/ohpc/pub/libs/gaussian/g16-A.03/sandybridge/g16/l302.exe)
 NPDir=0 NMtPBC=     1 NCelOv=     1 NCel=       1 NClECP=     1 NCelD=      1
         NCelK=      1 NCelE2=     1 NClLst=     1 CellRange=     0.0.
 One-electron integrals computed using PRISM.
 One-electron integral symmetry used in STVInt
 NBasis=   213 RedAO= T EigKep=  3.92D-04  NBF=   213
 NBsUse=   213 1.00D-06 EigRej= -1.00D+00 NBFU=   213
 Precomputing XC quadrature grid using
 IXCGrd= 4 IRadAn=           5 IRanWt=          -1 IRanGd=           0 AccXCQ= 0.00D+00.
 Generated NRdTot=       0 NPtTot=           0 NUsed=           0 NTot=          32
 NSgBfM=   225   225   225   225   225 MxSgAt=    21 MxSgA2=    21.
 Leave Link  302 at Thu Jul 23 15:43:24 2020, MaxMem=  4026531840 cpu:               2.0 elap:               0.3
 (Enter /opt/ohpc/pub/libs/gaussian/g16-A.03/sandybridge/g16/l303.exe)
 DipDrv:  MaxL=1.
 Leave Link  303 at Thu Jul 23 15:43:24 2020, MaxMem=  4026531840 cpu:               0.9 elap:               0.1
 (Enter /opt/ohpc/pub/libs/gaussian/g16-A.03/sandybridge/g16/l401.exe)
 ExpMin= 1.22D-01 ExpMax= 9.05D+03 ExpMxC= 3.09D+02 IAcc=3 IRadAn=         5 AccDes= 0.00D+00
 Harris functional with IExCor=32609 and IRadAn=       5 diagonalized for initial guess.
 HarFok:  IExCor=32609 AccDes= 0.00D+00 IRadAn=         5 IDoV= 1 UseB2=F ITyADJ=14
 ICtDFT=  3500011 ScaDFX=  1.000000  1.000000  1.000000  1.000000
 FoFCou: FMM=F IPFlag=           0 FMFlag=      100000 FMFlg1=           0
         NFxFlg=           0 DoJE=T BraDBF=F KetDBF=T FulRan=T
         wScrn=  0.000000 ICntrl=       500 IOpCl=  0 I1Cent=   200000004 NGrid=           0
         NMat0=    1 NMatS0=      1 NMatT0=    0 NMatD0=    1 NMtDS0=    0 NMtDT0=    0
 Petite list used in FoFCou.
 Harris En= -478.943746040746    
 JPrj=0 DoOrth=F DoCkMO=F.
 Initial guess <Sx>= 0.0000 <Sy>= 0.0000 <Sz>= 0.0000 <S**2>=-0.0000 S=-0.0000
 Leave Link  401 at Thu Jul 23 15:43:25 2020, MaxMem=  4026531840 cpu:               9.7 elap:               1.2
 (Enter /opt/ohpc/pub/libs/gaussian/g16-A.03/sandybridge/g16/l502.exe)
 Integral symmetry usage will be decided dynamically.
 UHF open shell SCF:
 Using DIIS extrapolation, IDIIS=  1040.
 NGot=  4026531840 LenX=  4026426347 LenY=  4026375281
 Requested convergence on RMS density matrix=1.00D-08 within 128 cycles.
 Requested convergence on MAX density matrix=1.00D-06.
 Requested convergence on             energy=1.00D-06.
 No special actions if energy rises.
 Fock matrices will be formed incrementally for  20 cycles.
 Integral accuracy reduced to 1.0D-05 until final iterations.

 Cycle   1  Pass 0  IDiag  1:
 FoFJK:  IHMeth= 1 ICntrl=       0 DoSepK=T KAlg= 0 I1Cent=           0 FoldK=F
 IRaf=         1 NMat=       1 IRICut=       1 DoRegI=T DoRafI=F ISym2E= 0 IDoP0=0 IntGTp=1.
 FoFCou: FMM=F IPFlag=           0 FMFlag=      100000 FMFlg1=           0
         NFxFlg=           0 DoJE=T BraDBF=F KetDBF=F FulRan=T
         wScrn=  0.000000 ICntrl=       500 IOpCl=  0 I1Cent=           0 NGrid=           0
         NMat0=    1 NMatS0=      1 NMatT0=    0 NMatD0=    1 NMtDS0=    0 NMtDT0=    0
 Symmetry not used in FoFCou.
 E= -478.765892867467    
 DIIS: error= 3.21D-02 at cycle   1 NSaved=   1.
 NSaved= 1 IEnMin= 1 EnMin= -478.765892867467     IErMin= 1 ErrMin= 3.21D-02
 ErrMax= 3.21D-02  0.00D+00 EMaxC= 1.00D-01 BMatC= 6.84D-01 BMatP= 6.84D-01
 IDIUse=3 WtCom= 6.79D-01 WtEn= 3.21D-01
 Coeff-Com:  0.100D+01
 Coeff-En:   0.100D+01
 Coeff:      0.100D+01
 Gap=     0.360 Goal=   None    Shift=    0.000
 Gap=     0.360 Goal=   None    Shift=    0.000
 GapD=    0.360 DampG=1.000 DampE=0.500 DampFc=0.5000 IDamp=-1.
 Damping current iteration by 5.00D-01
 RMSDP=4.02D-03 MaxDP=6.97D-02              OVMax= 9.81D-02

 Cycle   2  Pass 0  IDiag  1:
 RMSU=  1.90D-03    CP:  9.71D-01
 E= -478.875089691717     Delta-E=       -0.109196824250 Rises=F Damp=T
 DIIS: error= 1.14D-02 at cycle   2 NSaved=   2.
 NSaved= 2 IEnMin= 2 EnMin= -478.875089691717     IErMin= 2 ErrMin= 1.14D-02
 ErrMax= 1.14D-02  0.00D+00 EMaxC= 1.00D-01 BMatC= 6.93D-02 BMatP= 6.84D-01
 IDIUse=3 WtCom= 8.86D-01 WtEn= 1.14D-01
 Coeff-Com: -0.307D+00 0.131D+01
 Coeff-En:   0.000D+00 0.100D+01
 Coeff:     -0.272D+00 0.127D+01
 Gap=     0.366 Goal=   None    Shift=    0.000
 Gap=     0.366 Goal=   None    Shift=    0.000
 RMSDP=1.61D-03 MaxDP=3.16D-02 DE=-1.09D-01 OVMax= 5.27D-02

 Cycle   3  Pass 0  IDiag  1:
 RMSU=  8.80D-04    CP:  9.48D-01  1.65D+00
 E= -478.968275878865     Delta-E=       -0.093186187147 Rises=F Damp=F
 DIIS: error= 2.54D-03 at cycle   3 NSaved=   3.
 NSaved= 3 IEnMin= 3 EnMin= -478.968275878865     IErMin= 3 ErrMin= 2.54D-03
 ErrMax= 2.54D-03  0.00D+00 EMaxC= 1.00D-01 BMatC= 7.13D-03 BMatP= 6.93D-02
 IDIUse=3 WtCom= 9.75D-01 WtEn= 2.54D-02
 Coeff-Com: -0.112D+00 0.366D+00 0.746D+00
 Coeff-En:   0.000D+00 0.000D+00 0.100D+01
 Coeff:     -0.110D+00 0.357D+00 0.752D+00
 Gap=     0.361 Goal=   None    Shift=    0.000
 Gap=     0.361 Goal=   None    Shift=    0.000
 RMSDP=2.77D-04 MaxDP=1.12D-02 DE=-9.32D-02 OVMax= 1.72D-02

 Cycle   4  Pass 0  IDiag  1:
 RMSU=  2.62D-04    CP:  9.47D-01  1.68D+00  9.12D-01
 E= -478.969808599896     Delta-E=       -0.001532721032 Rises=F Damp=F
 DIIS: error= 1.41D-03 at cycle   4 NSaved=   4.
 NSaved= 4 IEnMin= 4 EnMin= -478.969808599896     IErMin= 4 ErrMin= 1.41D-03
 ErrMax= 1.41D-03  0.00D+00 EMaxC= 1.00D-01 BMatC= 1.35D-03 BMatP= 7.13D-03
 IDIUse=3 WtCom= 9.86D-01 WtEn= 1.41D-02
 Coeff-Com: -0.150D-01 0.326D-01 0.307D+00 0.676D+00
 Coeff-En:   0.000D+00 0.000D+00 0.521D-01 0.948D+00
 Coeff:     -0.148D-01 0.321D-01 0.303D+00 0.680D+00
 Gap=     0.362 Goal=   None    Shift=    0.000
 Gap=     0.362 Goal=   None    Shift=    0.000
 RMSDP=1.03D-04 MaxDP=3.19D-03 DE=-1.53D-03 OVMax= 6.52D-03

 Cycle   5  Pass 0  IDiag  1:
 RMSU=  6.38D-05    CP:  9.46D-01  1.69D+00  9.58D-01  7.54D-01
 E= -478.970167412337     Delta-E=       -0.000358812441 Rises=F Damp=F
 DIIS: error= 3.04D-04 at cycle   5 NSaved=   5.
 NSaved= 5 IEnMin= 5 EnMin= -478.970167412337     IErMin= 5 ErrMin= 3.04D-04
 ErrMax= 3.04D-04  0.00D+00 EMaxC= 1.00D-01 BMatC= 5.44D-05 BMatP= 1.35D-03
 IDIUse=3 WtCom= 9.97D-01 WtEn= 3.04D-03
 Coeff-Com:  0.481D-02-0.188D-01 0.210D-01 0.178D+00 0.815D+00
 Coeff-En:   0.000D+00 0.000D+00 0.000D+00 0.000D+00 0.100D+01
 Coeff:      0.480D-02-0.187D-01 0.209D-01 0.177D+00 0.816D+00
 Gap=     0.362 Goal=   None    Shift=    0.000
 Gap=     0.362 Goal=   None    Shift=    0.000
 RMSDP=2.68D-05 MaxDP=6.22D-04 DE=-3.59D-04 OVMax= 2.01D-03

 Cycle   6  Pass 0  IDiag  1:
 RMSU=  1.93D-05    CP:  9.46D-01  1.69D+00  9.66D-01  8.14D-01  9.78D-01
 E= -478.970185483344     Delta-E=       -0.000018071007 Rises=F Damp=F
 DIIS: error= 9.02D-05 at cycle   6 NSaved=   6.
 NSaved= 6 IEnMin= 6 EnMin= -478.970185483344     IErMin= 6 ErrMin= 9.02D-05
 ErrMax= 9.02D-05  0.00D+00 EMaxC= 1.00D-01 BMatC= 6.55D-06 BMatP= 5.44D-05
 IDIUse=1 WtCom= 1.00D+00 WtEn= 0.00D+00
 Coeff-Com:  0.262D-02-0.826D-02-0.140D-01 0.676D-02 0.254D+00 0.759D+00
 Coeff:      0.262D-02-0.826D-02-0.140D-01 0.676D-02 0.254D+00 0.759D+00
 Gap=     0.362 Goal=   None    Shift=    0.000
 Gap=     0.362 Goal=   None    Shift=    0.000
 RMSDP=8.69D-06 MaxDP=2.93D-04 DE=-1.81D-05 OVMax= 7.66D-04

 Initial convergence to 1.0D-05 achieved.  Increase integral accuracy.
 Cycle   7  Pass 1  IDiag  1:
 E= -478.969992186168     Delta-E=        0.000193297176 Rises=F Damp=F
 DIIS: error= 4.30D-05 at cycle   1 NSaved=   1.
 NSaved= 1 IEnMin= 1 EnMin= -478.969992186168     IErMin= 1 ErrMin= 4.30D-05
 ErrMax= 4.30D-05  0.00D+00 EMaxC= 1.00D-01 BMatC= 2.12D-06 BMatP= 2.12D-06
 IDIUse=1 WtCom= 1.00D+00 WtEn= 0.00D+00
 Coeff-Com:  0.100D+01
 Coeff:      0.100D+01
 Gap=     0.362 Goal=   None    Shift=    0.000
 Gap=     0.362 Goal=   None    Shift=    0.000
 RMSDP=8.69D-06 MaxDP=2.93D-04 DE= 1.93D-04 OVMax= 4.17D-04

 Cycle   8  Pass 1  IDiag  1:
 RMSU=  3.48D-05    CP:  1.00D+00
 E= -478.969992921434     Delta-E=       -0.000000735266 Rises=F Damp=F
 DIIS: error= 2.95D-05 at cycle   2 NSaved=   2.
 NSaved= 2 IEnMin= 2 EnMin= -478.969992921434     IErMin= 2 ErrMin= 2.95D-05
 ErrMax= 2.95D-05  0.00D+00 EMaxC= 1.00D-01 BMatC= 4.02D-07 BMatP= 2.12D-06
 IDIUse=1 WtCom= 1.00D+00 WtEn= 0.00D+00
 Coeff-Com:  0.188D+00 0.812D+00
 Coeff:      0.188D+00 0.812D+00
 Gap=     0.362 Goal=   None    Shift=    0.000
 Gap=     0.362 Goal=   None    Shift=    0.000
 RMSDP=2.83D-06 MaxDP=8.14D-05 DE=-7.35D-07 OVMax= 2.47D-04

 Cycle   9  Pass 1  IDiag  1:
 RMSU=  2.25D-06    CP:  1.00D+00  1.05D+00
 E= -478.969993089785     Delta-E=       -0.000000168351 Rises=F Damp=F
 DIIS: error= 1.83D-05 at cycle   3 NSaved=   3.
 NSaved= 3 IEnMin= 3 EnMin= -478.969993089785     IErMin= 3 ErrMin= 1.83D-05
 ErrMax= 1.83D-05  0.00D+00 EMaxC= 1.00D-01 BMatC= 1.59D-07 BMatP= 4.02D-07
 IDIUse=1 WtCom= 1.00D+00 WtEn= 0.00D+00
 Coeff-Com: -0.760D-01 0.335D+00 0.741D+00
 Coeff:     -0.760D-01 0.335D+00 0.741D+00
 Gap=     0.362 Goal=   None    Shift=    0.000
 Gap=     0.362 Goal=   None    Shift=    0.000
 RMSDP=1.50D-06 MaxDP=3.85D-05 DE=-1.68D-07 OVMax= 1.37D-04

 Cycle  10  Pass 1  IDiag  1:
 RMSU=  1.26D-06    CP:  1.00D+00  1.07D+00  1.02D+00
 E= -478.969993168661     Delta-E=       -0.000000078877 Rises=F Damp=F
 DIIS: error= 7.30D-06 at cycle   4 NSaved=   4.
 NSaved= 4 IEnMin= 4 EnMin= -478.969993168661     IErMin= 4 ErrMin= 7.30D-06
 ErrMax= 7.30D-06  0.00D+00 EMaxC= 1.00D-01 BMatC= 1.68D-08 BMatP= 1.59D-07
 IDIUse=1 WtCom= 1.00D+00 WtEn= 0.00D+00
 Coeff-Com: -0.155D-01-0.173D+00-0.167D+00 0.136D+01
 Coeff:     -0.155D-01-0.173D+00-0.167D+00 0.136D+01
 Gap=     0.363 Goal=   None    Shift=    0.000
 Gap=     0.363 Goal=   None    Shift=    0.000
 RMSDP=1.11D-06 MaxDP=2.83D-05 DE=-7.89D-08 OVMax= 1.22D-04

 Cycle  11  Pass 1  IDiag  1:
 RMSU=  5.29D-07    CP:  1.00D+00  1.07D+00  1.30D+00  1.59D+00
 E= -478.969993196116     Delta-E=       -0.000000027455 Rises=F Damp=F
 DIIS: error= 4.18D-06 at cycle   5 NSaved=   5.
 NSaved= 5 IEnMin= 5 EnMin= -478.969993196116     IErMin= 5 ErrMin= 4.18D-06
 ErrMax= 4.18D-06  0.00D+00 EMaxC= 1.00D-01 BMatC= 7.76D-09 BMatP= 1.68D-08
 IDIUse=1 WtCom= 1.00D+00 WtEn= 0.00D+00
 Coeff-Com:  0.129D-01-0.177D+00-0.288D+00 0.722D+00 0.730D+00
 Coeff:      0.129D-01-0.177D+00-0.288D+00 0.722D+00 0.730D+00
 Gap=     0.363 Goal=   None    Shift=    0.000
 Gap=     0.363 Goal=   None    Shift=    0.000
 RMSDP=4.93D-07 MaxDP=1.21D-05 DE=-2.75D-08 OVMax= 5.46D-05

 Cycle  12  Pass 1  IDiag  1:
 RMSU=  2.16D-07    CP:  1.00D+00  1.07D+00  1.39D+00  1.90D+00  1.03D+00
 E= -478.969993201905     Delta-E=       -0.000000005789 Rises=F Damp=F
 DIIS: error= 1.26D-06 at cycle   6 NSaved=   6.
 NSaved= 6 IEnMin= 6 EnMin= -478.969993201905     IErMin= 6 ErrMin= 1.26D-06
 ErrMax= 1.26D-06  0.00D+00 EMaxC= 1.00D-01 BMatC= 4.39D-10 BMatP= 7.76D-09
 IDIUse=1 WtCom= 1.00D+00 WtEn= 0.00D+00
 Coeff-Com:  0.307D-02-0.105D-02-0.936D-02-0.631D-01 0.507D-01 0.102D+01
 Coeff:      0.307D-02-0.105D-02-0.936D-02-0.631D-01 0.507D-01 0.102D+01
 Gap=     0.363 Goal=   None    Shift=    0.000
 Gap=     0.363 Goal=   None    Shift=    0.000
 RMSDP=1.53D-07 MaxDP=3.90D-06 DE=-5.79D-09 OVMax= 1.61D-05

 Cycle  13  Pass 1  IDiag  1:
 RMSU=  7.53D-08    CP:  1.00D+00  1.07D+00  1.41D+00  1.95D+00  1.19D+00
                    CP:  1.31D+00
 E= -478.969993202520     Delta-E=       -0.000000000615 Rises=F Damp=F
 DIIS: error= 5.54D-07 at cycle   7 NSaved=   7.
 NSaved= 7 IEnMin= 7 EnMin= -478.969993202520     IErMin= 7 ErrMin= 5.54D-07
 ErrMax= 5.54D-07  0.00D+00 EMaxC= 1.00D-01 BMatC= 1.13D-10 BMatP= 4.39D-10
 IDIUse=1 WtCom= 1.00D+00 WtEn= 0.00D+00
 Coeff-Com: -0.283D-02 0.464D-01 0.778D-01-0.210D+00-0.200D+00 0.216D+00
 Coeff-Com:  0.107D+01
 Coeff:     -0.283D-02 0.464D-01 0.778D-01-0.210D+00-0.200D+00 0.216D+00
 Coeff:      0.107D+01
 Gap=     0.363 Goal=   None    Shift=    0.000
 Gap=     0.363 Goal=   None    Shift=    0.000
 RMSDP=9.47D-08 MaxDP=2.67D-06 DE=-6.15D-10 OVMax= 1.07D-05

 Cycle  14  Pass 1  IDiag  1:
 RMSU=  3.72D-08    CP:  1.00D+00  1.07D+00  1.42D+00  1.98D+00  1.27D+00
                    CP:  1.59D+00  1.40D+00
 E= -478.969993202675     Delta-E=       -0.000000000155 Rises=F Damp=F
 DIIS: error= 1.41D-07 at cycle   8 NSaved=   8.
 NSaved= 8 IEnMin= 8 EnMin= -478.969993202675     IErMin= 8 ErrMin= 1.41D-07
 ErrMax= 1.41D-07  0.00D+00 EMaxC= 1.00D-01 BMatC= 1.35D-11 BMatP= 1.13D-10
 IDIUse=1 WtCom= 1.00D+00 WtEn= 0.00D+00
 Coeff-Com: -0.109D-02 0.135D-01 0.247D-01-0.553D-01-0.654D-01-0.333D-01
 Coeff-Com:  0.333D+00 0.784D+00
 Coeff:     -0.109D-02 0.135D-01 0.247D-01-0.553D-01-0.654D-01-0.333D-01
 Coeff:      0.333D+00 0.784D+00
 Gap=     0.363 Goal=   None    Shift=    0.000
 Gap=     0.363 Goal=   None    Shift=    0.000
 RMSDP=1.83D-08 MaxDP=4.02D-07 DE=-1.55D-10 OVMax= 1.74D-06

 Cycle  15  Pass 1  IDiag  1:
 RMSU=  9.16D-09    CP:  1.00D+00  1.07D+00  1.42D+00  1.98D+00  1.27D+00
                    CP:  1.62D+00  1.54D+00  1.13D+00
 E= -478.969993202691     Delta-E=       -0.000000000016 Rises=F Damp=F
 DIIS: error= 5.73D-08 at cycle   9 NSaved=   9.
 NSaved= 9 IEnMin= 9 EnMin= -478.969993202691     IErMin= 9 ErrMin= 5.73D-08
 ErrMax= 5.73D-08  0.00D+00 EMaxC= 1.00D-01 BMatC= 2.30D-12 BMatP= 1.35D-11
 IDIUse=1 WtCom= 1.00D+00 WtEn= 0.00D+00
 Coeff-Com:  0.229D-03-0.523D-02-0.736D-02 0.241D-01 0.188D-01-0.520D-01
 Coeff-Com: -0.960D-01 0.213D+00 0.904D+00
 Coeff:      0.229D-03-0.523D-02-0.736D-02 0.241D-01 0.188D-01-0.520D-01
 Coeff:     -0.960D-01 0.213D+00 0.904D+00
 Gap=     0.363 Goal=   None    Shift=    0.000
 Gap=     0.363 Goal=   None    Shift=    0.000
 RMSDP=8.82D-09 MaxDP=1.93D-07 DE=-1.59D-11 OVMax= 7.78D-07

 SCF Done:  E(ULC-wPBE) =  -478.969993203     A.U. after   15 cycles
            NFock= 15  Conv=0.88D-08     -V/T= 2.0070
 <Sx>= 0.0000 <Sy>= 0.0000 <Sz>= 0.0000 <S**2>=-0.0000 S=-0.0000
 <L.S>= 0.000000000000E+00
 KE= 4.756357703415D+02 PE=-2.313745736914D+03 EE= 7.578736062815D+02
 Annihilation of the first spin contaminant:
 S**2 before annihilation    -0.0000,   after     0.0000
 Leave Link  502 at Thu Jul 23 15:44:21 2020, MaxMem=  4026531840 cpu:             446.2 elap:              56.0
 (Enter /opt/ohpc/pub/libs/gaussian/g16-A.03/sandybridge/g16/l601.exe)
 Copying SCF densities to generalized density rwf, IOpCl= 1 IROHF=0.

 **********************************************************************

            Population analysis using the SCF density.

 **********************************************************************

 Orbital symmetries:
 Alpha Orbitals:
       Occupied  (A) (A) (A) (A) (A) (A) (A) (A) (A) (A) (A) (A)
                 (A) (A) (A) (A) (A) (A) (A) (A) (A) (A) (A) (A)
                 (A) (A) (A) (A) (A) (A) (A) (A) (A) (A) (A) (A)
                 (A) (A) (A) (A) (A)
       Virtual   (A) (A) (A) (A) (A) (A) (A) (A) (A) (A) (A) (A)
                 (A) (A) (A) (A) (A) (A) (A) (A) (A) (A) (A) (A)
                 (A) (A) (A) (A) (A) (A) (A) (A) (A) (A) (A) (A)
                 (A) (A) (A) (A) (A) (A) (A) (A) (A) (A) (A) (A)
                 (A) (A) (A) (A) (A) (A) (A) (A) (A) (A) (A) (A)
                 (A) (A) (A) (A) (A) (A) (A) (A) (A) (A) (A) (A)
                 (A) (A) (A) (A) (A) (A) (A) (A) (A) (A) (A) (A)
                 (A) (A) (A) (A) (A) (A) (A) (A) (A) (A) (A) (A)
                 (A) (A) (A) (A) (A) (A) (A) (A) (A) (A) (A) (A)
                 (A) (A) (A) (A) (A) (A) (A) (A) (A) (A) (A) (A)
                 (A) (A) (A) (A) (A) (A) (A) (A) (A) (A) (A) (A)
                 (A) (A) (A) (A) (A) (A) (A) (A) (A) (A) (A) (A)
                 (A) (A) (A) (A) (A) (A) (A) (A) (A) (A) (A) (A)
                 (A) (A) (A) (A) (A) (A) (A) (A) (A) (A) (A) (A)
                 (A) (A) (A) (A)
 Beta  Orbitals:
       Occupied  (A) (A) (A) (A) (A) (A) (A) (A) (A) (A) (A) (A)
                 (A) (A) (A) (A) (A) (A) (A) (A) (A) (A) (A) (A)
                 (A) (A) (A) (A) (A) (A) (A) (A) (A) (A) (A) (A)
                 (A) (A) (A) (A) (A)
       Virtual   (A) (A) (A) (A) (A) (A) (A) (A) (A) (A) (A) (A)
                 (A) (A) (A) (A) (A) (A) (A) (A) (A) (A) (A) (A)
                 (A) (A) (A) (A) (A) (A) (A) (A) (A) (A) (A) (A)
                 (A) (A) (A) (A) (A) (A) (A) (A) (A) (A) (A) (A)
                 (A) (A) (A) (A) (A) (A) (A) (A) (A) (A) (A) (A)
                 (A) (A) (A) (A) (A) (A) (A) (A) (A) (A) (A) (A)
                 (A) (A) (A) (A) (A) (A) (A) (A) (A) (A) (A) (A)
                 (A) (A) (A) (A) (A) (A) (A) (A) (A) (A) (A) (A)
                 (A) (A) (A) (A) (A) (A) (A) (A) (A) (A) (A) (A)
                 (A) (A) (A) (A) (A) (A) (A) (A) (A) (A) (A) (A)
                 (A) (A) (A) (A) (A) (A) (A) (A) (A) (A) (A) (A)
                 (A) (A) (A) (A) (A) (A) (A) (A) (A) (A) (A) (A)
                 (A) (A) (A) (A) (A) (A) (A) (A) (A) (A) (A) (A)
                 (A) (A) (A) (A) (A) (A) (A) (A) (A) (A) (A) (A)
                 (A) (A) (A) (A)
 The electronic state is 1-A.
 Alpha  occ. eigenvalues --  -14.24037 -10.20410 -10.17152 -10.16617 -10.15767
 Alpha  occ. eigenvalues --  -10.15549 -10.15398 -10.15332 -10.15246 -10.14832
 Alpha  occ. eigenvalues --  -10.14697 -10.14012  -1.10669  -1.02679  -0.97529
 Alpha  occ. eigenvalues --   -0.94874  -0.90583  -0.89849  -0.79894  -0.78559
 Alpha  occ. eigenvalues --   -0.75176  -0.73736  -0.68531  -0.64526  -0.62210
 Alpha  occ. eigenvalues --   -0.61559  -0.58236  -0.57265  -0.56511  -0.55248
 Alpha  occ. eigenvalues --   -0.54892  -0.53469  -0.50550  -0.48708  -0.46372
 Alpha  occ. eigenvalues --   -0.46134  -0.40694  -0.40211  -0.38313  -0.35576
 Alpha  occ. eigenvalues --   -0.33718
 Alpha virt. eigenvalues --    0.02534   0.06475   0.08384   0.11488   0.15745
 Alpha virt. eigenvalues --    0.17053   0.18718   0.20806   0.21325   0.23380
 Alpha virt. eigenvalues --    0.23517   0.24187   0.26040   0.29297   0.29825
 Alpha virt. eigenvalues --    0.31628   0.33912   0.36445   0.37505   0.38466
 Alpha virt. eigenvalues --    0.41489   0.41827   0.44657   0.47184   0.51583
 Alpha virt. eigenvalues --    0.52712   0.54923   0.55821   0.57179   0.57555
 Alpha virt. eigenvalues --    0.59062   0.59586   0.61177   0.61418   0.61883
 Alpha virt. eigenvalues --    0.62809   0.63270   0.63965   0.64381   0.64669
 Alpha virt. eigenvalues --    0.65209   0.66868   0.67294   0.68587   0.70232
 Alpha virt. eigenvalues --    0.70550   0.72691   0.72839   0.75901   0.76427
 Alpha virt. eigenvalues --    0.77033   0.77420   0.79055   0.79923   0.80169
 Alpha virt. eigenvalues --    0.80887   0.83368   0.84526   0.85916   0.88468
 Alpha virt. eigenvalues --    0.90853   0.92584   0.96246   0.98333   0.98925
 Alpha virt. eigenvalues --    1.00205   1.01767   1.03725   1.04622   1.05169
 Alpha virt. eigenvalues --    1.06555   1.07677   1.09697   1.09932   1.11710
 Alpha virt. eigenvalues --    1.12335   1.13803   1.13995   1.15646   1.16961
 Alpha virt. eigenvalues --    1.18578   1.19264   1.20980   1.22267   1.24034
 Alpha virt. eigenvalues --    1.24977   1.28306   1.30499   1.33938   1.34617
 Alpha virt. eigenvalues --    1.40246   1.45407   1.46341   1.49558   1.50338
 Alpha virt. eigenvalues --    1.56152   1.58530   1.59123   1.60024   1.62053
 Alpha virt. eigenvalues --    1.62443   1.62879   1.64724   1.65406   1.70396
 Alpha virt. eigenvalues --    1.71473   1.71860   1.72716   1.73568   1.74091
 Alpha virt. eigenvalues --    1.75065   1.77975   1.78118   1.79410   1.80246
 Alpha virt. eigenvalues --    1.81315   1.81851   1.82073   1.83653   1.84794
 Alpha virt. eigenvalues --    1.87400   1.90226   1.90662   1.91954   1.93113
 Alpha virt. eigenvalues --    1.94929   1.95530   1.96804   1.97915   1.99894
 Alpha virt. eigenvalues --    2.01810   2.02660   2.03855   2.04330   2.05642
 Alpha virt. eigenvalues --    2.08689   2.11337   2.12608   2.13750   2.15058
 Alpha virt. eigenvalues --    2.15628   2.18917   2.19807   2.20514   2.25317
 Alpha virt. eigenvalues --    2.31874   2.34916   2.37401   2.43613   2.47177
 Alpha virt. eigenvalues --    2.52302   2.55521   2.56364   2.57447   2.58830
 Alpha virt. eigenvalues --    2.59761   2.64283   2.65217   2.66934   2.72650
 Alpha virt. eigenvalues --    2.76347   2.81294   2.83287   2.86519   2.89269
 Alpha virt. eigenvalues --    2.99619   3.04040   3.06278   3.10119   3.17406
 Alpha virt. eigenvalues --    3.58199   3.71998
  Beta  occ. eigenvalues --  -14.24037 -10.20410 -10.17152 -10.16617 -10.15767
  Beta  occ. eigenvalues --  -10.15549 -10.15398 -10.15332 -10.15246 -10.14832
  Beta  occ. eigenvalues --  -10.14697 -10.14012  -1.10669  -1.02679  -0.97529
  Beta  occ. eigenvalues --   -0.94874  -0.90583  -0.89849  -0.79894  -0.78559
  Beta  occ. eigenvalues --   -0.75176  -0.73736  -0.68531  -0.64526  -0.62210
  Beta  occ. eigenvalues --   -0.61559  -0.58236  -0.57265  -0.56511  -0.55248
  Beta  occ. eigenvalues --   -0.54892  -0.53469  -0.50550  -0.48708  -0.46372
  Beta  occ. eigenvalues --   -0.46134  -0.40694  -0.40211  -0.38313  -0.35576
  Beta  occ. eigenvalues --   -0.33718
  Beta virt. eigenvalues --    0.02534   0.06475   0.08384   0.11488   0.15745
  Beta virt. eigenvalues --    0.17053   0.18718   0.20806   0.21325   0.23380
  Beta virt. eigenvalues --    0.23517   0.24187   0.26040   0.29297   0.29825
  Beta virt. eigenvalues --    0.31628   0.33912   0.36445   0.37505   0.38466
  Beta virt. eigenvalues --    0.41489   0.41827   0.44657   0.47184   0.51583
  Beta virt. eigenvalues --    0.52712   0.54923   0.55821   0.57179   0.57555
  Beta virt. eigenvalues --    0.59062   0.59586   0.61177   0.61418   0.61883
  Beta virt. eigenvalues --    0.62809   0.63270   0.63965   0.64381   0.64669
  Beta virt. eigenvalues --    0.65209   0.66868   0.67294   0.68587   0.70232
  Beta virt. eigenvalues --    0.70550   0.72691   0.72839   0.75901   0.76427
  Beta virt. eigenvalues --    0.77033   0.77420   0.79055   0.79923   0.80169
  Beta virt. eigenvalues --    0.80887   0.83368   0.84526   0.85916   0.88468
  Beta virt. eigenvalues --    0.90853   0.92584   0.96246   0.98333   0.98925
  Beta virt. eigenvalues --    1.00205   1.01767   1.03725   1.04622   1.05169
  Beta virt. eigenvalues --    1.06555   1.07677   1.09697   1.09932   1.11710
  Beta virt. eigenvalues --    1.12335   1.13803   1.13995   1.15646   1.16961
  Beta virt. eigenvalues --    1.18578   1.19264   1.20980   1.22267   1.24034
  Beta virt. eigenvalues --    1.24977   1.28306   1.30499   1.33938   1.34617
  Beta virt. eigenvalues --    1.40246   1.45407   1.46341   1.49558   1.50338
  Beta virt. eigenvalues --    1.56152   1.58530   1.59123   1.60024   1.62053
  Beta virt. eigenvalues --    1.62443   1.62879   1.64724   1.65406   1.70396
  Beta virt. eigenvalues --    1.71473   1.71860   1.72716   1.73568   1.74091
  Beta virt. eigenvalues --    1.75065   1.77975   1.78118   1.79410   1.80246
  Beta virt. eigenvalues --    1.81315   1.81851   1.82073   1.83653   1.84794
  Beta virt. eigenvalues --    1.87400   1.90226   1.90662   1.91954   1.93113
  Beta virt. eigenvalues --    1.94929   1.95530   1.96804   1.97915   1.99894
  Beta virt. eigenvalues --    2.01810   2.02660   2.03855   2.04330   2.05642
  Beta virt. eigenvalues --    2.08689   2.11337   2.12608   2.13750   2.15058
  Beta virt. eigenvalues --    2.15628   2.18917   2.19807   2.20514   2.25317
  Beta virt. eigenvalues --    2.31874   2.34916   2.37401   2.43613   2.47177
  Beta virt. eigenvalues --    2.52302   2.55521   2.56364   2.57447   2.58830
  Beta virt. eigenvalues --    2.59761   2.64283   2.65217   2.66934   2.72650
  Beta virt. eigenvalues --    2.76347   2.81294   2.83287   2.86519   2.89269
  Beta virt. eigenvalues --    2.99619   3.04040   3.06278   3.10119   3.17406
  Beta virt. eigenvalues --    3.58199   3.71998
          Condensed to atoms (all electrons):
               1          2          3          4          5          6
     1  C    4.867586   0.507277  -0.010777  -0.050585  -0.045498   0.510426
     2  C    0.507277   4.609937   0.543977  -0.030563  -0.029019  -0.035126
     3  C   -0.010777   0.543977   4.815317   0.446902  -0.063276  -0.054380
     4  C   -0.050585  -0.030563   0.446902   5.002611   0.558061  -0.081404
     5  N   -0.045498  -0.029019  -0.063276   0.558061   6.296028   0.572502
     6  C    0.510426  -0.035126  -0.054380  -0.081404   0.572502   4.599242
     7  C    0.000050   0.006229  -0.074344   0.324228  -0.080994   0.005673
     8  C   -0.000083   0.000209  -0.015692  -0.077418   0.003362  -0.000169
     9  C    0.000000  -0.000017  -0.000423   0.007261  -0.000042   0.000001
    10  C   -0.000000   0.000000  -0.000021  -0.000344   0.000012   0.000001
    11  C    0.000002   0.000003  -0.000103   0.007907   0.000818   0.000007
    12  C    0.000270  -0.000194   0.015465  -0.085644   0.008448   0.000296
    13  H    0.402401  -0.037126   0.006724   0.000801   0.004203  -0.031107
    14  H   -0.045989   0.414725  -0.039483   0.007446  -0.000274   0.007496
    15  H    0.006984  -0.046253   0.402259  -0.023248   0.004530   0.000113
    16  H   -0.059214   0.005417   0.000700   0.003051  -0.031396   0.410879
    17  H   -0.000018   0.000922   0.004148  -0.022575   0.000032  -0.000026
    18  H    0.000000  -0.000000   0.000029  -0.000249   0.000001  -0.000000
    19  H    0.000000   0.000000   0.000001   0.000019   0.000000   0.000000
    20  H   -0.000000   0.000000   0.000001  -0.000209  -0.000026  -0.000001
    21  H    0.000249  -0.000019   0.001431  -0.026102   0.033500   0.000678
               7          8          9         10         11         12
     1  C    0.000050  -0.000083   0.000000  -0.000000   0.000002   0.000270
     2  C    0.006229   0.000209  -0.000017   0.000000   0.000003  -0.000194
     3  C   -0.074344  -0.015692  -0.000423  -0.000021  -0.000103   0.015465
     4  C    0.324228  -0.077418   0.007261  -0.000344   0.007907  -0.085644
     5  N   -0.080994   0.003362  -0.000042   0.000012   0.000818   0.008448
     6  C    0.005673  -0.000169   0.000001   0.000001   0.000007   0.000296
     7  C    5.016348   0.514854  -0.017375  -0.053955  -0.021210   0.453932
     8  C    0.514854   4.935950   0.512790  -0.018535  -0.066139  -0.064200
     9  C   -0.017375   0.512790   4.661757   0.528287  -0.019838  -0.055295
    10  C   -0.053955  -0.018535   0.528287   4.687017   0.493202  -0.019733
    11  C   -0.021210  -0.066139  -0.019838   0.493202   4.816672   0.502652
    12  C    0.453932  -0.064200  -0.055295  -0.019733   0.502652   4.793556
    13  H    0.000047   0.000001   0.000000   0.000000  -0.000000  -0.000005
    14  H   -0.000196   0.000003  -0.000000   0.000000   0.000000   0.000012
    15  H   -0.021286   0.005992   0.000760  -0.000020  -0.000006  -0.000580
    16  H   -0.000477   0.000020   0.000000  -0.000000  -0.000003  -0.000055
    17  H   -0.032274   0.394181  -0.043353   0.007670  -0.000400   0.009786
    18  H    0.009672  -0.032405   0.408850  -0.047705   0.007416  -0.000069
    19  H   -0.000233   0.008844  -0.042598   0.411234  -0.042008   0.008581
    20  H    0.006675  -0.000024   0.007491  -0.041592   0.409803  -0.041694
    21  H   -0.035029   0.010964  -0.000755   0.007154  -0.046068   0.404478
              13         14         15         16         17         18
     1  C    0.402401  -0.045989   0.006984  -0.059214  -0.000018   0.000000
     2  C   -0.037126   0.414725  -0.046253   0.005417   0.000922  -0.000000
     3  C    0.006724  -0.039483   0.402259   0.000700   0.004148   0.000029
     4  C    0.000801   0.007446  -0.023248   0.003051  -0.022575  -0.000249
     5  N    0.004203  -0.000274   0.004530  -0.031396   0.000032   0.000001
     6  C   -0.031107   0.007496   0.000113   0.410879  -0.000026  -0.000000
     7  C    0.000047  -0.000196  -0.021286  -0.000477  -0.032274   0.009672
     8  C    0.000001   0.000003   0.005992   0.000020   0.394181  -0.032405
     9  C    0.000000  -0.000000   0.000760   0.000000  -0.043353   0.408850
    10  C    0.000000   0.000000  -0.000020  -0.000000   0.007670  -0.047705
    11  C   -0.000000   0.000000  -0.000006  -0.000003  -0.000400   0.007416
    12  C   -0.000005   0.000012  -0.000580  -0.000055   0.009786  -0.000069
    13  H    0.648388  -0.010301  -0.000169  -0.009067   0.000000  -0.000000
    14  H   -0.010301   0.682361  -0.013336  -0.000267   0.000061  -0.000000
    15  H   -0.000169  -0.013336   0.683839   0.000110  -0.003102   0.000067
    16  H   -0.009067  -0.000267   0.000110   0.657502  -0.000001   0.000000
    17  H    0.000000   0.000061  -0.003102  -0.000001   0.674163  -0.013294
    18  H   -0.000000  -0.000000   0.000067   0.000000  -0.013294   0.702637
    19  H   -0.000000  -0.000000  -0.000000  -0.000000  -0.000237  -0.012704
    20  H    0.000000   0.000000   0.000000   0.000000   0.000040  -0.000215
    21  H   -0.000006   0.000002  -0.000078  -0.000397  -0.000139   0.000040
              19         20         21
     1  C    0.000000  -0.000000   0.000249
     2  C    0.000000   0.000000  -0.000019
     3  C    0.000001   0.000001   0.001431
     4  C    0.000019  -0.000209  -0.026102
     5  N    0.000000  -0.000026   0.033500
     6  C    0.000000  -0.000001   0.000678
     7  C   -0.000233   0.006675  -0.035029
     8  C    0.008844  -0.000024   0.010964
     9  C   -0.042598   0.007491  -0.000755
    10  C    0.411234  -0.041592   0.007154
    11  C   -0.042008   0.409803  -0.046068
    12  C    0.008581  -0.041694   0.404478
    13  H   -0.000000   0.000000  -0.000006
    14  H   -0.000000   0.000000   0.000002
    15  H   -0.000000   0.000000  -0.000078
    16  H   -0.000000   0.000000  -0.000397
    17  H   -0.000237   0.000040  -0.000139
    18  H   -0.012704  -0.000215   0.000040
    19  H    0.711939  -0.012570  -0.000143
    20  H   -0.012570   0.661916  -0.010629
    21  H   -0.000143  -0.010629   0.650034
          Atomic-Atomic Spin Densities.
               1          2          3          4          5          6
     1  C    0.000000  -0.000000   0.000000  -0.000000   0.000000  -0.000000
     2  C   -0.000000  -0.000000   0.000000   0.000000   0.000000   0.000000
     3  C    0.000000   0.000000  -0.000000   0.000000   0.000000  -0.000000
     4  C   -0.000000   0.000000   0.000000   0.000000  -0.000000   0.000000
     5  N    0.000000   0.000000   0.000000  -0.000000  -0.000000  -0.000000
     6  C   -0.000000   0.000000  -0.000000   0.000000  -0.000000   0.000000
     7  C   -0.000000  -0.000000  -0.000000   0.000000   0.000000   0.000000
     8  C   -0.000000   0.000000  -0.000000  -0.000000  -0.000000   0.000000
     9  C   -0.000000   0.000000   0.000000  -0.000000   0.000000   0.000000
    10  C   -0.000000  -0.000000  -0.000000  -0.000000  -0.000000  -0.000000
    11  C    0.000000   0.000000   0.000000   0.000000   0.000000   0.000000
    12  C    0.000000  -0.000000  -0.000000   0.000000   0.000000  -0.000000
    13  H    0.000000   0.000000  -0.000000   0.000000  -0.000000  -0.000000
    14  H   -0.000000   0.000000  -0.000000   0.000000  -0.000000   0.000000
    15  H    0.000000   0.000000   0.000000  -0.000000  -0.000000  -0.000000
    16  H   -0.000000   0.000000   0.000000   0.000000  -0.000000   0.000000
    17  H   -0.000000  -0.000000  -0.000000   0.000000   0.000000   0.000000
    18  H    0.000000   0.000000   0.000000  -0.000000  -0.000000  -0.000000
    19  H   -0.000000  -0.000000  -0.000000   0.000000  -0.000000   0.000000
    20  H    0.000000   0.000000   0.000000   0.000000   0.000000   0.000000
    21  H    0.000000  -0.000000  -0.000000  -0.000000   0.000000   0.000000
               7          8          9         10         11         12
     1  C   -0.000000  -0.000000  -0.000000  -0.000000   0.000000   0.000000
     2  C   -0.000000   0.000000   0.000000  -0.000000   0.000000  -0.000000
     3  C   -0.000000  -0.000000   0.000000  -0.000000   0.000000  -0.000000
     4  C    0.000000  -0.000000  -0.000000  -0.000000   0.000000   0.000000
     5  N    0.000000  -0.000000   0.000000  -0.000000   0.000000   0.000000
     6  C    0.000000   0.000000   0.000000  -0.000000   0.000000  -0.000000
     7  C    0.000000  -0.000000  -0.000000  -0.000000  -0.000000   0.000000
     8  C   -0.000000   0.000000   0.000000   0.000000  -0.000000  -0.000000
     9  C   -0.000000   0.000000  -0.000000   0.000000  -0.000000   0.000000
    10  C   -0.000000   0.000000   0.000000   0.000000  -0.000000  -0.000000
    11  C   -0.000000  -0.000000  -0.000000  -0.000000   0.000000   0.000000
    12  C    0.000000  -0.000000   0.000000  -0.000000   0.000000  -0.000000
    13  H    0.000000   0.000000  -0.000000   0.000000  -0.000000  -0.000000
    14  H    0.000000   0.000000   0.000000   0.000000  -0.000000  -0.000000
    15  H    0.000000  -0.000000  -0.000000   0.000000  -0.000000   0.000000
    16  H   -0.000000  -0.000000  -0.000000   0.000000  -0.000000  -0.000000
    17  H   -0.000000  -0.000000   0.000000  -0.000000   0.000000  -0.000000
    18  H    0.000000   0.000000  -0.000000   0.000000  -0.000000   0.000000
    19  H    0.000000  -0.000000   0.000000  -0.000000   0.000000  -0.000000
    20  H   -0.000000   0.000000  -0.000000  -0.000000   0.000000   0.000000
    21  H    0.000000   0.000000   0.000000  -0.000000  -0.000000  -0.000000
              13         14         15         16         17         18
     1  C    0.000000  -0.000000   0.000000  -0.000000  -0.000000   0.000000
     2  C    0.000000   0.000000   0.000000   0.000000  -0.000000   0.000000
     3  C   -0.000000  -0.000000   0.000000   0.000000  -0.000000   0.000000
     4  C    0.000000   0.000000  -0.000000   0.000000   0.000000  -0.000000
     5  N   -0.000000  -0.000000  -0.000000  -0.000000   0.000000  -0.000000
     6  C   -0.000000   0.000000  -0.000000   0.000000   0.000000  -0.000000
     7  C    0.000000   0.000000   0.000000  -0.000000  -0.000000   0.000000
     8  C    0.000000   0.000000  -0.000000  -0.000000  -0.000000   0.000000
     9  C   -0.000000   0.000000  -0.000000  -0.000000   0.000000  -0.000000
    10  C    0.000000   0.000000   0.000000   0.000000  -0.000000   0.000000
    11  C   -0.000000  -0.000000  -0.000000  -0.000000   0.000000  -0.000000
    12  C   -0.000000  -0.000000   0.000000  -0.000000  -0.000000   0.000000
    13  H   -0.000000  -0.000000  -0.000000  -0.000000   0.000000  -0.000000
    14  H   -0.000000   0.000000  -0.000000   0.000000   0.000000  -0.000000
    15  H   -0.000000  -0.000000  -0.000000  -0.000000   0.000000   0.000000
    16  H   -0.000000   0.000000  -0.000000   0.000000   0.000000  -0.000000
    17  H    0.000000   0.000000   0.000000   0.000000  -0.000000   0.000000
    18  H   -0.000000  -0.000000   0.000000  -0.000000   0.000000  -0.000000
    19  H    0.000000   0.000000   0.000000   0.000000  -0.000000   0.000000
    20  H   -0.000000  -0.000000   0.000000  -0.000000   0.000000  -0.000000
    21  H    0.000000   0.000000   0.000000   0.000000  -0.000000   0.000000
              19         20         21
     1  C   -0.000000   0.000000   0.000000
     2  C   -0.000000   0.000000  -0.000000
     3  C   -0.000000   0.000000  -0.000000
     4  C    0.000000   0.000000  -0.000000
     5  N   -0.000000   0.000000   0.000000
     6  C    0.000000   0.000000   0.000000
     7  C    0.000000  -0.000000   0.000000
     8  C   -0.000000   0.000000   0.000000
     9  C    0.000000  -0.000000   0.000000
    10  C   -0.000000  -0.000000  -0.000000
    11  C    0.000000   0.000000  -0.000000
    12  C   -0.000000   0.000000  -0.000000
    13  H    0.000000  -0.000000   0.000000
    14  H    0.000000  -0.000000   0.000000
    15  H    0.000000   0.000000   0.000000
    16  H    0.000000  -0.000000   0.000000
    17  H   -0.000000   0.000000  -0.000000
    18  H    0.000000  -0.000000   0.000000
    19  H   -0.000000   0.000000  -0.000000
    20  H    0.000000   0.000000   0.000000
    21  H   -0.000000   0.000000   0.000000
 Mulliken charges and spin densities:
               1          2
     1  C   -0.083082  -0.000000
     2  C    0.089622   0.000000
     3  C    0.021546  -0.000000
     4  C    0.040054   0.000000
     5  N   -0.230974  -0.000000
     6  C    0.094900  -0.000000
     7  C   -0.000337   0.000000
     8  C   -0.112507   0.000000
     9  C    0.052500  -0.000000
    10  C    0.047328   0.000000
    11  C   -0.042708   0.000000
    12  C    0.069992  -0.000000
    13  H    0.025216  -0.000000
    14  H   -0.002259   0.000000
    15  H    0.003422  -0.000000
    16  H    0.023197   0.000000
    17  H    0.024415  -0.000000
    18  H   -0.022070  -0.000000
    19  H   -0.030126   0.000000
    20  H    0.021033   0.000000
    21  H    0.010836  -0.000000
 Sum of Mulliken charges =  -0.00000  -0.00000
 Mulliken charges and spin densities with hydrogens summed into heavy atoms:
               1          2
     1  C   -0.057866  -0.000000
     2  C    0.087364   0.000000
     3  C    0.024968  -0.000000
     4  C    0.040054   0.000000
     5  N   -0.230974  -0.000000
     6  C    0.118097  -0.000000
     7  C   -0.000337   0.000000
     8  C   -0.088091   0.000000
     9  C    0.030430  -0.000000
    10  C    0.017202   0.000000
    11  C   -0.021675   0.000000
    12  C    0.080828  -0.000000
 Electronic spatial extent (au):  <R**2>=           2294.9030
 Charge=             -0.0000 electrons
 Dipole moment (field-independent basis, Debye):
    X=             -0.7698    Y=              1.6651    Z=             -0.0459  Tot=              1.8350
 Quadrupole moment (field-independent basis, Debye-Ang):
   XX=            -54.3678   YY=            -62.8637   ZZ=            -74.2194
   XY=             -1.5394   XZ=              0.0868   YZ=              0.0160
 Traceless Quadrupole moment (field-independent basis, Debye-Ang):
   XX=              9.4492   YY=              0.9532   ZZ=            -10.4024
   XY=             -1.5394   XZ=              0.0868   YZ=              0.0160
 Octapole moment (field-independent basis, Debye-Ang**2):
  XXX=            -12.6702  YYY=              6.0043  ZZZ=              0.0722  XYY=              0.1890
  XXY=             -0.0677  XXZ=             -0.1657  XZZ=             -3.4538  YZZ=             -1.1495
  YYZ=              0.1895  XYZ=             -0.0479
 Hexadecapole moment (field-independent basis, Debye-Ang**3):
 XXXX=          -2184.3510 YYYY=           -519.7508 ZZZZ=            -79.7708 XXXY=             -2.5261
 XXXZ=              2.2343 YYYX=             -3.0942 YYYZ=             -0.4060 ZZZX=             -0.0171
 ZZZY=             -0.1570 XXYY=           -452.2172 XXZZ=           -478.6941 YYZZ=           -114.7084
 XXYZ=             -0.4653 YYXZ=             -1.4983 ZZXY=              1.8183
 N-N= 6.012663670885D+02 E-N=-2.313745740120D+03  KE= 4.756357703415D+02
                          Isotropic Fermi Contact Couplings
        Atom                 a.u.       MegaHertz       Gauss      10(-4) cm-1
     1  C(13)             -0.00000      -0.00000      -0.00000      -0.00000
     2  C(13)             -0.00000      -0.00000      -0.00000      -0.00000
     3  C(13)             -0.00000      -0.00000      -0.00000      -0.00000
     4  C(13)             -0.00000      -0.00000      -0.00000      -0.00000
     5  N(14)             -0.00000      -0.00000      -0.00000      -0.00000
     6  C(13)              0.00000       0.00000       0.00000       0.00000
     7  C(13)              0.00000       0.00000       0.00000       0.00000
     8  C(13)             -0.00000      -0.00000      -0.00000      -0.00000
     9  C(13)             -0.00000      -0.00000      -0.00000      -0.00000
    10  C(13)             -0.00000      -0.00000      -0.00000      -0.00000
    11  C(13)              0.00000       0.00000       0.00000       0.00000
    12  C(13)             -0.00000      -0.00000      -0.00000      -0.00000
    13  H(1)               0.00000       0.00000       0.00000       0.00000
    14  H(1)               0.00000       0.00000       0.00000       0.00000
    15  H(1)              -0.00000      -0.00000      -0.00000      -0.00000
    16  H(1)               0.00000       0.00000       0.00000       0.00000
    17  H(1)              -0.00000      -0.00000      -0.00000      -0.00000
    18  H(1)               0.00000       0.00000       0.00000       0.00000
    19  H(1)               0.00000       0.00000       0.00000       0.00000
    20  H(1)              -0.00000      -0.00000      -0.00000      -0.00000
    21  H(1)               0.00000       0.00000       0.00000       0.00000
 --------------------------------------------------------
       Center         ----  Spin Dipole Couplings  ----
                      3XX-RR        3YY-RR        3ZZ-RR
 --------------------------------------------------------
     1   Atom       -0.000000      0.000000      0.000000
     2   Atom       -0.000000      0.000000      0.000000
     3   Atom       -0.000000      0.000000      0.000000
     4   Atom        0.000000     -0.000000      0.000000
     5   Atom       -0.000000      0.000000      0.000000
     6   Atom       -0.000000      0.000000      0.000000
     7   Atom        0.000000     -0.000000     -0.000000
     8   Atom        0.000000     -0.000000      0.000000
     9   Atom       -0.000000     -0.000000      0.000000
    10   Atom       -0.000000      0.000000      0.000000
    11   Atom       -0.000000     -0.000000      0.000000
    12   Atom        0.000000     -0.000000      0.000000
    13   Atom        0.000000     -0.000000     -0.000000
    14   Atom        0.000000     -0.000000      0.000000
    15   Atom       -0.000000      0.000000     -0.000000
    16   Atom       -0.000000      0.000000     -0.000000
    17   Atom       -0.000000     -0.000000      0.000000
    18   Atom        0.000000     -0.000000      0.000000
    19   Atom       -0.000000      0.000000      0.000000
    20   Atom        0.000000     -0.000000      0.000000
    21   Atom       -0.000000     -0.000000      0.000000
 --------------------------------------------------------
                        XY            XZ            YZ
 --------------------------------------------------------
     1   Atom       -0.000000      0.000000     -0.000000
     2   Atom        0.000000     -0.000000      0.000000
     3   Atom        0.000000     -0.000000     -0.000000
     4   Atom        0.000000      0.000000     -0.000000
     5   Atom       -0.000000     -0.000000     -0.000000
     6   Atom        0.000000     -0.000000     -0.000000
     7   Atom        0.000000     -0.000000      0.000000
     8   Atom        0.000000     -0.000000      0.000000
     9   Atom       -0.000000      0.000000     -0.000000
    10   Atom        0.000000     -0.000000      0.000000
    11   Atom        0.000000      0.000000      0.000000
    12   Atom       -0.000000      0.000000      0.000000
    13   Atom       -0.000000      0.000000      0.000000
    14   Atom        0.000000      0.000000     -0.000000
    15   Atom        0.000000      0.000000      0.000000
    16   Atom       -0.000000     -0.000000     -0.000000
    17   Atom        0.000000      0.000000      0.000000
    18   Atom       -0.000000      0.000000      0.000000
    19   Atom       -0.000000     -0.000000      0.000000
    20   Atom       -0.000000      0.000000     -0.000000
    21   Atom       -0.000000     -0.000000      0.000000
 --------------------------------------------------------


 ---------------------------------------------------------------------------------
              Anisotropic Spin Dipole Couplings in Principal Axis System
 ---------------------------------------------------------------------------------

       Atom             a.u.   MegaHertz   Gauss  10(-4) cm-1        Axes

              Baa    -0.0000    -0.000    -0.000    -0.000  0.8975  0.4228 -0.1251
     1 C(13)  Bbb     0.0000     0.000     0.000     0.000  0.0516  0.1810  0.9821
              Bcc     0.0000     0.000     0.000     0.000 -0.4379  0.8880 -0.1407
 
              Baa    -0.0000    -0.000    -0.000    -0.000  0.8574 -0.5068  0.0896
     2 C(13)  Bbb     0.0000     0.000     0.000     0.000  0.1434  0.4023  0.9042
              Bcc     0.0000     0.000     0.000     0.000  0.4943  0.7624 -0.4176
 
              Baa    -0.0000    -0.000    -0.000    -0.000  0.9916 -0.1272  0.0221
     3 C(13)  Bbb     0.0000     0.000     0.000     0.000 -0.0130  0.0721  0.9973
              Bcc     0.0000     0.000     0.000     0.000  0.1284  0.9893 -0.0698
 
              Baa    -0.0000    -0.000    -0.000    -0.000 -0.0595  0.9982  0.0053
     4 C(13)  Bbb     0.0000     0.000     0.000     0.000  0.9740  0.0592 -0.2185
              Bcc     0.0000     0.000     0.000     0.000  0.2184  0.0078  0.9758
 
              Baa    -0.0000    -0.000    -0.000    -0.000  0.9898  0.1413  0.0198
     5 N(14)  Bbb     0.0000     0.000     0.000     0.000 -0.0281  0.0566  0.9980
              Bcc     0.0000     0.000     0.000     0.000 -0.1399  0.9883 -0.0600
 
              Baa    -0.0000    -0.000    -0.000    -0.000  0.7803 -0.6167  0.1040
     6 C(13)  Bbb     0.0000     0.000     0.000     0.000  0.0629  0.2428  0.9680
              Bcc     0.0000     0.000     0.000     0.000  0.6222  0.7488 -0.2282
 
              Baa    -0.0000    -0.000    -0.000    -0.000  0.0360 -0.1405  0.9894
     7 C(13)  Bbb    -0.0000    -0.000    -0.000    -0.000 -0.3605  0.9216  0.1440
              Bcc     0.0000     0.000     0.000     0.000  0.9321  0.3619  0.0175
 
              Baa    -0.0000    -0.000    -0.000    -0.000 -0.3400  0.9392 -0.0474
     8 C(13)  Bbb     0.0000     0.000     0.000     0.000  0.0030  0.0514  0.9987
              Bcc     0.0000     0.000     0.000     0.000  0.9404  0.3394 -0.0203
 
              Baa    -0.0000    -0.000    -0.000    -0.000  0.9333  0.3591 -0.0073
     9 C(13)  Bbb     0.0000     0.000     0.000     0.000 -0.3590  0.9333  0.0123
              Bcc     0.0000     0.000     0.000     0.000  0.0112 -0.0089  0.9999
 
              Baa    -0.0000    -0.000    -0.000    -0.000  0.9441 -0.3291  0.0178
    10 C(13)  Bbb     0.0000     0.000     0.000     0.000 -0.0234 -0.0132  0.9996
              Bcc     0.0000     0.000     0.000     0.000  0.3287  0.9442  0.0202
 
              Baa    -0.0000    -0.000    -0.000    -0.000  0.7716 -0.6340 -0.0513
    11 C(13)  Bbb     0.0000     0.000     0.000     0.000  0.5688  0.7238 -0.3906
              Bcc     0.0000     0.000     0.000     0.000  0.2848  0.2723  0.9191
 
              Baa    -0.0000    -0.000    -0.000    -0.000  0.1117  0.9936 -0.0190
    12 C(13)  Bbb     0.0000     0.000     0.000     0.000 -0.0837  0.0285  0.9961
              Bcc     0.0000     0.000     0.000     0.000  0.9902 -0.1097  0.0864
 
              Baa    -0.0000    -0.000    -0.000    -0.000 -0.2401 -0.3552  0.9034
    13 H(1)   Bbb    -0.0000    -0.000    -0.000    -0.000 -0.0712  0.9346  0.3485
              Bcc     0.0000     0.000     0.000     0.000  0.9681 -0.0194  0.2497
 
              Baa    -0.0000    -0.000    -0.000    -0.000 -0.6191  0.7518  0.2271
    14 H(1)   Bbb     0.0000     0.000     0.000     0.000  0.2369 -0.0969  0.9667
              Bcc     0.0000     0.000     0.000     0.000  0.7487  0.6523 -0.1181
 
              Baa    -0.0000    -0.000    -0.000    -0.000  0.8490 -0.5283  0.0080
    15 H(1)   Bbb    -0.0000    -0.000    -0.000    -0.000 -0.0698 -0.0971  0.9928
              Bcc     0.0000     0.000     0.000     0.000  0.5237  0.8435  0.1193
 
              Baa    -0.0000    -0.000    -0.000    -0.000  0.9757  0.1554  0.1542
    16 H(1)   Bbb    -0.0000    -0.000    -0.000    -0.000 -0.1622  0.0404  0.9859
              Bcc     0.0000     0.000     0.000     0.000 -0.1470  0.9870 -0.0646
 
              Baa    -0.0000    -0.000    -0.000    -0.000  0.7495 -0.6581 -0.0720
    17 H(1)   Bbb    -0.0000    -0.000    -0.000    -0.000  0.6499  0.7521 -0.1092
              Bcc     0.0000     0.000     0.000     0.000  0.1260  0.0351  0.9914
 
              Baa    -0.0000    -0.000    -0.000    -0.000  0.0294  0.9976 -0.0626
    18 H(1)   Bbb     0.0000     0.000     0.000     0.000 -0.1754  0.0668  0.9822
              Bcc     0.0000     0.000     0.000     0.000  0.9841 -0.0179  0.1769
 
              Baa    -0.0000    -0.000    -0.000    -0.000  0.9993  0.0059  0.0362
    19 H(1)   Bbb     0.0000     0.000     0.000     0.000 -0.0047  0.9994 -0.0341
              Bcc     0.0000     0.000     0.000     0.000 -0.0364  0.0339  0.9988
 
              Baa    -0.0000    -0.000    -0.000    -0.000  0.3049  0.9497  0.0712
    20 H(1)   Bbb     0.0000     0.000     0.000     0.000 -0.4113  0.0639  0.9092
              Bcc     0.0000     0.000     0.000     0.000  0.8590 -0.3065  0.4101
 
              Baa    -0.0000    -0.000    -0.000    -0.000  0.6533  0.7546 -0.0619
    21 H(1)   Bbb     0.0000     0.000     0.000     0.000  0.2446 -0.1329  0.9605
              Bcc     0.0000     0.000     0.000     0.000  0.7165 -0.6426 -0.2714
 

 ---------------------------------------------------------------------------------

 No NMR shielding tensors so no spin-rotation constants.
 Leave Link  601 at Thu Jul 23 15:44:22 2020, MaxMem=  4026531840 cpu:               2.4 elap:               0.3
 (Enter /opt/ohpc/pub/libs/gaussian/g16-A.03/sandybridge/g16/l701.exe)
 ... and contract with generalized density number  0.
 Compute integral first derivatives.
 Leave Link  701 at Thu Jul 23 15:44:22 2020, MaxMem=  4026531840 cpu:               1.4 elap:               0.2
 (Enter /opt/ohpc/pub/libs/gaussian/g16-A.03/sandybridge/g16/l702.exe)
 L702 exits ... SP integral derivatives will be done elsewhere.
 Leave Link  702 at Thu Jul 23 15:44:22 2020, MaxMem=  4026531840 cpu:               0.1 elap:               0.0
 (Enter /opt/ohpc/pub/libs/gaussian/g16-A.03/sandybridge/g16/l703.exe)
 Integral derivatives from FoFJK, PRISM(SPDF).
 Compute integral first derivatives, UseDBF=F ICtDFT=           0.
 Calling FoFJK, ICntrl=      2127 FMM=F ISym2X=0 I1Cent= 0 IOpClX= 1 NMat=1 NMatS=1 NMatT=0.
 FoFJK:  IHMeth= 1 ICntrl=    2127 DoSepK=T KAlg= 0 I1Cent=           0 FoldK=F
 IRaf=         1 NMat=       1 IRICut=       1 DoRegI=T DoRafI=F ISym2E= 0 IDoP0=0 IntGTp=1.
 FoFCou: FMM=F IPFlag=           0 FMFlag=      100000 FMFlg1=         800
         NFxFlg=           0 DoJE=F BraDBF=F KetDBF=F FulRan=T
         wScrn=  0.000000 ICntrl=      2527 IOpCl=  0 I1Cent=           0 NGrid=           0
         NMat0=    1 NMatS0=      1 NMatT0=    0 NMatD0=    1 NMtDS0=    0 NMtDT0=    0
 Symmetry not used in FoFCou.
 Leave Link  703 at Thu Jul 23 15:44:34 2020, MaxMem=  4026531840 cpu:              93.2 elap:              12.3
 (Enter /opt/ohpc/pub/libs/gaussian/g16-A.03/sandybridge/g16/l716.exe)
 Dipole        =-3.02861038D-01 6.55103094D-01-1.80405098D-02
 ***** Axes restored to original set *****
 -------------------------------------------------------------------
 Center     Atomic                   Forces (Hartrees/Bohr)
 Number     Number              X              Y              Z
 -------------------------------------------------------------------
      1        6          -0.006089674    0.074469238   -0.024146323
      2        6          -0.040359815   -0.081308958    0.015078861
      3        6           0.049221775   -0.017088512   -0.009981798
      4        6          -0.004891362   -0.064692103    0.023759040
      5        7           0.038976062    0.070257156   -0.017740780
      6        6           0.019541493   -0.051492240    0.024617351
      7        6          -0.048383403    0.000839841   -0.021130757
      8        6           0.035099408    0.065661004    0.009291785
      9        6          -0.062562341   -0.093108066   -0.004675668
     10        6          -0.131903658   -0.002119359    0.006093638
     11        6           0.023719225    0.046639116   -0.010603696
     12        6           0.046801698   -0.020331346    0.016472729
     13        1           0.002737325    0.002692790    0.004534190
     14        1          -0.023874142    0.041087654   -0.000903677
     15        1           0.004561971    0.019395481   -0.000114796
     16        1          -0.004030268    0.001830754   -0.006446265
     17        1           0.011999923   -0.025335570   -0.002249992
     18        1           0.031034788    0.055352340   -0.000225392
     19        1           0.086469114   -0.007104570    0.000439984
[...]
    17  H   -0.000000  -0.000000   0.000000   0.000000  -0.000000   0.000000
    18  H   -0.000000   0.000000   0.000000  -0.000000   0.000000   0.000000
    19  H   -0.000000  -0.000000  -0.000000   0.000000  -0.000000   0.000000
    20  H    0.000000  -0.000000   0.000000  -0.000000   0.000000  -0.000000
    21  H   -0.000000   0.000000  -0.000000   0.000000  -0.000000   0.000000
               7          8          9         10         11         12
     1  C    0.000000   0.000000   0.000000  -0.000000   0.000000  -0.000000
     2  C   -0.000000  -0.000000   0.000000  -0.000000   0.000000   0.000000
     3  C    0.000000   0.000000   0.000000  -0.000000   0.000000  -0.000000
     4  C   -0.000000   0.000000  -0.000000   0.000000  -0.000000   0.000000
     5  N    0.000000   0.000000   0.000000  -0.000000   0.000000  -0.000000
     6  C   -0.000000   0.000000  -0.000000   0.000000  -0.000000   0.000000
     7  C   -0.000000   0.000000  -0.000000   0.000000  -0.000000   0.000000
     8  C    0.000000  -0.000000   0.000000  -0.000000   0.000000  -0.000000
     9  C   -0.000000   0.000000  -0.000000   0.000000  -0.000000   0.000000
    10  C    0.000000  -0.000000   0.000000  -0.000000   0.000000  -0.000000
    11  C   -0.000000   0.000000  -0.000000   0.000000  -0.000000   0.000000
    12  C    0.000000  -0.000000   0.000000  -0.000000   0.000000  -0.000000
    13  H    0.000000  -0.000000  -0.000000   0.000000  -0.000000  -0.000000
    14  H   -0.000000   0.000000   0.000000  -0.000000   0.000000  -0.000000
    15  H    0.000000   0.000000  -0.000000   0.000000  -0.000000   0.000000
    16  H   -0.000000   0.000000  -0.000000   0.000000  -0.000000   0.000000
    17  H    0.000000  -0.000000   0.000000  -0.000000   0.000000  -0.000000
    18  H   -0.000000   0.000000  -0.000000   0.000000  -0.000000   0.000000
    19  H    0.000000  -0.000000   0.000000  -0.000000   0.000000  -0.000000
    20  H   -0.000000   0.000000  -0.000000   0.000000  -0.000000   0.000000
    21  H    0.000000  -0.000000   0.000000  -0.000000   0.000000  -0.000000
              13         14         15         16         17         18
     1  C   -0.000000  -0.000000   0.000000   0.000000  -0.000000  -0.000000
     2  C   -0.000000   0.000000  -0.000000  -0.000000  -0.000000   0.000000
     3  C   -0.000000  -0.000000   0.000000   0.000000   0.000000   0.000000
     4  C   -0.000000   0.000000  -0.000000   0.000000   0.000000  -0.000000
     5  N    0.000000  -0.000000   0.000000   0.000000  -0.000000   0.000000
     6  C    0.000000   0.000000  -0.000000  -0.000000   0.000000   0.000000
     7  C    0.000000  -0.000000   0.000000  -0.000000   0.000000  -0.000000
     8  C   -0.000000   0.000000   0.000000   0.000000  -0.000000   0.000000
     9  C   -0.000000   0.000000  -0.000000  -0.000000   0.000000  -0.000000
    10  C    0.000000  -0.000000   0.000000   0.000000  -0.000000   0.000000
    11  C   -0.000000   0.000000  -0.000000  -0.000000   0.000000  -0.000000
    12  C   -0.000000  -0.000000   0.000000   0.000000  -0.000000   0.000000
    13  H   -0.000000  -0.000000   0.000000   0.000000  -0.000000  -0.000000
    14  H   -0.000000   0.000000  -0.000000  -0.000000   0.000000   0.000000
    15  H    0.000000  -0.000000   0.000000   0.000000   0.000000  -0.000000
    16  H    0.000000  -0.000000   0.000000  -0.000000   0.000000  -0.000000
    17  H   -0.000000   0.000000   0.000000   0.000000  -0.000000   0.000000
    18  H   -0.000000   0.000000  -0.000000  -0.000000   0.000000   0.000000
    19  H    0.000000  -0.000000   0.000000   0.000000  -0.000000   0.000000
    20  H   -0.000000   0.000000  -0.000000  -0.000000   0.000000  -0.000000
    21  H   -0.000000   0.000000   0.000000   0.000000  -0.000000   0.000000
              19         20         21
     1  C   -0.000000   0.000000  -0.000000
     2  C   -0.000000  -0.000000   0.000000
     3  C   -0.000000   0.000000  -0.000000
     4  C    0.000000  -0.000000   0.000000
     5  N   -0.000000   0.000000  -0.000000
     6  C    0.000000  -0.000000   0.000000
     7  C    0.000000  -0.000000   0.000000
     8  C   -0.000000   0.000000  -0.000000
     9  C    0.000000  -0.000000   0.000000
    10  C   -0.000000   0.000000  -0.000000
    11  C    0.000000  -0.000000   0.000000
    12  C   -0.000000   0.000000  -0.000000
    13  H    0.000000  -0.000000  -0.000000
    14  H   -0.000000   0.000000   0.000000
    15  H    0.000000  -0.000000   0.000000
    16  H    0.000000  -0.000000   0.000000
    17  H   -0.000000   0.000000  -0.000000
    18  H    0.000000  -0.000000   0.000000
    19  H   -0.000000   0.000000  -0.000000
    20  H    0.000000  -0.000000   0.000000
    21  H   -0.000000   0.000000  -0.000000
 Mulliken charges and spin densities:
               1          2
     1  C   -0.074429   0.000000
     2  C    0.058414  -0.000000
     3  C   -0.042426  -0.000000
     4  C    0.096796   0.000000
     5  N   -0.208785  -0.000000
     6  C    0.087694   0.000000
     7  C   -0.034005   0.000000
     8  C   -0.038868  -0.000000
     9  C    0.002683  -0.000000
    10  C   -0.003541   0.000000
    11  C    0.006764  -0.000000
    12  C    0.024351   0.000000
    13  H    0.017897  -0.000000
    14  H    0.021039   0.000000
    15  H    0.018149   0.000000
    16  H    0.025317  -0.000000
    17  H    0.002029  -0.000000
    18  H    0.009734   0.000000
    19  H    0.010097  -0.000000
    20  H    0.012409  -0.000000
    21  H    0.008681  -0.000000
 Sum of Mulliken charges =  -0.00000  -0.00000
 Mulliken charges and spin densities with hydrogens summed into heavy atoms:
               1          2
     1  C   -0.056532   0.000000
     2  C    0.079453  -0.000000
     3  C   -0.024277  -0.000000
     4  C    0.096796   0.000000
     5  N   -0.208785  -0.000000
     6  C    0.113011   0.000000
     7  C   -0.034005   0.000000
     8  C   -0.036839  -0.000000
     9  C    0.012417  -0.000000
    10  C    0.006556   0.000000
    11  C    0.019173  -0.000000
    12  C    0.033032  -0.000000
 Electronic spatial extent (au):  <R**2>=           2231.3836
 Charge=             -0.0000 electrons
 Dipole moment (field-independent basis, Debye):
    X=             -0.9991    Y=              1.4479    Z=             -0.3019  Tot=              1.7849
 Quadrupole moment (field-independent basis, Debye-Ang):
   XX=            -55.4309   YY=            -62.7910   ZZ=            -73.7098
   XY=             -1.1096   XZ=              0.2388   YZ=              0.5891
 Traceless Quadrupole moment (field-independent basis, Debye-Ang):
   XX=              8.5463   YY=              1.1862   ZZ=             -9.7326
   XY=             -1.1096   XZ=              0.2388   YZ=              0.5891
 Octapole moment (field-independent basis, Debye-Ang**2):
  XXX=            -16.4747  YYY=              4.7532  ZZZ=              0.6311  XYY=             -1.4498
  XXY=             -1.6865  XXZ=              0.1987  XZZ=             -3.0964  YZZ=             -0.9938
  YYZ=             -1.5616  XYZ=              5.6857
 Hexadecapole moment (field-independent basis, Debye-Ang**3):
 XXXX=          -2141.8312 YYYY=           -502.9044 ZZZZ=            -95.2060 XXXY=              3.7751
 XXXZ=             -0.8384 YYYX=             -2.8364 YYYZ=              1.9426 ZZZX=             -1.0345
 ZZZY=             -0.7149 XXYY=           -440.9992 XXZZ=           -463.1596 YYZZ=           -111.4684
 XXYZ=             -1.4982 YYXZ=              1.7680 ZZXY=              1.6546
 N-N= 6.075149205430D+02 E-N=-2.326479047187D+03  KE= 4.757345528483D+02
                          Isotropic Fermi Contact Couplings
        Atom                 a.u.       MegaHertz       Gauss      10(-4) cm-1
     1  C(13)             -0.00000      -0.00000      -0.00000      -0.00000
     2  C(13)             -0.00000      -0.00000      -0.00000      -0.00000
     3  C(13)             -0.00000      -0.00000      -0.00000      -0.00000
     4  C(13)              0.00000       0.00000       0.00000       0.00000
     5  N(14)             -0.00000      -0.00000      -0.00000      -0.00000
     6  C(13)             -0.00000      -0.00000      -0.00000      -0.00000
     7  C(13)              0.00000       0.00000       0.00000       0.00000
     8  C(13)             -0.00000      -0.00000      -0.00000      -0.00000
     9  C(13)             -0.00000      -0.00000      -0.00000      -0.00000
    10  C(13)             -0.00000      -0.00000      -0.00000      -0.00000
    11  C(13)              0.00000       0.00000       0.00000       0.00000
    12  C(13)             -0.00000      -0.00000      -0.00000      -0.00000
    13  H(1)               0.00000       0.00000       0.00000       0.00000
    14  H(1)               0.00000       0.00000       0.00000       0.00000
    15  H(1)              -0.00000      -0.00000      -0.00000      -0.00000
    16  H(1)              -0.00000      -0.00000      -0.00000      -0.00000
    17  H(1)              -0.00000      -0.00000      -0.00000      -0.00000
    18  H(1)               0.00000       0.00000       0.00000       0.00000
    19  H(1)              -0.00000      -0.00000      -0.00000      -0.00000
    20  H(1)              -0.00000      -0.00000      -0.00000      -0.00000
    21  H(1)               0.00000       0.00000       0.00000       0.00000
 --------------------------------------------------------
       Center         ----  Spin Dipole Couplings  ----
                      3XX-RR        3YY-RR        3ZZ-RR
 --------------------------------------------------------
     1   Atom        0.000000     -0.000000      0.000000
     2   Atom       -0.000000     -0.000000      0.000000
     3   Atom        0.000000      0.000000     -0.000000
     4   Atom        0.000000     -0.000000      0.000000
     5   Atom        0.000000     -0.000000     -0.000000
     6   Atom       -0.000000      0.000000      0.000000
     7   Atom        0.000000     -0.000000     -0.000000
     8   Atom       -0.000000     -0.000000      0.000000
     9   Atom        0.000000     -0.000000      0.000000
    10   Atom       -0.000000      0.000000      0.000000
    11   Atom       -0.000000     -0.000000      0.000000
    12   Atom        0.000000     -0.000000      0.000000
    13   Atom        0.000000     -0.000000     -0.000000
    14   Atom        0.000000      0.000000     -0.000000
    15   Atom        0.000000      0.000000     -0.000000
    16   Atom       -0.000000      0.000000     -0.000000
    17   Atom        0.000000     -0.000000      0.000000
    18   Atom       -0.000000     -0.000000      0.000000
    19   Atom       -0.000000      0.000000      0.000000
    20   Atom        0.000000     -0.000000      0.000000
    21   Atom       -0.000000     -0.000000      0.000000
 --------------------------------------------------------
                        XY            XZ            YZ
 --------------------------------------------------------
     1   Atom       -0.000000     -0.000000      0.000000
     2   Atom        0.000000      0.000000      0.000000
     3   Atom       -0.000000      0.000000     -0.000000
     4   Atom       -0.000000      0.000000      0.000000
     5   Atom        0.000000      0.000000      0.000000
     6   Atom        0.000000     -0.000000     -0.000000
     7   Atom        0.000000      0.000000     -0.000000
     8   Atom        0.000000      0.000000     -0.000000
     9   Atom       -0.000000     -0.000000     -0.000000
    10   Atom        0.000000      0.000000     -0.000000
    11   Atom        0.000000      0.000000     -0.000000
    12   Atom       -0.000000      0.000000     -0.000000
    13   Atom        0.000000      0.000000     -0.000000
    14   Atom       -0.000000      0.000000     -0.000000
    15   Atom        0.000000     -0.000000      0.000000
    16   Atom        0.000000     -0.000000     -0.000000
    17   Atom        0.000000      0.000000     -0.000000
    18   Atom       -0.000000     -0.000000     -0.000000
    19   Atom       -0.000000     -0.000000     -0.000000
    20   Atom        0.000000      0.000000     -0.000000
    21   Atom       -0.000000     -0.000000     -0.000000
 --------------------------------------------------------


 ---------------------------------------------------------------------------------
              Anisotropic Spin Dipole Couplings in Principal Axis System
 ---------------------------------------------------------------------------------

       Atom             a.u.   MegaHertz   Gauss  10(-4) cm-1        Axes

              Baa    -0.0000    -0.000    -0.000    -0.000  0.0905  0.9783 -0.1865
     1 C(13)  Bbb     0.0000     0.000     0.000     0.000  0.0888  0.1786  0.9799
              Bcc     0.0000     0.000     0.000     0.000  0.9919 -0.1053 -0.0708
 
              Baa    -0.0000    -0.000    -0.000    -0.000  0.8861 -0.4630  0.0206
     2 C(13)  Bbb    -0.0000    -0.000    -0.000    -0.000  0.4619  0.8788 -0.1196
              Bcc     0.0000     0.000     0.000     0.000  0.0373  0.1155  0.9926
 
              Baa    -0.0000    -0.000    -0.000    -0.000  0.6355  0.7088  0.3061
     3 C(13)  Bbb    -0.0000    -0.000    -0.000    -0.000 -0.3041 -0.1346  0.9431
              Bcc     0.0000     0.000     0.000     0.000  0.7097 -0.6924  0.1300
 
              Baa    -0.0000    -0.000    -0.000    -0.000  0.2314  0.9726 -0.0237
     4 C(13)  Bbb     0.0000     0.000     0.000     0.000  0.8225 -0.2086 -0.5291
              Bcc     0.0000     0.000     0.000     0.000  0.5195 -0.1030  0.8482
 
              Baa    -0.0000    -0.000    -0.000    -0.000 -0.0102  0.8546 -0.5192
     5 N(14)  Bbb    -0.0000    -0.000    -0.000    -0.000 -0.0215  0.5190  0.8545
              Bcc     0.0000     0.000     0.000     0.000  0.9997  0.0199  0.0131
 
              Baa    -0.0000    -0.000    -0.000    -0.000  0.9958 -0.0411  0.0819
     6 C(13)  Bbb     0.0000     0.000     0.000     0.000 -0.0705  0.2281  0.9711
              Bcc     0.0000     0.000     0.000     0.000  0.0585  0.9728 -0.2243
 
              Baa    -0.0000    -0.000    -0.000    -0.000 -0.5911  0.7724  0.2326
     7 C(13)  Bbb     0.0000     0.000     0.000     0.000  0.1458 -0.1813  0.9726
              Bcc     0.0000     0.000     0.000     0.000  0.7933  0.6088 -0.0054
 
              Baa    -0.0000    -0.000    -0.000    -0.000  0.8110 -0.5745 -0.1106
     8 C(13)  Bbb     0.0000     0.000     0.000     0.000  0.5849  0.7929  0.1709
              Bcc     0.0000     0.000     0.000     0.000 -0.0105 -0.2033  0.9791
 
              Baa    -0.0000    -0.000    -0.000    -0.000  0.2437  0.9558  0.1645
     9 C(13)  Bbb     0.0000     0.000     0.000     0.000  0.9661 -0.2245 -0.1271
              Bcc     0.0000     0.000     0.000     0.000  0.0846 -0.1899  0.9782
 
              Baa    -0.0000    -0.000    -0.000    -0.000  0.9888 -0.1480 -0.0201
    10 C(13)  Bbb     0.0000     0.000     0.000     0.000  0.1493  0.9762  0.1572
              Bcc     0.0000     0.000     0.000     0.000 -0.0036 -0.1584  0.9874
 
              Baa    -0.0000    -0.000    -0.000    -0.000 -0.1378  0.9800  0.1435
    11 C(13)  Bbb    -0.0000    -0.000    -0.000    -0.000  0.9905  0.1366  0.0183
              Bcc     0.0000     0.000     0.000     0.000  0.0017 -0.1446  0.9895
 
              Baa    -0.0000    -0.000    -0.000    -0.000  0.1250  0.9655  0.2286
    12 C(13)  Bbb     0.0000     0.000     0.000     0.000  0.9828 -0.0889 -0.1620
              Bcc     0.0000     0.000     0.000     0.000  0.1361 -0.2449  0.9599
 
              Baa    -0.0000    -0.000    -0.000    -0.000 -0.4227  0.6396  0.6420
    13 H(1)   Bbb    -0.0000    -0.000    -0.000    -0.000  0.2535 -0.5967  0.7614
              Bcc     0.0000     0.000     0.000     0.000  0.8701  0.4846  0.0901
 
              Baa    -0.0000    -0.000    -0.000    -0.000  0.0323  0.1441  0.9890
    14 H(1)   Bbb    -0.0000    -0.000    -0.000    -0.000  0.9650  0.2530 -0.0684
              Bcc     0.0000     0.000     0.000     0.000 -0.2601  0.9567 -0.1309
 
              Baa    -0.0000    -0.000    -0.000    -0.000  0.5208 -0.5500  0.6529
    15 H(1)   Bbb    -0.0000    -0.000    -0.000    -0.000 -0.4021  0.5166  0.7559
              Bcc     0.0000     0.000     0.000     0.000  0.7531  0.6562 -0.0479
 
              Baa    -0.0000    -0.000    -0.000    -0.000 -0.5768  0.3870  0.7194
    16 H(1)   Bbb    -0.0000    -0.000    -0.000    -0.000  0.7279 -0.1561  0.6677
              Bcc     0.0000     0.000     0.000     0.000  0.3707  0.9088 -0.1917
 
              Baa    -0.0000    -0.000    -0.000    -0.000 -0.3760  0.9128  0.1592
    17 H(1)   Bbb     0.0000     0.000     0.000     0.000  0.9258  0.3631  0.1048
              Bcc     0.0000     0.000     0.000     0.000 -0.0379 -0.1868  0.9817
 
              Baa    -0.0000    -0.000    -0.000    -0.000  0.7894  0.5925  0.1605
    18 H(1)   Bbb     0.0000     0.000     0.000     0.000 -0.3167  0.1691  0.9333
              Bcc     0.0000     0.000     0.000     0.000 -0.5259  0.7876 -0.3211
 
              Baa    -0.0000    -0.000    -0.000    -0.000  0.9990  0.0424  0.0104
    19 H(1)   Bbb     0.0000     0.000     0.000     0.000 -0.0437  0.9728  0.2274
              Bcc     0.0000     0.000     0.000     0.000 -0.0005 -0.2276  0.9737
 
              Baa    -0.0000    -0.000    -0.000    -0.000 -0.4766  0.8661  0.1509
    20 H(1)   Bbb     0.0000     0.000     0.000     0.000  0.8783  0.4620  0.1230
              Bcc     0.0000     0.000     0.000     0.000 -0.0368 -0.1911  0.9809
 
              Baa    -0.0000    -0.000    -0.000    -0.000  0.5871  0.8024  0.1075
    21 H(1)   Bbb     0.0000     0.000     0.000     0.000  0.8084 -0.5881 -0.0246
              Bcc     0.0000     0.000     0.000     0.000 -0.0435 -0.1014  0.9939
 

 ---------------------------------------------------------------------------------

 No NMR shielding tensors so no spin-rotation constants.
 Leave Link  601 at Thu Jul 23 16:00:58 2020, MaxMem=  4026531840 cpu:               2.2 elap:               0.3
 (Enter /opt/ohpc/pub/libs/gaussian/g16-A.03/sandybridge/g16/l9999.exe)

 Test job not archived.
 1\1\GINC-SKYLAKE048\FOpt\ULC-wPBE\CC-pVDZ\C11H9N1\RDU230\23-Jul-2020\0
 \\#P uLC-wPBE/cc-pVDZ iop(3/107=0441100000, 3/108=0441100000) opt\\H9 
 C11 N1\\0,1\C,-3.4995348855,-0.101076085,0.0508765254\C,-2.8879992216,
 1.1164196778,-0.1993691553\C,-1.506491672,1.181784063,-0.2196551437\C,
 -0.7677724121,0.0234142634,0.0194492648\N,-1.3586772079,-1.1500059428,
 0.2451841591\C,-2.6830628724,-1.2013440234,0.2590770056\C,0.720748078,
 0.02336013,0.0155221877\C,1.4592387948,1.1902540313,0.1986323166\C,2.8
 454320327,1.1593755724,0.1856732328\C,3.5141139662,-0.0395022919,-0.01
 12533982\C,2.7866626794,-1.2087945083,-0.185601396\C,1.4022760262,-1.1
 780098056,-0.1673513213\H,-4.5832004339,-0.2016056426,0.0767362383\H,-
 3.4828354827,2.0106421565,-0.3856463773\H,-1.0066641492,2.1227956576,-
 0.4384217042\H,-3.1204668683,-2.1845595841,0.4490267516\H,0.9538522494
 ,2.1388334372,0.3759667621\H,3.4073040719,2.0807329408,0.3372483479\H,
 4.6036210581,-0.0635253588,-0.0231338978\H,3.3038823234,-2.1562168242,
 -0.3362565458\H,0.8179209255,-2.0877008634,-0.2906288525\\Version=EM64
 L-G16RevA.03\State=1-A\HF=-479.0186692\S2=0.\S2-1=0.\S2A=0.\RMSD=3.963
 e-09\RMSF=2.362e-06\Dipole=-0.3939061,0.5676508,-0.1253945\Quadrupole=
 6.3562848,0.8918257,-7.2481105,-0.8177075,0.1351459,0.3247034\PG=C01 [
 X(C11H9N1)]\\@


       THE DEATH-KNELL OF THE ATOM

 SO THE ATOMS IN TURN, WE NOW CLEARLY DISCERN,
 FLY TO BITS WITH THE UTMOST FACILITY;
 THEY WEND ON THEIR WAY, AND, IN SPLITTING, DISPLAY
 AN ABSOLUTE LACK OF STABILITY.

          SIR WM. RAMSAY, 1905
 Job cpu time:       0 days  2 hours 17 minutes 44.8 seconds.
 Elapsed time:       0 days  0 hours 17 minutes 34.5 seconds.
 File lengths (MBytes):  RWF=    112 Int=      0 D2E=      0 Chk=     12 Scr=      8
 Normal termination of Gaussian 16 at Thu Jul 23 16:00:58 2020.
