 Entering Gaussian System, Link 0=g16
 Input=mols_55_3_08_N-COC_opt_0.gjf
 Output=mols_55_3_08_N-COC_opt_0.log
 Initial command:
 /opt/ohpc/pub/libs/gaussian/g16-A.03/sandybridge/g16/l1.exe "/mnt/gpfs2_4m/scratch/rdu230/ondemand/projects/dihedral_energies/7trial/wtuning/mols_55_3_08_N-COC/Gau-141803.inp" -scrdir="/mnt/gpfs2_4m/scratch/rdu230/ondemand/projects/dihedral_energies/7trial/wtuning/mols_55_3_08_N-COC/"
 Entering Link 1 = /opt/ohpc/pub/libs/gaussian/g16-A.03/sandybridge/g16/l1.exe PID=    141804.
  
 Copyright (c) 1988,1990,1992,1993,1995,1998,2003,2009,2016,
            Gaussian, Inc.  All Rights Reserved.
  
 This is part of the Gaussian(R) 16 program.  It is based on
 the Gaussian(R) 09 system (copyright 2009, Gaussian, Inc.),
 the Gaussian(R) 03 system (copyright 2003, Gaussian, Inc.),
 the Gaussian(R) 98 system (copyright 1998, Gaussian, Inc.),
 the Gaussian(R) 94 system (copyright 1995, Gaussian, Inc.),
 the Gaussian 92(TM) system (copyright 1992, Gaussian, Inc.),
 the Gaussian 90(TM) system (copyright 1990, Gaussian, Inc.),
 the Gaussian 88(TM) system (copyright 1988, Gaussian, Inc.),
 the Gaussian 86(TM) system (copyright 1986, Carnegie Mellon
 University), and the Gaussian 82(TM) system (copyright 1983,
 Carnegie Mellon University). Gaussian is a federally registered
 trademark of Gaussian, Inc.
  
 This software contains proprietary and confidential information,
 including trade secrets, belonging to Gaussian, Inc.
  
 This software is provided under written license and may be
 used, copied, transmitted, or stored only in accord with that
 written license.
  
 The following legend is applicable only to US Government
 contracts under FAR:
  
                    RESTRICTED RIGHTS LEGEND
  
 Use, reproduction and disclosure by the US Government is
 subject to restrictions as set forth in subparagraphs (a)
 and (c) of the Commercial Computer Software - Restricted
 Rights clause in FAR 52.227-19.
  
 Gaussian, Inc.
 340 Quinnipiac St., Bldg. 40, Wallingford CT 06492
  
  
 ---------------------------------------------------------------
 Warning -- This program may not be used in any manner that
 competes with the business of Gaussian, Inc. or will provide
 assistance to any competitor of Gaussian, Inc.  The licensee
 of this program is prohibited from giving any competitor of
 Gaussian, Inc. access to this program.  By using this program,
 the user acknowledges that Gaussian, Inc. is engaged in the
 business of creating and licensing software in the field of
 computational chemistry and represents and warrants to the
 licensee that it is not a competitor of Gaussian, Inc. and that
 it will not use this program in any manner prohibited above.
 ---------------------------------------------------------------
  

 Cite this work as:
 Gaussian 16, Revision A.03,
 M. J. Frisch, G. W. Trucks, H. B. Schlegel, G. E. Scuseria, 
 M. A. Robb, J. R. Cheeseman, G. Scalmani, V. Barone, 
 G. A. Petersson, H. Nakatsuji, X. Li, M. Caricato, A. V. Marenich, 
 J. Bloino, B. G. Janesko, R. Gomperts, B. Mennucci, H. P. Hratchian, 
 J. V. Ortiz, A. F. Izmaylov, J. L. Sonnenberg, D. Williams-Young, 
 F. Ding, F. Lipparini, F. Egidi, J. Goings, B. Peng, A. Petrone, 
 T. Henderson, D. Ranasinghe, V. G. Zakrzewski, J. Gao, N. Rega, 
 G. Zheng, W. Liang, M. Hada, M. Ehara, K. Toyota, R. Fukuda, 
 J. Hasegawa, M. Ishida, T. Nakajima, Y. Honda, O. Kitao, H. Nakai, 
 T. Vreven, K. Throssell, J. A. Montgomery, Jr., J. E. Peralta, 
 F. Ogliaro, M. J. Bearpark, J. J. Heyd, E. N. Brothers, K. N. Kudin, 
 V. N. Staroverov, T. A. Keith, R. Kobayashi, J. Normand, 
 K. Raghavachari, A. P. Rendell, J. C. Burant, S. S. Iyengar, 
 J. Tomasi, M. Cossi, J. M. Millam, M. Klene, C. Adamo, R. Cammi, 
 J. W. Ochterski, R. L. Martin, K. Morokuma, O. Farkas, 
 J. B. Foresman, and D. J. Fox, Gaussian, Inc., Wallingford CT, 2016.
 
 ******************************************
 Gaussian 16:  EM64L-G16RevA.03 25-Dec-2016
                25-Jul-2020 
 ******************************************
 %mem=30GB
 %nproc=8
 Will use up to    8 processors via shared memory.
 ---------------------------------------------------------------
 #P uLC-wPBE/cc-pVDZ iop(3/107=0194600000, 3/108=0194600000) opt
 ---------------------------------------------------------------
 1/18=20,19=15,26=3,38=1/1,3;
 2/9=110,12=2,17=6,18=5,40=1/2;
 3/5=16,11=2,25=1,30=1,71=1,74=-41,107=194600000,108=194600000,116=2/1,2,3;
 4//1;
 5/5=2,38=5/2;
 6/7=2,8=2,9=2,10=2,28=1/1;
 7//1,2,3,16;
 1/18=20,19=15,26=3/3(2);
 2/9=110/2;
 99//99;
 2/9=110/2;
 3/5=16,11=2,25=1,30=1,71=1,74=-41,107=194600000,108=194600000,116=2/1,2,3;
 4/5=5,16=3,69=1/1;
 5/5=2,38=5/2;
 7//1,2,3,16;
 1/18=20,19=15,26=3/3(-5);
 2/9=110/2;
 6/7=2,8=2,9=2,10=2,19=2,28=1/1;
 99/9=1/99;
 Leave Link    1 at Sat Jul 25 03:24:22 2020, MaxMem=  4026531840 cpu:               1.3 elap:               0.2
 (Enter /opt/ohpc/pub/libs/gaussian/g16-A.03/sandybridge/g16/l101.exe)
 ----------------
 H17 C24 S6 N3 O3
 ----------------
 Symbolic Z-matrix:
 Charge =  0 Multiplicity = 1
 C                     10.48728   1.91182   0.13191 
 C                     9.57879   2.68006  -0.49298 
 N                     8.3188    2.09054  -0.51959 
 C                     8.28228   0.83387  -0.10793 
 S                     9.83831   0.33971   0.57008 
 C                     7.09891   0.00439  -0.07461 
 C                     7.03991  -1.39894  -0.06083 
 O                     8.15453  -2.18022  -0.17614 
 C                     7.9316   -3.55436  -0.2477 
 C                     5.70004  -1.75705   0.00255 
 C                     4.79365  -0.73213   0.02859 
 S                     5.61682   0.72489   0.02562 
 C                     3.29628  -0.80485   0.13293 
 C                     2.59364  -1.92652   0.63045 
 N                     1.1608   -1.78098   0.58917 
 C                     0.89993  -0.58419   0.19874 
 S                     2.23891   0.46445  -0.28544 
 C                    -0.52966  -0.16957   0.04837 
 C                    -1.02496   1.14363  -0.2042 
 O                    -0.25099   2.25604  -0.27414 
 C                    -0.92673   3.47104  -0.47914 
 C                    -2.45315   1.1343   -0.2374 
 C                    -2.98171  -0.10959  -0.00149 
 S                    -1.79105  -1.33409   0.20712 
 C                    -4.4316   -0.5422   -0.01624 
 C                    -4.97278  -1.82968   0.24647 
 N                    -6.38516  -1.85478   0.22874 
 C                    -6.84156  -0.60909   0.01581 
 S                    -5.67454   0.603    -0.27782 
 C                    -8.22952  -0.45505  -0.09353 
 C                    -9.02643   0.72685   0.17704 
 O                    -8.34571   1.83217   0.68353 
 C                    -9.28066   2.89162   0.99931 
 C                    -10.44006   0.54567   0.0134 
 C                    -10.67281  -0.77401  -0.50713 
 S                    -9.33958  -1.68657  -0.66319 
 H                     11.60101   2.13532   0.2991 
 H                     9.67534   3.69794  -0.76677 
 H                     7.42197  -3.8649    0.74309 
 H                     7.27836  -3.85279  -1.11351 
 H                     8.81061  -4.04776  -0.30953 
 H                     5.3668   -2.85235   0.02278 
 H                     3.0379   -2.87537   0.9094 
 H                    -1.56101   3.68431   0.32052 
 H                    -0.09035   4.25202  -0.62752 
 H                    -1.41833   3.41162  -1.43195 
 H                    -3.03552   1.97877  -0.35012 
 H                    -4.38438  -2.67804   0.46729 
 H                    -8.62624   3.71618   1.37265 
 H                    -9.80048   3.21938   0.16224 
 H                    -10.00026   2.60613   1.84839 
 H                    -11.14169   1.27727   0.11321 
 H                    -11.64462  -1.13381  -0.78451 
 
 ITRead=  0  0  0  0  0  0  0  0  0  0  0  0  0  0  0  0  0  0  0  0
 ITRead=  0  0  0  0  0  0  0  0  0  0  0  0  0  0  0  0  0  0  0  0
 ITRead=  0  0  0  0  0  0  0  0  0  0  0  0  0
 MicOpt= -1 -1 -1 -1 -1 -1 -1 -1 -1 -1 -1 -1 -1 -1 -1 -1 -1 -1 -1 -1
 MicOpt= -1 -1 -1 -1 -1 -1 -1 -1 -1 -1 -1 -1 -1 -1 -1 -1 -1 -1 -1 -1
 MicOpt= -1 -1 -1 -1 -1 -1 -1 -1 -1 -1 -1 -1 -1
 NAtoms=     53 NQM=       53 NQMF=       0 NMMI=      0 NMMIF=      0
                NMic=       0 NMicF=      0.
                    Isotopes and Nuclear Properties:
 (Nuclear quadrupole moments (NQMom) in fm**2, nuclear magnetic moments (NMagM)
  in nuclear magnetons)

  Atom         1           2           3           4           5           6           7           8           9          10
 IAtWgt=          12          12          14          12          32          12          12          16          12          12
 AtmWgt=  12.0000000  12.0000000  14.0030740  12.0000000  31.9720718  12.0000000  12.0000000  15.9949146  12.0000000  12.0000000
 NucSpn=           0           0           2           0           0           0           0           0           0           0
 AtZEff=  -0.0000000  -0.0000000  -0.0000000  -0.0000000  -0.0000000  -0.0000000  -0.0000000  -0.0000000  -0.0000000  -0.0000000
 NQMom=    0.0000000   0.0000000   2.0440000   0.0000000   0.0000000   0.0000000   0.0000000   0.0000000   0.0000000   0.0000000
 NMagM=    0.0000000   0.0000000   0.4037610   0.0000000   0.0000000   0.0000000   0.0000000   0.0000000   0.0000000   0.0000000
 AtZNuc=   6.0000000   6.0000000   7.0000000   6.0000000  16.0000000   6.0000000   6.0000000   8.0000000   6.0000000   6.0000000

  Atom        11          12          13          14          15          16          17          18          19          20
 IAtWgt=          12          32          12          12          14          12          32          12          12          16
 AtmWgt=  12.0000000  31.9720718  12.0000000  12.0000000  14.0030740  12.0000000  31.9720718  12.0000000  12.0000000  15.9949146
 NucSpn=           0           0           0           0           2           0           0           0           0           0
 AtZEff=  -0.0000000  -0.0000000  -0.0000000  -0.0000000  -0.0000000  -0.0000000  -0.0000000  -0.0000000  -0.0000000  -0.0000000
 NQMom=    0.0000000   0.0000000   0.0000000   0.0000000   2.0440000   0.0000000   0.0000000   0.0000000   0.0000000   0.0000000
 NMagM=    0.0000000   0.0000000   0.0000000   0.0000000   0.4037610   0.0000000   0.0000000   0.0000000   0.0000000   0.0000000
 AtZNuc=   6.0000000  16.0000000   6.0000000   6.0000000   7.0000000   6.0000000  16.0000000   6.0000000   6.0000000   8.0000000

  Atom        21          22          23          24          25          26          27          28          29          30
 IAtWgt=          12          12          12          32          12          12          14          12          32          12
 AtmWgt=  12.0000000  12.0000000  12.0000000  31.9720718  12.0000000  12.0000000  14.0030740  12.0000000  31.9720718  12.0000000
 NucSpn=           0           0           0           0           0           0           2           0           0           0
 AtZEff=  -0.0000000  -0.0000000  -0.0000000  -0.0000000  -0.0000000  -0.0000000  -0.0000000  -0.0000000  -0.0000000  -0.0000000
 NQMom=    0.0000000   0.0000000   0.0000000   0.0000000   0.0000000   0.0000000   2.0440000   0.0000000   0.0000000   0.0000000
 NMagM=    0.0000000   0.0000000   0.0000000   0.0000000   0.0000000   0.0000000   0.4037610   0.0000000   0.0000000   0.0000000
 AtZNuc=   6.0000000   6.0000000   6.0000000  16.0000000   6.0000000   6.0000000   7.0000000   6.0000000  16.0000000   6.0000000

  Atom        31          32          33          34          35          36          37          38          39          40
 IAtWgt=          12          16          12          12          12          32           1           1           1           1
 AtmWgt=  12.0000000  15.9949146  12.0000000  12.0000000  12.0000000  31.9720718   1.0078250   1.0078250   1.0078250   1.0078250
 NucSpn=           0           0           0           0           0           0           1           1           1           1
 AtZEff=  -0.0000000  -0.0000000  -0.0000000  -0.0000000  -0.0000000  -0.0000000  -0.0000000  -0.0000000  -0.0000000  -0.0000000
 NQMom=    0.0000000   0.0000000   0.0000000   0.0000000   0.0000000   0.0000000   0.0000000   0.0000000   0.0000000   0.0000000
 NMagM=    0.0000000   0.0000000   0.0000000   0.0000000   0.0000000   0.0000000   2.7928460   2.7928460   2.7928460   2.7928460
 AtZNuc=   6.0000000   8.0000000   6.0000000   6.0000000   6.0000000  16.0000000   1.0000000   1.0000000   1.0000000   1.0000000

  Atom        41          42          43          44          45          46          47          48          49          50
 IAtWgt=           1           1           1           1           1           1           1           1           1           1
 AtmWgt=   1.0078250   1.0078250   1.0078250   1.0078250   1.0078250   1.0078250   1.0078250   1.0078250   1.0078250   1.0078250
 NucSpn=           1           1           1           1           1           1           1           1           1           1
 AtZEff=  -0.0000000  -0.0000000  -0.0000000  -0.0000000  -0.0000000  -0.0000000  -0.0000000  -0.0000000  -0.0000000  -0.0000000
 NQMom=    0.0000000   0.0000000   0.0000000   0.0000000   0.0000000   0.0000000   0.0000000   0.0000000   0.0000000   0.0000000
 NMagM=    2.7928460   2.7928460   2.7928460   2.7928460   2.7928460   2.7928460   2.7928460   2.7928460   2.7928460   2.7928460
 AtZNuc=   1.0000000   1.0000000   1.0000000   1.0000000   1.0000000   1.0000000   1.0000000   1.0000000   1.0000000   1.0000000

  Atom        51          52          53
 IAtWgt=           1           1           1
 AtmWgt=   1.0078250   1.0078250   1.0078250
 NucSpn=           1           1           1
 AtZEff=  -0.0000000  -0.0000000  -0.0000000
 NQMom=    0.0000000   0.0000000   0.0000000
 NMagM=    2.7928460   2.7928460   2.7928460
 AtZNuc=   1.0000000   1.0000000   1.0000000
 Leave Link  101 at Sat Jul 25 03:24:23 2020, MaxMem=  4026531840 cpu:               3.2 elap:               0.8
 (Enter /opt/ohpc/pub/libs/gaussian/g16-A.03/sandybridge/g16/l103.exe)

 GradGradGradGradGradGradGradGradGradGradGradGradGradGradGradGradGradGrad
 Berny optimization.
 Initialization pass.
                           ----------------------------
                           !    Initial Parameters    !
                           ! (Angstroms and Degrees)  !
 --------------------------                            --------------------------
 ! Name  Definition              Value          Derivative Info.                !
 --------------------------------------------------------------------------------
 ! R1    R(1,2)                  1.3439         estimate D2E/DX2                !
 ! R2    R(1,5)                  1.7563         estimate D2E/DX2                !
 ! R3    R(1,37)                 1.1482         estimate D2E/DX2                !
 ! R4    R(2,3)                  1.3913         estimate D2E/DX2                !
 ! R5    R(2,38)                 1.0585         estimate D2E/DX2                !
 ! R6    R(3,4)                  1.3229         estimate D2E/DX2                !
 ! R7    R(4,5)                  1.7678         estimate D2E/DX2                !
 ! R8    R(4,6)                  1.4455         estimate D2E/DX2                !
 ! R9    R(6,7)                  1.4046         estimate D2E/DX2                !
 ! R10   R(6,12)                 1.651          estimate D2E/DX2                !
 ! R11   R(7,8)                  1.366          estimate D2E/DX2                !
 ! R12   R(7,10)                 1.3884         estimate D2E/DX2                !
 ! R13   R(8,9)                  1.3939         estimate D2E/DX2                !
 ! R14   R(9,39)                 1.1566         estimate D2E/DX2                !
 ! R15   R(9,40)                 1.1249         estimate D2E/DX2                !
 ! R16   R(9,41)                 1.0099         estimate D2E/DX2                !
 ! R17   R(10,11)                1.3685         estimate D2E/DX2                !
 ! R18   R(10,42)                1.1451         estimate D2E/DX2                !
 ! R19   R(11,12)                1.6735         estimate D2E/DX2                !
 ! R20   R(11,13)                1.5028         estimate D2E/DX2                !
 ! R21   R(13,14)                1.414          estimate D2E/DX2                !
 ! R22   R(13,17)                1.7042         estimate D2E/DX2                !
 ! R23   R(14,15)                1.4408         estimate D2E/DX2                !
 ! R24   R(14,43)                1.0842         estimate D2E/DX2                !
 ! R25   R(15,16)                1.2856         estimate D2E/DX2                !
 ! R26   R(16,17)                1.7683         estimate D2E/DX2                !
 ! R27   R(16,18)                1.4961         estimate D2E/DX2                !
 ! R28   R(18,19)                1.426          estimate D2E/DX2                !
 ! R29   R(18,24)                1.7241         estimate D2E/DX2                !
 ! R30   R(19,20)                1.357          estimate D2E/DX2                !
 ! R31   R(19,22)                1.4286         estimate D2E/DX2                !
 ! R32   R(20,21)                1.4053         estimate D2E/DX2                !
 ! R33   R(21,44)                1.0427         estimate D2E/DX2                !
 ! R34   R(21,45)                1.1539         estimate D2E/DX2                !
 ! R35   R(21,46)                1.0738         estimate D2E/DX2                !
 ! R36   R(22,23)                1.372          estimate D2E/DX2                !
 ! R37   R(22,47)                1.032          estimate D2E/DX2                !
 ! R38   R(23,24)                1.7206         estimate D2E/DX2                !
 ! R39   R(23,25)                1.5131         estimate D2E/DX2                !
 ! R40   R(25,26)                1.4211         estimate D2E/DX2                !
 ! R41   R(25,29)                1.7102         estimate D2E/DX2                !
 ! R42   R(26,27)                1.4127         estimate D2E/DX2                !
 ! R43   R(26,48)                1.0558         estimate D2E/DX2                !
 ! R44   R(27,28)                1.3436         estimate D2E/DX2                !
 ! R45   R(28,29)                1.708          estimate D2E/DX2                !
 ! R46   R(28,30)                1.4008         estimate D2E/DX2                !
 ! R47   R(30,31)                1.4509         estimate D2E/DX2                !
 ! R48   R(30,36)                1.7531         estimate D2E/DX2                !
 ! R49   R(31,32)                1.3934         estimate D2E/DX2                !
 ! R50   R(31,34)                1.4346         estimate D2E/DX2                !
 ! R51   R(32,33)                1.4479         estimate D2E/DX2                !
 ! R52   R(33,49)                1.1169         estimate D2E/DX2                !
 ! R53   R(33,50)                1.0384         estimate D2E/DX2                !
 ! R54   R(33,51)                1.149          estimate D2E/DX2                !
 ! R55   R(34,35)                1.4376         estimate D2E/DX2                !
 ! R56   R(34,52)                1.0186         estimate D2E/DX2                !
 ! R57   R(35,36)                1.6232         estimate D2E/DX2                !
 ! R58   R(35,53)                1.0728         estimate D2E/DX2                !
 ! A1    A(2,1,5)              112.2041         estimate D2E/DX2                !
 ! A2    A(2,1,37)             127.7464         estimate D2E/DX2                !
 ! A3    A(5,1,37)             119.7578         estimate D2E/DX2                !
 ! A4    A(1,2,3)              112.2641         estimate D2E/DX2                !
 ! A5    A(1,2,38)             127.4701         estimate D2E/DX2                !
 ! A6    A(3,2,38)             119.0199         estimate D2E/DX2                !
 ! A7    A(2,3,4)              114.9326         estimate D2E/DX2                !
 ! A8    A(3,4,5)              111.1362         estimate D2E/DX2                !
 ! A9    A(3,4,6)              125.0917         estimate D2E/DX2                !
 ! A10   A(5,4,6)              123.4587         estimate D2E/DX2                !
 ! A11   A(1,5,4)               88.8166         estimate D2E/DX2                !
 ! A12   A(4,6,7)              127.4384         estimate D2E/DX2                !
 ! A13   A(4,6,12)             119.0702         estimate D2E/DX2                !
 ! A14   A(7,6,12)             113.4342         estimate D2E/DX2                !
 ! A15   A(6,7,8)              122.4322         estimate D2E/DX2                !
 ! A16   A(6,7,10)             107.3786         estimate D2E/DX2                !
 ! A17   A(8,7,10)             130.0745         estimate D2E/DX2                !
 ! A18   A(7,8,9)              115.9541         estimate D2E/DX2                !
 ! A19   A(8,9,39)             106.927          estimate D2E/DX2                !
 ! A20   A(8,9,40)             113.1979         estimate D2E/DX2                !
 ! A21   A(8,9,41)             110.2161         estimate D2E/DX2                !
 ! A22   A(39,9,40)            109.4033         estimate D2E/DX2                !
 ! A23   A(39,9,41)            107.7447         estimate D2E/DX2                !
 ! A24   A(40,9,41)            109.1904         estimate D2E/DX2                !
 ! A25   A(7,10,11)            116.5449         estimate D2E/DX2                !
 ! A26   A(7,10,42)            121.8976         estimate D2E/DX2                !
 ! A27   A(11,10,42)           121.5554         estimate D2E/DX2                !
 ! A28   A(10,11,12)           109.0411         estimate D2E/DX2                !
 ! A29   A(10,11,13)           128.6856         estimate D2E/DX2                !
 ! A30   A(12,11,13)           122.1666         estimate D2E/DX2                !
 ! A31   A(6,12,11)             93.5388         estimate D2E/DX2                !
 ! A32   A(11,13,14)           123.9141         estimate D2E/DX2                !
 ! A33   A(11,13,17)           124.4128         estimate D2E/DX2                !
 ! A34   A(14,13,17)           111.6479         estimate D2E/DX2                !
 ! A35   A(13,14,15)           113.826          estimate D2E/DX2                !
 ! A36   A(13,14,43)           125.531          estimate D2E/DX2                !
 ! A37   A(15,14,43)           120.2164         estimate D2E/DX2                !
 ! A38   A(14,15,16)           107.7296         estimate D2E/DX2                !
 ! A39   A(15,16,17)           118.7867         estimate D2E/DX2                !
 ! A40   A(15,16,18)           118.8428         estimate D2E/DX2                !
 ! A41   A(17,16,18)           122.1198         estimate D2E/DX2                !
 ! A42   A(13,17,16)            87.7598         estimate D2E/DX2                !
 ! A43   A(16,18,19)           127.2215         estimate D2E/DX2                !
 ! A44   A(16,18,24)           120.1771         estimate D2E/DX2                !
 ! A45   A(19,18,24)           112.5935         estimate D2E/DX2                !
 ! A46   A(18,19,20)           124.4668         estimate D2E/DX2                !
 ! A47   A(18,19,22)           110.202          estimate D2E/DX2                !
 ! A48   A(20,19,22)           125.0542         estimate D2E/DX2                !
 ! A49   A(19,20,21)           116.2326         estimate D2E/DX2                !
 ! A50   A(20,21,44)           110.9447         estimate D2E/DX2                !
 ! A51   A(20,21,45)           104.7964         estimate D2E/DX2                !
 ! A52   A(20,21,46)           107.5621         estimate D2E/DX2                !
 ! A53   A(44,21,45)           113.6463         estimate D2E/DX2                !
 ! A54   A(44,21,46)           114.4142         estimate D2E/DX2                !
 ! A55   A(45,21,46)           104.7846         estimate D2E/DX2                !
 ! A56   A(19,22,23)           112.7724         estimate D2E/DX2                !
 ! A57   A(19,22,47)           124.1499         estimate D2E/DX2                !
 ! A58   A(23,22,47)           122.9066         estimate D2E/DX2                !
 ! A59   A(22,23,24)           113.5448         estimate D2E/DX2                !
 ! A60   A(22,23,25)           128.8073         estimate D2E/DX2                !
 ! A61   A(24,23,25)           117.4377         estimate D2E/DX2                !
 ! A62   A(18,24,23)            90.8271         estimate D2E/DX2                !
 ! A63   A(23,25,26)           128.4718         estimate D2E/DX2                !
 ! A64   A(23,25,29)           120.4272         estimate D2E/DX2                !
 ! A65   A(26,25,29)           110.988          estimate D2E/DX2                !
 ! A66   A(25,26,27)           113.235          estimate D2E/DX2                !
 ! A67   A(25,26,48)           123.6703         estimate D2E/DX2                !
 ! A68   A(27,26,48)           123.0609         estimate D2E/DX2                !
 ! A69   A(26,27,28)           108.972          estimate D2E/DX2                !
 ! A70   A(27,28,29)           116.9413         estimate D2E/DX2                !
 ! A71   A(27,28,30)           116.8006         estimate D2E/DX2                !
 ! A72   A(29,28,30)           125.8425         estimate D2E/DX2                !
 ! A73   A(25,29,28)            89.7184         estimate D2E/DX2                !
 ! A74   A(28,30,31)           128.262          estimate D2E/DX2                !
 ! A75   A(28,30,36)           125.1362         estimate D2E/DX2                !
 ! A76   A(31,30,36)           106.5613         estimate D2E/DX2                !
 ! A77   A(30,31,32)           116.4634         estimate D2E/DX2                !
 ! A78   A(30,31,34)           114.6507         estimate D2E/DX2                !
 ! A79   A(32,31,34)           128.5383         estimate D2E/DX2                !
 ! A80   A(31,32,33)           110.1368         estimate D2E/DX2                !
 ! A81   A(32,33,49)           103.5767         estimate D2E/DX2                !
 ! A82   A(32,33,50)           112.2349         estimate D2E/DX2                !
 ! A83   A(32,33,51)           112.567          estimate D2E/DX2                !
 ! A84   A(49,33,50)           109.2521         estimate D2E/DX2                !
 ! A85   A(49,33,51)           107.6595         estimate D2E/DX2                !
 ! A86   A(50,33,51)           111.1367         estimate D2E/DX2                !
 ! A87   A(31,34,35)           108.4683         estimate D2E/DX2                !
 ! A88   A(31,34,52)           125.2325         estimate D2E/DX2                !
 ! A89   A(35,34,52)           125.6834         estimate D2E/DX2                !
 ! A90   A(34,35,36)           114.7039         estimate D2E/DX2                !
 ! A91   A(34,35,53)           123.2421         estimate D2E/DX2                !
 ! A92   A(36,35,53)           122.0504         estimate D2E/DX2                !
 ! A93   A(30,36,35)            95.3888         estimate D2E/DX2                !
 ! D1    D(5,1,2,3)              5.8887         estimate D2E/DX2                !
 ! D2    D(5,1,2,38)           172.863          estimate D2E/DX2                !
 ! D3    D(37,1,2,3)           179.5949         estimate D2E/DX2                !
 ! D4    D(37,1,2,38)          -13.4308         estimate D2E/DX2                !
 ! D5    D(2,1,5,4)             -1.4181         estimate D2E/DX2                !
 ! D6    D(37,1,5,4)          -175.6875         estimate D2E/DX2                !
 ! D7    D(1,2,3,4)             -9.0338         estimate D2E/DX2                !
 ! D8    D(38,2,3,4)          -177.2296         estimate D2E/DX2                !
 ! D9    D(2,3,4,5)              7.7795         estimate D2E/DX2                !
 ! D10   D(2,3,4,6)           -178.4836         estimate D2E/DX2                !
 ! D11   D(3,4,5,1)             -3.5878         estimate D2E/DX2                !
 ! D12   D(6,4,5,1)           -177.4456         estimate D2E/DX2                !
 ! D13   D(3,4,6,7)            158.3374         estimate D2E/DX2                !
 ! D14   D(3,4,6,12)           -24.6065         estimate D2E/DX2                !
 ! D15   D(5,4,6,7)            -28.6683         estimate D2E/DX2                !
 ! D16   D(5,4,6,12)           148.3878         estimate D2E/DX2                !
 ! D17   D(4,6,7,8)             -4.8652         estimate D2E/DX2                !
 ! D18   D(4,6,7,10)           178.6677         estimate D2E/DX2                !
 ! D19   D(12,6,7,8)           177.939          estimate D2E/DX2                !
 ! D20   D(12,6,7,10)            1.4719         estimate D2E/DX2                !
 ! D21   D(4,6,12,11)         -179.6903         estimate D2E/DX2                !
 ! D22   D(7,6,12,11)           -2.2376         estimate D2E/DX2                !
 ! D23   D(6,7,8,9)           -175.3242         estimate D2E/DX2                !
 ! D24   D(10,7,8,9)             0.268          estimate D2E/DX2                !
 ! D25   D(6,7,10,11)            0.3182         estimate D2E/DX2                !
 ! D26   D(6,7,10,42)          179.7936         estimate D2E/DX2                !
 ! D27   D(8,7,10,11)         -175.7845         estimate D2E/DX2                !
 ! D28   D(8,7,10,42)            3.691          estimate D2E/DX2                !
 ! D29   D(7,8,9,39)           -61.86           estimate D2E/DX2                !
 ! D30   D(7,8,9,40)            58.6862         estimate D2E/DX2                !
 ! D31   D(7,8,9,41)          -178.704          estimate D2E/DX2                !
 ! D32   D(7,10,11,12)          -1.8962         estimate D2E/DX2                !
 ! D33   D(7,10,11,13)        -178.1528         estimate D2E/DX2                !
 ! D34   D(42,10,11,12)        178.6264         estimate D2E/DX2                !
 ! D35   D(42,10,11,13)          2.3699         estimate D2E/DX2                !
 ! D36   D(10,11,12,6)           2.2919         estimate D2E/DX2                !
 ! D37   D(13,11,12,6)         178.8403         estimate D2E/DX2                !
 ! D38   D(10,11,13,14)         20.4305         estimate D2E/DX2                !
 ! D39   D(10,11,13,17)       -161.5518         estimate D2E/DX2                !
 ! D40   D(12,11,13,14)       -155.3884         estimate D2E/DX2                !
 ! D41   D(12,11,13,17)         22.6293         estimate D2E/DX2                !
 ! D42   D(11,13,14,15)       -177.896          estimate D2E/DX2                !
 ! D43   D(11,13,14,43)         -5.4264         estimate D2E/DX2                !
 ! D44   D(17,13,14,15)          3.8635         estimate D2E/DX2                !
 ! D45   D(17,13,14,43)        176.333          estimate D2E/DX2                !
 ! D46   D(11,13,17,16)       -179.259          estimate D2E/DX2                !
 ! D47   D(14,13,17,16)         -1.0289         estimate D2E/DX2                !
 ! D48   D(13,14,15,16)         -5.3724         estimate D2E/DX2                !
 ! D49   D(43,14,15,16)       -178.2829         estimate D2E/DX2                !
 ! D50   D(14,15,16,17)          4.755          estimate D2E/DX2                !
 ! D51   D(14,15,16,18)        179.1263         estimate D2E/DX2                !
 ! D52   D(15,16,17,13)         -2.3789         estimate D2E/DX2                !
 ! D53   D(18,16,17,13)       -176.5568         estimate D2E/DX2                !
 ! D54   D(15,16,18,19)        171.4151         estimate D2E/DX2                !
 ! D55   D(15,16,18,24)         -7.4839         estimate D2E/DX2                !
 ! D56   D(17,16,18,19)        -14.4102         estimate D2E/DX2                !
 ! D57   D(17,16,18,24)        166.6908         estimate D2E/DX2                !
 ! D58   D(16,18,19,20)         -3.9247         estimate D2E/DX2                !
 ! D59   D(16,18,19,22)       -178.1313         estimate D2E/DX2                !
 ! D60   D(24,18,19,20)        175.0444         estimate D2E/DX2                !
 ! D61   D(24,18,19,22)          0.8378         estimate D2E/DX2                !
 ! D62   D(16,18,24,23)        177.2526         estimate D2E/DX2                !
 ! D63   D(19,18,24,23)         -1.7978         estimate D2E/DX2                !
 ! D64   D(18,19,20,21)       -177.5468         estimate D2E/DX2                !
 ! D65   D(22,19,20,21)         -4.1922         estimate D2E/DX2                !
 ! D66   D(18,19,22,23)          0.9376         estimate D2E/DX2                !
 ! D67   D(18,19,22,47)        176.2931         estimate D2E/DX2                !
 ! D68   D(20,19,22,23)       -173.2274         estimate D2E/DX2                !
 ! D69   D(20,19,22,47)          2.128          estimate D2E/DX2                !
 ! D70   D(19,20,21,44)         63.2698         estimate D2E/DX2                !
 ! D71   D(19,20,21,45)       -173.685          estimate D2E/DX2                !
 ! D72   D(19,20,21,46)        -62.5578         estimate D2E/DX2                !
 ! D73   D(19,22,23,24)         -2.3376         estimate D2E/DX2                !
 ! D74   D(19,22,23,25)       -176.8682         estimate D2E/DX2                !
 ! D75   D(47,22,23,24)       -177.7595         estimate D2E/DX2                !
 ! D76   D(47,22,23,25)          7.7099         estimate D2E/DX2                !
 ! D77   D(22,23,24,18)          2.3768         estimate D2E/DX2                !
 ! D78   D(25,23,24,18)        177.5762         estimate D2E/DX2                !
 ! D79   D(22,23,25,26)       -179.0931         estimate D2E/DX2                !
 ! D80   D(22,23,25,29)         -3.3248         estimate D2E/DX2                !
 ! D81   D(24,23,25,26)          6.5571         estimate D2E/DX2                !
 ! D82   D(24,23,25,29)       -177.6747         estimate D2E/DX2                !
 ! D83   D(23,25,26,27)        176.1001         estimate D2E/DX2                !
 ! D84   D(23,25,26,48)         -1.8388         estimate D2E/DX2                !
 ! D85   D(29,25,26,27)          0.0079         estimate D2E/DX2                !
 ! D86   D(29,25,26,48)       -177.9311         estimate D2E/DX2                !
 ! D87   D(23,25,29,28)       -174.5838         estimate D2E/DX2                !
 ! D88   D(26,25,29,28)          1.8686         estimate D2E/DX2                !
 ! D89   D(25,26,27,28)         -2.5258         estimate D2E/DX2                !
 ! D90   D(48,26,27,28)        175.4276         estimate D2E/DX2                !
 ! D91   D(26,27,28,29)          4.1387         estimate D2E/DX2                !
 ! D92   D(26,27,28,30)        177.1792         estimate D2E/DX2                !
 ! D93   D(27,28,29,25)         -3.6172         estimate D2E/DX2                !
 ! D94   D(30,28,29,25)       -175.9501         estimate D2E/DX2                !
 ! D95   D(27,28,30,31)        154.5808         estimate D2E/DX2                !
 ! D96   D(27,28,30,36)        -28.0514         estimate D2E/DX2                !
 ! D97   D(29,28,30,31)        -33.0767         estimate D2E/DX2                !
 ! D98   D(29,28,30,36)        144.2911         estimate D2E/DX2                !
 ! D99   D(28,30,31,32)         -4.0606         estimate D2E/DX2                !
 ! D100  D(28,30,31,34)       -177.8773         estimate D2E/DX2                !
 ! D101  D(36,30,31,32)        178.1849         estimate D2E/DX2                !
 ! D102  D(36,30,31,34)          4.3682         estimate D2E/DX2                !
 ! D103  D(28,30,36,35)       -179.6322         estimate D2E/DX2                !
 ! D104  D(31,30,36,35)         -1.7882         estimate D2E/DX2                !
 ! D105  D(30,31,32,33)       -175.5821         estimate D2E/DX2                !
 ! D106  D(34,31,32,33)         -2.7717         estimate D2E/DX2                !
 ! D107  D(30,31,34,35)         -5.2135         estimate D2E/DX2                !
 ! D108  D(30,31,34,52)       -176.621          estimate D2E/DX2                !
 ! D109  D(32,31,34,35)       -178.1324         estimate D2E/DX2                !
 ! D110  D(32,31,34,52)         10.4601         estimate D2E/DX2                !
 ! D111  D(31,32,33,49)       -179.0139         estimate D2E/DX2                !
 ! D112  D(31,32,33,50)        -61.2922         estimate D2E/DX2                !
 ! D113  D(31,32,33,51)         64.9895         estimate D2E/DX2                !
 ! D114  D(31,34,35,36)          3.777          estimate D2E/DX2                !
 ! D115  D(31,34,35,53)       -175.5386         estimate D2E/DX2                !
 ! D116  D(52,34,35,36)        175.1359         estimate D2E/DX2                !
 ! D117  D(52,34,35,53)         -4.1798         estimate D2E/DX2                !
 ! D118  D(34,35,36,30)         -1.1583         estimate D2E/DX2                !
 ! D119  D(53,35,36,30)        178.1664         estimate D2E/DX2                !
 --------------------------------------------------------------------------------
 Trust Radius=3.00D-01 FncErr=1.00D-07 GrdErr=1.00D-06 EigMax=2.50D+02 EigMin=1.00D-04
 Number of steps in this run=    280 maximum allowed number of steps=    318.
 GradGradGradGradGradGradGradGradGradGradGradGradGradGradGradGradGradGrad

 Leave Link  103 at Sat Jul 25 03:24:23 2020, MaxMem=  4026531840 cpu:               0.2 elap:               0.1
 (Enter /opt/ohpc/pub/libs/gaussian/g16-A.03/sandybridge/g16/l202.exe)
 Stoichiometry    C24H17N3O3S6
 Framework group  C1[X(C24H17N3O3S6)]
 Deg. of freedom   153
 Full point group                 C1      NOp   1
 Largest Abelian subgroup         C1      NOp   1
 Largest concise Abelian subgroup C1      NOp   1
                         Standard orientation:                         
 ---------------------------------------------------------------------
 Center     Atomic      Atomic             Coordinates (Angstroms)
 Number     Number       Type             X           Y           Z
 ---------------------------------------------------------------------
      1          6           0       10.488440    1.922861    0.124536
      2          6           0        9.578303    2.691615   -0.497317
      3          7           0        8.318815    2.101002   -0.523287
      4          6           0        8.284065    0.843407   -0.114294
      5         16           0        9.841571    0.349215    0.560281
      6          6           0        7.101509    0.012776   -0.080963
      7          6           0        7.043813   -1.390630   -0.070134
      8          8           0        8.158962   -2.170642   -0.188824
      9          6           0        7.937181   -3.544827   -0.263026
     10          6           0        5.704364   -1.750105   -0.005490
     11          6           0        4.797078   -0.726075    0.024145
     12         16           0        5.618912    0.731696    0.023070
     13          6           0        3.299936   -0.800392    0.130596
     14          6           0        2.599081   -1.923782    0.626762
     15          7           0        1.166045   -1.779472    0.587965
     16          6           0        0.903491   -0.582073    0.200528
     17         16           0        2.240774    0.468831   -0.283420
     18          6           0       -0.526710   -0.168441    0.053229
     19          6           0       -1.023593    1.144840   -0.195746
     20          8           0       -0.250743    2.258113   -0.264455
     21          6           0       -0.927908    3.472929   -0.465802
     22          6           0       -2.451814    1.134280   -0.226795
     23          6           0       -2.978887   -0.110602    0.007223
     24         16           0       -1.786788   -1.334456    0.211368
     25          6           0       -4.428396   -0.544512   -0.006263
     26          6           0       -4.967999   -1.833054    0.254489
     27          7           0       -6.380387   -1.859408    0.238845
     28          6           0       -6.838239   -0.613679    0.029303
     29         16           0       -5.672779    0.600111   -0.263468
     30          6           0       -8.226508   -0.460672   -0.077586
     31          6           0       -9.024085    0.719900    0.196746
     32          8           0       -8.343610    1.824747    0.704594
     33          6           0       -9.279040    2.882657    1.024082
     34          6           0      -10.437801    0.537777    0.034864
     35          6           0      -10.670135   -0.780981   -0.488164
     36         16           0       -9.336310   -1.691976   -0.648224
     37          1           0       11.602224    2.147020    0.290515
     38          1           0        9.673502    3.710171   -0.769050
     39          1           0        7.429341   -3.857975    0.727869
     40          1           0        7.282897   -3.841979   -1.128481
     41          1           0        8.816548   -4.037287   -0.327259
     42          1           0        5.372156   -2.845751    0.012870
     43          1           0        3.044635   -2.872823    0.902983
     44          1           0       -1.561158    3.683894    0.335280
     45          1           0       -0.092462    4.254998   -0.613764
     46          1           0       -1.420896    3.415119   -1.417983
     47          1           0       -3.035131    1.978456   -0.336800
     48          1           0       -4.378490   -2.681343    0.472575
     49          1           0       -8.624807    3.707002    1.398208
     50          1           0       -9.800430    3.211753    0.188518
     51          1           0       -9.997087    2.594670    1.873639
     52          1           0      -11.139945    1.268519    0.137318
     53          1           0      -11.642030   -1.141069   -0.764851
 ---------------------------------------------------------------------
 Rotational constants (GHZ):           0.3218154           0.0194976           0.0185068
 Leave Link  202 at Sat Jul 25 03:24:23 2020, MaxMem=  4026531840 cpu:               0.3 elap:               0.1
 (Enter /opt/ohpc/pub/libs/gaussian/g16-A.03/sandybridge/g16/l301.exe)
 Standard basis: CC-pVDZ (5D, 7F)
 Ernie: Thresh=  0.10000D-02 Tol=  0.10000D-05 Strict=F.
 Ernie:  120 primitive shells out of 1045 were deleted.
 There are   649 symmetry adapted cartesian basis functions of A   symmetry.
 There are   613 symmetry adapted basis functions of A   symmetry.
   613 basis functions,  1535 primitive gaussians,   649 cartesian basis functions
   151 alpha electrons      151 beta electrons
       nuclear repulsion energy      4393.2433905902 Hartrees.
 IExCor=32609 DFT=T Ex+Corr=LC-wPBE ExCW=0 ScaHFX=  1.000000
 ScaDFX=  1.000000  0.000000  1.000000  1.000000 ScalE2=  1.000000  1.000000
 IRadAn=      5 IRanWt=     -1 IRanGd=            0 ICorTp=0 IEmpDi=  4
 HFx  wShort=  0.000000 wLong=  0.194600 cFull=  0.000000 cShort=  0.000000 cLong=  1.000000
 DFx  wShort=  0.000000 wLong=  0.194600 cFull=  0.000000 cShort=  0.000000 cLong=  1.000000
 NAtoms=   53 NActive=   53 NUniq=   53 SFac= 1.00D+00 NAtFMM=   60 NAOKFM=F Big=F
 Integral buffers will be    131072 words long.
 Raffenetti 2 integral format.
 Two-electron integral symmetry is turned on.
 Leave Link  301 at Sat Jul 25 03:24:24 2020, MaxMem=  4026531840 cpu:               0.6 elap:               0.1
 (Enter /opt/ohpc/pub/libs/gaussian/g16-A.03/sandybridge/g16/l302.exe)
 NPDir=0 NMtPBC=     1 NCelOv=     1 NCel=       1 NClECP=     1 NCelD=      1
         NCelK=      1 NCelE2=     1 NClLst=     1 CellRange=     0.0.
 One-electron integrals computed using PRISM.
 One-electron integral symmetry used in STVInt
 NBasis=   613 RedAO= T EigKep=  3.57D-04  NBF=   613
 NBsUse=   613 1.00D-06 EigRej= -1.00D+00 NBFU=   613
 Precomputing XC quadrature grid using
 IXCGrd= 4 IRadAn=           5 IRanWt=          -1 IRanGd=           0 AccXCQ= 0.00D+00.
 Generated NRdTot=       0 NPtTot=           0 NUsed=           0 NTot=          32
 NSgBfM=   575   567   568   571   575 MxSgAt=    53 MxSgA2=    53.
 Leave Link  302 at Sat Jul 25 03:24:26 2020, MaxMem=  4026531840 cpu:              12.9 elap:               2.2
 (Enter /opt/ohpc/pub/libs/gaussian/g16-A.03/sandybridge/g16/l303.exe)
 DipDrv:  MaxL=1.
 Leave Link  303 at Sat Jul 25 03:24:26 2020, MaxMem=  4026531840 cpu:               1.1 elap:               0.3
 (Enter /opt/ohpc/pub/libs/gaussian/g16-A.03/sandybridge/g16/l401.exe)
 ExpMin= 1.22D-01 ExpMax= 1.11D+05 ExpMxC= 1.07D+03 IAcc=3 IRadAn=         5 AccDes= 0.00D+00
 Harris functional with IExCor=32609 and IRadAn=       5 diagonalized for initial guess.
 HarFok:  IExCor=32609 AccDes= 0.00D+00 IRadAn=         5 IDoV= 1 UseB2=F ITyADJ=14
 ICtDFT=  3500011 ScaDFX=  1.000000  1.000000  1.000000  1.000000
 FoFCou: FMM=F IPFlag=           0 FMFlag=      100000 FMFlg1=           0
         NFxFlg=           0 DoJE=T BraDBF=F KetDBF=T FulRan=T
         wScrn=  0.000000 ICntrl=       500 IOpCl=  0 I1Cent=   200000004 NGrid=           0
         NMat0=    1 NMatS0=      1 NMatT0=    0 NMatD0=    1 NMtDS0=    0 NMtDT0=    0
 Petite list used in FoFCou.
 Harris En= -3701.62421176099    
 JPrj=0 DoOrth=F DoCkMO=F.
 Initial guess <Sx>= 0.0000 <Sy>= 0.0000 <Sz>= 0.0000 <S**2>= 0.0000 S= 0.0000
 Leave Link  401 at Sat Jul 25 03:24:32 2020, MaxMem=  4026531840 cpu:              40.8 elap:               5.3
 (Enter /opt/ohpc/pub/libs/gaussian/g16-A.03/sandybridge/g16/l502.exe)
 Integral symmetry usage will be decided dynamically.
 UHF open shell SCF:
 Using DIIS extrapolation, IDIIS=  1040.
 NGot=  4026531840 LenX=  4025677645 LenY=  4025255795
 Requested convergence on RMS density matrix=1.00D-08 within 128 cycles.
 Requested convergence on MAX density matrix=1.00D-06.
 Requested convergence on             energy=1.00D-06.
 No special actions if energy rises.
 Fock matrices will be formed incrementally for  20 cycles.
 Integral accuracy reduced to 1.0D-05 until final iterations.

 Cycle   1  Pass 0  IDiag  1:
 FoFJK:  IHMeth= 1 ICntrl=       0 DoSepK=T KAlg= 0 I1Cent=           0 FoldK=F
 IRaf=         1 NMat=       1 IRICut=       1 DoRegI=T DoRafI=F ISym2E= 0 IDoP0=0 IntGTp=1.
 FoFCou: FMM=F IPFlag=           0 FMFlag=      100000 FMFlg1=           0
         NFxFlg=           0 DoJE=T BraDBF=F KetDBF=F FulRan=T
         wScrn=  0.000000 ICntrl=       500 IOpCl=  0 I1Cent=           0 NGrid=           0
         NMat0=    1 NMatS0=      1 NMatT0=    0 NMatD0=    1 NMtDS0=    0 NMtDT0=    0
 Symmetry not used in FoFCou.
 E= -3701.05738910052    
 DIIS: error= 1.33D-02 at cycle   1 NSaved=   1.
 NSaved= 1 IEnMin= 1 EnMin= -3701.05738910052     IErMin= 1 ErrMin= 1.33D-02
 ErrMax= 1.33D-02  0.00D+00 EMaxC= 1.00D-01 BMatC= 2.76D+00 BMatP= 2.76D+00
 IDIUse=3 WtCom= 8.67D-01 WtEn= 1.33D-01
 Coeff-Com:  0.100D+01
 Coeff-En:   0.100D+01
 Coeff:      0.100D+01
 Gap=     0.164 Goal=   None    Shift=    0.000
 Gap=     0.164 Goal=   None    Shift=    0.000
 GapD=    0.164 DampG=1.000 DampE=0.500 DampFc=0.5000 IDamp=-1.
 Damping current iteration by 5.00D-01
 RMSDP=3.23D-03 MaxDP=1.45D-01              OVMax= 2.36D-01

 Cycle   2  Pass 0  IDiag  1:
 RMSU=  1.61D-03    CP:  9.93D-01
 E= -3701.40303265781     Delta-E=       -0.345643557291 Rises=F Damp=T
 DIIS: error= 4.33D-03 at cycle   2 NSaved=   2.
 NSaved= 2 IEnMin= 2 EnMin= -3701.40303265781     IErMin= 2 ErrMin= 4.33D-03
 ErrMax= 4.33D-03  0.00D+00 EMaxC= 1.00D-01 BMatC= 1.34D-01 BMatP= 2.76D+00
 IDIUse=3 WtCom= 9.57D-01 WtEn= 4.33D-02
 Coeff-Com:  0.904D-01 0.910D+00
 Coeff-En:   0.135D+00 0.865D+00
 Coeff:      0.924D-01 0.908D+00
 Gap=     0.220 Goal=   None    Shift=    0.000
 Gap=     0.220 Goal=   None    Shift=    0.000
 RMSDP=6.99D-04 MaxDP=2.48D-02 DE=-3.46D-01 OVMax= 1.48D-01

 Cycle   3  Pass 0  IDiag  1:
 RMSU=  6.80D-04    CP:  9.90D-01  9.02D-01
 E= -3701.82661936308     Delta-E=       -0.423586705271 Rises=F Damp=F
 DIIS: error= 5.93D-03 at cycle   3 NSaved=   3.
 NSaved= 3 IEnMin= 3 EnMin= -3701.82661936308     IErMin= 2 ErrMin= 4.33D-03
 ErrMax= 5.93D-03  0.00D+00 EMaxC= 1.00D-01 BMatC= 9.18D-02 BMatP= 1.34D-01
 IDIUse=3 WtCom= 9.41D-01 WtEn= 5.93D-02
 Coeff-Com:  0.300D-01 0.441D+00 0.529D+00
 Coeff-En:   0.000D+00 0.000D+00 0.100D+01
 Coeff:      0.283D-01 0.415D+00 0.557D+00
 Gap=     0.213 Goal=   None    Shift=    0.000
 Gap=     0.213 Goal=   None    Shift=    0.000
 RMSDP=3.01D-04 MaxDP=2.53D-02 DE=-4.24D-01 OVMax= 3.59D-02

 Cycle   4  Pass 0  IDiag  1:
 RMSU=  2.49D-04    CP:  9.91D-01  9.39D-01  7.65D-01
 E= -3701.84443017297     Delta-E=       -0.017810809887 Rises=F Damp=F
 DIIS: error= 2.30D-03 at cycle   4 NSaved=   4.
 NSaved= 4 IEnMin= 4 EnMin= -3701.84443017297     IErMin= 4 ErrMin= 2.30D-03
 ErrMax= 2.30D-03  0.00D+00 EMaxC= 1.00D-01 BMatC= 1.77D-02 BMatP= 9.18D-02
 IDIUse=3 WtCom= 9.77D-01 WtEn= 2.30D-02
 Coeff-Com:  0.878D-02 0.504D-01 0.300D+00 0.641D+00
 Coeff-En:   0.000D+00 0.000D+00 0.148D+00 0.852D+00
 Coeff:      0.858D-02 0.493D-01 0.297D+00 0.645D+00
 Gap=     0.215 Goal=   None    Shift=    0.000
 Gap=     0.215 Goal=   None    Shift=    0.000
 RMSDP=1.27D-04 MaxDP=8.98D-03 DE=-1.78D-02 OVMax= 1.16D-02

 Cycle   5  Pass 0  IDiag  1:
 RMSU=  8.57D-05    CP:  9.90D-01  9.27D-01  8.58D-01  7.32D-01
 E= -3701.84862543717     Delta-E=       -0.004195264197 Rises=F Damp=F
 DIIS: error= 2.72D-04 at cycle   5 NSaved=   5.
 NSaved= 5 IEnMin= 5 EnMin= -3701.84862543717     IErMin= 5 ErrMin= 2.72D-04
 ErrMax= 2.72D-04  0.00D+00 EMaxC= 1.00D-01 BMatC= 1.02D-03 BMatP= 1.77D-02
 IDIUse=3 WtCom= 9.97D-01 WtEn= 2.72D-03
 Coeff-Com:  0.454D-02-0.230D-01 0.660D-01 0.258D+00 0.695D+00
 Coeff-En:   0.000D+00 0.000D+00 0.000D+00 0.000D+00 0.100D+01
 Coeff:      0.453D-02-0.229D-01 0.658D-01 0.257D+00 0.696D+00
 Gap=     0.216 Goal=   None    Shift=    0.000
 Gap=     0.216 Goal=   None    Shift=    0.000
 RMSDP=4.08D-05 MaxDP=1.96D-03 DE=-4.20D-03 OVMax= 4.50D-03

 Cycle   6  Pass 0  IDiag  1:
 RMSU=  3.05D-05    CP:  9.90D-01  9.21D-01  8.77D-01  8.21D-01  9.48D-01
 E= -3701.84892294305     Delta-E=       -0.000297505885 Rises=F Damp=F
 DIIS: error= 1.20D-04 at cycle   6 NSaved=   6.
 NSaved= 6 IEnMin= 6 EnMin= -3701.84892294305     IErMin= 6 ErrMin= 1.20D-04
 ErrMax= 1.20D-04  0.00D+00 EMaxC= 1.00D-01 BMatC= 2.00D-04 BMatP= 1.02D-03
 IDIUse=3 WtCom= 9.99D-01 WtEn= 1.20D-03
 Coeff-Com:  0.209D-02-0.221D-01-0.107D-01 0.373D-01 0.339D+00 0.654D+00
 Coeff-En:   0.000D+00 0.000D+00 0.000D+00 0.000D+00 0.000D+00 0.100D+01
 Coeff:      0.209D-02-0.220D-01-0.107D-01 0.372D-01 0.339D+00 0.655D+00
 Gap=     0.216 Goal=   None    Shift=    0.000
 Gap=     0.216 Goal=   None    Shift=    0.000
 RMSDP=1.91D-05 MaxDP=9.46D-04 DE=-2.98D-04 OVMax= 2.55D-03

 Cycle   7  Pass 0  IDiag  1:
 RMSU=  1.32D-05    CP:  9.90D-01  9.19D-01  8.85D-01  8.31D-01  1.08D+00
                    CP:  9.13D-01
 E= -3701.84899370485     Delta-E=       -0.000070761796 Rises=F Damp=F
 DIIS: error= 7.28D-05 at cycle   7 NSaved=   7.
 NSaved= 7 IEnMin= 7 EnMin= -3701.84899370485     IErMin= 7 ErrMin= 7.28D-05
 ErrMax= 7.28D-05  0.00D+00 EMaxC= 1.00D-01 BMatC= 3.01D-05 BMatP= 2.00D-04
 IDIUse=1 WtCom= 1.00D+00 WtEn= 0.00D+00
 Coeff-Com:  0.508D-03-0.697D-02-0.129D-01-0.212D-01 0.253D-01 0.287D+00
 Coeff-Com:  0.728D+00
 Coeff:      0.508D-03-0.697D-02-0.129D-01-0.212D-01 0.253D-01 0.287D+00
 Coeff:      0.728D+00
 Gap=     0.216 Goal=   None    Shift=    0.000
 Gap=     0.216 Goal=   None    Shift=    0.000
 RMSDP=8.83D-06 MaxDP=3.63D-04 DE=-7.08D-05 OVMax= 1.16D-03

 Initial convergence to 1.0D-05 achieved.  Increase integral accuracy.
 Cycle   8  Pass 1  IDiag  1:
 E= -3701.84863805519     Delta-E=        0.000355649660 Rises=F Damp=F
 DIIS: error= 1.13D-04 at cycle   1 NSaved=   1.
 NSaved= 1 IEnMin= 1 EnMin= -3701.84863805519     IErMin= 1 ErrMin= 1.13D-04
 ErrMax= 1.13D-04  0.00D+00 EMaxC= 1.00D-01 BMatC= 3.31D-05 BMatP= 3.31D-05
 IDIUse=3 WtCom= 9.99D-01 WtEn= 1.13D-03
 Coeff-Com:  0.100D+01
 Coeff-En:   0.100D+01
 Coeff:      0.100D+01
 Gap=     0.217 Goal=   None    Shift=    0.000
 Gap=     0.217 Goal=   None    Shift=    0.000
 RMSDP=8.83D-06 MaxDP=3.63D-04 DE= 3.56D-04 OVMax= 8.23D-04

 Cycle   9  Pass 1  IDiag  1:
 RMSU=  6.33D-05    CP:  1.00D+00
 E= -3701.84864208558     Delta-E=       -0.000004030394 Rises=F Damp=F
 DIIS: error= 5.13D-05 at cycle   2 NSaved=   2.
 NSaved= 2 IEnMin= 2 EnMin= -3701.84864208558     IErMin= 2 ErrMin= 5.13D-05
 ErrMax= 5.13D-05  0.00D+00 EMaxC= 1.00D-01 BMatC= 1.90D-05 BMatP= 3.31D-05
 IDIUse=1 WtCom= 1.00D+00 WtEn= 0.00D+00
 Coeff-Com:  0.403D+00 0.597D+00
 Coeff:      0.403D+00 0.597D+00
 Gap=     0.217 Goal=   None    Shift=    0.000
 Gap=     0.217 Goal=   None    Shift=    0.000
 RMSDP=5.92D-06 MaxDP=3.36D-04 DE=-4.03D-06 OVMax= 5.77D-04

 Cycle  10  Pass 1  IDiag  1:
 RMSU=  5.71D-06    CP:  1.00D+00  1.02D+00
 E= -3701.84864503735     Delta-E=       -0.000002951766 Rises=F Damp=F
 DIIS: error= 3.40D-05 at cycle   3 NSaved=   3.
 NSaved= 3 IEnMin= 3 EnMin= -3701.84864503735     IErMin= 3 ErrMin= 3.40D-05
 ErrMax= 3.40D-05  0.00D+00 EMaxC= 1.00D-01 BMatC= 7.95D-06 BMatP= 1.90D-05
 IDIUse=1 WtCom= 1.00D+00 WtEn= 0.00D+00
 Coeff-Com: -0.116D-01 0.390D+00 0.621D+00
 Coeff:     -0.116D-01 0.390D+00 0.621D+00
 Gap=     0.217 Goal=   None    Shift=    0.000
 Gap=     0.217 Goal=   None    Shift=    0.000
 RMSDP=2.90D-06 MaxDP=1.50D-04 DE=-2.95D-06 OVMax= 3.34D-04

 Cycle  11  Pass 1  IDiag  1:
 RMSU=  1.40D-06    CP:  1.00D+00  1.05D+00  6.48D-01
 E= -3701.84864699118     Delta-E=       -0.000001953837 Rises=F Damp=F
 DIIS: error= 5.30D-06 at cycle   4 NSaved=   4.
 NSaved= 4 IEnMin= 4 EnMin= -3701.84864699118     IErMin= 4 ErrMin= 5.30D-06
 ErrMax= 5.30D-06  0.00D+00 EMaxC= 1.00D-01 BMatC= 2.81D-07 BMatP= 7.95D-06
 IDIUse=1 WtCom= 1.00D+00 WtEn= 0.00D+00
 Coeff-Com: -0.199D-01 0.176D+00 0.315D+00 0.529D+00
 Coeff:     -0.199D-01 0.176D+00 0.315D+00 0.529D+00
 Gap=     0.217 Goal=   None    Shift=    0.000
 Gap=     0.217 Goal=   None    Shift=    0.000
 RMSDP=5.37D-07 MaxDP=2.25D-05 DE=-1.95D-06 OVMax= 7.11D-05

 Cycle  12  Pass 1  IDiag  1:
 RMSU=  4.93D-07    CP:  1.00D+00  1.05D+00  6.76D-01  1.04D+00
 E= -3701.84864713738     Delta-E=       -0.000000146192 Rises=F Damp=F
 DIIS: error= 2.02D-06 at cycle   5 NSaved=   5.
 NSaved= 5 IEnMin= 5 EnMin= -3701.84864713738     IErMin= 5 ErrMin= 2.02D-06
 ErrMax= 2.02D-06  0.00D+00 EMaxC= 1.00D-01 BMatC= 1.91D-08 BMatP= 2.81D-07
 IDIUse=1 WtCom= 1.00D+00 WtEn= 0.00D+00
 Coeff-Com:  0.112D-02-0.687D-01-0.105D+00 0.952D-02 0.116D+01
 Coeff:      0.112D-02-0.687D-01-0.105D+00 0.952D-02 0.116D+01
 Gap=     0.217 Goal=   None    Shift=    0.000
 Gap=     0.217 Goal=   None    Shift=    0.000
 RMSDP=5.13D-07 MaxDP=2.64D-05 DE=-1.46D-07 OVMax= 9.07D-05

 Cycle  13  Pass 1  IDiag  1:
 RMSU=  2.53D-07    CP:  1.00D+00  1.05D+00  6.87D-01  1.33D+00  1.32D+00
 E= -3701.84864717597     Delta-E=       -0.000000038590 Rises=F Damp=F
 DIIS: error= 1.97D-06 at cycle   6 NSaved=   6.
 NSaved= 6 IEnMin= 6 EnMin= -3701.84864717597     IErMin= 6 ErrMin= 1.97D-06
 ErrMax= 1.97D-06  0.00D+00 EMaxC= 1.00D-01 BMatC= 1.59D-08 BMatP= 1.91D-08
 IDIUse=1 WtCom= 1.00D+00 WtEn= 0.00D+00
 Coeff-Com:  0.535D-02-0.860D-01-0.142D+00-0.126D+00 0.762D+00 0.586D+00
 Coeff:      0.535D-02-0.860D-01-0.142D+00-0.126D+00 0.762D+00 0.586D+00
 Gap=     0.217 Goal=   None    Shift=    0.000
 Gap=     0.217 Goal=   None    Shift=    0.000
 RMSDP=2.10D-07 MaxDP=8.96D-06 DE=-3.86D-08 OVMax= 3.97D-05

 Cycle  14  Pass 1  IDiag  1:
 RMSU=  1.08D-07    CP:  1.00D+00  1.05D+00  6.91D-01  1.43D+00  1.56D+00
                    CP:  9.79D-01
 E= -3701.84864718352     Delta-E=       -0.000000007559 Rises=F Damp=F
 DIIS: error= 6.10D-07 at cycle   7 NSaved=   7.
 NSaved= 7 IEnMin= 7 EnMin= -3701.84864718352     IErMin= 7 ErrMin= 6.10D-07
 ErrMax= 6.10D-07  0.00D+00 EMaxC= 1.00D-01 BMatC= 5.65D-10 BMatP= 1.59D-08
 IDIUse=1 WtCom= 1.00D+00 WtEn= 0.00D+00
 Coeff-Com:  0.231D-02-0.339D-01-0.562D-01-0.584D-01 0.259D+00 0.250D+00
 Coeff-Com:  0.638D+00
 Coeff:      0.231D-02-0.339D-01-0.562D-01-0.584D-01 0.259D+00 0.250D+00
 Coeff:      0.638D+00
 Gap=     0.217 Goal=   None    Shift=    0.000
 Gap=     0.217 Goal=   None    Shift=    0.000
 RMSDP=4.09D-08 MaxDP=2.31D-06 DE=-7.56D-09 OVMax= 8.26D-06

 Cycle  15  Pass 1  IDiag  1:
 RMSU=  2.61D-08    CP:  1.00D+00  1.05D+00  6.91D-01  1.44D+00  1.59D+00
                    CP:  1.06D+00  1.01D+00
 E= -3701.84864718401     Delta-E=       -0.000000000485 Rises=F Damp=F
 DIIS: error= 2.34D-07 at cycle   8 NSaved=   8.
 NSaved= 8 IEnMin= 8 EnMin= -3701.84864718401     IErMin= 8 ErrMin= 2.34D-07
 ErrMax= 2.34D-07  0.00D+00 EMaxC= 1.00D-01 BMatC= 1.16D-10 BMatP= 5.65D-10
 IDIUse=1 WtCom= 1.00D+00 WtEn= 0.00D+00
 Coeff-Com: -0.117D-03 0.328D-02 0.569D-02 0.952D-03-0.426D-01-0.169D-01
 Coeff-Com:  0.301D+00 0.748D+00
 Coeff:     -0.117D-03 0.328D-02 0.569D-02 0.952D-03-0.426D-01-0.169D-01
 Coeff:      0.301D+00 0.748D+00
 Gap=     0.217 Goal=   None    Shift=    0.000
 Gap=     0.217 Goal=   None    Shift=    0.000
 RMSDP=1.89D-08 MaxDP=7.27D-07 DE=-4.85D-10 OVMax= 4.27D-06

 Cycle  16  Pass 1  IDiag  1:
 RMSU=  1.20D-08    CP:  1.00D+00  1.05D+00  6.92D-01  1.44D+00  1.60D+00
                    CP:  1.09D+00  1.11D+00  9.37D-01
 E= -3701.84864718380     Delta-E=        0.000000000210 Rises=F Damp=F
 DIIS: error= 4.78D-08 at cycle   9 NSaved=   9.
 NSaved= 9 IEnMin= 8 EnMin= -3701.84864718401     IErMin= 9 ErrMin= 4.78D-08
 ErrMax= 4.78D-08  0.00D+00 EMaxC= 1.00D-01 BMatC= 1.21D-11 BMatP= 1.16D-10
 IDIUse=1 WtCom= 1.00D+00 WtEn= 0.00D+00
 Coeff-Com: -0.304D-03 0.500D-02 0.855D-02 0.673D-02-0.454D-01-0.371D-01
 Coeff-Com:  0.537D-01 0.274D+00 0.735D+00
 Coeff:     -0.304D-03 0.500D-02 0.855D-02 0.673D-02-0.454D-01-0.371D-01
 Coeff:      0.537D-01 0.274D+00 0.735D+00
 Gap=     0.217 Goal=   None    Shift=    0.000
 Gap=     0.217 Goal=   None    Shift=    0.000
 RMSDP=7.14D-09 MaxDP=2.86D-07 DE= 2.10D-10 OVMax= 1.97D-06

 SCF Done:  E(ULC-wPBE) =  -3701.84864718     A.U. after   16 cycles
            NFock= 16  Conv=0.71D-08     -V/T= 2.0036
 <Sx>= 0.0000 <Sy>= 0.0000 <Sz>= 0.0000 <S**2>=-0.0000 S=-0.0000
 <L.S>= 0.000000000000E+00
 KE= 3.688570537902D+03 PE=-1.752405542672D+04 EE= 5.740392851040D+03
 Annihilation of the first spin contaminant:
 S**2 before annihilation    -0.0000,   after    -0.0000
 Leave Link  502 at Sat Jul 25 03:31:18 2020, MaxMem=  4026531840 cpu:            3184.3 elap:             406.2
 (Enter /opt/ohpc/pub/libs/gaussian/g16-A.03/sandybridge/g16/l601.exe)
 Copying SCF densities to generalized density rwf, IOpCl= 1 IROHF=0.

 **********************************************************************

            Population analysis using the SCF density.

 **********************************************************************

 Orbital symmetries:
 Alpha Orbitals:
       Occupied  (A) (A) (A) (A) (A) (A) (A) (A) (A) (A) (A) (A)
                 (A) (A) (A) (A) (A) (A) (A) (A) (A) (A) (A) (A)
                 (A) (A) (A) (A) (A) (A) (A) (A) (A) (A) (A) (A)
                 (A) (A) (A) (A) (A) (A) (A) (A) (A) (A) (A) (A)
                 (A) (A) (A) (A) (A) (A) (A) (A) (A) (A) (A) (A)
                 (A) (A) (A) (A) (A) (A) (A) (A) (A) (A) (A) (A)
                 (A) (A) (A) (A) (A) (A) (A) (A) (A) (A) (A) (A)
                 (A) (A) (A) (A) (A) (A) (A) (A) (A) (A) (A) (A)
                 (A) (A) (A) (A) (A) (A) (A) (A) (A) (A) (A) (A)
                 (A) (A) (A) (A) (A) (A) (A) (A) (A) (A) (A) (A)
                 (A) (A) (A) (A) (A) (A) (A) (A) (A) (A) (A) (A)
                 (A) (A) (A) (A) (A) (A) (A) (A) (A) (A) (A) (A)
                 (A) (A) (A) (A) (A) (A) (A)
       Virtual   (A) (A) (A) (A) (A) (A) (A) (A) (A) (A) (A) (A)
                 (A) (A) (A) (A) (A) (A) (A) (A) (A) (A) (A) (A)
                 (A) (A) (A) (A) (A) (A) (A) (A) (A) (A) (A) (A)
                 (A) (A) (A) (A) (A) (A) (A) (A) (A) (A) (A) (A)
                 (A) (A) (A) (A) (A) (A) (A) (A) (A) (A) (A) (A)
                 (A) (A) (A) (A) (A) (A) (A) (A) (A) (A) (A) (A)
                 (A) (A) (A) (A) (A) (A) (A) (A) (A) (A) (A) (A)
                 (A) (A) (A) (A) (A) (A) (A) (A) (A) (A) (A) (A)
                 (A) (A) (A) (A) (A) (A) (A) (A) (A) (A) (A) (A)
                 (A) (A) (A) (A) (A) (A) (A) (A) (A) (A) (A) (A)
                 (A) (A) (A) (A) (A) (A) (A) (A) (A) (A) (A) (A)
                 (A) (A) (A) (A) (A) (A) (A) (A) (A) (A) (A) (A)
                 (A) (A) (A) (A) (A) (A) (A) (A) (A) (A) (A) (A)
                 (A) (A) (A) (A) (A) (A) (A) (A) (A) (A) (A) (A)
                 (A) (A) (A) (A) (A) (A) (A) (A) (A) (A) (A) (A)
                 (A) (A) (A) (A) (A) (A) (A) (A) (A) (A) (A) (A)
                 (A) (A) (A) (A) (A) (A) (A) (A) (A) (A) (A) (A)
                 (A) (A) (A) (A) (A) (A) (A) (A) (A) (A) (A) (A)
                 (A) (A) (A) (A) (A) (A) (A) (A) (A) (A) (A) (A)
                 (A) (A) (A) (A) (A) (A) (A) (A) (A) (A) (A) (A)
                 (A) (A) (A) (A) (A) (A) (A) (A) (A) (A) (A) (A)
                 (A) (A) (A) (A) (A) (A) (A) (A) (A) (A) (A) (A)
                 (A) (A) (A) (A) (A) (A) (A) (A) (A) (A) (A) (A)
                 (A) (A) (A) (A) (A) (A) (A) (A) (A) (A) (A) (A)
                 (A) (A) (A) (A) (A) (A) (A) (A) (A) (A) (A) (A)
                 (A) (A) (A) (A) (A) (A) (A) (A) (A) (A) (A) (A)
                 (A) (A) (A) (A) (A) (A) (A) (A) (A) (A) (A) (A)
                 (A) (A) (A) (A) (A) (A) (A) (A) (A) (A) (A) (A)
                 (A) (A) (A) (A) (A) (A) (A) (A) (A) (A) (A) (A)
                 (A) (A) (A) (A) (A) (A) (A) (A) (A) (A) (A) (A)
                 (A) (A) (A) (A) (A) (A) (A) (A) (A) (A) (A) (A)
                 (A) (A) (A) (A) (A) (A) (A) (A) (A) (A) (A) (A)
                 (A) (A) (A) (A) (A) (A) (A) (A) (A) (A) (A) (A)
                 (A) (A) (A) (A) (A) (A) (A) (A) (A) (A) (A) (A)
                 (A) (A) (A) (A) (A) (A) (A) (A) (A) (A) (A) (A)
                 (A) (A) (A) (A) (A) (A) (A) (A) (A) (A) (A) (A)
                 (A) (A) (A) (A) (A) (A) (A) (A) (A) (A) (A) (A)
                 (A) (A) (A) (A) (A) (A) (A) (A) (A) (A) (A) (A)
                 (A) (A) (A) (A) (A) (A)
 Beta  Orbitals:
       Occupied  (A) (A) (A) (A) (A) (A) (A) (A) (A) (A) (A) (A)
                 (A) (A) (A) (A) (A) (A) (A) (A) (A) (A) (A) (A)
                 (A) (A) (A) (A) (A) (A) (A) (A) (A) (A) (A) (A)
                 (A) (A) (A) (A) (A) (A) (A) (A) (A) (A) (A) (A)
                 (A) (A) (A) (A) (A) (A) (A) (A) (A) (A) (A) (A)
                 (A) (A) (A) (A) (A) (A) (A) (A) (A) (A) (A) (A)
                 (A) (A) (A) (A) (A) (A) (A) (A) (A) (A) (A) (A)
                 (A) (A) (A) (A) (A) (A) (A) (A) (A) (A) (A) (A)
                 (A) (A) (A) (A) (A) (A) (A) (A) (A) (A) (A) (A)
                 (A) (A) (A) (A) (A) (A) (A) (A) (A) (A) (A) (A)
                 (A) (A) (A) (A) (A) (A) (A) (A) (A) (A) (A) (A)
                 (A) (A) (A) (A) (A) (A) (A) (A) (A) (A) (A) (A)
                 (A) (A) (A) (A) (A) (A) (A)
       Virtual   (A) (A) (A) (A) (A) (A) (A) (A) (A) (A) (A) (A)
                 (A) (A) (A) (A) (A) (A) (A) (A) (A) (A) (A) (A)
                 (A) (A) (A) (A) (A) (A) (A) (A) (A) (A) (A) (A)
                 (A) (A) (A) (A) (A) (A) (A) (A) (A) (A) (A) (A)
                 (A) (A) (A) (A) (A) (A) (A) (A) (A) (A) (A) (A)
                 (A) (A) (A) (A) (A) (A) (A) (A) (A) (A) (A) (A)
                 (A) (A) (A) (A) (A) (A) (A) (A) (A) (A) (A) (A)
                 (A) (A) (A) (A) (A) (A) (A) (A) (A) (A) (A) (A)
                 (A) (A) (A) (A) (A) (A) (A) (A) (A) (A) (A) (A)
                 (A) (A) (A) (A) (A) (A) (A) (A) (A) (A) (A) (A)
                 (A) (A) (A) (A) (A) (A) (A) (A) (A) (A) (A) (A)
                 (A) (A) (A) (A) (A) (A) (A) (A) (A) (A) (A) (A)
                 (A) (A) (A) (A) (A) (A) (A) (A) (A) (A) (A) (A)
                 (A) (A) (A) (A) (A) (A) (A) (A) (A) (A) (A) (A)
                 (A) (A) (A) (A) (A) (A) (A) (A) (A) (A) (A) (A)
                 (A) (A) (A) (A) (A) (A) (A) (A) (A) (A) (A) (A)
                 (A) (A) (A) (A) (A) (A) (A) (A) (A) (A) (A) (A)
                 (A) (A) (A) (A) (A) (A) (A) (A) (A) (A) (A) (A)
                 (A) (A) (A) (A) (A) (A) (A) (A) (A) (A) (A) (A)
                 (A) (A) (A) (A) (A) (A) (A) (A) (A) (A) (A) (A)
                 (A) (A) (A) (A) (A) (A) (A) (A) (A) (A) (A) (A)
                 (A) (A) (A) (A) (A) (A) (A) (A) (A) (A) (A) (A)
                 (A) (A) (A) (A) (A) (A) (A) (A) (A) (A) (A) (A)
                 (A) (A) (A) (A) (A) (A) (A) (A) (A) (A) (A) (A)
                 (A) (A) (A) (A) (A) (A) (A) (A) (A) (A) (A) (A)
                 (A) (A) (A) (A) (A) (A) (A) (A) (A) (A) (A) (A)
                 (A) (A) (A) (A) (A) (A) (A) (A) (A) (A) (A) (A)
                 (A) (A) (A) (A) (A) (A) (A) (A) (A) (A) (A) (A)
                 (A) (A) (A) (A) (A) (A) (A) (A) (A) (A) (A) (A)
                 (A) (A) (A) (A) (A) (A) (A) (A) (A) (A) (A) (A)
                 (A) (A) (A) (A) (A) (A) (A) (A) (A) (A) (A) (A)
                 (A) (A) (A) (A) (A) (A) (A) (A) (A) (A) (A) (A)
                 (A) (A) (A) (A) (A) (A) (A) (A) (A) (A) (A) (A)
                 (A) (A) (A) (A) (A) (A) (A) (A) (A) (A) (A) (A)
                 (A) (A) (A) (A) (A) (A) (A) (A) (A) (A) (A) (A)
                 (A) (A) (A) (A) (A) (A) (A) (A) (A) (A) (A) (A)
                 (A) (A) (A) (A) (A) (A) (A) (A) (A) (A) (A) (A)
                 (A) (A) (A) (A) (A) (A) (A) (A) (A) (A) (A) (A)
                 (A) (A) (A) (A) (A) (A)
 The electronic state is 1-A.
 Alpha  occ. eigenvalues --  -88.21919 -88.21900 -88.21649 -88.21425 -88.21279
 Alpha  occ. eigenvalues --  -88.20692 -18.92281 -18.92257 -18.92245 -14.11019
 Alpha  occ. eigenvalues --  -14.10791 -14.09726 -10.08132 -10.08112 -10.07796
 Alpha  occ. eigenvalues --  -10.07572 -10.07327 -10.07243 -10.06962 -10.06830
 Alpha  occ. eigenvalues --  -10.06550 -10.05863 -10.05715 -10.05564 -10.05286
 Alpha  occ. eigenvalues --  -10.04475 -10.04432 -10.04298 -10.04116 -10.04092
 Alpha  occ. eigenvalues --  -10.03770 -10.03757 -10.02911 -10.02095 -10.01931
 Alpha  occ. eigenvalues --  -10.01469  -7.82421  -7.82394  -7.82081  -7.81939
 Alpha  occ. eigenvalues --   -7.81804  -7.81029  -5.84411  -5.84376  -5.84092
 Alpha  occ. eigenvalues --   -5.83954  -5.83922  -5.83877  -5.83835  -5.83648
 Alpha  occ. eigenvalues --   -5.83613  -5.83581  -5.83427  -5.83372  -5.83213
 Alpha  occ. eigenvalues --   -5.83105  -5.83038  -5.82924  -5.82584  -5.82205
 Alpha  occ. eigenvalues --   -1.11120  -1.10967  -1.09123  -0.99267  -0.98791
 Alpha  occ. eigenvalues --   -0.98362  -0.95041  -0.93133  -0.92700  -0.86110
 Alpha  occ. eigenvalues --   -0.85356  -0.82738  -0.82428  -0.82159  -0.80743
 Alpha  occ. eigenvalues --   -0.80570  -0.80109  -0.79349  -0.77623  -0.76745
 Alpha  occ. eigenvalues --   -0.76276  -0.74710  -0.73721  -0.72082  -0.67807
 Alpha  occ. eigenvalues --   -0.66648  -0.65966  -0.64366  -0.63292  -0.62527
 Alpha  occ. eigenvalues --   -0.61789  -0.61193  -0.60324  -0.60133  -0.59656
 Alpha  occ. eigenvalues --   -0.59096  -0.57716  -0.56098  -0.55815  -0.54784
 Alpha  occ. eigenvalues --   -0.53603  -0.53581  -0.53417  -0.53184  -0.52875
 Alpha  occ. eigenvalues --   -0.51797  -0.51510  -0.50725  -0.50029  -0.49500
 Alpha  occ. eigenvalues --   -0.49193  -0.48765  -0.48428  -0.48068  -0.47971
 Alpha  occ. eigenvalues --   -0.47301  -0.46245  -0.45863  -0.45346  -0.45270
 Alpha  occ. eigenvalues --   -0.45075  -0.44624  -0.44188  -0.44117  -0.43293
 Alpha  occ. eigenvalues --   -0.42733  -0.42171  -0.41269  -0.40697  -0.40644
 Alpha  occ. eigenvalues --   -0.40292  -0.39880  -0.39723  -0.39380  -0.39324
 Alpha  occ. eigenvalues --   -0.39258  -0.36904  -0.35284  -0.34020  -0.33757
 Alpha  occ. eigenvalues --   -0.33452  -0.33122  -0.32869  -0.32194  -0.31120
 Alpha  occ. eigenvalues --   -0.30573  -0.30352  -0.30222  -0.28146  -0.25982
 Alpha  occ. eigenvalues --   -0.23839
 Alpha virt. eigenvalues --   -0.02180  -0.00400   0.01795   0.04414   0.05820
 Alpha virt. eigenvalues --    0.06470   0.07166   0.07620   0.08396   0.08686
 Alpha virt. eigenvalues --    0.09050   0.09790   0.10456   0.11073   0.11660
 Alpha virt. eigenvalues --    0.12245   0.12500   0.12545   0.12998   0.13234
 Alpha virt. eigenvalues --    0.13891   0.14204   0.14471   0.14946   0.15273
 Alpha virt. eigenvalues --    0.15336   0.16323   0.16514   0.16959   0.17518
 Alpha virt. eigenvalues --    0.17528   0.17920   0.18410   0.18929   0.19022
 Alpha virt. eigenvalues --    0.19253   0.19310   0.19616   0.19966   0.21354
 Alpha virt. eigenvalues --    0.21444   0.21687   0.22263   0.24005   0.25266
 Alpha virt. eigenvalues --    0.26894   0.27500   0.27886   0.28225   0.28684
 Alpha virt. eigenvalues --    0.29032   0.29314   0.30085   0.31620   0.32758
 Alpha virt. eigenvalues --    0.32999   0.33853   0.36096   0.36265   0.37148
 Alpha virt. eigenvalues --    0.37814   0.40050   0.40411   0.41076   0.41624
 Alpha virt. eigenvalues --    0.42186   0.42393   0.42599   0.43790   0.45150
 Alpha virt. eigenvalues --    0.46695   0.47589   0.48106   0.48258   0.48566
 Alpha virt. eigenvalues --    0.48733   0.48896   0.49530   0.49562   0.49641
 Alpha virt. eigenvalues --    0.49786   0.49991   0.50035   0.50624   0.50749
 Alpha virt. eigenvalues --    0.50910   0.51100   0.51277   0.51413   0.51519
 Alpha virt. eigenvalues --    0.51669   0.51722   0.51932   0.52201   0.52359
 Alpha virt. eigenvalues --    0.52480   0.52576   0.52625   0.53126   0.53178
 Alpha virt. eigenvalues --    0.53337   0.53731   0.53963   0.54205   0.54367
 Alpha virt. eigenvalues --    0.54732   0.54904   0.55101   0.55549   0.55805
 Alpha virt. eigenvalues --    0.56172   0.56394   0.56719   0.57091   0.57407
 Alpha virt. eigenvalues --    0.57677   0.57872   0.58124   0.58347   0.58881
 Alpha virt. eigenvalues --    0.59816   0.60055   0.60361   0.60661   0.61004
 Alpha virt. eigenvalues --    0.61565   0.61789   0.61865   0.62526   0.62709
 Alpha virt. eigenvalues --    0.63448   0.63732   0.64172   0.64387   0.64790
 Alpha virt. eigenvalues --    0.65103   0.65195   0.65924   0.66335   0.66962
 Alpha virt. eigenvalues --    0.67330   0.67661   0.67845   0.68091   0.68386
 Alpha virt. eigenvalues --    0.68601   0.69720   0.69962   0.70285   0.70497
 Alpha virt. eigenvalues --    0.71011   0.71789   0.72031   0.72771   0.72852
 Alpha virt. eigenvalues --    0.73171   0.73432   0.73874   0.74192   0.74734
 Alpha virt. eigenvalues --    0.74871   0.75450   0.75762   0.76427   0.76626
 Alpha virt. eigenvalues --    0.78036   0.78068   0.78306   0.79070   0.79112
 Alpha virt. eigenvalues --    0.80136   0.80407   0.80870   0.80872   0.81586
 Alpha virt. eigenvalues --    0.82058   0.82769   0.84172   0.84814   0.86442
 Alpha virt. eigenvalues --    0.87191   0.87701   0.88059   0.88671   0.89166
 Alpha virt. eigenvalues --    0.89528   0.89624   0.90061   0.90819   0.91686
 Alpha virt. eigenvalues --    0.91925   0.92736   0.92948   0.93319   0.93852
 Alpha virt. eigenvalues --    0.94871   0.95036   0.95467   0.95621   0.96611
 Alpha virt. eigenvalues --    0.97038   0.97260   0.97564   0.98181   0.98391
 Alpha virt. eigenvalues --    0.98829   0.99046   0.99312   0.99833   1.00006
 Alpha virt. eigenvalues --    1.00256   1.01022   1.01383   1.01918   1.02694
 Alpha virt. eigenvalues --    1.03142   1.03565   1.04216   1.04791   1.04955
 Alpha virt. eigenvalues --    1.06289   1.06443   1.07016   1.07494   1.08458
 Alpha virt. eigenvalues --    1.09207   1.09569   1.10316   1.10542   1.11050
 Alpha virt. eigenvalues --    1.12210   1.12874   1.13530   1.13819   1.14502
 Alpha virt. eigenvalues --    1.15125   1.15448   1.16945   1.17628   1.17912
 Alpha virt. eigenvalues --    1.18227   1.18747   1.19881   1.20148   1.21045
 Alpha virt. eigenvalues --    1.22090   1.22351   1.22824   1.22943   1.24298
 Alpha virt. eigenvalues --    1.24787   1.24892   1.25353   1.26428   1.27028
 Alpha virt. eigenvalues --    1.27360   1.28037   1.29045   1.29265   1.29888
 Alpha virt. eigenvalues --    1.30711   1.31301   1.31735   1.32096   1.33703
 Alpha virt. eigenvalues --    1.34000   1.34908   1.35047   1.35574   1.36886
 Alpha virt. eigenvalues --    1.37757   1.38459   1.39212   1.39457   1.39788
 Alpha virt. eigenvalues --    1.40416   1.40663   1.41418   1.41655   1.42204
 Alpha virt. eigenvalues --    1.42527   1.43044   1.43236   1.43574   1.45199
 Alpha virt. eigenvalues --    1.45227   1.47683   1.47914   1.48726   1.49608
 Alpha virt. eigenvalues --    1.50776   1.51213   1.51540   1.52569   1.52943
 Alpha virt. eigenvalues --    1.53817   1.54654   1.55044   1.55370   1.55773
 Alpha virt. eigenvalues --    1.56257   1.56833   1.57429   1.58226   1.58736
 Alpha virt. eigenvalues --    1.59964   1.60814   1.61246   1.61494   1.61909
 Alpha virt. eigenvalues --    1.62790   1.62984   1.64225   1.64465   1.65033
 Alpha virt. eigenvalues --    1.65656   1.66138   1.67486   1.67726   1.68000
 Alpha virt. eigenvalues --    1.68367   1.68435   1.68914   1.69211   1.70254
 Alpha virt. eigenvalues --    1.70260   1.71107   1.71126   1.71473   1.71895
 Alpha virt. eigenvalues --    1.72581   1.73927   1.74313   1.74655   1.74952
 Alpha virt. eigenvalues --    1.75094   1.75337   1.76394   1.77488   1.77802
 Alpha virt. eigenvalues --    1.78344   1.79849   1.80393   1.80611   1.80809
 Alpha virt. eigenvalues --    1.81886   1.82422   1.83285   1.84193   1.85254
 Alpha virt. eigenvalues --    1.85604   1.86347   1.87750   1.89009   1.89772
 Alpha virt. eigenvalues --    1.89830   1.91067   1.91253   1.92006   1.92610
 Alpha virt. eigenvalues --    1.93134   1.93567   1.94309   1.95267   1.95966
 Alpha virt. eigenvalues --    1.96459   1.97616   1.99321   2.00022   2.00968
 Alpha virt. eigenvalues --    2.01063   2.01752   2.02077   2.02762   2.04717
 Alpha virt. eigenvalues --    2.05789   2.06550   2.07249   2.07560   2.07990
 Alpha virt. eigenvalues --    2.08231   2.08572   2.08768   2.10637   2.11223
 Alpha virt. eigenvalues --    2.11619   2.12112   2.13072   2.13570   2.14059
 Alpha virt. eigenvalues --    2.14962   2.16389   2.16577   2.20477   2.21881
 Alpha virt. eigenvalues --    2.24412   2.25253   2.25442   2.26832   2.27702
 Alpha virt. eigenvalues --    2.28807   2.29139   2.30608   2.31352   2.31725
 Alpha virt. eigenvalues --    2.31956   2.33379   2.34366   2.35619   2.36050
 Alpha virt. eigenvalues --    2.36844   2.37364   2.38153   2.39031   2.39180
 Alpha virt. eigenvalues --    2.41249   2.42049   2.44246   2.44457   2.45613
 Alpha virt. eigenvalues --    2.48135   2.48636   2.48777   2.50048   2.51536
 Alpha virt. eigenvalues --    2.51771   2.52597   2.54361   2.54727   2.55632
 Alpha virt. eigenvalues --    2.59910   2.60848   2.64008   2.65269   2.67626
 Alpha virt. eigenvalues --    2.71927   2.72806   2.76440   2.83353   2.83728
 Alpha virt. eigenvalues --    2.85210   2.88484   2.88545   2.89962   2.90572
 Alpha virt. eigenvalues --    2.96629   2.97537   2.99576   3.01997   3.02276
 Alpha virt. eigenvalues --    3.02942   3.04296   3.04773   3.05788   3.07617
 Alpha virt. eigenvalues --    3.09858   3.26924   3.34912   3.35816   3.41470
 Alpha virt. eigenvalues --    3.44879   3.45252
  Beta  occ. eigenvalues --  -88.21919 -88.21900 -88.21649 -88.21425 -88.21279
  Beta  occ. eigenvalues --  -88.20692 -18.92281 -18.92257 -18.92245 -14.11019
  Beta  occ. eigenvalues --  -14.10791 -14.09726 -10.08132 -10.08112 -10.07796
  Beta  occ. eigenvalues --  -10.07572 -10.07327 -10.07243 -10.06962 -10.06830
  Beta  occ. eigenvalues --  -10.06550 -10.05863 -10.05715 -10.05564 -10.05286
  Beta  occ. eigenvalues --  -10.04475 -10.04432 -10.04298 -10.04116 -10.04092
  Beta  occ. eigenvalues --  -10.03770 -10.03757 -10.02911 -10.02095 -10.01931
  Beta  occ. eigenvalues --  -10.01469  -7.82421  -7.82394  -7.82081  -7.81939
  Beta  occ. eigenvalues --   -7.81804  -7.81029  -5.84411  -5.84376  -5.84092
  Beta  occ. eigenvalues --   -5.83954  -5.83922  -5.83877  -5.83835  -5.83648
  Beta  occ. eigenvalues --   -5.83613  -5.83581  -5.83427  -5.83372  -5.83213
  Beta  occ. eigenvalues --   -5.83105  -5.83038  -5.82924  -5.82584  -5.82205
  Beta  occ. eigenvalues --   -1.11120  -1.10967  -1.09123  -0.99267  -0.98791
  Beta  occ. eigenvalues --   -0.98362  -0.95041  -0.93133  -0.92700  -0.86110
  Beta  occ. eigenvalues --   -0.85356  -0.82738  -0.82428  -0.82159  -0.80743
  Beta  occ. eigenvalues --   -0.80570  -0.80109  -0.79349  -0.77623  -0.76745
  Beta  occ. eigenvalues --   -0.76276  -0.74710  -0.73721  -0.72082  -0.67807
  Beta  occ. eigenvalues --   -0.66648  -0.65966  -0.64366  -0.63292  -0.62527
  Beta  occ. eigenvalues --   -0.61789  -0.61193  -0.60324  -0.60133  -0.59656
  Beta  occ. eigenvalues --   -0.59096  -0.57716  -0.56098  -0.55815  -0.54784
  Beta  occ. eigenvalues --   -0.53603  -0.53581  -0.53417  -0.53184  -0.52875
  Beta  occ. eigenvalues --   -0.51797  -0.51510  -0.50725  -0.50029  -0.49500
  Beta  occ. eigenvalues --   -0.49193  -0.48765  -0.48428  -0.48068  -0.47971
  Beta  occ. eigenvalues --   -0.47301  -0.46245  -0.45863  -0.45346  -0.45270
  Beta  occ. eigenvalues --   -0.45075  -0.44624  -0.44188  -0.44117  -0.43293
  Beta  occ. eigenvalues --   -0.42733  -0.42171  -0.41269  -0.40697  -0.40644
  Beta  occ. eigenvalues --   -0.40292  -0.39880  -0.39723  -0.39380  -0.39324
  Beta  occ. eigenvalues --   -0.39258  -0.36904  -0.35284  -0.34020  -0.33757
  Beta  occ. eigenvalues --   -0.33452  -0.33122  -0.32869  -0.32194  -0.31120
  Beta  occ. eigenvalues --   -0.30573  -0.30352  -0.30222  -0.28146  -0.25982
  Beta  occ. eigenvalues --   -0.23839
  Beta virt. eigenvalues --   -0.02180  -0.00400   0.01795   0.04414   0.05820
  Beta virt. eigenvalues --    0.06470   0.07166   0.07620   0.08396   0.08686
  Beta virt. eigenvalues --    0.09050   0.09790   0.10456   0.11073   0.11660
  Beta virt. eigenvalues --    0.12245   0.12500   0.12545   0.12998   0.13234
  Beta virt. eigenvalues --    0.13891   0.14204   0.14471   0.14946   0.15273
  Beta virt. eigenvalues --    0.15336   0.16323   0.16514   0.16959   0.17518
  Beta virt. eigenvalues --    0.17528   0.17920   0.18410   0.18929   0.19022
  Beta virt. eigenvalues --    0.19253   0.19310   0.19616   0.19966   0.21354
  Beta virt. eigenvalues --    0.21444   0.21687   0.22263   0.24005   0.25266
  Beta virt. eigenvalues --    0.26894   0.27500   0.27886   0.28225   0.28684
  Beta virt. eigenvalues --    0.29032   0.29314   0.30085   0.31620   0.32758
  Beta virt. eigenvalues --    0.32999   0.33853   0.36096   0.36265   0.37148
  Beta virt. eigenvalues --    0.37814   0.40050   0.40411   0.41076   0.41624
  Beta virt. eigenvalues --    0.42186   0.42393   0.42599   0.43790   0.45150
  Beta virt. eigenvalues --    0.46695   0.47589   0.48106   0.48258   0.48566
  Beta virt. eigenvalues --    0.48733   0.48896   0.49530   0.49562   0.49641
  Beta virt. eigenvalues --    0.49786   0.49991   0.50035   0.50624   0.50749
  Beta virt. eigenvalues --    0.50910   0.51100   0.51277   0.51413   0.51519
  Beta virt. eigenvalues --    0.51669   0.51722   0.51932   0.52201   0.52359
  Beta virt. eigenvalues --    0.52480   0.52576   0.52625   0.53126   0.53178
  Beta virt. eigenvalues --    0.53337   0.53731   0.53963   0.54205   0.54367
  Beta virt. eigenvalues --    0.54732   0.54904   0.55101   0.55549   0.55805
  Beta virt. eigenvalues --    0.56172   0.56394   0.56719   0.57091   0.57407
  Beta virt. eigenvalues --    0.57677   0.57872   0.58124   0.58347   0.58881
  Beta virt. eigenvalues --    0.59816   0.60055   0.60361   0.60661   0.61004
  Beta virt. eigenvalues --    0.61565   0.61789   0.61865   0.62526   0.62709
  Beta virt. eigenvalues --    0.63448   0.63732   0.64172   0.64387   0.64790
  Beta virt. eigenvalues --    0.65103   0.65195   0.65924   0.66335   0.66962
  Beta virt. eigenvalues --    0.67330   0.67661   0.67845   0.68091   0.68386
  Beta virt. eigenvalues --    0.68601   0.69720   0.69962   0.70285   0.70497
  Beta virt. eigenvalues --    0.71011   0.71789   0.72031   0.72771   0.72852
[...]
     6   Atom       -0.000000     -0.000000     -0.000000
     7   Atom       -0.000000     -0.000000      0.000000
     8   Atom       -0.000000     -0.000000      0.000000
     9   Atom       -0.000000     -0.000000      0.000000
    10   Atom        0.000000      0.000000      0.000000
    11   Atom        0.000000      0.000000     -0.000000
    12   Atom       -0.000000     -0.000000     -0.000000
    13   Atom       -0.000000      0.000000      0.000000
    14   Atom       -0.000000      0.000000      0.000000
    15   Atom        0.000000     -0.000000     -0.000000
    16   Atom       -0.000000     -0.000000     -0.000000
    17   Atom        0.000000     -0.000000     -0.000000
    18   Atom       -0.000000     -0.000000     -0.000000
    19   Atom        0.000000     -0.000000     -0.000000
    20   Atom       -0.000000      0.000000     -0.000000
    21   Atom       -0.000000     -0.000000     -0.000000
    22   Atom       -0.000000     -0.000000     -0.000000
    23   Atom        0.000000     -0.000000     -0.000000
    24   Atom       -0.000000      0.000000      0.000000
    25   Atom       -0.000000      0.000000     -0.000000
    26   Atom       -0.000000      0.000000      0.000000
    27   Atom        0.000000     -0.000000      0.000000
    28   Atom       -0.000000      0.000000     -0.000000
    29   Atom       -0.000000      0.000000     -0.000000
    30   Atom       -0.000000      0.000000     -0.000000
    31   Atom       -0.000000      0.000000      0.000000
    32   Atom       -0.000000      0.000000      0.000000
    33   Atom        0.000000      0.000000      0.000000
    34   Atom        0.000000     -0.000000      0.000000
    35   Atom       -0.000000      0.000000      0.000000
    36   Atom        0.000000     -0.000000     -0.000000
    37   Atom        0.000000     -0.000000      0.000000
    38   Atom       -0.000000     -0.000000      0.000000
    39   Atom       -0.000000      0.000000      0.000000
    40   Atom       -0.000000      0.000000     -0.000000
    41   Atom       -0.000000      0.000000     -0.000000
    42   Atom        0.000000      0.000000      0.000000
    43   Atom        0.000000     -0.000000      0.000000
    44   Atom       -0.000000      0.000000      0.000000
    45   Atom        0.000000      0.000000     -0.000000
    46   Atom       -0.000000      0.000000     -0.000000
    47   Atom       -0.000000      0.000000     -0.000000
    48   Atom       -0.000000      0.000000     -0.000000
    49   Atom        0.000000     -0.000000     -0.000000
    50   Atom        0.000000      0.000000      0.000000
    51   Atom       -0.000000     -0.000000      0.000000
    52   Atom        0.000000     -0.000000      0.000000
    53   Atom       -0.000000      0.000000      0.000000
 --------------------------------------------------------


 ---------------------------------------------------------------------------------
              Anisotropic Spin Dipole Couplings in Principal Axis System
 ---------------------------------------------------------------------------------

       Atom             a.u.   MegaHertz   Gauss  10(-4) cm-1        Axes

              Baa    -0.0000    -0.000    -0.000    -0.000  0.3440  0.9073  0.2418
     1 C(13)  Bbb     0.0000     0.000     0.000     0.000  0.2209 -0.3285  0.9183
              Bcc     0.0000     0.000     0.000     0.000  0.9126 -0.2625 -0.3134
 
              Baa    -0.0000    -0.000    -0.000    -0.000  0.7814  0.1173 -0.6130
     2 C(13)  Bbb    -0.0000    -0.000    -0.000    -0.000 -0.5489  0.5964 -0.5856
              Bcc     0.0000     0.000     0.000     0.000  0.2969  0.7941  0.5304
 
              Baa    -0.0000    -0.000    -0.000    -0.000  0.9652  0.2410  0.1020
     3 N(14)  Bbb     0.0000     0.000     0.000     0.000  0.0842 -0.6549  0.7510
              Bcc     0.0000     0.000     0.000     0.000 -0.2478  0.7162  0.6524
 
              Baa    -0.0000    -0.000    -0.000    -0.000  0.6664  0.7332  0.1354
     4 C(13)  Bbb     0.0000     0.000     0.000     0.000 -0.0307 -0.1544  0.9875
              Bcc     0.0000     0.000     0.000     0.000  0.7449 -0.6623 -0.0804
 
              Baa    -0.0000    -0.000    -0.000    -0.000  0.6420 -0.0965  0.7606
     5 S(33)  Bbb    -0.0000    -0.000    -0.000    -0.000  0.5978  0.6842 -0.4178
              Bcc     0.0000     0.000     0.000     0.000 -0.4801  0.7229  0.4969
 
              Baa    -0.0000    -0.000    -0.000    -0.000  0.3568  0.8867  0.2941
     6 C(13)  Bbb    -0.0000    -0.000    -0.000    -0.000  0.9320 -0.3165 -0.1764
              Bcc     0.0000     0.000     0.000     0.000  0.0633 -0.3371  0.9393
 
              Baa    -0.0000    -0.000    -0.000    -0.000  0.8467  0.4974  0.1891
     7 C(13)  Bbb    -0.0000    -0.000    -0.000    -0.000  0.2181 -0.6485  0.7293
              Bcc     0.0000     0.000     0.000     0.000 -0.4854  0.5762  0.6576
 
              Baa    -0.0000     0.000     0.000     0.000  0.3790  0.9219  0.0802
     8 O(17)  Bbb     0.0000    -0.000    -0.000    -0.000  0.5185 -0.2833  0.8068
              Bcc     0.0000    -0.000    -0.000    -0.000  0.7665 -0.2642 -0.5854
 
              Baa    -0.0000    -0.000    -0.000    -0.000  0.4244  0.9043 -0.0471
     9 C(13)  Bbb     0.0000     0.000     0.000     0.000  0.4284 -0.1547  0.8903
              Bcc     0.0000     0.000     0.000     0.000  0.7977 -0.3980 -0.4530
 
              Baa    -0.0000    -0.000    -0.000    -0.000 -0.0701 -0.2120  0.9748
    10 C(13)  Bbb     0.0000     0.000     0.000     0.000 -0.6814  0.7238  0.1084
              Bcc     0.0000     0.000     0.000     0.000  0.7285  0.6566  0.1952
 
              Baa    -0.0000    -0.000    -0.000    -0.000 -0.5938  0.7554  0.2770
    11 C(13)  Bbb     0.0000     0.000     0.000     0.000 -0.4232 -0.5860  0.6910
              Bcc     0.0000     0.000     0.000     0.000  0.6843  0.2931  0.6677
 
              Baa    -0.0000    -0.000    -0.000    -0.000  0.9409  0.3161  0.1213
    12 S(33)  Bbb    -0.0000    -0.000    -0.000    -0.000 -0.1488  0.0642  0.9868
              Bcc     0.0000     0.000     0.000     0.000 -0.3042  0.9465 -0.1074
 
              Baa    -0.0000    -0.000    -0.000    -0.000 -0.6405 -0.1898  0.7441
    13 C(13)  Bbb     0.0000     0.000     0.000     0.000 -0.2601  0.9653  0.0224
              Bcc     0.0000     0.000     0.000     0.000  0.7225  0.1792  0.6677
 
              Baa    -0.0000    -0.000    -0.000    -0.000  0.3161  0.9423 -0.1105
    14 C(13)  Bbb     0.0000     0.000     0.000     0.000  0.9417 -0.3257 -0.0839
              Bcc     0.0000     0.000     0.000     0.000  0.1150  0.0775  0.9903
 
              Baa    -0.0000    -0.000    -0.000    -0.000 -0.6586  0.7519  0.0298
    15 N(14)  Bbb    -0.0000    -0.000    -0.000    -0.000  0.1093  0.0564  0.9924
              Bcc     0.0000     0.000     0.000     0.000  0.7445  0.6569 -0.1193
 
              Baa    -0.0000    -0.000    -0.000    -0.000  0.0698  0.1761  0.9819
    16 C(13)  Bbb    -0.0000    -0.000    -0.000    -0.000  0.2194  0.9575 -0.1873
              Bcc     0.0000     0.000     0.000     0.000  0.9731 -0.2285 -0.0282
 
              Baa    -0.0000    -0.000    -0.000    -0.000 -0.1466  0.9813  0.1246
    17 S(33)  Bbb    -0.0000    -0.000    -0.000    -0.000  0.1034 -0.1100  0.9885
              Bcc     0.0000     0.000     0.000     0.000  0.9838  0.1578 -0.0854
 
              Baa    -0.0000    -0.000    -0.000    -0.000  0.0606  0.1112  0.9920
    18 C(13)  Bbb    -0.0000    -0.000    -0.000    -0.000  0.5192  0.8453 -0.1265
              Bcc     0.0000     0.000     0.000     0.000  0.8525 -0.5227  0.0065
 
              Baa    -0.0000    -0.000    -0.000    -0.000 -0.2110  0.9558  0.2046
    19 C(13)  Bbb    -0.0000    -0.000    -0.000    -0.000  0.0998 -0.1872  0.9772
              Bcc     0.0000     0.000     0.000     0.000  0.9724  0.2266 -0.0558
 
              Baa    -0.0000     0.000     0.000     0.000  0.9693  0.2459  0.0074
    20 O(17)  Bbb    -0.0000     0.000     0.000     0.000 -0.0226  0.0592  0.9980
              Bcc     0.0000    -0.000    -0.000    -0.000 -0.2450  0.9675 -0.0629
 
              Baa    -0.0000    -0.000    -0.000    -0.000  0.2719  0.2405  0.9318
    21 C(13)  Bbb    -0.0000    -0.000    -0.000    -0.000  0.7331  0.5755 -0.3625
              Bcc     0.0000     0.000     0.000     0.000 -0.6234  0.7816 -0.0198
 
              Baa    -0.0000    -0.000    -0.000    -0.000  0.0909  0.0849  0.9922
    22 C(13)  Bbb     0.0000     0.000     0.000     0.000  0.7322  0.6697 -0.1243
              Bcc     0.0000     0.000     0.000     0.000 -0.6750  0.7378 -0.0013
 
              Baa    -0.0000    -0.000    -0.000    -0.000  0.0045  0.1263  0.9920
    23 C(13)  Bbb    -0.0000    -0.000    -0.000    -0.000  0.9835 -0.1801  0.0185
              Bcc     0.0000     0.000     0.000     0.000  0.1810  0.9755 -0.1250
 
              Baa    -0.0000    -0.000    -0.000    -0.000  0.5141  0.8493 -0.1202
    24 S(33)  Bbb     0.0000     0.000     0.000     0.000  0.1979  0.0189  0.9800
              Bcc     0.0000     0.000     0.000     0.000  0.8346 -0.5276 -0.1584
 
              Baa    -0.0000    -0.000    -0.000    -0.000  0.2803  0.8904  0.3586
    25 C(13)  Bbb    -0.0000    -0.000    -0.000    -0.000 -0.3624 -0.2478  0.8985
              Bcc     0.0000     0.000     0.000     0.000  0.8889 -0.3818  0.2532
 
              Baa    -0.0000    -0.000    -0.000    -0.000  0.9418  0.3194 -0.1047
    26 C(13)  Bbb     0.0000     0.000     0.000     0.000 -0.3217  0.7664 -0.5559
              Bcc     0.0000     0.000     0.000     0.000 -0.0973  0.5573  0.8246
 
              Baa    -0.0000    -0.000    -0.000    -0.000 -0.4950  0.8518 -0.1716
    27 N(14)  Bbb     0.0000     0.000     0.000     0.000  0.4787  0.4321  0.7643
              Bcc     0.0000     0.000     0.000     0.000  0.7252  0.2962 -0.6216
 
              Baa    -0.0000    -0.000    -0.000    -0.000 -0.0091  0.4556  0.8901
    28 C(13)  Bbb    -0.0000    -0.000    -0.000    -0.000  0.1227  0.8840 -0.4512
              Bcc     0.0000     0.000     0.000     0.000  0.9924 -0.1051  0.0639
 
              Baa    -0.0000    -0.000    -0.000    -0.000 -0.2828  0.3678  0.8858
    29 S(33)  Bbb    -0.0000    -0.000    -0.000    -0.000  0.9134  0.3851  0.1317
              Bcc     0.0000     0.000     0.000     0.000 -0.2927  0.8464 -0.4449
 
              Baa    -0.0000    -0.000    -0.000    -0.000  0.8556  0.4225 -0.2991
    30 C(13)  Bbb    -0.0000    -0.000    -0.000    -0.000  0.0307  0.5353  0.8441
              Bcc     0.0000     0.000     0.000     0.000 -0.5167  0.7314 -0.4450
 
              Baa    -0.0000    -0.000    -0.000    -0.000  0.9461  0.3082 -0.0994
    31 C(13)  Bbb     0.0000     0.000     0.000     0.000 -0.3184  0.8291 -0.4595
              Bcc     0.0000     0.000     0.000     0.000 -0.0592  0.4664  0.8826
 
              Baa    -0.0000     0.000     0.000     0.000  0.6347  0.7148 -0.2936
    32 O(17)  Bbb     0.0000    -0.000    -0.000    -0.000 -0.0247  0.3985  0.9169
              Bcc     0.0000    -0.000    -0.000    -0.000  0.7724 -0.5747  0.2705
 
              Baa    -0.0000    -0.000    -0.000    -0.000 -0.0561 -0.6878  0.7237
    33 C(13)  Bbb     0.0000     0.000     0.000     0.000  0.8140 -0.4513 -0.3657
              Bcc     0.0000     0.000     0.000     0.000  0.5781  0.5686  0.5852
 
              Baa    -0.0000    -0.000    -0.000    -0.000  0.8943 -0.4222  0.1481
    34 C(13)  Bbb     0.0000     0.000     0.000     0.000  0.4451  0.8054 -0.3914
              Bcc     0.0000     0.000     0.000     0.000  0.0460  0.4159  0.9082
 
              Baa    -0.0000    -0.000    -0.000    -0.000  0.2449  0.8208 -0.5160
    35 C(13)  Bbb     0.0000     0.000     0.000     0.000 -0.0117  0.5347  0.8450
              Bcc     0.0000     0.000     0.000     0.000  0.9695 -0.2009  0.1406
 
              Baa    -0.0000    -0.000    -0.000    -0.000  0.7642 -0.5944 -0.2504
    36 S(33)  Bbb    -0.0000    -0.000    -0.000    -0.000  0.4013  0.1343  0.9060
              Bcc     0.0000     0.000     0.000     0.000  0.5050  0.7928 -0.3412
 
              Baa    -0.0000    -0.000    -0.000    -0.000 -0.1273  0.9871 -0.0970
    37 H(1)   Bbb    -0.0000    -0.000    -0.000    -0.000 -0.0032  0.0974  0.9952
              Bcc     0.0000     0.000     0.000     0.000  0.9919  0.1270 -0.0092
 
              Baa    -0.0000    -0.000    -0.000    -0.000  0.2876  0.9532  0.0928
    38 H(1)   Bbb    -0.0000    -0.000    -0.000    -0.000  0.4264 -0.2142  0.8788
              Bcc     0.0000     0.000     0.000     0.000  0.8576 -0.2131 -0.4681
 
              Baa    -0.0000    -0.000    -0.000    -0.000  0.5751  0.7811 -0.2434
    39 H(1)   Bbb     0.0000     0.000     0.000     0.000  0.7892 -0.4513  0.4164
              Bcc     0.0000     0.000     0.000     0.000 -0.2154  0.4315  0.8760
 
              Baa    -0.0000    -0.000    -0.000    -0.000 -0.1806  0.8129  0.5537
    40 H(1)   Bbb    -0.0000    -0.000    -0.000    -0.000 -0.5392 -0.5527  0.6355
              Bcc     0.0000     0.000     0.000     0.000  0.8226 -0.1837  0.5381
 
              Baa    -0.0000    -0.000    -0.000    -0.000 -0.2878  0.5213  0.8034
    41 H(1)   Bbb    -0.0000    -0.000    -0.000    -0.000  0.3472  0.8386 -0.4198
              Bcc     0.0000     0.000     0.000     0.000  0.8926 -0.1581  0.4223
 
              Baa    -0.0000    -0.000    -0.000    -0.000  0.4355 -0.6292  0.6438
    42 H(1)   Bbb    -0.0000    -0.000    -0.000    -0.000  0.8271 -0.0026 -0.5620
              Bcc     0.0000     0.000     0.000     0.000  0.3553  0.7773  0.5193
 
              Baa    -0.0000    -0.000    -0.000    -0.000 -0.4938  0.8584 -0.1386
    43 H(1)   Bbb     0.0000     0.000     0.000     0.000 -0.0869  0.1099  0.9901
              Bcc     0.0000     0.000     0.000     0.000  0.8652  0.5010  0.0203
 
              Baa    -0.0000    -0.000    -0.000    -0.000 -0.3113 -0.6518  0.6915
    44 H(1)   Bbb    -0.0000    -0.000    -0.000    -0.000  0.9363 -0.0859  0.3406
              Bcc     0.0000     0.000     0.000     0.000 -0.1626  0.7535  0.6370
 
              Baa    -0.0000    -0.000    -0.000    -0.000  0.9468 -0.2051 -0.2478
    45 H(1)   Bbb    -0.0000    -0.000    -0.000    -0.000  0.2388 -0.0680  0.9687
              Bcc     0.0000     0.000     0.000     0.000  0.2155  0.9764  0.0154
 
              Baa    -0.0000    -0.000    -0.000    -0.000  0.2143  0.7119  0.6688
    46 H(1)   Bbb    -0.0000    -0.000    -0.000    -0.000  0.9024  0.1177 -0.4145
              Bcc     0.0000     0.000     0.000     0.000 -0.3738  0.6924 -0.6172
 
              Baa    -0.0000    -0.000    -0.000    -0.000  0.0058  0.0115  0.9999
    47 H(1)   Bbb    -0.0000    -0.000    -0.000    -0.000  0.7263  0.6873 -0.0121
              Bcc     0.0000     0.000     0.000     0.000 -0.6873  0.7263 -0.0044
 
              Baa    -0.0000    -0.000    -0.000    -0.000  0.8202  0.4839 -0.3052
    48 H(1)   Bbb    -0.0000    -0.000    -0.000    -0.000  0.0349  0.4902  0.8709
              Bcc     0.0000     0.000     0.000     0.000 -0.5710  0.7249 -0.3852
 
              Baa    -0.0000    -0.000    -0.000    -0.000 -0.5354  0.5034  0.6782
    49 H(1)   Bbb    -0.0000    -0.000    -0.000    -0.000  0.7090 -0.1685  0.6848
              Bcc     0.0000     0.000     0.000     0.000  0.4590  0.8475 -0.2667
 
              Baa    -0.0000    -0.000    -0.000    -0.000  0.6735 -0.3989 -0.6223
    50 H(1)   Bbb    -0.0000    -0.000    -0.000    -0.000  0.1845  0.9060 -0.3810
              Bcc     0.0000     0.000     0.000     0.000  0.7158  0.1418  0.6838
 
              Baa    -0.0000    -0.000    -0.000    -0.000  0.0414 -0.6362  0.7704
    51 H(1)   Bbb    -0.0000    -0.000    -0.000    -0.000  0.4628  0.6956  0.5495
              Bcc     0.0000     0.000     0.000     0.000  0.8855 -0.3338 -0.3232
 
              Baa    -0.0000    -0.000    -0.000    -0.000 -0.5938  0.6985 -0.3994
    52 H(1)   Bbb     0.0000     0.000     0.000     0.000  0.0321  0.5165  0.8557
              Bcc     0.0000     0.000     0.000     0.000  0.8039  0.4953 -0.3291
 
              Baa    -0.0000    -0.000    -0.000    -0.000  0.9569  0.2823 -0.0682
    53 H(1)   Bbb     0.0000     0.000     0.000     0.000 -0.2902  0.9202 -0.2629
              Bcc     0.0000     0.000     0.000     0.000 -0.0115  0.2714  0.9624
 

 ---------------------------------------------------------------------------------

 No NMR shielding tensors so no spin-rotation constants.
 Leave Link  601 at Sat Jul 25 06:28:12 2020, MaxMem=  4026531840 cpu:               7.3 elap:               1.3
 (Enter /opt/ohpc/pub/libs/gaussian/g16-A.03/sandybridge/g16/l9999.exe)

 Test job not archived.
 1\1\GINC-SKYLAKE046\FOpt\ULC-wPBE\CC-pVDZ\C24H17N3O3S6\RDU230\25-Jul-2
 020\0\\#P uLC-wPBE/cc-pVDZ iop(3/107=0194600000, 3/108=0194600000) opt
 \\H17 C24 S6 N3 O3\\0,1\C,10.5409986174,1.7684549983,0.3470498104\C,9.
 5216190132,2.5828443514,0.7729113859\N,8.256664935,2.0547105215,0.7075
 606469\C,8.2907451827,0.8263277618,0.2296160586\S,9.9028645445,0.24460
 95929,-0.1713960868\C,7.0994578608,0.0212850617,0.0506158367\C,6.96923
 1287,-1.2741420088,-0.4402858094\O,8.081077398,-1.9543445642,-0.828728
 8862\C,7.8864062645,-3.2722410147,-1.3319750472\C,5.6186935071,-1.7290
 722865,-0.4846051865\C,4.7284290834,-0.7767578312,-0.0146475559\S,5.54
 48786638,0.6776626139,0.4832701529\C,3.2828459113,-0.9143906647,0.1023
 097443\C,2.547208711,-2.0718467478,0.2767708642\N,1.1897583803,-1.9359
 534631,0.3444925997\C,0.8412786268,-0.6671843708,0.2331754823\S,2.1873
 489509,0.4446608138,0.0201426404\C,-0.5345207461,-0.2247144879,0.27904
 75681\C,-1.052725309,1.0635405203,0.1807065639\O,-0.2030715389,2.11041
 1503,0.0134849084\C,-0.7840273093,3.4092993415,-0.060643246\C,-2.47361
 5692,1.109177306,0.2813783315\C,-3.0292782337,-0.1485708771,0.45421044
 73\S,-1.8123553538,-1.3938802511,0.4765553984\C,-4.4351186325,-0.49295
 15828,0.6068353841\C,-4.9993088287,-1.6211925945,1.1720437489\N,-6.363
 8622437,-1.6869971788,1.1868133388\C,-6.8903663921,-0.6094458209,0.637
 3856533\S,-5.7143946334,0.5598663056,0.0506394485\C,-8.3191072893,-0.4
 025920766,0.5239685441\C,-9.0156095825,0.6675152225,-0.0302595749\O,-8
 .3241665379,1.71104038,-0.5619320728\C,-9.0910657931,2.7728795142,-1.1
 216356686\C,-10.43527456,0.5107922389,0.0408251313\C,-10.7833952197,-0
 .6750459541,0.6472631785\S,-9.4194752532,-1.6077982139,1.1351996286\H,
 11.6138037287,1.9770277976,0.3103597911\H,9.6546143403,3.6029207516,1.
 1523032557\H,7.4228771975,-3.9323938289,-0.5700103097\H,7.2584229648,-
 3.2682478372,-2.2467837592\H,8.8905179336,-3.6538007379,-1.5817383995\
 H,5.2967088592,-2.7004838422,-0.8707438593\H,2.9909267705,-3.068815684
 1,0.3841101569\H,-1.3289525272,3.6618393299,0.87215181\H,0.056530237,4
 .1105301893,-0.1932609164\H,-1.4731304746,3.4945932616,-0.9259767663\H
 ,-3.0737881684,2.0237421407,0.252978223\H,-4.4193552697,-2.4408155858,
 1.6139919919\H,-8.3617578256,3.5093790362,-1.4982459364\H,-9.72014955,
 2.4175820979,-1.9636930314\H,-9.7354282484,3.2537522916,-0.3569808188\
 H,-11.1661511546,1.2328596506,-0.3350399172\H,-11.7935346019,-1.051514
 0886,0.8335091239\\Version=EM64L-G16RevA.03\State=1-A\HF=-3701.9470449
 \S2=0.\S2-1=0.\S2A=0.\RMSD=5.150e-09\RMSF=3.001e-06\Dipole=-1.4715429,
 1.053908,-1.0377503\Quadrupole=29.4699402,-3.4462527,-26.0236875,-33.1
 360819,1.667064,0.4529117\PG=C01 [X(C24H17N3O3S6)]\\@


 NEVER LISTEN TO CRITICISM
 OR YOU'LL BE DOIN' EVERYBODY ELSE'S THING BUT BUT YOUR OWN.

                                               -- ANDY CAPP
 Job cpu time:       0 days 23 hours 48 minutes 30.7 seconds.
 Elapsed time:       0 days  3 hours  3 minutes 42.5 seconds.
 File lengths (MBytes):  RWF=    472 Int=      0 D2E=      0 Chk=     44 Scr=      8
 Normal termination of Gaussian 16 at Sat Jul 25 06:28:12 2020.
