 Entering Gaussian System, Link 0=g16
 Input=mols_65_5_36_cOC-cOC-C_opt_0.gjf
 Output=mols_65_5_36_cOC-cOC-C_opt_0.log
 Initial command:
 /opt/ohpc/pub/libs/gaussian/g16-A.03/sandybridge/g16/l1.exe "/mnt/gpfs2_4m/scratch/rdu230/ondemand/projects/dihedral_energies/7trial/wtuning/mols_65_5_36_cOC-cOC-C/Gau-278878.inp" -scrdir="/mnt/gpfs2_4m/scratch/rdu230/ondemand/projects/dihedral_energies/7trial/wtuning/mols_65_5_36_cOC-cOC-C/"
 Entering Link 1 = /opt/ohpc/pub/libs/gaussian/g16-A.03/sandybridge/g16/l1.exe PID=    278879.
  
 Copyright (c) 1988,1990,1992,1993,1995,1998,2003,2009,2016,
            Gaussian, Inc.  All Rights Reserved.
  
 This is part of the Gaussian(R) 16 program.  It is based on
 the Gaussian(R) 09 system (copyright 2009, Gaussian, Inc.),
 the Gaussian(R) 03 system (copyright 2003, Gaussian, Inc.),
 the Gaussian(R) 98 system (copyright 1998, Gaussian, Inc.),
 the Gaussian(R) 94 system (copyright 1995, Gaussian, Inc.),
 the Gaussian 92(TM) system (copyright 1992, Gaussian, Inc.),
 the Gaussian 90(TM) system (copyright 1990, Gaussian, Inc.),
 the Gaussian 88(TM) system (copyright 1988, Gaussian, Inc.),
 the Gaussian 86(TM) system (copyright 1986, Carnegie Mellon
 University), and the Gaussian 82(TM) system (copyright 1983,
 Carnegie Mellon University). Gaussian is a federally registered
 trademark of Gaussian, Inc.
  
 This software contains proprietary and confidential information,
 including trade secrets, belonging to Gaussian, Inc.
  
 This software is provided under written license and may be
 used, copied, transmitted, or stored only in accord with that
 written license.
  
 The following legend is applicable only to US Government
 contracts under FAR:
  
                    RESTRICTED RIGHTS LEGEND
  
 Use, reproduction and disclosure by the US Government is
 subject to restrictions as set forth in subparagraphs (a)
 and (c) of the Commercial Computer Software - Restricted
 Rights clause in FAR 52.227-19.
  
 Gaussian, Inc.
 340 Quinnipiac St., Bldg. 40, Wallingford CT 06492
  
  
 ---------------------------------------------------------------
 Warning -- This program may not be used in any manner that
 competes with the business of Gaussian, Inc. or will provide
 assistance to any competitor of Gaussian, Inc.  The licensee
 of this program is prohibited from giving any competitor of
 Gaussian, Inc. access to this program.  By using this program,
 the user acknowledges that Gaussian, Inc. is engaged in the
 business of creating and licensing software in the field of
 computational chemistry and represents and warrants to the
 licensee that it is not a competitor of Gaussian, Inc. and that
 it will not use this program in any manner prohibited above.
 ---------------------------------------------------------------
  

 Cite this work as:
 Gaussian 16, Revision A.03,
 M. J. Frisch, G. W. Trucks, H. B. Schlegel, G. E. Scuseria, 
 M. A. Robb, J. R. Cheeseman, G. Scalmani, V. Barone, 
 G. A. Petersson, H. Nakatsuji, X. Li, M. Caricato, A. V. Marenich, 
 J. Bloino, B. G. Janesko, R. Gomperts, B. Mennucci, H. P. Hratchian, 
 J. V. Ortiz, A. F. Izmaylov, J. L. Sonnenberg, D. Williams-Young, 
 F. Ding, F. Lipparini, F. Egidi, J. Goings, B. Peng, A. Petrone, 
 T. Henderson, D. Ranasinghe, V. G. Zakrzewski, J. Gao, N. Rega, 
 G. Zheng, W. Liang, M. Hada, M. Ehara, K. Toyota, R. Fukuda, 
 J. Hasegawa, M. Ishida, T. Nakajima, Y. Honda, O. Kitao, H. Nakai, 
 T. Vreven, K. Throssell, J. A. Montgomery, Jr., J. E. Peralta, 
 F. Ogliaro, M. J. Bearpark, J. J. Heyd, E. N. Brothers, K. N. Kudin, 
 V. N. Staroverov, T. A. Keith, R. Kobayashi, J. Normand, 
 K. Raghavachari, A. P. Rendell, J. C. Burant, S. S. Iyengar, 
 J. Tomasi, M. Cossi, J. M. Millam, M. Klene, C. Adamo, R. Cammi, 
 J. W. Ochterski, R. L. Martin, K. Morokuma, O. Farkas, 
 J. B. Foresman, and D. J. Fox, Gaussian, Inc., Wallingford CT, 2016.
 
 ******************************************
 Gaussian 16:  EM64L-G16RevA.03 25-Dec-2016
                23-Jul-2020 
 ******************************************
 %mem=30GB
 %nproc=8
 Will use up to    8 processors via shared memory.
 ---------------------------------------------------------------
 #P uLC-wPBE/cc-pVDZ iop(3/107=0432700000, 3/108=0432700000) opt
 ---------------------------------------------------------------
 1/18=20,19=15,26=3,38=1/1,3;
 2/9=110,12=2,17=6,18=5,40=1/2;
 3/5=16,11=2,25=1,30=1,71=1,74=-41,107=432700000,108=432700000,116=2/1,2,3;
 4//1;
 5/5=2,38=5/2;
 6/7=2,8=2,9=2,10=2,28=1/1;
 7//1,2,3,16;
 1/18=20,19=15,26=3/3(2);
 2/9=110/2;
 99//99;
 2/9=110/2;
 3/5=16,11=2,25=1,30=1,71=1,74=-41,107=432700000,108=432700000,116=2/1,2,3;
 4/5=5,16=3,69=1/1;
 5/5=2,38=5/2;
 7//1,2,3,16;
 1/18=20,19=15,26=3/3(-5);
 2/9=110/2;
 6/7=2,8=2,9=2,10=2,19=2,28=1/1;
 99/9=1/99;
 Leave Link    1 at Thu Jul 23 20:18:41 2020, MaxMem=  4026531840 cpu:               2.2 elap:               0.3
 (Enter /opt/ohpc/pub/libs/gaussian/g16-A.03/sandybridge/g16/l101.exe)
 --------------
 H52 C60 S5 O10
 --------------
 Symbolic Z-matrix:
 Charge =  0 Multiplicity = 1
 C                    -18.60829  -2.12071   0.6652 
 C                    -17.9692  -2.33831  -0.65915 
 C                    -16.62962  -2.32074  -0.72486 
 O                    -15.97291  -2.52161  -1.92654 
 C                    -16.66171  -3.04792  -3.05295 
 C                    -15.79701  -1.96917   0.39152 
 C                    -16.41751  -1.81617   1.59547 
 O                    -15.62782  -1.64181   2.73974 
 C                    -16.01542  -0.54781   3.56368 
 C                    -17.83761  -1.87166   1.77338 
 C                    -14.3049  -1.97341   0.2308 
 C                    -13.42169  -3.02515   0.1101 
 C                    -12.1355  -2.64286   0.00441 
 C                    -11.93112  -1.27964   0.10255 
 S                    -13.47615  -0.47184   0.31369 
 C                    -10.78367  -0.46447   0.00518 
 C                    -10.39111   0.39903   0.97445 
 C                    -9.19881   1.13557   0.87314 
 O                    -8.75538   2.09512   1.87016 
 C                    -9.65305   2.52162   2.81072 
 C                    -8.38509   0.99484  -0.27266 
 C                    -8.77991   0.08899  -1.25703 
 O                    -7.95497   0.07341  -2.40645 
 C                    -7.62413  -1.28711  -2.74372 
 C                    -9.94736  -0.56013  -1.1266 
 C                    -7.12267   1.79123  -0.38309 
 C                    -6.89624   3.14585  -0.65467 
 C                    -5.51282   3.49735  -0.71459 
 C                    -4.6916    2.35877  -0.58392 
 S                    -5.55243   0.96469  -0.21106 
 C                    -3.17283   2.32568  -0.60058 
 C                    -2.41199   3.3358    0.04094 
 C                    -1.01835   3.32117  -0.06694 
 O                    -0.27282   4.32869   0.48831 
 C                    -0.89176   5.48579   0.97817 
 C                    -0.41421   2.30331  -0.76463 
 C                    -1.13649   1.30384  -1.37127 
 O                    -0.50201   0.35865  -2.10889 
 C                    -0.76967  -1.04253  -1.56571 
 C                    -2.52544   1.31134  -1.32128 
 C                     1.07549   2.29783  -0.78368 
 C                     1.91736   3.11869  -1.59406 
 C                     3.30894   2.77419  -1.45336 
 C                     3.50175   1.78143  -0.54725 
 S                     2.01972   1.13915   0.10561 
 C                     4.72152   1.11149  -0.16227 
 C                     5.8024    1.98784   0.24817 
 C                     6.98318   1.4283    0.63555 
 O                     8.06729   2.23419   1.12559 
 C                     8.39032   3.31324   0.29283 
 C                     7.23915   0.05958   0.48673 
 C                     6.19802  -0.82831   0.11993 
 O                     6.48161  -2.17625   0.00221 
 C                     5.43832  -3.00082  -0.15516 
 C                     4.94212  -0.26224  -0.24007 
 C                     8.57455  -0.47061   0.91134 
 C                     8.94394  -1.36661   1.90665 
 C                     10.26611  -1.63334   1.9284 
 C                     10.97292  -1.04975   0.95265 
 S                     9.89754  -0.14418  -0.10959 
 C                     12.38355  -1.14602   0.63049 
 C                     13.05008  -2.36713   0.51958 
 C                     14.39322  -2.42661   0.18417 
 O                     15.04565  -3.63174   0.01944 
 C                     14.83412  -4.626     1.07954 
 C                     15.16182  -1.31129   0.05034 
 C                     14.55207  -0.01127   0.13117 
 O                     15.32914   1.05225  -0.10568 
 C                     14.63631   2.18228  -0.78143 
 C                     13.21643   0.01833   0.39133 
 C                     16.60598  -1.32701  -0.28096 
 C                     17.22089  -1.19796  -1.5311 
 C                     18.65706  -1.31325  -1.40162 
 C                     19.06348  -1.52879  -0.10936 
 S                     17.70184  -1.60498   0.94926 
 H                    -19.66339  -2.12235   0.76228 
 H                    -18.59161  -2.48914  -1.48767 
 H                    -16.01442  -3.28204  -3.79517 
 H                    -17.1606  -4.03207  -2.73727 
 H                    -17.41646  -2.2864   -3.40613 
 H                    -16.33681   0.31389   3.01192 
 H                    -15.21331  -0.31671   4.23101 
 H                    -16.78278  -0.90615   4.26039 
 H                    -18.30436  -1.68337   2.74182 
 H                    -13.80597  -4.10153   0.15332 
 H                    -11.27523  -3.34154  -0.10114 
 H                    -10.96058   0.50681   1.82951 
 H                    -10.64412   2.88899   2.29561 
 H                    -9.20295   3.32032   3.33419 
 H                    -9.94323   1.7438    3.46763 
 H                    -6.85258  -1.29988  -3.4552 
 H                    -7.32665  -1.94087  -1.92492 
 H                    -8.49833  -1.81361  -3.26753 
 H                    -10.21649  -1.26977  -1.94668 
 H                    -7.7354    3.7681   -0.73105 
 H                    -5.14038   4.49263  -0.93847 
 H                    -3.02169   4.06377   0.56215 
 H                    -1.46375   5.25095   1.8814 
 H                    -1.57463   5.91795   0.23488 
 H                    -0.08554   6.18153   1.31626 
 H                    -1.72824  -1.34051  -1.80302 
 H                    -0.06846  -1.7233   -2.11942 
 H                    -0.56169  -1.09011  -0.46886 
 H                    -3.10298   0.59331  -1.82598 
 H                     1.44011   3.86668  -2.26967 
 H                     4.06347   3.32123  -1.95898 
 H                     5.62105   2.99633   0.41957 
 H                     8.46324   2.95255  -0.73665 
 H                     9.29236   3.77762   0.59691 
 H                     7.61288   4.14806   0.35226 
 H                     5.01644  -2.91525  -1.15096 
 H                     5.79014  -4.07406  -0.12688 
 H                     4.61222  -2.85256   0.54246 
 H                     4.18535  -0.9005   -0.64197 
 H                     8.15415  -1.73109   2.65968 
 H                     10.72171  -2.29599   2.67501 
 H                     12.49643  -3.32044   0.58418 
 H                     15.59297  -5.42596   1.01451 
 H                     15.00787  -4.06488   2.09883 
 H                     13.82414  -5.08765   1.02858 
 H                     13.97446   2.74972  -0.10942 
 H                     15.45371   2.78301  -1.12715 
 H                     14.10586   1.75022  -1.69383 
 H                     12.64841   0.9953    0.57471 
 H                     16.70179  -1.11829  -2.43182 
 H                     19.31581  -1.28845  -2.21165 
 H                     20.05563  -1.65427   0.25086 
 
 ITRead=  0  0  0  0  0  0  0  0  0  0  0  0  0  0  0  0  0  0  0  0
 ITRead=  0  0  0  0  0  0  0  0  0  0  0  0  0  0  0  0  0  0  0  0
 ITRead=  0  0  0  0  0  0  0  0  0  0  0  0  0  0  0  0  0  0  0  0
 ITRead=  0  0  0  0  0  0  0  0  0  0  0  0  0  0  0  0  0  0  0  0
 ITRead=  0  0  0  0  0  0  0  0  0  0  0  0  0  0  0  0  0  0  0  0
 ITRead=  0  0  0  0  0  0  0  0  0  0  0  0  0  0  0  0  0  0  0  0
 ITRead=  0  0  0  0  0  0  0
 MicOpt= -1 -1 -1 -1 -1 -1 -1 -1 -1 -1 -1 -1 -1 -1 -1 -1 -1 -1 -1 -1
 MicOpt= -1 -1 -1 -1 -1 -1 -1 -1 -1 -1 -1 -1 -1 -1 -1 -1 -1 -1 -1 -1
 MicOpt= -1 -1 -1 -1 -1 -1 -1 -1 -1 -1 -1 -1 -1 -1 -1 -1 -1 -1 -1 -1
 MicOpt= -1 -1 -1 -1 -1 -1 -1 -1 -1 -1 -1 -1 -1 -1 -1 -1 -1 -1 -1 -1
 MicOpt= -1 -1 -1 -1 -1 -1 -1 -1 -1 -1 -1 -1 -1 -1 -1 -1 -1 -1 -1 -1
 MicOpt= -1 -1 -1 -1 -1 -1 -1 -1 -1 -1 -1 -1 -1 -1 -1 -1 -1 -1 -1 -1
 MicOpt= -1 -1 -1 -1 -1 -1 -1
 NAtoms=    127 NQM=      127 NQMF=       0 NMMI=      0 NMMIF=      0
                NMic=       0 NMicF=      0.
                    Isotopes and Nuclear Properties:
 (Nuclear quadrupole moments (NQMom) in fm**2, nuclear magnetic moments (NMagM)
  in nuclear magnetons)

  Atom         1           2           3           4           5           6           7           8           9          10
 IAtWgt=          12          12          12          16          12          12          12          16          12          12
 AtmWgt=  12.0000000  12.0000000  12.0000000  15.9949146  12.0000000  12.0000000  12.0000000  15.9949146  12.0000000  12.0000000
 NucSpn=           0           0           0           0           0           0           0           0           0           0
 AtZEff=  -0.0000000  -0.0000000  -0.0000000  -0.0000000  -0.0000000  -0.0000000  -0.0000000  -0.0000000  -0.0000000  -0.0000000
 NQMom=    0.0000000   0.0000000   0.0000000   0.0000000   0.0000000   0.0000000   0.0000000   0.0000000   0.0000000   0.0000000
 NMagM=    0.0000000   0.0000000   0.0000000   0.0000000   0.0000000   0.0000000   0.0000000   0.0000000   0.0000000   0.0000000
 AtZNuc=   6.0000000   6.0000000   6.0000000   8.0000000   6.0000000   6.0000000   6.0000000   8.0000000   6.0000000   6.0000000

  Atom        11          12          13          14          15          16          17          18          19          20
 IAtWgt=          12          12          12          12          32          12          12          12          16          12
 AtmWgt=  12.0000000  12.0000000  12.0000000  12.0000000  31.9720718  12.0000000  12.0000000  12.0000000  15.9949146  12.0000000
 NucSpn=           0           0           0           0           0           0           0           0           0           0
 AtZEff=  -0.0000000  -0.0000000  -0.0000000  -0.0000000  -0.0000000  -0.0000000  -0.0000000  -0.0000000  -0.0000000  -0.0000000
 NQMom=    0.0000000   0.0000000   0.0000000   0.0000000   0.0000000   0.0000000   0.0000000   0.0000000   0.0000000   0.0000000
 NMagM=    0.0000000   0.0000000   0.0000000   0.0000000   0.0000000   0.0000000   0.0000000   0.0000000   0.0000000   0.0000000
 AtZNuc=   6.0000000   6.0000000   6.0000000   6.0000000  16.0000000   6.0000000   6.0000000   6.0000000   8.0000000   6.0000000

  Atom        21          22          23          24          25          26          27          28          29          30
 IAtWgt=          12          12          16          12          12          12          12          12          12          32
 AtmWgt=  12.0000000  12.0000000  15.9949146  12.0000000  12.0000000  12.0000000  12.0000000  12.0000000  12.0000000  31.9720718
 NucSpn=           0           0           0           0           0           0           0           0           0           0
 AtZEff=  -0.0000000  -0.0000000  -0.0000000  -0.0000000  -0.0000000  -0.0000000  -0.0000000  -0.0000000  -0.0000000  -0.0000000
 NQMom=    0.0000000   0.0000000   0.0000000   0.0000000   0.0000000   0.0000000   0.0000000   0.0000000   0.0000000   0.0000000
 NMagM=    0.0000000   0.0000000   0.0000000   0.0000000   0.0000000   0.0000000   0.0000000   0.0000000   0.0000000   0.0000000
 AtZNuc=   6.0000000   6.0000000   8.0000000   6.0000000   6.0000000   6.0000000   6.0000000   6.0000000   6.0000000  16.0000000

  Atom        31          32          33          34          35          36          37          38          39          40
 IAtWgt=          12          12          12          16          12          12          12          16          12          12
 AtmWgt=  12.0000000  12.0000000  12.0000000  15.9949146  12.0000000  12.0000000  12.0000000  15.9949146  12.0000000  12.0000000
 NucSpn=           0           0           0           0           0           0           0           0           0           0
 AtZEff=  -0.0000000  -0.0000000  -0.0000000  -0.0000000  -0.0000000  -0.0000000  -0.0000000  -0.0000000  -0.0000000  -0.0000000
 NQMom=    0.0000000   0.0000000   0.0000000   0.0000000   0.0000000   0.0000000   0.0000000   0.0000000   0.0000000   0.0000000
 NMagM=    0.0000000   0.0000000   0.0000000   0.0000000   0.0000000   0.0000000   0.0000000   0.0000000   0.0000000   0.0000000
 AtZNuc=   6.0000000   6.0000000   6.0000000   8.0000000   6.0000000   6.0000000   6.0000000   8.0000000   6.0000000   6.0000000

  Atom        41          42          43          44          45          46          47          48          49          50
 IAtWgt=          12          12          12          12          32          12          12          12          16          12
 AtmWgt=  12.0000000  12.0000000  12.0000000  12.0000000  31.9720718  12.0000000  12.0000000  12.0000000  15.9949146  12.0000000
 NucSpn=           0           0           0           0           0           0           0           0           0           0
 AtZEff=  -0.0000000  -0.0000000  -0.0000000  -0.0000000  -0.0000000  -0.0000000  -0.0000000  -0.0000000  -0.0000000  -0.0000000
 NQMom=    0.0000000   0.0000000   0.0000000   0.0000000   0.0000000   0.0000000   0.0000000   0.0000000   0.0000000   0.0000000
 NMagM=    0.0000000   0.0000000   0.0000000   0.0000000   0.0000000   0.0000000   0.0000000   0.0000000   0.0000000   0.0000000
 AtZNuc=   6.0000000   6.0000000   6.0000000   6.0000000  16.0000000   6.0000000   6.0000000   6.0000000   8.0000000   6.0000000

  Atom        51          52          53          54          55          56          57          58          59          60
 IAtWgt=          12          12          16          12          12          12          12          12          12          32
 AtmWgt=  12.0000000  12.0000000  15.9949146  12.0000000  12.0000000  12.0000000  12.0000000  12.0000000  12.0000000  31.9720718
 NucSpn=           0           0           0           0           0           0           0           0           0           0
 AtZEff=  -0.0000000  -0.0000000  -0.0000000  -0.0000000  -0.0000000  -0.0000000  -0.0000000  -0.0000000  -0.0000000  -0.0000000
 NQMom=    0.0000000   0.0000000   0.0000000   0.0000000   0.0000000   0.0000000   0.0000000   0.0000000   0.0000000   0.0000000
 NMagM=    0.0000000   0.0000000   0.0000000   0.0000000   0.0000000   0.0000000   0.0000000   0.0000000   0.0000000   0.0000000
 AtZNuc=   6.0000000   6.0000000   8.0000000   6.0000000   6.0000000   6.0000000   6.0000000   6.0000000   6.0000000  16.0000000

  Atom        61          62          63          64          65          66          67          68          69          70
 IAtWgt=          12          12          12          16          12          12          12          16          12          12
 AtmWgt=  12.0000000  12.0000000  12.0000000  15.9949146  12.0000000  12.0000000  12.0000000  15.9949146  12.0000000  12.0000000
 NucSpn=           0           0           0           0           0           0           0           0           0           0
 AtZEff=  -0.0000000  -0.0000000  -0.0000000  -0.0000000  -0.0000000  -0.0000000  -0.0000000  -0.0000000  -0.0000000  -0.0000000
 NQMom=    0.0000000   0.0000000   0.0000000   0.0000000   0.0000000   0.0000000   0.0000000   0.0000000   0.0000000   0.0000000
 NMagM=    0.0000000   0.0000000   0.0000000   0.0000000   0.0000000   0.0000000   0.0000000   0.0000000   0.0000000   0.0000000
 AtZNuc=   6.0000000   6.0000000   6.0000000   8.0000000   6.0000000   6.0000000   6.0000000   8.0000000   6.0000000   6.0000000

  Atom        71          72          73          74          75          76          77          78          79          80
 IAtWgt=          12          12          12          12          32           1           1           1           1           1
 AtmWgt=  12.0000000  12.0000000  12.0000000  12.0000000  31.9720718   1.0078250   1.0078250   1.0078250   1.0078250   1.0078250
 NucSpn=           0           0           0           0           0           1           1           1           1           1
 AtZEff=  -0.0000000  -0.0000000  -0.0000000  -0.0000000  -0.0000000  -0.0000000  -0.0000000  -0.0000000  -0.0000000  -0.0000000
 NQMom=    0.0000000   0.0000000   0.0000000   0.0000000   0.0000000   0.0000000   0.0000000   0.0000000   0.0000000   0.0000000
 NMagM=    0.0000000   0.0000000   0.0000000   0.0000000   0.0000000   2.7928460   2.7928460   2.7928460   2.7928460   2.7928460
 AtZNuc=   6.0000000   6.0000000   6.0000000   6.0000000  16.0000000   1.0000000   1.0000000   1.0000000   1.0000000   1.0000000

  Atom        81          82          83          84          85          86          87          88          89          90
 IAtWgt=           1           1           1           1           1           1           1           1           1           1
 AtmWgt=   1.0078250   1.0078250   1.0078250   1.0078250   1.0078250   1.0078250   1.0078250   1.0078250   1.0078250   1.0078250
 NucSpn=           1           1           1           1           1           1           1           1           1           1
 AtZEff=  -0.0000000  -0.0000000  -0.0000000  -0.0000000  -0.0000000  -0.0000000  -0.0000000  -0.0000000  -0.0000000  -0.0000000
 NQMom=    0.0000000   0.0000000   0.0000000   0.0000000   0.0000000   0.0000000   0.0000000   0.0000000   0.0000000   0.0000000
 NMagM=    2.7928460   2.7928460   2.7928460   2.7928460   2.7928460   2.7928460   2.7928460   2.7928460   2.7928460   2.7928460
 AtZNuc=   1.0000000   1.0000000   1.0000000   1.0000000   1.0000000   1.0000000   1.0000000   1.0000000   1.0000000   1.0000000

  Atom        91          92          93          94          95          96          97          98          99         100
 IAtWgt=           1           1           1           1           1           1           1           1           1           1
 AtmWgt=   1.0078250   1.0078250   1.0078250   1.0078250   1.0078250   1.0078250   1.0078250   1.0078250   1.0078250   1.0078250
 NucSpn=           1           1           1           1           1           1           1           1           1           1
 AtZEff=  -0.0000000  -0.0000000  -0.0000000  -0.0000000  -0.0000000  -0.0000000  -0.0000000  -0.0000000  -0.0000000  -0.0000000
 NQMom=    0.0000000   0.0000000   0.0000000   0.0000000   0.0000000   0.0000000   0.0000000   0.0000000   0.0000000   0.0000000
 NMagM=    2.7928460   2.7928460   2.7928460   2.7928460   2.7928460   2.7928460   2.7928460   2.7928460   2.7928460   2.7928460
 AtZNuc=   1.0000000   1.0000000   1.0000000   1.0000000   1.0000000   1.0000000   1.0000000   1.0000000   1.0000000   1.0000000

  Atom       101         102         103         104         105         106         107         108         109         110
 IAtWgt=           1           1           1           1           1           1           1           1           1           1
 AtmWgt=   1.0078250   1.0078250   1.0078250   1.0078250   1.0078250   1.0078250   1.0078250   1.0078250   1.0078250   1.0078250
 NucSpn=           1           1           1           1           1           1           1           1           1           1
 AtZEff=  -0.0000000  -0.0000000  -0.0000000  -0.0000000  -0.0000000  -0.0000000  -0.0000000  -0.0000000  -0.0000000  -0.0000000
 NQMom=    0.0000000   0.0000000   0.0000000   0.0000000   0.0000000   0.0000000   0.0000000   0.0000000   0.0000000   0.0000000
 NMagM=    2.7928460   2.7928460   2.7928460   2.7928460   2.7928460   2.7928460   2.7928460   2.7928460   2.7928460   2.7928460
 AtZNuc=   1.0000000   1.0000000   1.0000000   1.0000000   1.0000000   1.0000000   1.0000000   1.0000000   1.0000000   1.0000000

  Atom       111         112         113         114         115         116         117         118         119         120
 IAtWgt=           1           1           1           1           1           1           1           1           1           1
 AtmWgt=   1.0078250   1.0078250   1.0078250   1.0078250   1.0078250   1.0078250   1.0078250   1.0078250   1.0078250   1.0078250
 NucSpn=           1           1           1           1           1           1           1           1           1           1
 AtZEff=  -0.0000000  -0.0000000  -0.0000000  -0.0000000  -0.0000000  -0.0000000  -0.0000000  -0.0000000  -0.0000000  -0.0000000
 NQMom=    0.0000000   0.0000000   0.0000000   0.0000000   0.0000000   0.0000000   0.0000000   0.0000000   0.0000000   0.0000000
 NMagM=    2.7928460   2.7928460   2.7928460   2.7928460   2.7928460   2.7928460   2.7928460   2.7928460   2.7928460   2.7928460
 AtZNuc=   1.0000000   1.0000000   1.0000000   1.0000000   1.0000000   1.0000000   1.0000000   1.0000000   1.0000000   1.0000000

  Atom       121         122         123         124         125         126         127
 IAtWgt=           1           1           1           1           1           1           1
 AtmWgt=   1.0078250   1.0078250   1.0078250   1.0078250   1.0078250   1.0078250   1.0078250
 NucSpn=           1           1           1           1           1           1           1
 AtZEff=  -0.0000000  -0.0000000  -0.0000000  -0.0000000  -0.0000000  -0.0000000  -0.0000000
 NQMom=    0.0000000   0.0000000   0.0000000   0.0000000   0.0000000   0.0000000   0.0000000
 NMagM=    2.7928460   2.7928460   2.7928460   2.7928460   2.7928460   2.7928460   2.7928460
 AtZNuc=   1.0000000   1.0000000   1.0000000   1.0000000   1.0000000   1.0000000   1.0000000
 Leave Link  101 at Thu Jul 23 20:18:42 2020, MaxMem=  4026531840 cpu:               3.5 elap:               0.5
 (Enter /opt/ohpc/pub/libs/gaussian/g16-A.03/sandybridge/g16/l103.exe)

 GradGradGradGradGradGradGradGradGradGradGradGradGradGradGradGradGradGrad
 Berny optimization.
 Initialization pass.
                           ----------------------------
                           !    Initial Parameters    !
                           ! (Angstroms and Degrees)  !
 --------------------------                            --------------------------
 ! Name  Definition              Value          Derivative Info.                !
 --------------------------------------------------------------------------------
 ! R1    R(1,2)                  1.4865         estimate D2E/DX2                !
 ! R2    R(1,10)                 1.3726         estimate D2E/DX2                !
 ! R3    R(1,76)                 1.0596         estimate D2E/DX2                !
 ! R4    R(2,3)                  1.3413         estimate D2E/DX2                !
 ! R5    R(2,77)                 1.0472         estimate D2E/DX2                !
 ! R6    R(3,4)                  1.3841         estimate D2E/DX2                !
 ! R7    R(3,6)                  1.4364         estimate D2E/DX2                !
 ! R8    R(4,5)                  1.4214         estimate D2E/DX2                !
 ! R9    R(5,78)                 1.0123         estimate D2E/DX2                !
 ! R10   R(5,79)                 1.1477         estimate D2E/DX2                !
 ! R11   R(5,80)                 1.1288         estimate D2E/DX2                !
 ! R12   R(6,7)                  1.3631         estimate D2E/DX2                !
 ! R13   R(6,11)                 1.5008         estimate D2E/DX2                !
 ! R14   R(7,8)                  1.4012         estimate D2E/DX2                !
 ! R15   R(7,10)                 1.4323         estimate D2E/DX2                !
 ! R16   R(8,9)                  1.4234         estimate D2E/DX2                !
 ! R17   R(9,81)                 1.0725         estimate D2E/DX2                !
 ! R18   R(9,82)                 1.0687         estimate D2E/DX2                !
 ! R19   R(9,83)                 1.0967         estimate D2E/DX2                !
 ! R20   R(10,84)                1.0914         estimate D2E/DX2                !
 ! R21   R(11,12)                1.3787         estimate D2E/DX2                !
 ! R22   R(11,15)                1.7171         estimate D2E/DX2                !
 ! R23   R(12,13)                1.346          estimate D2E/DX2                !
 ! R24   R(12,85)                1.1437         estimate D2E/DX2                !
 ! R25   R(13,14)                1.3819         estimate D2E/DX2                !
 ! R26   R(13,86)                1.1133         estimate D2E/DX2                !
 ! R27   R(14,15)                1.7562         estimate D2E/DX2                !
 ! R28   R(14,16)                1.4109         estimate D2E/DX2                !
 ! R29   R(16,17)                1.3562         estimate D2E/DX2                !
 ! R30   R(16,25)                1.4105         estimate D2E/DX2                !
 ! R31   R(17,18)                1.4051         estimate D2E/DX2                !
 ! R32   R(17,87)                1.033          estimate D2E/DX2                !
 ! R33   R(18,19)                1.4531         estimate D2E/DX2                !
 ! R34   R(18,21)                1.4124         estimate D2E/DX2                !
 ! R35   R(19,20)                1.3683         estimate D2E/DX2                !
 ! R36   R(20,88)                1.1758         estimate D2E/DX2                !
 ! R37   R(20,89)                1.0557         estimate D2E/DX2                !
 ! R38   R(20,90)                1.0587         estimate D2E/DX2                !
 ! R39   R(21,22)                1.3948         estimate D2E/DX2                !
 ! R40   R(21,26)                1.4967         estimate D2E/DX2                !
 ! R41   R(22,23)                1.4149         estimate D2E/DX2                !
 ! R42   R(22,25)                1.3421         estimate D2E/DX2                !
 ! R43   R(23,24)                1.4402         estimate D2E/DX2                !
 ! R44   R(24,91)                1.0496         estimate D2E/DX2                !
 ! R45   R(24,92)                1.0892         estimate D2E/DX2                !
 ! R46   R(24,93)                1.1471         estimate D2E/DX2                !
 ! R47   R(25,94)                1.1174         estimate D2E/DX2                !
 ! R48   R(26,27)                1.4            estimate D2E/DX2                !
 ! R49   R(26,30)                1.7828         estimate D2E/DX2                !
 ! R50   R(27,28)                1.4286         estimate D2E/DX2                !
 ! R51   R(27,95)                1.0475         estimate D2E/DX2                !
 ! R52   R(28,29)                1.4099         estimate D2E/DX2                !
 ! R53   R(28,96)                1.086          estimate D2E/DX2                !
 ! R54   R(29,30)                1.6803         estimate D2E/DX2                !
 ! R55   R(29,31)                1.5192         estimate D2E/DX2                !
 ! R56   R(31,32)                1.418          estimate D2E/DX2                !
 ! R57   R(31,40)                1.4026         estimate D2E/DX2                !
 ! R58   R(32,33)                1.3979         estimate D2E/DX2                !
 ! R59   R(32,97)                1.0832         estimate D2E/DX2                !
 ! R60   R(33,34)                1.3709         estimate D2E/DX2                !
 ! R61   R(33,36)                1.374          estimate D2E/DX2                !
 ! R62   R(34,35)                1.4007         estimate D2E/DX2                !
 ! R63   R(35,98)                1.0946         estimate D2E/DX2                !
 ! R64   R(35,99)                1.098          estimate D2E/DX2                !
 ! R65   R(35,100)               1.1173         estimate D2E/DX2                !
 ! R66   R(36,37)                1.3743         estimate D2E/DX2                !
 ! R67   R(36,41)                1.4898         estimate D2E/DX2                !
 ! R68   R(37,38)                1.3565         estimate D2E/DX2                !
 ! R69   R(37,40)                1.3899         estimate D2E/DX2                !
 ! R70   R(38,39)                1.5264         estimate D2E/DX2                !
 ! R71   R(39,101)               1.0315         estimate D2E/DX2                !
 ! R72   R(39,102)               1.1233         estimate D2E/DX2                !
 ! R73   R(39,103)               1.1174         estimate D2E/DX2                !
 ! R74   R(40,104)               1.0506         estimate D2E/DX2                !
 ! R75   R(41,42)                1.428          estimate D2E/DX2                !
 ! R76   R(41,45)                1.7392         estimate D2E/DX2                !
 ! R77   R(42,43)                1.4405         estimate D2E/DX2                !
 ! R78   R(42,105)               1.1152         estimate D2E/DX2                !
 ! R79   R(43,44)                1.3579         estimate D2E/DX2                !
 ! R80   R(43,106)               1.0603         estimate D2E/DX2                !
 ! R81   R(44,45)                1.7422         estimate D2E/DX2                !
 ! R82   R(44,46)                1.4439         estimate D2E/DX2                !
 ! R83   R(46,47)                1.4508         estimate D2E/DX2                !
 ! R84   R(46,55)                1.3935         estimate D2E/DX2                !
 ! R85   R(47,48)                1.3629         estimate D2E/DX2                !
 ! R86   R(47,107)               1.0389         estimate D2E/DX2                !
 ! R87   R(48,49)                1.437          estimate D2E/DX2                !
 ! R88   R(48,51)                1.4004         estimate D2E/DX2                !
 ! R89   R(49,50)                1.4008         estimate D2E/DX2                !
 ! R90   R(50,108)               1.0933         estimate D2E/DX2                !
 ! R91   R(50,109)               1.0592         estimate D2E/DX2                !
 ! R92   R(50,110)               1.1423         estimate D2E/DX2                !
 ! R93   R(51,52)                1.4166         estimate D2E/DX2                !
 ! R94   R(51,56)                1.4982         estimate D2E/DX2                !
 ! R95   R(52,53)                1.3825         estimate D2E/DX2                !
 ! R96   R(52,55)                1.4238         estimate D2E/DX2                !
 ! R97   R(53,54)                1.3391         estimate D2E/DX2                !
 ! R98   R(54,111)               1.0849         estimate D2E/DX2                !
 ! R99   R(54,112)               1.1298         estimate D2E/DX2                !
 ! R100  R(54,113)               1.0914         estimate D2E/DX2                !
 ! R101  R(55,114)               1.0685         estimate D2E/DX2                !
 ! R102  R(56,57)                1.3892         estimate D2E/DX2                !
 ! R103  R(56,60)                1.7027         estimate D2E/DX2                !
 ! R104  R(57,58)                1.349          estimate D2E/DX2                !
 ! R105  R(57,115)               1.1505         estimate D2E/DX2                !
 ! R106  R(58,59)                1.3387         estimate D2E/DX2                !
 ! R107  R(58,116)               1.0973         estimate D2E/DX2                !
 ! R108  R(59,60)                1.7621         estimate D2E/DX2                !
 ! R109  R(59,61)                1.4502         estimate D2E/DX2                !
 ! R110  R(61,62)                1.3956         estimate D2E/DX2                !
 ! R111  R(61,70)                1.4514         estimate D2E/DX2                !
 ! R112  R(62,63)                1.3857         estimate D2E/DX2                !
 ! R113  R(62,117)               1.1043         estimate D2E/DX2                !
 ! R114  R(63,64)                1.3803         estimate D2E/DX2                !
 ! R115  R(63,66)                1.3611         estimate D2E/DX2                !
 ! R116  R(64,65)                1.4687         estimate D2E/DX2                !
 ! R117  R(65,118)               1.1045         estimate D2E/DX2                !
 ! R118  R(65,119)               1.1764         estimate D2E/DX2                !
 ! R119  R(65,120)               1.1117         estimate D2E/DX2                !
 ! R120  R(66,67)                1.4382         estimate D2E/DX2                !
 ! R121  R(66,71)                1.4818         estimate D2E/DX2                !
 ! R122  R(67,68)                1.3383         estimate D2E/DX2                !
 ! R123  R(67,70)                1.3611         estimate D2E/DX2                !
 ! R124  R(68,69)                1.4878         estimate D2E/DX2                !
 ! R125  R(69,121)               1.1007         estimate D2E/DX2                !
 ! R126  R(69,122)               1.0717         estimate D2E/DX2                !
 ! R127  R(69,123)               1.1404         estimate D2E/DX2                !
 ! R128  R(70,124)               1.1449         estimate D2E/DX2                !
 ! R129  R(71,72)                1.3991         estimate D2E/DX2                !
 ! R130  R(71,75)                1.6708         estimate D2E/DX2                !
 ! R131  R(72,73)                1.4466         estimate D2E/DX2                !
 ! R132  R(72,125)               1.0426         estimate D2E/DX2                !
 ! R133  R(73,74)                1.3717         estimate D2E/DX2                !
 ! R134  R(73,126)               1.0444         estimate D2E/DX2                !
 ! R135  R(74,75)                1.7264         estimate D2E/DX2                !
 ! R136  R(74,127)               1.0629         estimate D2E/DX2                !
 ! A1    A(2,1,10)             120.2955         estimate D2E/DX2                !
 ! A2    A(2,1,76)             120.6318         estimate D2E/DX2                !
 ! A3    A(10,1,76)            119.0398         estimate D2E/DX2                !
 ! A4    A(1,2,3)              118.1055         estimate D2E/DX2                !
 ! A5    A(1,2,77)             118.0629         estimate D2E/DX2                !
 ! A6    A(3,2,77)             123.8299         estimate D2E/DX2                !
 ! A7    A(2,3,4)              120.9637         estimate D2E/DX2                !
 ! A8    A(2,3,6)              122.9599         estimate D2E/DX2                !
 ! A9    A(4,3,6)              115.8037         estimate D2E/DX2                !
 ! A10   A(3,4,5)              120.7884         estimate D2E/DX2                !
 ! A11   A(4,5,78)             110.9063         estimate D2E/DX2                !
 ! A12   A(4,5,79)             108.0712         estimate D2E/DX2                !
 ! A13   A(4,5,80)             108.7935         estimate D2E/DX2                !
 ! A14   A(78,5,79)            106.3396         estimate D2E/DX2                !
 ! A15   A(78,5,80)            110.7422         estimate D2E/DX2                !
 ! A16   A(79,5,80)            111.9561         estimate D2E/DX2                !
 ! A17   A(3,6,7)              116.75           estimate D2E/DX2                !
 ! A18   A(3,6,11)             119.4988         estimate D2E/DX2                !
 ! A19   A(7,6,11)             123.1964         estimate D2E/DX2                !
 ! A20   A(6,7,8)              118.6018         estimate D2E/DX2                !
 ! A21   A(6,7,10)             123.8293         estimate D2E/DX2                !
 ! A22   A(8,7,10)             117.5277         estimate D2E/DX2                !
 ! A23   A(7,8,9)              114.5129         estimate D2E/DX2                !
 ! A24   A(8,9,81)             113.6615         estimate D2E/DX2                !
 ! A25   A(8,9,82)             108.8621         estimate D2E/DX2                !
 ! A26   A(8,9,83)             107.8878         estimate D2E/DX2                !
 ! A27   A(81,9,82)            111.8647         estimate D2E/DX2                !
 ! A28   A(81,9,83)            112.3144         estimate D2E/DX2                !
 ! A29   A(82,9,83)            101.4863         estimate D2E/DX2                !
 ! A30   A(1,10,7)             117.6096         estimate D2E/DX2                !
 ! A31   A(1,10,84)            120.5026         estimate D2E/DX2                !
 ! A32   A(7,10,84)            121.8403         estimate D2E/DX2                !
 ! A33   A(6,11,12)            130.4258         estimate D2E/DX2                !
 ! A34   A(6,11,15)            118.1785         estimate D2E/DX2                !
 ! A35   A(12,11,15)           111.232          estimate D2E/DX2                !
 ! A36   A(11,12,13)           113.7268         estimate D2E/DX2                !
 ! A37   A(11,12,85)           119.9593         estimate D2E/DX2                !
 ! A38   A(13,12,85)           126.2514         estimate D2E/DX2                !
 ! A39   A(12,13,14)           114.5776         estimate D2E/DX2                !
 ! A40   A(12,13,86)           124.5849         estimate D2E/DX2                !
 ! A41   A(14,13,86)           120.7664         estimate D2E/DX2                !
 ! A42   A(13,14,15)           109.4003         estimate D2E/DX2                !
 ! A43   A(13,14,16)           133.2606         estimate D2E/DX2                !
 ! A44   A(15,14,16)           117.2598         estimate D2E/DX2                !
 ! A45   A(11,15,14)            90.9491         estimate D2E/DX2                !
 ! A46   A(14,16,17)           123.6389         estimate D2E/DX2                !
 ! A47   A(14,16,25)           119.8944         estimate D2E/DX2                !
 ! A48   A(17,16,25)           116.4258         estimate D2E/DX2                !
 ! A49   A(16,17,18)           121.8601         estimate D2E/DX2                !
 ! A50   A(16,17,87)           119.8989         estimate D2E/DX2                !
 ! A51   A(18,17,87)           118.2148         estimate D2E/DX2                !
 ! A52   A(17,18,19)           123.7541         estimate D2E/DX2                !
 ! A53   A(17,18,21)           119.6787         estimate D2E/DX2                !
 ! A54   A(19,18,21)           116.5274         estimate D2E/DX2                !
 ! A55   A(18,19,20)           118.5073         estimate D2E/DX2                !
 ! A56   A(19,20,88)           110.4391         estimate D2E/DX2                !
 ! A57   A(19,20,89)           107.2744         estimate D2E/DX2                !
 ! A58   A(19,20,90)           112.1684         estimate D2E/DX2                !
 ! A59   A(88,20,89)           109.89           estimate D2E/DX2                !
 ! A60   A(88,20,90)           105.6856         estimate D2E/DX2                !
 ! A61   A(89,20,90)           111.4101         estimate D2E/DX2                !
 ! A62   A(18,21,22)           118.3054         estimate D2E/DX2                !
 ! A63   A(18,21,26)           119.524          estimate D2E/DX2                !
 ! A64   A(22,21,26)           122.158          estimate D2E/DX2                !
 ! A65   A(21,22,23)           114.5468         estimate D2E/DX2                !
 ! A66   A(21,22,25)           119.4555         estimate D2E/DX2                !
 ! A67   A(23,22,25)           125.5057         estimate D2E/DX2                !
 ! A68   A(22,23,24)           109.5468         estimate D2E/DX2                !
 ! A69   A(23,24,91)           109.8215         estimate D2E/DX2                !
 ! A70   A(23,24,92)           116.981          estimate D2E/DX2                !
 ! A71   A(23,24,93)           111.4363         estimate D2E/DX2                !
 ! A72   A(91,24,92)           107.5487         estimate D2E/DX2                !
 ! A73   A(91,24,93)           104.1878         estimate D2E/DX2                !
 ! A74   A(92,24,93)           106.0177         estimate D2E/DX2                !
 ! A75   A(16,25,22)           124.1203         estimate D2E/DX2                !
 ! A76   A(16,25,94)           119.2857         estimate D2E/DX2                !
 ! A77   A(22,25,94)           116.4453         estimate D2E/DX2                !
 ! A78   A(21,26,27)           131.7263         estimate D2E/DX2                !
 ! A79   A(21,26,30)           119.2807         estimate D2E/DX2                !
 ! A80   A(27,26,30)           108.9568         estimate D2E/DX2                !
 ! A81   A(26,27,28)           113.7543         estimate D2E/DX2                !
 ! A82   A(26,27,95)           117.3463         estimate D2E/DX2                !
 ! A83   A(28,27,95)           128.7957         estimate D2E/DX2                !
 ! A84   A(27,28,29)           111.1893         estimate D2E/DX2                !
 ! A85   A(27,28,96)           124.4871         estimate D2E/DX2                !
 ! A86   A(29,28,96)           124.0174         estimate D2E/DX2                !
 ! A87   A(28,29,30)           113.0888         estimate D2E/DX2                !
 ! A88   A(28,29,31)           126.7882         estimate D2E/DX2                !
 ! A89   A(30,29,31)           119.7695         estimate D2E/DX2                !
 ! A90   A(26,30,29)            92.5887         estimate D2E/DX2                !
 ! A91   A(29,31,32)           121.0589         estimate D2E/DX2                !
 ! A92   A(29,31,40)           118.8682         estimate D2E/DX2                !
 ! A93   A(32,31,40)           119.9968         estimate D2E/DX2                !
 ! A94   A(31,32,33)           119.5088         estimate D2E/DX2                !
 ! A95   A(31,32,97)           113.23           estimate D2E/DX2                !
 ! A96   A(33,32,97)           127.2513         estimate D2E/DX2                !
 ! A97   A(32,33,34)           120.2153         estimate D2E/DX2                !
 ! A98   A(32,33,36)           119.0326         estimate D2E/DX2                !
 ! A99   A(34,33,36)           120.7314         estimate D2E/DX2                !
 ! A100  A(33,34,35)           120.5626         estimate D2E/DX2                !
 ! A101  A(34,35,98)           110.0145         estimate D2E/DX2                !
 ! A102  A(34,35,99)           111.298          estimate D2E/DX2                !
 ! A103  A(34,35,100)          107.54           estimate D2E/DX2                !
 ! A104  A(98,35,99)           108.5456         estimate D2E/DX2                !
 ! A105  A(98,35,100)          105.1276         estimate D2E/DX2                !
 ! A106  A(99,35,100)          114.1131         estimate D2E/DX2                !
 ! A107  A(33,36,37)           122.1291         estimate D2E/DX2                !
 ! A108  A(33,36,41)           116.6721         estimate D2E/DX2                !
 ! A109  A(37,36,41)           121.1449         estimate D2E/DX2                !
 ! A110  A(36,37,38)           120.0639         estimate D2E/DX2                !
 ! A111  A(36,37,40)           120.3592         estimate D2E/DX2                !
 ! A112  A(38,37,40)           119.3899         estimate D2E/DX2                !
 ! A113  A(37,38,39)           111.352          estimate D2E/DX2                !
 ! A114  A(38,39,101)          110.259          estimate D2E/DX2                !
 ! A115  A(38,39,102)          105.7506         estimate D2E/DX2                !
 ! A116  A(38,39,103)          110.8397         estimate D2E/DX2                !
 ! A117  A(101,39,102)         106.9561         estimate D2E/DX2                !
 ! A118  A(101,39,103)         112.7371         estimate D2E/DX2                !
 ! A119  A(102,39,103)         109.9912         estimate D2E/DX2                !
 ! A120  A(31,40,37)           118.9227         estimate D2E/DX2                !
 ! A121  A(31,40,104)          119.1654         estimate D2E/DX2                !
 ! A122  A(37,40,104)          121.8957         estimate D2E/DX2                !
 ! A123  A(36,41,42)           126.4856         estimate D2E/DX2                !
 ! A124  A(36,41,45)           122.5995         estimate D2E/DX2                !
 ! A125  A(42,41,45)           110.6739         estimate D2E/DX2                !
 ! A126  A(41,42,43)           112.1244         estimate D2E/DX2                !
 ! A127  A(41,42,105)          118.4926         estimate D2E/DX2                !
 ! A128  A(43,42,105)          129.2713         estimate D2E/DX2                !
 ! A129  A(42,43,44)           112.161          estimate D2E/DX2                !
 ! A130  A(42,43,106)          121.1648         estimate D2E/DX2                !
 ! A131  A(44,43,106)          126.4683         estimate D2E/DX2                !
 ! A132  A(43,44,45)           113.5035         estimate D2E/DX2                !
 ! A133  A(43,44,46)           129.5762         estimate D2E/DX2                !
 ! A134  A(45,44,46)           116.5938         estimate D2E/DX2                !
 ! A135  A(41,45,44)            91.4111         estimate D2E/DX2                !
 ! A136  A(44,46,47)           115.1216         estimate D2E/DX2                !
 ! A137  A(44,46,55)           125.1869         estimate D2E/DX2                !
 ! A138  A(47,46,55)           119.56           estimate D2E/DX2                !
 ! A139  A(46,47,48)           118.5487         estimate D2E/DX2                !
 ! A140  A(46,47,107)          120.1983         estimate D2E/DX2                !
 ! A141  A(48,47,107)          120.1914         estimate D2E/DX2                !
 ! A142  A(47,48,49)           121.3541         estimate D2E/DX2                !
 ! A143  A(47,48,51)           121.9679         estimate D2E/DX2                !
 ! A144  A(49,48,51)           116.518          estimate D2E/DX2                !
 ! A145  A(48,49,50)           113.7817         estimate D2E/DX2                !
 ! A146  A(49,50,108)          108.7266         estimate D2E/DX2                !
 ! A147  A(49,50,109)          111.3131         estimate D2E/DX2                !
 ! A148  A(49,50,110)          112.0296         estimate D2E/DX2                !
 ! A149  A(108,50,109)         110.9894         estimate D2E/DX2                !
 ! A150  A(108,50,110)         109.603          estimate D2E/DX2                !
 ! A151  A(109,50,110)         104.1381         estimate D2E/DX2                !
 ! A152  A(48,51,52)           120.3825         estimate D2E/DX2                !
 ! A153  A(48,51,56)           118.5995         estimate D2E/DX2                !
 ! A154  A(52,51,56)           120.4405         estimate D2E/DX2                !
 ! A155  A(51,52,53)           118.8417         estimate D2E/DX2                !
 ! A156  A(51,52,55)           117.68           estimate D2E/DX2                !
 ! A157  A(53,52,55)           123.165          estimate D2E/DX2                !
 ! A158  A(52,53,54)           116.7808         estimate D2E/DX2                !
 ! A159  A(53,54,111)          111.2404         estimate D2E/DX2                !
 ! A160  A(53,54,112)          109.8402         estimate D2E/DX2                !
 ! A161  A(53,54,113)          115.5286         estimate D2E/DX2                !
 ! A162  A(111,54,112)         102.6508         estimate D2E/DX2                !
 ! A163  A(111,54,113)         106.3591         estimate D2E/DX2                !
 ! A164  A(112,54,113)         110.4117         estimate D2E/DX2                !
 ! A165  A(46,55,52)           121.1612         estimate D2E/DX2                !
 ! A166  A(46,55,114)          119.8522         estimate D2E/DX2                !
 ! A167  A(52,55,114)          118.839          estimate D2E/DX2                !
 ! A168  A(51,56,57)           131.9356         estimate D2E/DX2                !
 ! A169  A(51,56,60)           117.0503         estimate D2E/DX2                !
 ! A170  A(57,56,60)           110.2817         estimate D2E/DX2                !
 ! A171  A(56,57,58)           113.5587         estimate D2E/DX2                !
 ! A172  A(56,57,115)          119.3882         estimate D2E/DX2                !
 ! A173  A(58,57,115)          126.8444         estimate D2E/DX2                !
 ! A174  A(57,58,59)           114.805          estimate D2E/DX2                !
 ! A175  A(57,58,116)          122.5004         estimate D2E/DX2                !
 ! A176  A(59,58,116)          122.6804         estimate D2E/DX2                !
 ! A177  A(58,59,60)           109.9499         estimate D2E/DX2                !
 ! A178  A(58,59,61)           130.2825         estimate D2E/DX2                !
 ! A179  A(60,59,61)           119.5946         estimate D2E/DX2                !
 ! A180  A(56,60,59)            90.8141         estimate D2E/DX2                !
 ! A181  A(59,61,62)           122.7052         estimate D2E/DX2                !
 ! A182  A(59,61,70)           122.7892         estimate D2E/DX2                !
 ! A183  A(62,61,70)           114.5051         estimate D2E/DX2                !
 ! A184  A(61,62,63)           121.3141         estimate D2E/DX2                !
 ! A185  A(61,62,117)          120.747          estimate D2E/DX2                !
 ! A186  A(63,62,117)          117.5855         estimate D2E/DX2                !
 ! A187  A(62,63,64)           121.6374         estimate D2E/DX2                !
 ! A188  A(62,63,66)           122.4108         estimate D2E/DX2                !
 ! A189  A(64,63,66)           115.8999         estimate D2E/DX2                !
 ! A190  A(63,64,65)           115.9027         estimate D2E/DX2                !
 ! A191  A(64,65,118)          110.4165         estimate D2E/DX2                !
 ! A192  A(64,65,119)          106.3329         estimate D2E/DX2                !
 ! A193  A(64,65,120)          112.2654         estimate D2E/DX2                !
 ! A194  A(118,65,119)         107.156          estimate D2E/DX2                !
 ! A195  A(118,65,120)         108.707          estimate D2E/DX2                !
 ! A196  A(119,65,120)         111.8373         estimate D2E/DX2                !
 ! A197  A(63,66,67)           119.7204         estimate D2E/DX2                !
 ! A198  A(63,66,71)           124.3088         estimate D2E/DX2                !
 ! A199  A(67,66,71)           115.8085         estimate D2E/DX2                !
 ! A200  A(66,67,68)           117.5304         estimate D2E/DX2                !
 ! A201  A(66,67,70)           116.5163         estimate D2E/DX2                !
 ! A202  A(68,67,70)           125.8981         estimate D2E/DX2                !
 ! A203  A(67,68,69)           114.4293         estimate D2E/DX2                !
 ! A204  A(68,69,121)          113.2189         estimate D2E/DX2                !
 ! A205  A(68,69,122)          102.5374         estimate D2E/DX2                !
 ! A206  A(68,69,123)          106.991          estimate D2E/DX2                !
 ! A207  A(121,69,122)         111.5052         estimate D2E/DX2                !
 ! A208  A(121,69,123)         113.8335         estimate D2E/DX2                !
 ! A209  A(122,69,123)         108.0021         estimate D2E/DX2                !
 ! A210  A(61,70,67)           125.2516         estimate D2E/DX2                !
 ! A211  A(61,70,124)          111.9298         estimate D2E/DX2                !
 ! A212  A(67,70,124)          122.415          estimate D2E/DX2                !
 ! A213  A(66,71,72)           128.8389         estimate D2E/DX2                !
 ! A214  A(66,71,75)           118.4494         estimate D2E/DX2                !
 ! A215  A(72,71,75)           112.6421         estimate D2E/DX2                !
 ! A216  A(71,72,73)           110.4263         estimate D2E/DX2                !
 ! A217  A(71,72,125)          124.0639         estimate D2E/DX2                !
 ! A218  A(73,72,125)          125.2881         estimate D2E/DX2                !
 ! A219  A(72,73,74)           113.0164         estimate D2E/DX2                !
 ! A220  A(72,73,126)          123.7042         estimate D2E/DX2                !
 ! A221  A(74,73,126)          123.1981         estimate D2E/DX2                !
 ! A222  A(73,74,75)           110.5437         estimate D2E/DX2                !
 ! A223  A(73,74,127)          127.9053         estimate D2E/DX2                !
 ! A224  A(75,74,127)          121.5448         estimate D2E/DX2                !
 ! A225  A(71,75,74)            93.352          estimate D2E/DX2                !
 ! D1    D(10,1,2,3)             1.8416         estimate D2E/DX2                !
 ! D2    D(10,1,2,77)         -177.7026         estimate D2E/DX2                !
 ! D3    D(76,1,2,3)           179.7353         estimate D2E/DX2                !
 ! D4    D(76,1,2,77)            0.1911         estimate D2E/DX2                !
 ! D5    D(2,1,10,7)             0.72           estimate D2E/DX2                !
 ! D6    D(2,1,10,84)          178.2575         estimate D2E/DX2                !
 ! D7    D(76,1,10,7)         -177.207          estimate D2E/DX2                !
 ! D8    D(76,1,10,84)           0.3305         estimate D2E/DX2                !
 ! D9    D(1,2,3,4)            179.7575         estimate D2E/DX2                !
 ! D10   D(1,2,3,6)             -6.4944         estimate D2E/DX2                !
 ! D11   D(77,2,3,4)            -0.7267         estimate D2E/DX2                !
 ! D12   D(77,2,3,6)           173.0214         estimate D2E/DX2                !
 ! D13   D(2,3,4,5)            -14.4424         estimate D2E/DX2                !
 ! D14   D(6,3,4,5)            171.3827         estimate D2E/DX2                !
 ! D15   D(2,3,6,7)              8.3499         estimate D2E/DX2                !
 ! D16   D(2,3,6,11)          -179.9179         estimate D2E/DX2                !
 ! D17   D(4,3,6,7)           -177.6037         estimate D2E/DX2                !
 ! D18   D(4,3,6,11)            -5.8715         estimate D2E/DX2                !
 ! D19   D(3,4,5,78)          -170.2489         estimate D2E/DX2                !
 ! D20   D(3,4,5,79)           -54.0541         estimate D2E/DX2                !
 ! D21   D(3,4,5,80)            67.7141         estimate D2E/DX2                !
 ! D22   D(3,6,7,8)            172.0037         estimate D2E/DX2                !
 ! D23   D(3,6,7,10)            -5.6009         estimate D2E/DX2                !
 ! D24   D(11,6,7,8)             0.6055         estimate D2E/DX2                !
 ! D25   D(11,6,7,10)         -176.999          estimate D2E/DX2                !
 ! D26   D(3,6,11,12)          -72.183          estimate D2E/DX2                !
 ! D27   D(3,6,11,15)          112.9218         estimate D2E/DX2                !
 ! D28   D(7,6,11,12)           98.9899         estimate D2E/DX2                !
 ! D29   D(7,6,11,15)          -75.9053         estimate D2E/DX2                !
 ! D30   D(6,7,8,9)            130.8892         estimate D2E/DX2                !
 ! D31   D(10,7,8,9)           -51.3546         estimate D2E/DX2                !
 ! D32   D(6,7,10,1)             1.3639         estimate D2E/DX2                !
 ! D33   D(6,7,10,84)         -176.1386         estimate D2E/DX2                !
 ! D34   D(8,7,10,1)          -176.2645         estimate D2E/DX2                !
 ! D35   D(8,7,10,84)            6.233          estimate D2E/DX2                !
 ! D36   D(7,8,9,81)           -38.1299         estimate D2E/DX2                !
 ! D37   D(7,8,9,82)          -163.5359         estimate D2E/DX2                !
 ! D38   D(7,8,9,83)            87.111          estimate D2E/DX2                !
 ! D39   D(6,11,12,13)        -178.917          estimate D2E/DX2                !
 ! D40   D(6,11,12,85)          -1.6145         estimate D2E/DX2                !
 ! D41   D(15,11,12,13)         -3.7438         estimate D2E/DX2                !
 ! D42   D(15,11,12,85)        173.5587         estimate D2E/DX2                !
 ! D43   D(6,11,15,14)         178.4772         estimate D2E/DX2                !
 ! D44   D(12,11,15,14)          2.6444         estimate D2E/DX2                !
 ! D45   D(11,12,13,14)          3.0522         estimate D2E/DX2                !
 ! D46   D(11,12,13,86)        179.9942         estimate D2E/DX2                !
 ! D47   D(85,12,13,14)       -174.0496         estimate D2E/DX2                !
 ! D48   D(85,12,13,86)          2.8924         estimate D2E/DX2                !
 ! D49   D(12,13,14,15)         -0.9468         estimate D2E/DX2                !
 ! D50   D(12,13,14,16)       -177.5184         estimate D2E/DX2                !
 ! D51   D(86,13,14,15)       -178.017          estimate D2E/DX2                !
 ! D52   D(86,13,14,16)          5.4114         estimate D2E/DX2                !
 ! D53   D(13,14,15,11)         -1.0002         estimate D2E/DX2                !
 ! D54   D(16,14,15,11)        176.1917         estimate D2E/DX2                !
 ! D55   D(13,14,16,17)       -124.3409         estimate D2E/DX2                !
 ! D56   D(13,14,16,25)         53.2487         estimate D2E/DX2                !
 ! D57   D(15,14,16,17)         59.2971         estimate D2E/DX2                !
 ! D58   D(15,14,16,25)       -123.1133         estimate D2E/DX2                !
 ! D59   D(14,16,17,18)        176.1686         estimate D2E/DX2                !
 ! D60   D(14,16,17,87)         -1.9369         estimate D2E/DX2                !
 ! D61   D(25,16,17,18)         -1.4979         estimate D2E/DX2                !
 ! D62   D(25,16,17,87)       -179.6034         estimate D2E/DX2                !
 ! D63   D(14,16,25,22)       -174.1738         estimate D2E/DX2                !
 ! D64   D(14,16,25,94)          1.2308         estimate D2E/DX2                !
 ! D65   D(17,16,25,22)          3.5853         estimate D2E/DX2                !
 ! D66   D(17,16,25,94)        178.99           estimate D2E/DX2                !
 ! D67   D(16,17,18,19)        178.4322         estimate D2E/DX2                !
 ! D68   D(16,17,18,21)          0.8093         estimate D2E/DX2                !
 ! D69   D(87,17,18,19)         -3.4316         estimate D2E/DX2                !
 ! D70   D(87,17,18,21)        178.9455         estimate D2E/DX2                !
 ! D71   D(17,18,19,20)        -14.2875         estimate D2E/DX2                !
 ! D72   D(21,18,19,20)        163.4042         estimate D2E/DX2                !
 ! D73   D(17,18,21,22)         -1.8644         estimate D2E/DX2                !
 ! D74   D(17,18,21,26)        179.3963         estimate D2E/DX2                !
 ! D75   D(19,18,21,22)       -179.6555         estimate D2E/DX2                !
 ! D76   D(19,18,21,26)          1.6052         estimate D2E/DX2                !
 ! D77   D(18,19,20,88)        -51.0036         estimate D2E/DX2                !
 ! D78   D(18,19,20,89)       -170.747          estimate D2E/DX2                !
 ! D79   D(18,19,20,90)         66.603          estimate D2E/DX2                !
 ! D80   D(18,21,22,23)        176.1564         estimate D2E/DX2                !
 ! D81   D(18,21,22,25)          3.7625         estimate D2E/DX2                !
 ! D82   D(26,21,22,23)         -5.1393         estimate D2E/DX2                !
 ! D83   D(26,21,22,25)       -177.5333         estimate D2E/DX2                !
 ! D84   D(18,21,26,27)        -74.4729         estimate D2E/DX2                !
 ! D85   D(18,21,26,30)        107.9842         estimate D2E/DX2                !
 ! D86   D(22,21,26,27)        106.8381         estimate D2E/DX2                !
 ! D87   D(22,21,26,30)        -70.7047         estimate D2E/DX2                !
 ! D88   D(21,22,23,24)        132.1075         estimate D2E/DX2                !
 ! D89   D(25,22,23,24)        -56.0316         estimate D2E/DX2                !
 ! D90   D(21,22,25,16)         -4.7853         estimate D2E/DX2                !
 ! D91   D(21,22,25,94)        179.6909         estimate D2E/DX2                !
 ! D92   D(23,22,25,16)       -176.28           estimate D2E/DX2                !
 ! D93   D(23,22,25,94)          8.1962         estimate D2E/DX2                !
 ! D94   D(22,23,24,91)       -167.6258         estimate D2E/DX2                !
 ! D95   D(22,23,24,92)        -44.727          estimate D2E/DX2                !
 ! D96   D(22,23,24,93)         77.45           estimate D2E/DX2                !
 ! D97   D(21,26,27,28)       -177.9766         estimate D2E/DX2                !
 ! D98   D(21,26,27,95)          5.3987         estimate D2E/DX2                !
 ! D99   D(30,26,27,28)         -0.2427         estimate D2E/DX2                !
 ! D100  D(30,26,27,95)       -176.8673         estimate D2E/DX2                !
 ! D101  D(21,26,30,29)        174.8576         estimate D2E/DX2                !
 ! D102  D(27,26,30,29)         -3.2036         estimate D2E/DX2                !
 ! D103  D(26,27,28,29)          4.5182         estimate D2E/DX2                !
 ! D104  D(26,27,28,96)        178.3695         estimate D2E/DX2                !
 ! D105  D(95,27,28,29)       -179.3293         estimate D2E/DX2                !
 ! D106  D(95,27,28,96)         -5.4779         estimate D2E/DX2                !
 ! D107  D(27,28,29,30)         -7.0265         estimate D2E/DX2                !
 ! D108  D(27,28,29,31)        179.8794         estimate D2E/DX2                !
 ! D109  D(96,28,29,30)        179.0878         estimate D2E/DX2                !
 ! D110  D(96,28,29,31)          5.9937         estimate D2E/DX2                !
 ! D111  D(28,29,30,26)          5.9159         estimate D2E/DX2                !
 ! D112  D(31,29,30,26)        179.5468         estimate D2E/DX2                !
 ! D113  D(28,29,31,32)         39.4471         estimate D2E/DX2                !
 ! D114  D(28,29,31,40)       -137.3799         estimate D2E/DX2                !
 ! D115  D(30,29,31,32)       -133.2321         estimate D2E/DX2                !
 ! D116  D(30,29,31,40)         49.9408         estimate D2E/DX2                !
 ! D117  D(29,31,32,33)       -175.9159         estimate D2E/DX2                !
 ! D118  D(29,31,32,97)          3.0237         estimate D2E/DX2                !
 ! D119  D(40,31,32,33)          0.8756         estimate D2E/DX2                !
 ! D120  D(40,31,32,97)        179.8153         estimate D2E/DX2                !
 ! D121  D(29,31,40,37)        178.0451         estimate D2E/DX2                !
 ! D122  D(29,31,40,104)        -0.5181         estimate D2E/DX2                !
 ! D123  D(32,31,40,37)          1.1835         estimate D2E/DX2                !
 ! D124  D(32,31,40,104)      -177.3797         estimate D2E/DX2                !
 ! D125  D(31,32,33,34)        176.5944         estimate D2E/DX2                !
 ! D126  D(31,32,33,36)         -1.7642         estimate D2E/DX2                !
 ! D127  D(97,32,33,34)         -2.1815         estimate D2E/DX2                !
 ! D128  D(97,32,33,36)        179.4599         estimate D2E/DX2                !
 ! D129  D(32,33,34,35)        -10.3125         estimate D2E/DX2                !
 ! D130  D(36,33,34,35)        168.0179         estimate D2E/DX2                !
 ! D131  D(32,33,36,37)          0.5994         estimate D2E/DX2                !
 ! D132  D(32,33,36,41)       -176.7567         estimate D2E/DX2                !
 ! D133  D(34,33,36,37)       -177.7505         estimate D2E/DX2                !
 ! D134  D(34,33,36,41)          4.8934         estimate D2E/DX2                !
 ! D135  D(33,34,35,98)         69.626          estimate D2E/DX2                !
 ! D136  D(33,34,35,99)        -50.7265         estimate D2E/DX2                !
 ! D137  D(33,34,35,100)      -176.3942         estimate D2E/DX2                !
 ! D138  D(33,36,37,38)        176.5088         estimate D2E/DX2                !
 ! D139  D(33,36,37,40)          1.5088         estimate D2E/DX2                !
 ! D140  D(41,36,37,38)         -6.2517         estimate D2E/DX2                !
 ! D141  D(41,36,37,40)        178.7482         estimate D2E/DX2                !
 ! D142  D(33,36,41,42)        -78.3262         estimate D2E/DX2                !
 ! D143  D(33,36,41,45)        107.8511         estimate D2E/DX2                !
 ! D144  D(37,36,41,42)        104.2899         estimate D2E/DX2                !
 ! D145  D(37,36,41,45)        -69.5329         estimate D2E/DX2                !
 ! D146  D(36,37,38,39)        121.4254         estimate D2E/DX2                !
 ! D147  D(40,37,38,39)        -63.526          estimate D2E/DX2                !
 ! D148  D(36,37,40,31)         -2.3705         estimate D2E/DX2                !
 ! D149  D(36,37,40,104)       176.1517         estimate D2E/DX2                !
 ! D150  D(38,37,40,31)       -177.4041         estimate D2E/DX2                !
 ! D151  D(38,37,40,104)         1.1181         estimate D2E/DX2                !
 ! D152  D(37,38,39,101)        74.4419         estimate D2E/DX2                !
 ! D153  D(37,38,39,102)      -170.2745         estimate D2E/DX2                !
 ! D154  D(37,38,39,103)       -51.1021         estimate D2E/DX2                !
 ! D155  D(36,41,42,43)       -174.7284         estimate D2E/DX2                !
 ! D156  D(36,41,42,105)         1.7824         estimate D2E/DX2                !
 ! D157  D(45,41,42,43)         -0.2886         estimate D2E/DX2                !
 ! D158  D(45,41,42,105)       176.2222         estimate D2E/DX2                !
 ! D159  D(36,41,45,44)        176.6654         estimate D2E/DX2                !
 ! D160  D(42,41,45,44)          1.9711         estimate D2E/DX2                !
 ! D161  D(41,42,43,44)         -2.2061         estimate D2E/DX2                !
 ! D162  D(41,42,43,106)      -177.3147         estimate D2E/DX2                !
 ! D163  D(105,42,43,44)      -178.2443         estimate D2E/DX2                !
 ! D164  D(105,42,43,106)        6.6471         estimate D2E/DX2                !
 ! D165  D(42,43,44,45)          3.7541         estimate D2E/DX2                !
 ! D166  D(42,43,44,46)        176.8744         estimate D2E/DX2                !
 ! D167  D(106,43,44,45)       178.5485         estimate D2E/DX2                !
 ! D168  D(106,43,44,46)        -8.3311         estimate D2E/DX2                !
 ! D169  D(43,44,45,41)         -3.3562         estimate D2E/DX2                !
 ! D170  D(46,44,45,41)       -177.4299         estimate D2E/DX2                !
 ! D171  D(43,44,46,47)         53.2516         estimate D2E/DX2                !
 ! D172  D(43,44,46,55)       -122.5403         estimate D2E/DX2                !
 ! D173  D(45,44,46,47)       -133.8045         estimate D2E/DX2                !
 ! D174  D(45,44,46,55)         50.4035         estimate D2E/DX2                !
 ! D175  D(44,46,47,48)        179.5245         estimate D2E/DX2                !
 ! D176  D(44,46,47,107)        11.2818         estimate D2E/DX2                !
 ! D177  D(55,46,47,48)         -4.4289         estimate D2E/DX2                !
 ! D178  D(55,46,47,107)      -172.6716         estimate D2E/DX2                !
 ! D179  D(44,46,55,52)        177.7734         estimate D2E/DX2                !
 ! D180  D(44,46,55,114)         2.2409         estimate D2E/DX2                !
 ! D181  D(47,46,55,52)          2.1538         estimate D2E/DX2                !
 ! D182  D(47,46,55,114)      -173.3786         estimate D2E/DX2                !
 ! D183  D(46,47,48,49)       -176.4133         estimate D2E/DX2                !
 ! D184  D(46,47,48,51)          8.3452         estimate D2E/DX2                !
 ! D185  D(107,47,48,49)        -8.1698         estimate D2E/DX2                !
 ! D186  D(107,47,48,51)       176.5887         estimate D2E/DX2                !
 ! D187  D(47,48,49,50)        -50.6703         estimate D2E/DX2                !
 ! D188  D(51,48,49,50)        124.8188         estimate D2E/DX2                !
 ! D189  D(47,48,51,52)         -9.9684         estimate D2E/DX2                !
 ! D190  D(47,48,51,56)        178.7064         estimate D2E/DX2                !
 ! D191  D(49,48,51,52)        174.5724         estimate D2E/DX2                !
 ! D192  D(49,48,51,56)          3.2473         estimate D2E/DX2                !
 ! D193  D(48,49,50,108)       -47.5185         estimate D2E/DX2                !
 ! D194  D(48,49,50,109)      -170.0827         estimate D2E/DX2                !
 ! D195  D(48,49,50,110)        73.7684         estimate D2E/DX2                !
 ! D196  D(48,51,52,53)       -179.0045         estimate D2E/DX2                !
 ! D197  D(48,51,52,55)          7.2176         estimate D2E/DX2                !
 ! D198  D(56,51,52,53)         -7.84           estimate D2E/DX2                !
 ! D199  D(56,51,52,55)        178.3822         estimate D2E/DX2                !
 ! D200  D(48,51,56,57)        115.6723         estimate D2E/DX2                !
 ! D201  D(48,51,56,60)        -75.2314         estimate D2E/DX2                !
 ! D202  D(52,51,56,57)        -55.6476         estimate D2E/DX2                !
 ! D203  D(52,51,56,60)        113.4487         estimate D2E/DX2                !
 ! D204  D(51,52,53,54)        170.6515         estimate D2E/DX2                !
 ! D205  D(55,52,53,54)        -15.9324         estimate D2E/DX2                !
 ! D206  D(51,52,55,46)         -3.5258         estimate D2E/DX2                !
 ! D207  D(51,52,55,114)       172.0509         estimate D2E/DX2                !
 ! D208  D(53,52,55,46)       -177.0136         estimate D2E/DX2                !
 ! D209  D(53,52,55,114)        -1.4369         estimate D2E/DX2                !
 ! D210  D(52,53,54,111)        73.109          estimate D2E/DX2                !
 ! D211  D(52,53,54,112)      -173.934          estimate D2E/DX2                !
 ! D212  D(52,53,54,113)       -48.2575         estimate D2E/DX2                !
 ! D213  D(51,56,57,58)        177.119          estimate D2E/DX2                !
 ! D214  D(51,56,57,115)        -7.7745         estimate D2E/DX2                !
 ! D215  D(60,56,57,58)          7.4655         estimate D2E/DX2                !
 ! D216  D(60,56,57,115)      -177.428          estimate D2E/DX2                !
 ! D217  D(51,56,60,59)       -178.5378         estimate D2E/DX2                !
 ! D218  D(57,56,60,59)         -7.1656         estimate D2E/DX2                !
 ! D219  D(56,57,58,59)         -3.3677         estimate D2E/DX2                !
 ! D220  D(56,57,58,116)       177.971          estimate D2E/DX2                !
 ! D221  D(115,57,58,59)      -178.0385         estimate D2E/DX2                !
 ! D222  D(115,57,58,116)        3.3002         estimate D2E/DX2                !
 ! D223  D(57,58,59,60)         -2.1933         estimate D2E/DX2                !
 ! D224  D(57,58,59,61)       -177.2895         estimate D2E/DX2                !
 ! D225  D(116,58,59,60)       176.4653         estimate D2E/DX2                !
 ! D226  D(116,58,59,61)         1.3692         estimate D2E/DX2                !
 ! D227  D(58,59,60,56)          5.4369         estimate D2E/DX2                !
 ! D228  D(61,59,60,56)       -178.8641         estimate D2E/DX2                !
 ! D229  D(58,59,61,62)         49.0523         estimate D2E/DX2                !
 ! D230  D(58,59,61,70)       -131.2235         estimate D2E/DX2                !
 ! D231  D(60,59,61,62)       -125.6455         estimate D2E/DX2                !
 ! D232  D(60,59,61,70)         54.0787         estimate D2E/DX2                !
 ! D233  D(59,61,62,63)        178.7019         estimate D2E/DX2                !
 ! D234  D(59,61,62,117)         5.6932         estimate D2E/DX2                !
 ! D235  D(70,61,62,63)         -1.0433         estimate D2E/DX2                !
 ! D236  D(70,61,62,117)      -174.052          estimate D2E/DX2                !
 ! D237  D(59,61,70,67)        177.6236         estimate D2E/DX2                !
 ! D238  D(59,61,70,124)         4.799          estimate D2E/DX2                !
 ! D239  D(62,61,70,67)         -2.6314         estimate D2E/DX2                !
 ! D240  D(62,61,70,124)      -175.456          estimate D2E/DX2                !
 ! D241  D(61,62,63,64)       -177.3242         estimate D2E/DX2                !
 ! D242  D(61,62,63,66)          5.4027         estimate D2E/DX2                !
 ! D243  D(117,62,63,64)        -4.1024         estimate D2E/DX2                !
 ! D244  D(117,62,63,66)       178.6245         estimate D2E/DX2                !
 ! D245  D(62,63,64,65)        -47.8033         estimate D2E/DX2                !
 ! D246  D(66,63,64,65)        129.6377         estimate D2E/DX2                !
 ! D247  D(62,63,66,67)         -6.0512         estimate D2E/DX2                !
 ! D248  D(62,63,66,71)        178.7786         estimate D2E/DX2                !
 ! D249  D(64,63,66,67)        176.5296         estimate D2E/DX2                !
 ! D250  D(64,63,66,71)          1.3594         estimate D2E/DX2                !
 ! D251  D(63,64,65,118)      -164.3378         estimate D2E/DX2                !
 ! D252  D(63,64,65,119)       -48.4213         estimate D2E/DX2                !
 ! D253  D(63,64,65,120)        74.1824         estimate D2E/DX2                !
 ! D254  D(63,66,67,68)       -175.1161         estimate D2E/DX2                !
 ! D255  D(63,66,67,70)          2.3438         estimate D2E/DX2                !
 ! D256  D(71,66,67,68)          0.4532         estimate D2E/DX2                !
 ! D257  D(71,66,67,70)        177.9132         estimate D2E/DX2                !
 ! D258  D(63,66,71,72)         95.183          estimate D2E/DX2                !
 ! D259  D(63,66,71,75)        -81.5383         estimate D2E/DX2                !
 ! D260  D(67,66,71,72)        -80.1582         estimate D2E/DX2                !
 ! D261  D(67,66,71,75)        103.1205         estimate D2E/DX2                !
 ! D262  D(66,67,68,69)        145.7406         estimate D2E/DX2                !
 ! D263  D(70,67,68,69)        -31.4534         estimate D2E/DX2                !
 ! D264  D(66,67,70,61)          1.9943         estimate D2E/DX2                !
 ! D265  D(66,67,70,124)       174.1052         estimate D2E/DX2                !
 ! D266  D(68,67,70,61)        179.2136         estimate D2E/DX2                !
 ! D267  D(68,67,70,124)        -8.6755         estimate D2E/DX2                !
 ! D268  D(67,68,69,121)        75.4252         estimate D2E/DX2                !
 ! D269  D(67,68,69,122)      -164.3074         estimate D2E/DX2                !
 ! D270  D(67,68,69,123)       -50.7916         estimate D2E/DX2                !
 ! D271  D(66,71,72,73)       -178.1767         estimate D2E/DX2                !
 ! D272  D(66,71,72,125)        -3.344          estimate D2E/DX2                !
 ! D273  D(75,71,72,73)         -1.3            estimate D2E/DX2                !
 ! D274  D(75,71,72,125)       173.5326         estimate D2E/DX2                !
 ! D275  D(66,71,75,74)        178.5951         estimate D2E/DX2                !
 ! D276  D(72,71,75,74)          1.3617         estimate D2E/DX2                !
 ! D277  D(71,72,73,74)          0.5082         estimate D2E/DX2                !
 ! D278  D(71,72,73,126)       177.3172         estimate D2E/DX2                !
 ! D279  D(125,72,73,74)      -174.2472         estimate D2E/DX2                !
 ! D280  D(125,72,73,126)        2.5618         estimate D2E/DX2                !
 ! D281  D(72,73,74,75)          0.469          estimate D2E/DX2                !
 ! D282  D(72,73,74,127)       179.5686         estimate D2E/DX2                !
 ! D283  D(126,73,74,75)      -176.3586         estimate D2E/DX2                !
 ! D284  D(126,73,74,127)        2.741          estimate D2E/DX2                !
 ! D285  D(73,74,75,71)         -1.0444         estimate D2E/DX2                !
 ! D286  D(127,74,75,71)       179.7892         estimate D2E/DX2                !
 --------------------------------------------------------------------------------
 Trust Radius=3.00D-01 FncErr=1.00D-07 GrdErr=1.00D-06 EigMax=2.50D+02 EigMin=1.00D-04
 Number of steps in this run=    657 maximum allowed number of steps=    762.
[...]
  Beta virt. eigenvalues --    1.91383   1.91490   1.91788   1.92128   1.92194
  Beta virt. eigenvalues --    1.92215   1.92936   1.93152   1.93421   1.93964
  Beta virt. eigenvalues --    1.94198   1.94897   1.95105   1.95255   1.95500
  Beta virt. eigenvalues --    1.96133   1.96219   1.96443   1.96836   1.96909
  Beta virt. eigenvalues --    1.97253   1.97567   1.98013   1.98080   1.98238
  Beta virt. eigenvalues --    1.98445   1.99169   1.99325   1.99475   2.00018
  Beta virt. eigenvalues --    2.00435   2.00562   2.00918   2.01085   2.01267
  Beta virt. eigenvalues --    2.01647   2.01788   2.02272   2.02363   2.02611
  Beta virt. eigenvalues --    2.02786   2.02917   2.03050   2.03415   2.03565
  Beta virt. eigenvalues --    2.03897   2.04379   2.04769   2.05047   2.05562
  Beta virt. eigenvalues --    2.06077   2.06188   2.06655   2.07225   2.07271
  Beta virt. eigenvalues --    2.07444   2.07811   2.08039   2.08226   2.09614
  Beta virt. eigenvalues --    2.09782   2.10061   2.10707   2.10850   2.10997
  Beta virt. eigenvalues --    2.11320   2.11571   2.11752   2.12235   2.12703
  Beta virt. eigenvalues --    2.13164   2.13323   2.14137   2.14397   2.15109
  Beta virt. eigenvalues --    2.15314   2.15590   2.16233   2.16702   2.17130
  Beta virt. eigenvalues --    2.17217   2.17408   2.17545   2.18038   2.18191
  Beta virt. eigenvalues --    2.18335   2.18525   2.18601   2.18804   2.19123
  Beta virt. eigenvalues --    2.19416   2.19574   2.19748   2.19844   2.20052
  Beta virt. eigenvalues --    2.20475   2.20615   2.20753   2.22172   2.22701
  Beta virt. eigenvalues --    2.22834   2.22981   2.23243   2.23425   2.24340
  Beta virt. eigenvalues --    2.24398   2.24687   2.25128   2.25686   2.25917
  Beta virt. eigenvalues --    2.26343   2.26669   2.26984   2.27352   2.28004
  Beta virt. eigenvalues --    2.28395   2.28641   2.28971   2.29198   2.29569
  Beta virt. eigenvalues --    2.29716   2.30198   2.30592   2.30973   2.31218
  Beta virt. eigenvalues --    2.31880   2.32598   2.32803   2.33157   2.33302
  Beta virt. eigenvalues --    2.34148   2.34456   2.34639   2.35329   2.35362
  Beta virt. eigenvalues --    2.35815   2.35926   2.36229   2.36944   2.37120
  Beta virt. eigenvalues --    2.37704   2.37887   2.38193   2.39095   2.39129
  Beta virt. eigenvalues --    2.40134   2.40666   2.41769   2.42495   2.42907
  Beta virt. eigenvalues --    2.43502   2.44123   2.44385   2.44518   2.45001
  Beta virt. eigenvalues --    2.45249   2.45377   2.45822   2.46116   2.46830
  Beta virt. eigenvalues --    2.47322   2.48587   2.48877   2.50467   2.51236
  Beta virt. eigenvalues --    2.51869   2.51909   2.52340   2.52499   2.52632
  Beta virt. eigenvalues --    2.52749   2.52974   2.53118   2.53290   2.53440
  Beta virt. eigenvalues --    2.53525   2.53598   2.54553   2.54695   2.55137
  Beta virt. eigenvalues --    2.55276   2.55401   2.55684   2.55873   2.57689
  Beta virt. eigenvalues --    2.58757   2.58951   2.59151   2.59371   2.59744
  Beta virt. eigenvalues --    2.59959   2.60004   2.60159   2.60224   2.60730
  Beta virt. eigenvalues --    2.61258   2.61754   2.61911   2.62064   2.62240
  Beta virt. eigenvalues --    2.62386   2.62744   2.62926   2.63530   2.66540
  Beta virt. eigenvalues --    2.67079   2.67604   2.67696   2.67828   2.68096
  Beta virt. eigenvalues --    2.68634   2.68764   2.69174   2.69827   2.71050
  Beta virt. eigenvalues --    2.71391   2.71898   2.72102   2.75928   2.76526
  Beta virt. eigenvalues --    2.77720   2.78087   2.78437   2.78745   2.79339
  Beta virt. eigenvalues --    2.79882   2.80592   2.81438   2.81724   2.82280
  Beta virt. eigenvalues --    2.82375   2.82709   2.82758   2.83632   2.85963
  Beta virt. eigenvalues --    2.86682   2.86986   2.87168   2.87696   2.92265
  Beta virt. eigenvalues --    2.96954   2.97346   2.97591   2.97957   2.99525
  Beta virt. eigenvalues --    2.99856   3.00055   3.00248   3.00592   3.02390
  Beta virt. eigenvalues --    3.02730   3.02922   3.03128   3.03474   3.15652
  Beta virt. eigenvalues --    3.15947   3.16124   3.16339   3.16485   3.16684
  Beta virt. eigenvalues --    3.16777   3.16912   3.17129   3.17404   3.17572
  Beta virt. eigenvalues --    3.18066   3.18241   3.18340   3.18479   3.18669
  Beta virt. eigenvalues --    3.18894   3.18956   3.19118   3.19503   3.26713
  Beta virt. eigenvalues --    3.27157   3.27764   3.28290   3.32871   3.33594
  Beta virt. eigenvalues --    3.34173   3.34754   3.35215   3.36279   3.50113
  Beta virt. eigenvalues --    3.50608   3.50818   3.51032   3.51355   3.54937
  Beta virt. eigenvalues --    3.55687   3.55903   3.56114   3.56496   3.56762
  Beta virt. eigenvalues --    3.57564   3.57738   3.57953   3.58368   3.75371
  Beta virt. eigenvalues --    3.75883   3.76418   3.76938   3.79636
          Condensed to atoms (all electrons):
          Atomic-Atomic Spin Densities.
 Mulliken charges and spin densities:
               1          2
     1  C    0.015219  -0.000000
     2  C   -0.070855   0.000000
     3  C    0.121947  -0.000000
     4  O   -0.248798  -0.000000
     5  C    0.038504  -0.000000
     6  C   -0.060963   0.000000
     7  C    0.132893  -0.000000
     8  O   -0.249503   0.000000
     9  C    0.039601  -0.000000
    10  C   -0.069196   0.000000
    11  C   -0.125064  -0.000000
    12  C    0.056177  -0.000000
    13  C    0.001272   0.000000
    14  C   -0.167971   0.000000
    15  S    0.179148   0.000000
    16  C    0.044724  -0.000000
    17  C   -0.067912   0.000000
    18  C    0.126602   0.000000
    19  O   -0.253745  -0.000000
    20  C    0.040339  -0.000000
    21  C   -0.041764  -0.000000
    22  C    0.141832   0.000000
    23  O   -0.253954  -0.000000
    24  C    0.042939   0.000000
    25  C   -0.068980   0.000000
    26  C   -0.128870  -0.000000
    27  C    0.051523  -0.000000
    28  C    0.002373   0.000000
    29  C   -0.167793  -0.000000
    30  S    0.178268   0.000000
    31  C    0.044388   0.000000
    32  C   -0.070148   0.000000
    33  C    0.129535  -0.000000
    34  O   -0.254086   0.000000
    35  C    0.041998  -0.000000
    36  C   -0.040611   0.000000
    37  C    0.138118  -0.000000
    38  O   -0.254566   0.000000
    39  C    0.041605   0.000000
    40  C   -0.066316  -0.000000
    41  C   -0.128871  -0.000000
    42  C    0.050857  -0.000000
    43  C    0.003063   0.000000
    44  C   -0.168224  -0.000000
    45  S    0.178104  -0.000000
    46  C    0.044631  -0.000000
    47  C   -0.069187   0.000000
    48  C    0.141539   0.000000
    49  O   -0.253953   0.000000
    50  C    0.043127  -0.000000
    51  C   -0.041172   0.000000
    52  C    0.126319  -0.000000
    53  O   -0.253888   0.000000
    54  C    0.040485  -0.000000
    55  C   -0.068047   0.000000
    56  C   -0.129104  -0.000000
    57  C    0.050866  -0.000000
    58  C    0.003019   0.000000
    59  C   -0.167465  -0.000000
    60  S    0.177120   0.000000
    61  C    0.043642   0.000000
    62  C   -0.070840   0.000000
    63  C    0.143439   0.000000
    64  O   -0.251700   0.000000
    65  C    0.042924  -0.000000
    66  C   -0.040553  -0.000000
    67  C    0.128413   0.000000
    68  O   -0.251626  -0.000000
    69  C    0.040645   0.000000
    70  C   -0.069851  -0.000000
    71  C   -0.128138   0.000000
    72  C    0.021569   0.000000
    73  C    0.026549  -0.000000
    74  C   -0.155111   0.000000
    75  S    0.163875   0.000000
    76  H    0.011088   0.000000
    77  H    0.008470   0.000000
    78  H    0.065490   0.000000
    79  H    0.051804   0.000000
    80  H    0.053598  -0.000000
    81  H    0.052584   0.000000
    82  H    0.065466   0.000000
    83  H    0.053594  -0.000000
    84  H    0.007634  -0.000000
    85  H    0.000031  -0.000000
    86  H    0.003594  -0.000000
    87  H    0.008606   0.000000
    88  H    0.053897  -0.000000
    89  H    0.063546   0.000000
    90  H    0.055596  -0.000000
    91  H    0.064118  -0.000000
    92  H    0.051513  -0.000000
    93  H    0.055908   0.000000
    94  H    0.000164   0.000000
    95  H    0.000452   0.000000
    96  H    0.002639   0.000000
    97  H    0.000664   0.000000
    98  H    0.056144   0.000000
    99  H    0.050589   0.000000
   100  H    0.063797   0.000000
   101  H    0.055368  -0.000000
   102  H    0.063305  -0.000000
   103  H    0.054696  -0.000000
   104  H    0.007935  -0.000000
   105  H   -0.000054   0.000000
   106  H    0.002420   0.000000
   107  H   -0.000130  -0.000000
   108  H    0.051224   0.000000
   109  H    0.063857   0.000000
   110  H    0.055643   0.000000
   111  H    0.055385   0.000000
   112  H    0.063097   0.000000
   113  H    0.053750  -0.000000
   114  H    0.008446   0.000000
   115  H   -0.000077  -0.000000
   116  H    0.002311   0.000000
   117  H   -0.000661  -0.000000
   118  H    0.065410  -0.000000
   119  H    0.050426   0.000000
   120  H    0.054228   0.000000
   121  H    0.054410  -0.000000
   122  H    0.063032  -0.000000
   123  H    0.052811  -0.000000
   124  H    0.007601  -0.000000
   125  H    0.001462   0.000000
   126  H    0.005572  -0.000000
   127  H    0.037184  -0.000000
 Sum of Mulliken charges =  -0.00000   0.00000
 Mulliken charges and spin densities with hydrogens summed into heavy atoms:
               1          2
     1  C    0.026308  -0.000000
     2  C   -0.062385   0.000000
     3  C    0.121947  -0.000000
     4  O   -0.248798  -0.000000
     5  C    0.209396  -0.000000
     6  C   -0.060963   0.000000
     7  C    0.132893  -0.000000
     8  O   -0.249503   0.000000
     9  C    0.211245  -0.000000
    10  C   -0.061562   0.000000
    11  C   -0.125064  -0.000000
    12  C    0.056208  -0.000000
    13  C    0.004866   0.000000
    14  C   -0.167971   0.000000
    15  S    0.179148   0.000000
    16  C    0.044724  -0.000000
    17  C   -0.059306   0.000000
    18  C    0.126602   0.000000
    19  O   -0.253745  -0.000000
    20  C    0.213378  -0.000000
    21  C   -0.041764  -0.000000
    22  C    0.141832   0.000000
    23  O   -0.253954  -0.000000
    24  C    0.214478   0.000000
    25  C   -0.068816   0.000000
    26  C   -0.128870  -0.000000
    27  C    0.051975  -0.000000
    28  C    0.005012   0.000000
    29  C   -0.167793  -0.000000
    30  S    0.178268   0.000000
    31  C    0.044388   0.000000
    32  C   -0.069484   0.000000
    33  C    0.129535  -0.000000
    34  O   -0.254086   0.000000
    35  C    0.212527  -0.000000
    36  C   -0.040611   0.000000
    37  C    0.138118  -0.000000
    38  O   -0.254566   0.000000
    39  C    0.214974   0.000000
    40  C   -0.058382  -0.000000
    41  C   -0.128871  -0.000000
    42  C    0.050804  -0.000000
    43  C    0.005483   0.000000
    44  C   -0.168224  -0.000000
    45  S    0.178104  -0.000000
    46  C    0.044631  -0.000000
    47  C   -0.069317  -0.000000
    48  C    0.141539   0.000000
    49  O   -0.253953   0.000000
    50  C    0.213852   0.000000
    51  C   -0.041172   0.000000
    52  C    0.126319  -0.000000
    53  O   -0.253888   0.000000
    54  C    0.212717  -0.000000
    55  C   -0.059602   0.000000
    56  C   -0.129104  -0.000000
    57  C    0.050789  -0.000000
    58  C    0.005330   0.000000
    59  C   -0.167465  -0.000000
    60  S    0.177120   0.000000
    61  C    0.043642   0.000000
    62  C   -0.071502   0.000000
    63  C    0.143439   0.000000
    64  O   -0.251700   0.000000
    65  C    0.212988  -0.000000
    66  C   -0.040553  -0.000000
    67  C    0.128413   0.000000
    68  O   -0.251626  -0.000000
    69  C    0.210898   0.000000
    70  C   -0.062250  -0.000000
    71  C   -0.128138   0.000000
    72  C    0.023032   0.000000
    73  C    0.032121  -0.000000
    74  C   -0.117927   0.000000
    75  S    0.163875   0.000000
 Electronic spatial extent (au):  <R**2>=         273289.0646
 Charge=              0.0000 electrons
 Dipole moment (field-independent basis, Debye):
    X=            -12.2552    Y=              0.1467    Z=              0.1263  Tot=             12.2567
 Quadrupole moment (field-independent basis, Debye-Ang):
   XX=           -411.3722   YY=           -386.9584   ZZ=           -454.1839
   XY=             28.7733   XZ=            -13.3645   YZ=             22.1142
 Traceless Quadrupole moment (field-independent basis, Debye-Ang):
   XX=              6.1327   YY=             30.5464   ZZ=            -36.6791
   XY=             28.7733   XZ=            -13.3645   YZ=             22.1142
 Octapole moment (field-independent basis, Debye-Ang**2):
  XXX=          -4233.5279  YYY=             59.9021  ZZZ=             23.9414  XYY=             55.0750
  XXY=            -29.5258  XXZ=            138.8918  XZZ=           -257.2655  YZZ=            -17.2408
  YYZ=             -0.9766  XYZ=           -307.0723
 Hexadecapole moment (field-independent basis, Debye-Ang**3):
 XXXX=        -315862.3275 YYYY=         -12044.2718 ZZZZ=          -3550.2383 XXXY=           9704.0679
 XXXZ=          -4866.0940 YYYX=           -180.8364 YYYZ=            316.7890 ZZZX=           -506.6998
 ZZZY=            263.2976 XXYY=         -53374.1962 XXZZ=         -56742.2963 YYZZ=          -2819.4855
 XXYZ=           2684.8877 YYXZ=            821.8916 ZZXY=             87.8582
 N-N= 1.113399270794D+04 E-N=-3.414752209893D+04  KE= 5.033773562783D+03
 Leave Link  601 at Fri Jul 24 07:51:45 2020, MaxMem=  4026531840 cpu:              10.3 elap:               1.4
 (Enter /opt/ohpc/pub/libs/gaussian/g16-A.03/sandybridge/g16/l9999.exe)

 Test job not archived.
 1\1\GINC-SKYLAKE034\FOpt\ULC-wPBE\CC-pVDZ\C60H52O10S5\RDU230\24-Jul-20
 20\0\\#P uLC-wPBE/cc-pVDZ iop(3/107=0432700000, 3/108=0432700000) opt\
 \H52 C60 S5 O10\\0,1\C,-18.6323904909,-1.890605982,0.9605114809\C,-18.
 0864718221,-2.5734913757,-0.1121038\C,-16.7042080999,-2.5663922707,-0.
 2912190417\O,-16.0915598168,-3.2089301989,-1.3087116336\C,-16.88686976
 99,-3.8604446792,-2.2663446777\C,-15.8666867655,-1.8758042194,0.597487
 4046\C,-16.4562422683,-1.1961530334,1.6724391756\O,-15.6010737269,-0.5
 523504812,2.4955260596\C,-16.1240633099,0.15412243,3.5914804957\C,-17.
 8366135945,-1.2008594688,1.8584380006\C,-14.4037213926,-1.8744691244,0
 .3992658231\C,-13.5913250762,-2.945743517,0.1703584144\C,-12.234076718
 1,-2.5874808469,-0.0359423115\C,-12.0217228821,-1.2407715434,0.0270198
 561\S,-13.4940316463,-0.4108545577,0.3483325226\C,-10.7498201419,-0.51
 61901059,-0.1264891353\C,-10.5122542991,0.6585606215,0.5784264057\C,-9
 .3042710734,1.3324209269,0.4267966498\O,-9.0231845093,2.4769356078,1.0
 862131589\C,-9.9653734634,2.9752769521,2.0021655029\C,-8.3006799498,0.
 8435689544,-0.4233184535\C,-8.5647260096,-0.3442826032,-1.1204412669\O
 ,-7.5759128414,-0.7753919709,-1.9331352839\C,-7.7651562224,-1.96350231
 25,-2.6585108645\C,-9.7740570759,-1.0155502592,-0.9828676126\C,-7.0216
 663403,1.5624437489,-0.5744618135\C,-6.8318150929,2.9054563824,-0.7283
 968486\C,-5.4646156348,3.2785488791,-0.7806898703\C,-4.6159755783,2.21
 69461172,-0.6553226499\S,-5.5009642577,0.7522012884,-0.4836186438\C,-3
 .1445064931,2.2265818546,-0.6764537669\C,-2.4578169207,3.3254745776,-0
 .1710363163\C,-1.067439403,3.3550322184,-0.2022505658\O,-0.3517388697,
 4.3976206945,0.2729221095\C,-1.0360374129,5.4626587007,0.8823290102\C,
 -0.3277977431,2.2825222457,-0.725051173\C,-1.0441445305,1.1830953064,-
 1.2185611228\O,-0.2965259321,0.1732804432,-1.7135425417\C,-0.946160567
 6,-0.971096677,-2.2062913064\C,-2.4339776535,1.1526336973,-1.201605170
 1\C,1.1464880658,2.3206364619,-0.7471768268\C,1.9490640799,3.366022904
 5,-1.1033344082\C,3.3319890293,3.0925085198,-0.9494170052\C,3.57819523
 84,1.8403058099,-0.4654250743\S,2.105084242,0.9905252172,-0.2088912701
 \C,4.88254074,1.2149964731,-0.1943305647\C,5.947386608,2.0036442804,0.
 2289763111\C,7.1861366763,1.4219214564,0.4717838503\O,8.2599057577,2.1
 305391205,0.8832921987\C,8.1296073554,3.5185193584,1.0555781834\C,7.39
 45292083,0.0441006022,0.3136391627\C,6.3025780769,-0.7316117605,-0.104
 524216\O,6.5306824025,-2.0549403566,-0.2496010811\C,5.4909450638,-2.86
 85540252,-0.7308422338\C,5.063054472,-0.1536636755,-0.3609378986\C,8.7
 060913251,-0.5765932701,0.5785095313\C,8.9607616068,-1.7345333871,1.25
 50891635\C,10.3348381728,-2.0853218671,1.2741588317\C,11.1225113948,-1
 .1967411946,0.6013376013\S,10.1728924551,0.0814729179,-0.0486947857\C,
 12.5834886491,-1.2333199989,0.4260354118\C,13.2336653329,-2.4597350065
 ,0.3358452809\C,14.6152488404,-2.501174657,0.1860838825\O,15.308481893
 1,-3.6563627618,0.0926440608\C,14.6119051695,-4.8728922829,0.178772765
 9\C,15.3804140639,-1.3289761507,0.1099333065\C,14.7012289039,-0.104748
 3767,0.1930367431\O,15.464473459,1.0071331754,0.1167519458\C,14.843831
 5614,2.2597546681,0.2556916135\C,13.3198013015,-0.0558420619,0.3545474
 566\C,16.8463386592,-1.3713706826,-0.0562642313\C,17.6084443472,-0.643
 5283709,-0.9230624884\C,19.003116591,-0.8837587533,-0.785488144\C,19.2
 764776674,-1.7836687717,0.1953888877\S,17.8518166743,-2.3570056874,0.9
 426537794\H,-19.713268206,-1.8971253638,1.1017655339\H,-18.7370638584,
 -3.1057955916,-0.8003994941\H,-16.1941426646,-4.2747686423,-3.00518876
 8\H,-17.4697917455,-4.6812033881,-1.8219671191\H,-17.5710183617,-3.160
 9053802,-2.7693193074\H,-16.7996086566,0.9608511334,3.2698567555\H,-15
 .2647837637,0.5919527479,4.1083790313\H,-16.6582452602,-0.5120235349,4
 .2852542619\H,-18.2916844058,-0.6762323906,2.6939505212\H,-13.96255584
 02,-3.9668364253,0.1459320242\H,-11.4345160207,-3.3080966571,-0.195582
 1003\H,-11.2709940681,1.029127132,1.2622476339\H,-10.9130922754,3.2385
 139644,1.5091126045\H,-9.5222261813,3.8793759393,2.4307043907\H,-10.16
 49496312,2.2559197013,2.8101629628\H,-6.8434521799,-2.1218410266,-3.22
 6496893\H,-7.9301488969,-2.8236471401,-1.9926098255\H,-8.6086162461,-1
 .8799391278,-3.3597764198\H,-9.9818397905,-1.9126595332,-1.5584892831\
 H,-7.6572339701,3.6083609344,-0.7968537028\H,-5.1209825628,4.298979889
 ,-0.9379052811\H,-3.0211387822,4.142727609,0.2693929807\H,-1.617034060
 8,5.1259742146,1.7536628749\H,-1.7065027086,5.9741212084,0.1754152865\
 H,-0.2667944293,6.1656110336,1.2163828172\H,-1.5882934322,-0.732831832
 7,-3.0671671024\H,-0.1540735947,-1.6530768419,-2.5299371755\H,-1.54943
 61855,-1.4617952075,-1.4281391441\H,-2.975847771,0.3075134811,-1.61733
 85774\H,1.5523795612,4.311469818,-1.4621873404\H,4.1212311125,3.791520
 6189,-1.2188067471\H,5.7886981479,3.0652957827,0.3934322807\H,7.847639
 2077,4.0193296413,0.1173734672\H,9.1133361101,3.8782706651,1.371999301
 8\H,7.3911580827,3.7626443852,1.8336140378\H,5.1599124132,-2.553871754
 4,-1.7316435819\H,5.9023991272,-3.8806513817,-0.7929047478\H,4.6277404
 449,-2.8727254071,-0.0485772482\H,4.2321696047,-0.7586994787,-0.713277
 971\H,8.1763592555,-2.3224240022,1.7232457902\H,10.7313055498,-2.95330
 3605,1.7971438601\H,12.6474455018,-3.3737786877,0.354089504\H,15.36736
 09606,-5.6606066957,0.1010517956\H,14.0858489598,-4.9722577196,1.14004
 78078\H,13.8895391728,-4.9856440013,-0.6433870372\H,14.3455590442,2.35
 99416658,1.2314571544\H,15.6435022636,3.0034861545,0.1854301674\H,14.1
 114111006,2.4429142319,-0.5448176907\H,12.806104522,0.8970503706,0.448
 3271473\H,17.1769180572,0.0566317441,-1.6332365974\H,19.7671072459,-0.
 4046274072,-1.3942635378\H,20.2480324165,-2.1565821285,0.5085507593\\V
 ersion=EM64L-G16RevA.03\State=1-A\HF=-5058.2948844\S2=0.\S2-1=0.\S2A=0
 .\RMSD=1.596e-09\RMSF=2.077e-06\Dipole=-4.8213261,0.0695064,0.0580068\
 Quadrupole=4.6732659,20.6326868,-25.3059527,21.9729523,-8.72618,19.074
 8681\PG=C01 [X(C60H52O10S5)]\\@


    WHAT WE HAVE LEARNED
 IS LIKE A HANDFUL OF EARTH;
  WHAT WE HAVE YET TO LEARN
   IS LIKE THE WHOLE WORLD.

         -- AVVAYIAR
 Job cpu time:       3 days 19 hours  7 minutes 34.5 seconds.
 Elapsed time:       0 days 11 hours 32 minutes 59.9 seconds.
 File lengths (MBytes):  RWF=   1984 Int=      0 D2E=      0 Chk=    180 Scr=      8
 Normal termination of Gaussian 16 at Fri Jul 24 07:51:45 2020.
