 Entering Gaussian System, Link 0=g16
 Input=mols_66_1_04_c-n-c-cF_opt_0.gjf
 Output=mols_66_1_04_c-n-c-cF_opt_0.log
 Initial command:
 /opt/ohpc/pub/libs/gaussian/g16-A.03/sandybridge/g16/l1.exe "/mnt/gpfs2_4m/scratch/rdu230/ondemand/projects/dihedral_energies/7trial/wtuning/mols_66_1_04_c-n-c-cF/Gau-241528.inp" -scrdir="/mnt/gpfs2_4m/scratch/rdu230/ondemand/projects/dihedral_energies/7trial/wtuning/mols_66_1_04_c-n-c-cF/"
 Entering Link 1 = /opt/ohpc/pub/libs/gaussian/g16-A.03/sandybridge/g16/l1.exe PID=    241529.
  
 Copyright (c) 1988,1990,1992,1993,1995,1998,2003,2009,2016,
            Gaussian, Inc.  All Rights Reserved.
  
 This is part of the Gaussian(R) 16 program.  It is based on
 the Gaussian(R) 09 system (copyright 2009, Gaussian, Inc.),
 the Gaussian(R) 03 system (copyright 2003, Gaussian, Inc.),
 the Gaussian(R) 98 system (copyright 1998, Gaussian, Inc.),
 the Gaussian(R) 94 system (copyright 1995, Gaussian, Inc.),
 the Gaussian 92(TM) system (copyright 1992, Gaussian, Inc.),
 the Gaussian 90(TM) system (copyright 1990, Gaussian, Inc.),
 the Gaussian 88(TM) system (copyright 1988, Gaussian, Inc.),
 the Gaussian 86(TM) system (copyright 1986, Carnegie Mellon
 University), and the Gaussian 82(TM) system (copyright 1983,
 Carnegie Mellon University). Gaussian is a federally registered
 trademark of Gaussian, Inc.
  
 This software contains proprietary and confidential information,
 including trade secrets, belonging to Gaussian, Inc.
  
 This software is provided under written license and may be
 used, copied, transmitted, or stored only in accord with that
 written license.
  
 The following legend is applicable only to US Government
 contracts under FAR:
  
                    RESTRICTED RIGHTS LEGEND
  
 Use, reproduction and disclosure by the US Government is
 subject to restrictions as set forth in subparagraphs (a)
 and (c) of the Commercial Computer Software - Restricted
 Rights clause in FAR 52.227-19.
  
 Gaussian, Inc.
 340 Quinnipiac St., Bldg. 40, Wallingford CT 06492
  
  
 ---------------------------------------------------------------
 Warning -- This program may not be used in any manner that
 competes with the business of Gaussian, Inc. or will provide
 assistance to any competitor of Gaussian, Inc.  The licensee
 of this program is prohibited from giving any competitor of
 Gaussian, Inc. access to this program.  By using this program,
 the user acknowledges that Gaussian, Inc. is engaged in the
 business of creating and licensing software in the field of
 computational chemistry and represents and warrants to the
 licensee that it is not a competitor of Gaussian, Inc. and that
 it will not use this program in any manner prohibited above.
 ---------------------------------------------------------------
  

 Cite this work as:
 Gaussian 16, Revision A.03,
 M. J. Frisch, G. W. Trucks, H. B. Schlegel, G. E. Scuseria, 
 M. A. Robb, J. R. Cheeseman, G. Scalmani, V. Barone, 
 G. A. Petersson, H. Nakatsuji, X. Li, M. Caricato, A. V. Marenich, 
 J. Bloino, B. G. Janesko, R. Gomperts, B. Mennucci, H. P. Hratchian, 
 J. V. Ortiz, A. F. Izmaylov, J. L. Sonnenberg, D. Williams-Young, 
 F. Ding, F. Lipparini, F. Egidi, J. Goings, B. Peng, A. Petrone, 
 T. Henderson, D. Ranasinghe, V. G. Zakrzewski, J. Gao, N. Rega, 
 G. Zheng, W. Liang, M. Hada, M. Ehara, K. Toyota, R. Fukuda, 
 J. Hasegawa, M. Ishida, T. Nakajima, Y. Honda, O. Kitao, H. Nakai, 
 T. Vreven, K. Throssell, J. A. Montgomery, Jr., J. E. Peralta, 
 F. Ogliaro, M. J. Bearpark, J. J. Heyd, E. N. Brothers, K. N. Kudin, 
 V. N. Staroverov, T. A. Keith, R. Kobayashi, J. Normand, 
 K. Raghavachari, A. P. Rendell, J. C. Burant, S. S. Iyengar, 
 J. Tomasi, M. Cossi, J. M. Millam, M. Klene, C. Adamo, R. Cammi, 
 J. W. Ochterski, R. L. Martin, K. Morokuma, O. Farkas, 
 J. B. Foresman, and D. J. Fox, Gaussian, Inc., Wallingford CT, 2016.
 
 ******************************************
 Gaussian 16:  EM64L-G16RevA.03 25-Dec-2016
                24-Jul-2020 
 ******************************************
 %mem=30GB
 %nproc=8
 Will use up to    8 processors via shared memory.
 ---------------------------------------------------------------
 #P uLC-wPBE/cc-pVDZ iop(3/107=0312000000, 3/108=0312000000) opt
 ---------------------------------------------------------------
 1/18=20,19=15,26=3,38=1/1,3;
 2/9=110,12=2,17=6,18=5,40=1/2;
 3/5=16,11=2,25=1,30=1,71=1,74=-41,107=312000000,108=312000000,116=2/1,2,3;
 4//1;
 5/5=2,38=5/2;
 6/7=2,8=2,9=2,10=2,28=1/1;
 7//1,2,3,16;
 1/18=20,19=15,26=3/3(2);
 2/9=110/2;
 99//99;
 2/9=110/2;
 3/5=16,11=2,25=1,30=1,71=1,74=-41,107=312000000,108=312000000,116=2/1,2,3;
 4/5=5,16=3,69=1/1;
 5/5=2,38=5/2;
 7//1,2,3,16;
 1/18=20,19=15,26=3/3(-5);
 2/9=110/2;
 6/7=2,8=2,9=2,10=2,19=2,28=1/1;
 99/9=1/99;
 Leave Link    1 at Fri Jul 24 13:19:52 2020, MaxMem=  4026531840 cpu:               2.9 elap:               0.4
 (Enter /opt/ohpc/pub/libs/gaussian/g16-A.03/sandybridge/g16/l101.exe)
 ------------
 H8 C11 N1 F1
 ------------
 Symbolic Z-matrix:
 Charge =  0 Multiplicity = 1
 C                    -3.6905   -0.17692   0.00003 
 C                    -2.94991   1.05323  -0.02755 
 C                    -1.56791   1.08281   0.04139 
 C                    -0.8355   -0.10302  -0.04179 
 N                    -1.48909  -1.3037   -0.0454 
 C                    -2.8784   -1.32016  -0.04619 
 C                     0.66673  -0.19929  -0.01986 
 C                     1.25107  -1.44772  -0.04889 
 C                     2.61772  -1.58871   0.03249 
 C                     3.42151  -0.47573  -0.01436 
 C                     2.88218   0.77038   0.03714 
 C                     1.4559    0.94775  -0.03932 
 F                     1.01905   2.15338   0.0364 
 H                    -4.67323  -0.2482    0.00259 
 H                    -3.55866   2.02432   0.00382 
 H                    -1.16452   2.05171   0.01418 
 H                    -3.28882  -2.30115   0.04438 
 H                     0.63552  -2.31442   0.01174 
 H                     3.13709  -2.56113   0.02902 
 H                     4.58621  -0.5684    0.02773 
 H                     3.53636   1.69225  -0.01499 
 
 ITRead=  0  0  0  0  0  0  0  0  0  0  0  0  0  0  0  0  0  0  0  0
 ITRead=  0
 MicOpt= -1 -1 -1 -1 -1 -1 -1 -1 -1 -1 -1 -1 -1 -1 -1 -1 -1 -1 -1 -1
 MicOpt= -1
 NAtoms=     21 NQM=       21 NQMF=       0 NMMI=      0 NMMIF=      0
                NMic=       0 NMicF=      0.
                    Isotopes and Nuclear Properties:
 (Nuclear quadrupole moments (NQMom) in fm**2, nuclear magnetic moments (NMagM)
  in nuclear magnetons)

  Atom         1           2           3           4           5           6           7           8           9          10
 IAtWgt=          12          12          12          12          14          12          12          12          12          12
 AtmWgt=  12.0000000  12.0000000  12.0000000  12.0000000  14.0030740  12.0000000  12.0000000  12.0000000  12.0000000  12.0000000
 NucSpn=           0           0           0           0           2           0           0           0           0           0
 AtZEff=  -0.0000000  -0.0000000  -0.0000000  -0.0000000  -0.0000000  -0.0000000  -0.0000000  -0.0000000  -0.0000000  -0.0000000
 NQMom=    0.0000000   0.0000000   0.0000000   0.0000000   2.0440000   0.0000000   0.0000000   0.0000000   0.0000000   0.0000000
 NMagM=    0.0000000   0.0000000   0.0000000   0.0000000   0.4037610   0.0000000   0.0000000   0.0000000   0.0000000   0.0000000
 AtZNuc=   6.0000000   6.0000000   6.0000000   6.0000000   7.0000000   6.0000000   6.0000000   6.0000000   6.0000000   6.0000000

  Atom        11          12          13          14          15          16          17          18          19          20
 IAtWgt=          12          12          19           1           1           1           1           1           1           1
 AtmWgt=  12.0000000  12.0000000  18.9984033   1.0078250   1.0078250   1.0078250   1.0078250   1.0078250   1.0078250   1.0078250
 NucSpn=           0           0           1           1           1           1           1           1           1           1
 AtZEff=  -0.0000000  -0.0000000  -0.0000000  -0.0000000  -0.0000000  -0.0000000  -0.0000000  -0.0000000  -0.0000000  -0.0000000
 NQMom=    0.0000000   0.0000000   0.0000000   0.0000000   0.0000000   0.0000000   0.0000000   0.0000000   0.0000000   0.0000000
 NMagM=    0.0000000   0.0000000   2.6288670   2.7928460   2.7928460   2.7928460   2.7928460   2.7928460   2.7928460   2.7928460
 AtZNuc=   6.0000000   6.0000000   9.0000000   1.0000000   1.0000000   1.0000000   1.0000000   1.0000000   1.0000000   1.0000000

  Atom        21
 IAtWgt=           1
 AtmWgt=   1.0078250
 NucSpn=           1
 AtZEff=  -0.0000000
 NQMom=    0.0000000
 NMagM=    2.7928460
 AtZNuc=   1.0000000
 Leave Link  101 at Fri Jul 24 13:19:53 2020, MaxMem=  4026531840 cpu:               2.9 elap:               0.4
 (Enter /opt/ohpc/pub/libs/gaussian/g16-A.03/sandybridge/g16/l103.exe)

 GradGradGradGradGradGradGradGradGradGradGradGradGradGradGradGradGradGrad
 Berny optimization.
 Initialization pass.
                           ----------------------------
                           !    Initial Parameters    !
                           ! (Angstroms and Degrees)  !
 --------------------------                            --------------------------
 ! Name  Definition              Value          Derivative Info.                !
 --------------------------------------------------------------------------------
 ! R1    R(1,2)                  1.4361         estimate D2E/DX2                !
 ! R2    R(1,6)                  1.4031         estimate D2E/DX2                !
 ! R3    R(1,14)                 0.9853         estimate D2E/DX2                !
 ! R4    R(2,3)                  1.384          estimate D2E/DX2                !
 ! R5    R(2,15)                 1.1466         estimate D2E/DX2                !
 ! R6    R(3,4)                  1.3963         estimate D2E/DX2                !
 ! R7    R(3,16)                 1.0499         estimate D2E/DX2                !
 ! R8    R(4,5)                  1.367          estimate D2E/DX2                !
 ! R9    R(4,7)                  1.5055         estimate D2E/DX2                !
 ! R10   R(5,6)                  1.3894         estimate D2E/DX2                !
 ! R11   R(6,17)                 1.0672         estimate D2E/DX2                !
 ! R12   R(7,8)                  1.3787         estimate D2E/DX2                !
 ! R13   R(7,12)                 1.3924         estimate D2E/DX2                !
 ! R14   R(8,9)                  1.3763         estimate D2E/DX2                !
 ! R15   R(8,18)                 1.0648         estimate D2E/DX2                !
 ! R16   R(9,10)                 1.3737         estimate D2E/DX2                !
 ! R17   R(9,19)                 1.1024         estimate D2E/DX2                !
 ! R18   R(10,11)                1.3588         estimate D2E/DX2                !
 ! R19   R(10,20)                1.1691         estimate D2E/DX2                !
 ! R20   R(11,12)                1.4393         estimate D2E/DX2                !
 ! R21   R(11,21)                1.1316         estimate D2E/DX2                !
 ! R22   R(12,13)                1.2846         estimate D2E/DX2                !
 ! A1    A(2,1,6)              113.5051         estimate D2E/DX2                !
 ! A2    A(2,1,14)             125.194          estimate D2E/DX2                !
 ! A3    A(6,1,14)             121.2259         estimate D2E/DX2                !
 ! A4    A(1,2,3)              122.1591         estimate D2E/DX2                !
 ! A5    A(1,2,15)             116.8186         estimate D2E/DX2                !
 ! A6    A(3,2,15)             120.7099         estimate D2E/DX2                !
 ! A7    A(2,3,4)              120.1764         estimate D2E/DX2                !
 ! A8    A(2,3,16)             113.7092         estimate D2E/DX2                !
 ! A9    A(4,3,16)             125.4997         estimate D2E/DX2                !
 ! A10   A(3,4,5)              119.6898         estimate D2E/DX2                !
 ! A11   A(3,4,7)              125.2301         estimate D2E/DX2                !
 ! A12   A(5,4,7)              114.8944         estimate D2E/DX2                !
 ! A13   A(4,5,6)              119.24           estimate D2E/DX2                !
 ! A14   A(1,6,5)              124.6865         estimate D2E/DX2                !
 ! A15   A(1,6,17)             121.5727         estimate D2E/DX2                !
 ! A16   A(5,6,17)             113.2894         estimate D2E/DX2                !
 ! A17   A(4,7,8)              118.7183         estimate D2E/DX2                !
 ! A18   A(4,7,12)             120.8409         estimate D2E/DX2                !
 ! A19   A(8,7,12)             120.3596         estimate D2E/DX2                !
 ! A20   A(7,8,9)              120.8215         estimate D2E/DX2                !
 ! A21   A(7,8,18)             119.396          estimate D2E/DX2                !
 ! A22   A(9,8,18)             119.1627         estimate D2E/DX2                !
 ! A23   A(8,9,10)             119.7365         estimate D2E/DX2                !
 ! A24   A(8,9,19)             123.9161         estimate D2E/DX2                !
 ! A25   A(10,9,19)            116.0336         estimate D2E/DX2                !
 ! A26   A(9,10,11)            120.6291         estimate D2E/DX2                !
 ! A27   A(9,10,20)            121.1624         estimate D2E/DX2                !
 ! A28   A(11,10,20)           117.823          estimate D2E/DX2                !
 ! A29   A(10,11,12)           120.2873         estimate D2E/DX2                !
 ! A30   A(10,11,21)           121.0569         estimate D2E/DX2                !
 ! A31   A(12,11,21)           118.0366         estimate D2E/DX2                !
 ! A32   A(7,12,11)            117.3462         estimate D2E/DX2                !
 ! A33   A(7,12,13)            125.4217         estimate D2E/DX2                !
 ! A34   A(11,12,13)           116.7133         estimate D2E/DX2                !
 ! D1    D(6,1,2,3)             -6.6052         estimate D2E/DX2                !
 ! D2    D(6,1,2,15)           179.7756         estimate D2E/DX2                !
 ! D3    D(14,1,2,3)           176.527          estimate D2E/DX2                !
 ! D4    D(14,1,2,15)            2.9079         estimate D2E/DX2                !
 ! D5    D(2,1,6,5)              3.3697         estimate D2E/DX2                !
 ! D6    D(2,1,6,17)           175.1346         estimate D2E/DX2                !
 ! D7    D(14,1,6,5)          -179.6236         estimate D2E/DX2                !
 ! D8    D(14,1,6,17)           -7.8587         estimate D2E/DX2                !
 ! D9    D(1,2,3,4)              8.7228         estimate D2E/DX2                !
 ! D10   D(1,2,3,16)          -179.7801         estimate D2E/DX2                !
 ! D11   D(15,2,3,4)          -177.9016         estimate D2E/DX2                !
 ! D12   D(15,2,3,16)           -6.4046         estimate D2E/DX2                !
 ! D13   D(2,3,4,5)             -7.0779         estimate D2E/DX2                !
 ! D14   D(2,3,4,7)            178.1378         estimate D2E/DX2                !
 ! D15   D(16,3,4,5)          -177.5057         estimate D2E/DX2                !
 ! D16   D(16,3,4,7)             7.71           estimate D2E/DX2                !
 ! D17   D(3,4,5,6)              3.7985         estimate D2E/DX2                !
 ! D18   D(7,4,5,6)            179.1029         estimate D2E/DX2                !
 ! D19   D(3,4,7,8)            177.0597         estimate D2E/DX2                !
 ! D20   D(3,4,7,12)            -6.2054         estimate D2E/DX2                !
 ! D21   D(5,4,7,8)              2.0543         estimate D2E/DX2                !
 ! D22   D(5,4,7,12)           178.7892         estimate D2E/DX2                !
 ! D23   D(4,5,6,1)             -2.1641         estimate D2E/DX2                !
 ! D24   D(4,5,6,17)          -174.5293         estimate D2E/DX2                !
 ! D25   D(4,7,8,9)           -176.9426         estimate D2E/DX2                !
 ! D26   D(4,7,8,18)            -6.0428         estimate D2E/DX2                !
 ! D27   D(12,7,8,9)             6.3064         estimate D2E/DX2                !
 ! D28   D(12,7,8,18)          177.2061         estimate D2E/DX2                !
 ! D29   D(4,7,12,11)          177.6068         estimate D2E/DX2                !
 ! D30   D(4,7,12,13)            6.1705         estimate D2E/DX2                !
 ! D31   D(8,7,12,11)           -5.7119         estimate D2E/DX2                !
 ! D32   D(8,7,12,13)         -177.1481         estimate D2E/DX2                !
 ! D33   D(7,8,9,10)            -7.6307         estimate D2E/DX2                !
 ! D34   D(7,8,9,19)           179.0658         estimate D2E/DX2                !
 ! D35   D(18,8,9,10)         -178.5515         estimate D2E/DX2                !
 ! D36   D(18,8,9,19)            8.1451         estimate D2E/DX2                !
 ! D37   D(8,9,10,11)            8.712          estimate D2E/DX2                !
 ! D38   D(8,9,10,20)         -178.5698         estimate D2E/DX2                !
 ! D39   D(19,9,10,11)        -177.4705         estimate D2E/DX2                !
 ! D40   D(19,9,10,20)          -4.7524         estimate D2E/DX2                !
 ! D41   D(9,10,11,12)          -8.3632         estimate D2E/DX2                !
 ! D42   D(9,10,11,21)        -179.1652         estimate D2E/DX2                !
 ! D43   D(20,10,11,12)        178.6812         estimate D2E/DX2                !
 ! D44   D(20,10,11,21)          7.8792         estimate D2E/DX2                !
 ! D45   D(10,11,12,7)           6.7823         estimate D2E/DX2                !
 ! D46   D(10,11,12,13)        178.9747         estimate D2E/DX2                !
 ! D47   D(21,11,12,7)         177.8574         estimate D2E/DX2                !
 ! D48   D(21,11,12,13)         -9.9502         estimate D2E/DX2                !
 --------------------------------------------------------------------------------
 Trust Radius=3.00D-01 FncErr=1.00D-07 GrdErr=1.00D-06 EigMax=2.50D+02 EigMin=1.00D-04
 Number of steps in this run=    114 maximum allowed number of steps=    126.
 GradGradGradGradGradGradGradGradGradGradGradGradGradGradGradGradGradGrad

 Leave Link  103 at Fri Jul 24 13:19:53 2020, MaxMem=  4026531840 cpu:               0.1 elap:               0.0
 (Enter /opt/ohpc/pub/libs/gaussian/g16-A.03/sandybridge/g16/l202.exe)
                          Input orientation:                          
 ---------------------------------------------------------------------
 Center     Atomic      Atomic             Coordinates (Angstroms)
 Number     Number       Type             X           Y           Z
 ---------------------------------------------------------------------
      1          6           0       -3.690497   -0.176918    0.000033
      2          6           0       -2.949911    1.053227   -0.027548
      3          6           0       -1.567913    1.082806    0.041386
      4          6           0       -0.835502   -0.103023   -0.041788
      5          7           0       -1.489085   -1.303703   -0.045396
      6          6           0       -2.878400   -1.320158   -0.046193
      7          6           0        0.666734   -0.199287   -0.019855
      8          6           0        1.251069   -1.447720   -0.048888
      9          6           0        2.617724   -1.588713    0.032488
     10          6           0        3.421514   -0.475733   -0.014359
     11          6           0        2.882176    0.770377    0.037137
     12          6           0        1.455896    0.947751   -0.039319
     13          9           0        1.019054    2.153383    0.036400
     14          1           0       -4.673234   -0.248203    0.002594
     15          1           0       -3.558656    2.024322    0.003823
     16          1           0       -1.164523    2.051707    0.014182
     17          1           0       -3.288823   -2.301153    0.044383
     18          1           0        0.635523   -2.314419    0.011735
     19          1           0        3.137088   -2.561130    0.029023
     20          1           0        4.586208   -0.568403    0.027734
     21          1           0        3.536364    1.692248   -0.014990
 ---------------------------------------------------------------------
                    Distance matrix (angstroms):
                    1          2          3          4          5
     1  C    0.000000
     2  C    1.436135   0.000000
     3  C    2.468598   1.384032   0.000000
     4  C    2.856257   2.409947   1.396257   0.000000
     5  N    2.473444   2.772986   2.389387   1.367047   0.000000
     6  C    1.403081   2.374535   2.738482   2.377997   1.389413
     7  C    4.357334   3.827397   2.577045   1.505477   2.422384
     8  C    5.102588   4.889113   3.789244   2.482345   2.743938
     9  C    6.464354   6.162955   4.965546   3.759995   4.117424
    10  C    7.118300   6.552324   5.227479   4.273389   4.980008
    11  C    6.640691   5.839300   4.461045   3.819710   4.839064
    12  C    5.267997   4.407085   3.027899   2.520841   3.707020
    13  F    5.254664   4.119116   2.799743   2.921790   4.271873
    14  H    0.985322   2.159739   3.378773   3.840734   3.354875
    15  H    2.205188   1.146551   2.202481   3.455900   3.919349
    16  H    3.368607   2.046048   1.049873   2.180424   3.371597
    17  H    2.162333   3.372225   3.796409   3.295146   2.059617
    18  H    4.825298   4.919138   4.049339   2.656511   2.353459
    19  H    7.231959   7.079430   5.951089   4.672128   4.794595
    20  H    8.286005   7.708815   6.371804   5.442091   6.120065
    21  H    7.464685   6.517689   5.140841   4.726196   5.850793
                    6          7          8          9         10
     6  C    0.000000
     7  C    3.718201   0.000000
     8  C    4.131440   1.378722   0.000000
     9  C    5.503244   2.395748   1.376316   0.000000
    10  C    6.356334   2.768622   2.378399   1.373680   0.000000
    11  C    6.128745   2.419025   2.754608   2.373871   1.358796
    12  C    4.891787   1.392427   2.404231   2.790815   2.427052
    13  F    5.221346   2.379569   3.609577   4.069280   3.561831
    14  H    2.091147   5.340239   6.044738   7.413227   8.097963
    15  H    3.413326   4.774821   5.932226   7.155593   7.414403
    16  H    3.782921   2.902005   4.252652   5.249608   5.236459
    17  H    1.067240   4.479777   4.620354   5.949371   6.954440
    18  H    3.652337   2.115598   1.064772   2.110972   3.338142
    19  H    6.142619   3.418090   2.191534   1.102427   2.105151
    20  H    7.502731   3.937104   3.449960   2.217202   1.169133
    21  H    7.086943   3.436962   3.883699   3.407471   2.171021
                   11         12         13         14         15
    11  C    0.000000
    12  C    1.439299   0.000000
    13  F    2.320330   1.284567   0.000000
    14  H    7.623839   6.244862   6.178260   0.000000
    15  H    6.561845   5.128996   4.579645   2.531137   0.000000
    16  H    4.244774   2.843972   2.186056   4.195328   2.394312
    17  H    6.893154   5.751064   6.196835   2.476478   4.334073
    18  H    3.816289   3.364130   4.484301   5.696686   6.034557
    19  H    3.341255   3.891442   5.168438   8.145641   8.115417
    20  H    2.167059   3.478803   4.486957   9.265011   8.547608
    21  H    1.131603   2.209800   2.559714   8.435826   7.102812
                   16         17         18         19         20
    16  H    0.000000
    17  H    4.843651   0.000000
    18  H    4.722629   3.924504   0.000000
    19  H    6.307325   6.431186   2.513761   0.000000
    20  H    6.319499   8.063424   4.319345   2.463922   0.000000
    21  H    4.714700   7.907841   4.946612   4.272304   2.492898
                   21
    21  H    0.000000
 Stoichiometry    C11H8FN
 Framework group  C1[X(C11H8FN)]
 Deg. of freedom    57
 Full point group                 C1      NOp   1
 Largest Abelian subgroup         C1      NOp   1
 Largest concise Abelian subgroup C1      NOp   1
                         Standard orientation:                         
 ---------------------------------------------------------------------
 Center     Atomic      Atomic             Coordinates (Angstroms)
 Number     Number       Type             X           Y           Z
 ---------------------------------------------------------------------
      1          6           0       -3.692599   -0.168981    0.023247
      2          6           0       -2.952206    1.060825   -0.020123
      3          6           0       -1.569952    1.091159    0.043105
      4          6           0       -0.837794   -0.095460   -0.030486
      5          7           0       -1.491308   -1.296127   -0.018951
      6          6           0       -2.880614   -1.312623   -0.014155
      7          6           0        0.664523   -0.191452   -0.013406
      8          6           0        1.248821   -1.440107   -0.031624
      9          6           0        2.615793   -1.580206    0.045893
     10          6           0        3.419321   -0.467759   -0.015759
     11          6           0        2.880107    0.778810    0.024769
     12          6           0        1.453528    0.955338   -0.047977
     13          9           0        1.016906    2.161687    0.016798
     14          1           0       -4.675314   -0.240259    0.030390
     15          1           0       -3.560887    2.032181    0.003437
     16          1           0       -1.166734    2.059731    0.004167
     17          1           0       -3.290617   -2.292624    0.088305
     18          1           0        0.633573   -2.306137    0.040486
     19          1           0        3.135202   -2.552593    0.050600
     20          1           0        4.584177   -0.559954    0.022759
     21          1           0        3.534027    1.700099   -0.039575
 ---------------------------------------------------------------------
 Rotational constants (GHZ):           1.8982509           0.5497328           0.4263888
 Leave Link  202 at Fri Jul 24 13:19:53 2020, MaxMem=  4026531840 cpu:               0.2 elap:               0.0
 (Enter /opt/ohpc/pub/libs/gaussian/g16-A.03/sandybridge/g16/l301.exe)
 Standard basis: CC-pVDZ (5D, 7F)
 Ernie: Thresh=  0.10000D-02 Tol=  0.10000D-05 Strict=F.
 Ernie:  26 primitive shells out of 326 were deleted.
 There are   235 symmetry adapted cartesian basis functions of A   symmetry.
 There are   222 symmetry adapted basis functions of A   symmetry.
   222 basis functions,   485 primitive gaussians,   235 cartesian basis functions
    45 alpha electrons       45 beta electrons
       nuclear repulsion energy       712.3553464519 Hartrees.
 IExCor=32609 DFT=T Ex+Corr=LC-wPBE ExCW=0 ScaHFX=  1.000000
 ScaDFX=  1.000000  0.000000  1.000000  1.000000 ScalE2=  1.000000  1.000000
 IRadAn=      5 IRanWt=     -1 IRanGd=            0 ICorTp=0 IEmpDi=  4
 HFx  wShort=  0.000000 wLong=  0.312000 cFull=  0.000000 cShort=  0.000000 cLong=  1.000000
 DFx  wShort=  0.000000 wLong=  0.312000 cFull=  0.000000 cShort=  0.000000 cLong=  1.000000
 NAtoms=   21 NActive=   21 NUniq=   21 SFac= 1.00D+00 NAtFMM=   60 NAOKFM=F Big=F
 Integral buffers will be    131072 words long.
 Raffenetti 2 integral format.
 Two-electron integral symmetry is turned on.
 Leave Link  301 at Fri Jul 24 13:19:53 2020, MaxMem=  4026531840 cpu:               0.7 elap:               0.1
 (Enter /opt/ohpc/pub/libs/gaussian/g16-A.03/sandybridge/g16/l302.exe)
 NPDir=0 NMtPBC=     1 NCelOv=     1 NCel=       1 NClECP=     1 NCelD=      1
         NCelK=      1 NCelE2=     1 NClLst=     1 CellRange=     0.0.
 One-electron integrals computed using PRISM.
 One-electron integral symmetry used in STVInt
 NBasis=   222 RedAO= T EigKep=  4.15D-04  NBF=   222
 NBsUse=   222 1.00D-06 EigRej= -1.00D+00 NBFU=   222
 Precomputing XC quadrature grid using
 IXCGrd= 4 IRadAn=           5 IRanWt=          -1 IRanGd=           0 AccXCQ= 0.00D+00.
 Generated NRdTot=       0 NPtTot=           0 NUsed=           0 NTot=          32
 NSgBfM=   234   234   234   234   234 MxSgAt=    21 MxSgA2=    21.
 Leave Link  302 at Fri Jul 24 13:19:53 2020, MaxMem=  4026531840 cpu:               2.3 elap:               0.3
 (Enter /opt/ohpc/pub/libs/gaussian/g16-A.03/sandybridge/g16/l303.exe)
 DipDrv:  MaxL=1.
 Leave Link  303 at Fri Jul 24 13:19:53 2020, MaxMem=  4026531840 cpu:               0.3 elap:               0.1
 (Enter /opt/ohpc/pub/libs/gaussian/g16-A.03/sandybridge/g16/l401.exe)
 ExpMin= 1.22D-01 ExpMax= 1.47D+04 ExpMxC= 5.03D+02 IAcc=3 IRadAn=         5 AccDes= 0.00D+00
 Harris functional with IExCor=32609 and IRadAn=       5 diagonalized for initial guess.
 HarFok:  IExCor=32609 AccDes= 0.00D+00 IRadAn=         5 IDoV= 1 UseB2=F ITyADJ=14
 ICtDFT=  3500011 ScaDFX=  1.000000  1.000000  1.000000  1.000000
 FoFCou: FMM=F IPFlag=           0 FMFlag=      100000 FMFlg1=           0
         NFxFlg=           0 DoJE=T BraDBF=F KetDBF=T FulRan=T
         wScrn=  0.000000 ICntrl=       500 IOpCl=  0 I1Cent=   200000004 NGrid=           0
         NMat0=    1 NMatS0=      1 NMatT0=    0 NMatD0=    1 NMtDS0=    0 NMtDT0=    0
 Petite list used in FoFCou.
 Harris En= -578.100196781030    
 JPrj=0 DoOrth=F DoCkMO=F.
 Initial guess <Sx>= 0.0000 <Sy>= 0.0000 <Sz>= 0.0000 <S**2>=-0.0000 S=-0.0000
 Leave Link  401 at Fri Jul 24 13:19:55 2020, MaxMem=  4026531840 cpu:              10.3 elap:               1.3
 (Enter /opt/ohpc/pub/libs/gaussian/g16-A.03/sandybridge/g16/l502.exe)
 Integral symmetry usage will be decided dynamically.
 UHF open shell SCF:
 Using DIIS extrapolation, IDIIS=  1040.
 NGot=  4026531840 LenX=  4026416995 LenY=  4026361329
 Requested convergence on RMS density matrix=1.00D-08 within 128 cycles.
 Requested convergence on MAX density matrix=1.00D-06.
 Requested convergence on             energy=1.00D-06.
 No special actions if energy rises.
 Fock matrices will be formed incrementally for  20 cycles.
 Integral accuracy reduced to 1.0D-05 until final iterations.

 Cycle   1  Pass 0  IDiag  1:
 FoFJK:  IHMeth= 1 ICntrl=       0 DoSepK=T KAlg= 0 I1Cent=           0 FoldK=F
 IRaf=         1 NMat=       1 IRICut=       1 DoRegI=T DoRafI=F ISym2E= 0 IDoP0=0 IntGTp=1.
 FoFCou: FMM=F IPFlag=           0 FMFlag=      100000 FMFlg1=           0
         NFxFlg=           0 DoJE=T BraDBF=F KetDBF=F FulRan=T
         wScrn=  0.000000 ICntrl=       500 IOpCl=  0 I1Cent=           0 NGrid=           0
         NMat0=    1 NMatS0=      1 NMatT0=    0 NMatD0=    1 NMtDS0=    0 NMtDT0=    0
 Symmetry not used in FoFCou.
 E= -577.914220836099    
 DIIS: error= 2.82D-02 at cycle   1 NSaved=   1.
 NSaved= 1 IEnMin= 1 EnMin= -577.914220836099     IErMin= 1 ErrMin= 2.82D-02
 ErrMax= 2.82D-02  0.00D+00 EMaxC= 1.00D-01 BMatC= 7.32D-01 BMatP= 7.32D-01
 IDIUse=3 WtCom= 7.18D-01 WtEn= 2.82D-01
 Coeff-Com:  0.100D+01
 Coeff-En:   0.100D+01
 Coeff:      0.100D+01
 Gap=     0.360 Goal=   None    Shift=    0.000
 Gap=     0.360 Goal=   None    Shift=    0.000
 GapD=    0.360 DampG=1.000 DampE=0.500 DampFc=0.5000 IDamp=-1.
 Damping current iteration by 5.00D-01
 RMSDP=3.85D-03 MaxDP=8.56D-02              OVMax= 1.85D-01

 Cycle   2  Pass 0  IDiag  1:
 RMSU=  1.87D-03    CP:  9.80D-01
 E= -578.026015769794     Delta-E=       -0.111794933694 Rises=F Damp=T
 DIIS: error= 8.37D-03 at cycle   2 NSaved=   2.
 NSaved= 2 IEnMin= 2 EnMin= -578.026015769794     IErMin= 2 ErrMin= 8.37D-03
 ErrMax= 8.37D-03  0.00D+00 EMaxC= 1.00D-01 BMatC= 4.91D-02 BMatP= 7.32D-01
 IDIUse=3 WtCom= 9.16D-01 WtEn= 8.37D-02
 Coeff-Com: -0.127D+00 0.113D+01
 Coeff-En:   0.000D+00 0.100D+01
 Coeff:     -0.117D+00 0.112D+01
 Gap=     0.364 Goal=   None    Shift=    0.000
 Gap=     0.364 Goal=   None    Shift=    0.000
 RMSDP=1.34D-03 MaxDP=2.48D-02 DE=-1.12D-01 OVMax= 9.23D-02

 Cycle   3  Pass 0  IDiag  1:
 RMSU=  1.10D-03    CP:  9.69D-01  1.38D+00
 E= -578.126018285357     Delta-E=       -0.100002515564 Rises=F Damp=F
 DIIS: error= 3.51D-03 at cycle   3 NSaved=   3.
 NSaved= 3 IEnMin= 3 EnMin= -578.126018285357     IErMin= 3 ErrMin= 3.51D-03
 ErrMax= 3.51D-03  0.00D+00 EMaxC= 1.00D-01 BMatC= 1.35D-02 BMatP= 4.91D-02
 IDIUse=3 WtCom= 9.65D-01 WtEn= 3.51D-02
 Coeff-Com: -0.774D-01 0.403D+00 0.675D+00
 Coeff-En:   0.000D+00 0.000D+00 0.100D+01
 Coeff:     -0.747D-01 0.389D+00 0.686D+00
 Gap=     0.343 Goal=   None    Shift=    0.000
 Gap=     0.343 Goal=   None    Shift=    0.000
 RMSDP=3.42D-04 MaxDP=1.32D-02 DE=-1.00D-01 OVMax= 2.48D-02

 Cycle   4  Pass 0  IDiag  1:
 RMSU=  2.77D-04    CP:  9.68D-01  1.40D+00  8.21D-01
 E= -578.129078551198     Delta-E=       -0.003060265841 Rises=F Damp=F
 DIIS: error= 1.36D-03 at cycle   4 NSaved=   4.
 NSaved= 4 IEnMin= 4 EnMin= -578.129078551198     IErMin= 4 ErrMin= 1.36D-03
 ErrMax= 1.36D-03  0.00D+00 EMaxC= 1.00D-01 BMatC= 1.60D-03 BMatP= 1.35D-02
 IDIUse=3 WtCom= 9.86D-01 WtEn= 1.36D-02
 Coeff-Com: -0.114D-01 0.452D-01 0.269D+00 0.697D+00
 Coeff-En:   0.000D+00 0.000D+00 0.000D+00 0.100D+01
 Coeff:     -0.112D-01 0.445D-01 0.265D+00 0.702D+00
 Gap=     0.342 Goal=   None    Shift=    0.000
 Gap=     0.342 Goal=   None    Shift=    0.000
 RMSDP=1.16D-04 MaxDP=2.86D-03 DE=-3.06D-03 OVMax= 5.59D-03

 Cycle   5  Pass 0  IDiag  1:
 RMSU=  7.63D-05    CP:  9.68D-01  1.41D+00  8.79D-01  7.89D-01
 E= -578.129471808518     Delta-E=       -0.000393257319 Rises=F Damp=F
 DIIS: error= 2.98D-04 at cycle   5 NSaved=   5.
 NSaved= 5 IEnMin= 5 EnMin= -578.129471808518     IErMin= 5 ErrMin= 2.98D-04
 ErrMax= 2.98D-04  0.00D+00 EMaxC= 1.00D-01 BMatC= 9.84D-05 BMatP= 1.60D-03
 IDIUse=3 WtCom= 9.97D-01 WtEn= 2.98D-03
 Coeff-Com:  0.304D-02-0.147D-01 0.482D-01 0.235D+00 0.728D+00
 Coeff-En:   0.000D+00 0.000D+00 0.000D+00 0.000D+00 0.100D+01
 Coeff:      0.303D-02-0.146D-01 0.480D-01 0.235D+00 0.729D+00
 Gap=     0.343 Goal=   None    Shift=    0.000
 Gap=     0.343 Goal=   None    Shift=    0.000
 RMSDP=3.36D-05 MaxDP=6.64D-04 DE=-3.93D-04 OVMax= 2.55D-03

 Cycle   6  Pass 0  IDiag  1:
 RMSU=  2.85D-05    CP:  9.68D-01  1.41D+00  8.90D-01  8.34D-01  9.87D-01
 E= -578.129501207674     Delta-E=       -0.000029399156 Rises=F Damp=F
 DIIS: error= 1.44D-04 at cycle   6 NSaved=   6.
 NSaved= 6 IEnMin= 6 EnMin= -578.129501207674     IErMin= 6 ErrMin= 1.44D-04
 ErrMax= 1.44D-04  0.00D+00 EMaxC= 1.00D-01 BMatC= 1.65D-05 BMatP= 9.84D-05
 IDIUse=3 WtCom= 9.99D-01 WtEn= 1.44D-03
 Coeff-Com:  0.343D-02-0.125D-01-0.112D-01 0.871D-03 0.269D+00 0.751D+00
 Coeff-En:   0.000D+00 0.000D+00 0.000D+00 0.000D+00 0.000D+00 0.100D+01
 Coeff:      0.343D-02-0.125D-01-0.112D-01 0.870D-03 0.268D+00 0.751D+00
 Gap=     0.343 Goal=   None    Shift=    0.000
 Gap=     0.343 Goal=   None    Shift=    0.000
 RMSDP=1.41D-05 MaxDP=3.50D-04 DE=-2.94D-05 OVMax= 1.21D-03

 Cycle   7  Pass 0  IDiag  1:
 RMSU=  9.25D-06    CP:  9.68D-01  1.41D+00  8.95D-01  8.43D-01  1.11D+00
                    CP:  9.91D-01
 E= -578.129507884046     Delta-E=       -0.000006676372 Rises=F Damp=F
 DIIS: error= 4.49D-05 at cycle   7 NSaved=   7.
 NSaved= 7 IEnMin= 7 EnMin= -578.129507884046     IErMin= 7 ErrMin= 4.49D-05
 ErrMax= 4.49D-05  0.00D+00 EMaxC= 1.00D-01 BMatC= 2.04D-06 BMatP= 1.65D-05
 IDIUse=1 WtCom= 1.00D+00 WtEn= 0.00D+00
 Coeff-Com:  0.612D-03-0.116D-02-0.665D-02-0.359D-01-0.753D-01 0.157D+00
 Coeff-Com:  0.962D+00
 Coeff:      0.612D-03-0.116D-02-0.665D-02-0.359D-01-0.753D-01 0.157D+00
 Coeff:      0.962D+00
 Gap=     0.343 Goal=   None    Shift=    0.000
 Gap=     0.343 Goal=   None    Shift=    0.000
 RMSDP=8.60D-06 MaxDP=1.80D-04 DE=-6.68D-06 OVMax= 7.69D-04

 Initial convergence to 1.0D-05 achieved.  Increase integral accuracy.
 Cycle   8  Pass 1  IDiag  1:
 E= -578.129320868677     Delta-E=        0.000187015369 Rises=F Damp=F
 DIIS: error= 4.33D-05 at cycle   1 NSaved=   1.
 NSaved= 1 IEnMin= 1 EnMin= -578.129320868677     IErMin= 1 ErrMin= 4.33D-05
 ErrMax= 4.33D-05  0.00D+00 EMaxC= 1.00D-01 BMatC= 2.00D-06 BMatP= 2.00D-06
 IDIUse=1 WtCom= 1.00D+00 WtEn= 0.00D+00
 Coeff-Com:  0.100D+01
 Coeff:      0.100D+01
 Gap=     0.343 Goal=   None    Shift=    0.000
 Gap=     0.343 Goal=   None    Shift=    0.000
 RMSDP=8.60D-06 MaxDP=1.80D-04 DE= 1.87D-04 OVMax= 1.65D-04

 Cycle   9  Pass 1  IDiag  1:
 RMSU=  3.75D-05    CP:  1.00D+00
 E= -578.129321217810     Delta-E=       -0.000000349133 Rises=F Damp=F
 DIIS: error= 1.62D-05 at cycle   2 NSaved=   2.
 NSaved= 2 IEnMin= 2 EnMin= -578.129321217810     IErMin= 2 ErrMin= 1.62D-05
 ErrMax= 1.62D-05  0.00D+00 EMaxC= 1.00D-01 BMatC= 3.08D-07 BMatP= 2.00D-06
 IDIUse=1 WtCom= 1.00D+00 WtEn= 0.00D+00
 Coeff-Com:  0.190D+00 0.810D+00
 Coeff:      0.190D+00 0.810D+00
 Gap=     0.343 Goal=   None    Shift=    0.000
 Gap=     0.343 Goal=   None    Shift=    0.000
 RMSDP=2.81D-06 MaxDP=6.75D-05 DE=-3.49D-07 OVMax= 1.28D-04

 Cycle  10  Pass 1  IDiag  1:
 RMSU=  2.10D-06    CP:  1.00D+00  1.05D+00
 E= -578.129321284336     Delta-E=       -0.000000066526 Rises=F Damp=F
 DIIS: error= 1.20D-05 at cycle   3 NSaved=   3.
 NSaved= 3 IEnMin= 3 EnMin= -578.129321284336     IErMin= 3 ErrMin= 1.20D-05
 ErrMax= 1.20D-05  0.00D+00 EMaxC= 1.00D-01 BMatC= 1.70D-07 BMatP= 3.08D-07
 IDIUse=1 WtCom= 1.00D+00 WtEn= 0.00D+00
 Coeff-Com: -0.276D-01 0.419D+00 0.609D+00
 Coeff:     -0.276D-01 0.419D+00 0.609D+00
 Gap=     0.343 Goal=   None    Shift=    0.000
 Gap=     0.343 Goal=   None    Shift=    0.000
 RMSDP=1.08D-06 MaxDP=2.68D-05 DE=-6.65D-08 OVMax= 4.26D-05

 Cycle  11  Pass 1  IDiag  1:
 RMSU=  7.24D-07    CP:  1.00D+00  1.07D+00  8.05D-01
 E= -578.129321315682     Delta-E=       -0.000000031346 Rises=F Damp=F
 DIIS: error= 2.49D-06 at cycle   4 NSaved=   4.
 NSaved= 4 IEnMin= 4 EnMin= -578.129321315682     IErMin= 4 ErrMin= 2.49D-06
 ErrMax= 2.49D-06  0.00D+00 EMaxC= 1.00D-01 BMatC= 5.85D-09 BMatP= 1.70D-07
 IDIUse=1 WtCom= 1.00D+00 WtEn= 0.00D+00
 Coeff-Com: -0.173D-01 0.105D+00 0.157D+00 0.755D+00
 Coeff:     -0.173D-01 0.105D+00 0.157D+00 0.755D+00
 Gap=     0.343 Goal=   None    Shift=    0.000
 Gap=     0.343 Goal=   None    Shift=    0.000
 RMSDP=3.00D-07 MaxDP=9.46D-06 DE=-3.13D-08 OVMax= 2.69D-05

 Cycle  12  Pass 1  IDiag  1:
 RMSU=  2.32D-07    CP:  1.00D+00  1.07D+00  8.66D-01  1.17D+00
 E= -578.129321322278     Delta-E=       -0.000000006597 Rises=F Damp=F
 DIIS: error= 1.80D-06 at cycle   5 NSaved=   5.
 NSaved= 5 IEnMin= 5 EnMin= -578.129321322278     IErMin= 5 ErrMin= 1.80D-06
 ErrMax= 1.80D-06  0.00D+00 EMaxC= 1.00D-01 BMatC= 1.82D-09 BMatP= 5.85D-09
 IDIUse=1 WtCom= 1.00D+00 WtEn= 0.00D+00
 Coeff-Com:  0.773D-02-0.158D+00-0.271D+00 0.203D+00 0.122D+01
 Coeff:      0.773D-02-0.158D+00-0.271D+00 0.203D+00 0.122D+01
 Gap=     0.343 Goal=   None    Shift=    0.000
 Gap=     0.343 Goal=   None    Shift=    0.000
 RMSDP=3.84D-07 MaxDP=7.25D-06 DE=-6.60D-09 OVMax= 3.84D-05

 Cycle  13  Pass 1  IDiag  1:
 RMSU=  1.37D-07    CP:  1.00D+00  1.07D+00  9.28D-01  1.60D+00  1.44D+00
 E= -578.129321324212     Delta-E=       -0.000000001933 Rises=F Damp=F
 DIIS: error= 3.48D-07 at cycle   6 NSaved=   6.
 NSaved= 6 IEnMin= 6 EnMin= -578.129321324212     IErMin= 6 ErrMin= 3.48D-07
 ErrMax= 3.48D-07  0.00D+00 EMaxC= 1.00D-01 BMatC= 1.68D-10 BMatP= 1.82D-09
 IDIUse=1 WtCom= 1.00D+00 WtEn= 0.00D+00
 Coeff-Com:  0.406D-02-0.692D-01-0.120D+00 0.456D-01 0.521D+00 0.619D+00
 Coeff:      0.406D-02-0.692D-01-0.120D+00 0.456D-01 0.521D+00 0.619D+00
 Gap=     0.343 Goal=   None    Shift=    0.000
 Gap=     0.343 Goal=   None    Shift=    0.000
 RMSDP=4.52D-08 MaxDP=1.25D-06 DE=-1.93D-09 OVMax= 3.45D-06

 Cycle  14  Pass 1  IDiag  1:
 RMSU=  3.56D-08    CP:  1.00D+00  1.07D+00  9.29D-01  1.62D+00  1.53D+00
                    CP:  1.04D+00
 E= -578.129321319882     Delta-E=        0.000000004330 Rises=F Damp=F
 DIIS: error= 1.51D-07 at cycle   7 NSaved=   7.
 NSaved= 7 IEnMin= 6 EnMin= -578.129321324212     IErMin= 7 ErrMin= 1.51D-07
 ErrMax= 1.51D-07  0.00D+00 EMaxC= 1.00D-01 BMatC= 1.76D-11 BMatP= 1.68D-10
 IDIUse=1 WtCom= 1.00D+00 WtEn= 0.00D+00
 Coeff-Com: -0.114D-03 0.618D-02 0.102D-01-0.272D-01-0.641D-01 0.167D+00
 Coeff-Com:  0.908D+00
 Coeff:     -0.114D-03 0.618D-02 0.102D-01-0.272D-01-0.641D-01 0.167D+00
 Coeff:      0.908D+00
 Gap=     0.343 Goal=   None    Shift=    0.000
 Gap=     0.343 Goal=   None    Shift=    0.000
 RMSDP=2.69D-08 MaxDP=5.03D-07 DE= 4.33D-09 OVMax= 2.63D-06

 Cycle  15  Pass 1  IDiag  1:
 RMSU=  1.48D-08    CP:  1.00D+00  1.07D+00  9.31D-01  1.63D+00  1.56D+00
                    CP:  1.15D+00  1.06D+00
 E= -578.129321319898     Delta-E=       -0.000000000016 Rises=F Damp=F
 DIIS: error= 6.62D-08 at cycle   8 NSaved=   8.
 NSaved= 8 IEnMin= 6 EnMin= -578.129321324212     IErMin= 8 ErrMin= 6.62D-08
 ErrMax= 6.62D-08  0.00D+00 EMaxC= 1.00D-01 BMatC= 4.31D-12 BMatP= 1.76D-11
 IDIUse=1 WtCom= 1.00D+00 WtEn= 0.00D+00
 Coeff-Com: -0.628D-03 0.123D-01 0.212D-01-0.140D-01-0.966D-01-0.338D-01
 Coeff-Com:  0.375D+00 0.737D+00
 Coeff:     -0.628D-03 0.123D-01 0.212D-01-0.140D-01-0.966D-01-0.338D-01
 Coeff:      0.375D+00 0.737D+00
 Gap=     0.343 Goal=   None    Shift=    0.000
 Gap=     0.343 Goal=   None    Shift=    0.000
 RMSDP=9.39D-09 MaxDP=1.87D-07 DE=-1.61D-11 OVMax= 8.20D-07

 SCF Done:  E(ULC-wPBE) =  -578.129321320     A.U. after   15 cycles
            NFock= 15  Conv=0.94D-08     -V/T= 2.0064
 <Sx>= 0.0000 <Sy>= 0.0000 <Sz>= 0.0000 <S**2>=-0.0000 S=-0.0000
 <L.S>= 0.000000000000E+00
 KE= 5.744399409901D+02 PE=-2.772939387495D+03 EE= 9.080147787334D+02
 Annihilation of the first spin contaminant:
 S**2 before annihilation    -0.0000,   after     0.0000
 Leave Link  502 at Fri Jul 24 13:20:53 2020, MaxMem=  4026531840 cpu:             458.9 elap:              57.7
 (Enter /opt/ohpc/pub/libs/gaussian/g16-A.03/sandybridge/g16/l601.exe)
 Copying SCF densities to generalized density rwf, IOpCl= 1 IROHF=0.

 **********************************************************************

            Population analysis using the SCF density.

 **********************************************************************

 Orbital symmetries:
 Alpha Orbitals:
       Occupied  (A) (A) (A) (A) (A) (A) (A) (A) (A) (A) (A) (A)
                 (A) (A) (A) (A) (A) (A) (A) (A) (A) (A) (A) (A)
                 (A) (A) (A) (A) (A) (A) (A) (A) (A) (A) (A) (A)
                 (A) (A) (A) (A) (A) (A) (A) (A) (A)
       Virtual   (A) (A) (A) (A) (A) (A) (A) (A) (A) (A) (A) (A)
                 (A) (A) (A) (A) (A) (A) (A) (A) (A) (A) (A) (A)
                 (A) (A) (A) (A) (A) (A) (A) (A) (A) (A) (A) (A)
                 (A) (A) (A) (A) (A) (A) (A) (A) (A) (A) (A) (A)
                 (A) (A) (A) (A) (A) (A) (A) (A) (A) (A) (A) (A)
                 (A) (A) (A) (A) (A) (A) (A) (A) (A) (A) (A) (A)
                 (A) (A) (A) (A) (A) (A) (A) (A) (A) (A) (A) (A)
                 (A) (A) (A) (A) (A) (A) (A) (A) (A) (A) (A) (A)
                 (A) (A) (A) (A) (A) (A) (A) (A) (A) (A) (A) (A)
                 (A) (A) (A) (A) (A) (A) (A) (A) (A) (A) (A) (A)
                 (A) (A) (A) (A) (A) (A) (A) (A) (A) (A) (A) (A)
                 (A) (A) (A) (A) (A) (A) (A) (A) (A) (A) (A) (A)
                 (A) (A) (A) (A) (A) (A) (A) (A) (A) (A) (A) (A)
                 (A) (A) (A) (A) (A) (A) (A) (A) (A) (A) (A) (A)
                 (A) (A) (A) (A) (A) (A) (A) (A) (A)
 Beta  Orbitals:
       Occupied  (A) (A) (A) (A) (A) (A) (A) (A) (A) (A) (A) (A)
                 (A) (A) (A) (A) (A) (A) (A) (A) (A) (A) (A) (A)
                 (A) (A) (A) (A) (A) (A) (A) (A) (A) (A) (A) (A)
                 (A) (A) (A) (A) (A) (A) (A) (A) (A)
       Virtual   (A) (A) (A) (A) (A) (A) (A) (A) (A) (A) (A) (A)
                 (A) (A) (A) (A) (A) (A) (A) (A) (A) (A) (A) (A)
                 (A) (A) (A) (A) (A) (A) (A) (A) (A) (A) (A) (A)
                 (A) (A) (A) (A) (A) (A) (A) (A) (A) (A) (A) (A)
                 (A) (A) (A) (A) (A) (A) (A) (A) (A) (A) (A) (A)
                 (A) (A) (A) (A) (A) (A) (A) (A) (A) (A) (A) (A)
                 (A) (A) (A) (A) (A) (A) (A) (A) (A) (A) (A) (A)
                 (A) (A) (A) (A) (A) (A) (A) (A) (A) (A) (A) (A)
                 (A) (A) (A) (A) (A) (A) (A) (A) (A) (A) (A) (A)
                 (A) (A) (A) (A) (A) (A) (A) (A) (A) (A) (A) (A)
                 (A) (A) (A) (A) (A) (A) (A) (A) (A) (A) (A) (A)
                 (A) (A) (A) (A) (A) (A) (A) (A) (A) (A) (A) (A)
                 (A) (A) (A) (A) (A) (A) (A) (A) (A) (A) (A) (A)
                 (A) (A) (A) (A) (A) (A) (A) (A) (A) (A) (A) (A)
                 (A) (A) (A) (A) (A) (A) (A) (A) (A)
 The electronic state is 1-A.
 Alpha  occ. eigenvalues --  -24.48050 -14.17163 -10.16484 -10.12590 -10.11132
 Alpha  occ. eigenvalues --  -10.10289 -10.08835 -10.08363 -10.08183 -10.08091
 Alpha  occ. eigenvalues --  -10.07899 -10.07197 -10.07117  -1.34458  -1.03177
 Alpha  occ. eigenvalues --   -0.97299  -0.90380  -0.89314  -0.85205  -0.84757
 Alpha  occ. eigenvalues --   -0.75042  -0.74319  -0.71930  -0.69963  -0.65610
 Alpha  occ. eigenvalues --   -0.62338  -0.60910  -0.59908  -0.59375  -0.57018
 Alpha  occ. eigenvalues --   -0.55849  -0.53409  -0.52466  -0.51346  -0.50127
 Alpha  occ. eigenvalues --   -0.48996  -0.47474  -0.46410  -0.45652  -0.41953
 Alpha  occ. eigenvalues --   -0.39431  -0.37266  -0.35058  -0.33923  -0.32178
 Alpha virt. eigenvalues --    0.02103   0.04921   0.07102   0.10587   0.14203
 Alpha virt. eigenvalues --    0.15293   0.18727   0.19522   0.21259   0.21511
 Alpha virt. eigenvalues --    0.21920   0.22537   0.24385   0.26941   0.28097
 Alpha virt. eigenvalues --    0.30698   0.32889   0.35032   0.37553   0.37727
 Alpha virt. eigenvalues --    0.39579   0.41358   0.42427   0.44438   0.49319
 Alpha virt. eigenvalues --    0.51079   0.52393   0.53391   0.53893   0.54575
 Alpha virt. eigenvalues --    0.55808   0.56422   0.57477   0.58617   0.59084
 Alpha virt. eigenvalues --    0.60254   0.60487   0.60649   0.61674   0.61999
 Alpha virt. eigenvalues --    0.62769   0.62980   0.63460   0.65327   0.66656
 Alpha virt. eigenvalues --    0.67355   0.69396   0.70211   0.72259   0.72515
 Alpha virt. eigenvalues --    0.73710   0.74075   0.74359   0.75296   0.77818
 Alpha virt. eigenvalues --    0.79131   0.80009   0.81191   0.84752   0.85916
 Alpha virt. eigenvalues --    0.87970   0.90084   0.92952   0.95153   0.96508
 Alpha virt. eigenvalues --    0.97156   0.99127   1.00057   1.00594   1.02194
 Alpha virt. eigenvalues --    1.03960   1.05814   1.05842   1.07055   1.08763
 Alpha virt. eigenvalues --    1.10165   1.11118   1.11846   1.13009   1.13332
 Alpha virt. eigenvalues --    1.15221   1.17250   1.18469   1.19973   1.21092
 Alpha virt. eigenvalues --    1.23457   1.25321   1.27170   1.29935   1.32669
 Alpha virt. eigenvalues --    1.36669   1.38201   1.41107   1.43112   1.46235
 Alpha virt. eigenvalues --    1.47482   1.50368   1.55649   1.56333   1.56780
 Alpha virt. eigenvalues --    1.57279   1.57817   1.58551   1.60088   1.60498
 Alpha virt. eigenvalues --    1.63634   1.66708   1.67129   1.69216   1.70275
 Alpha virt. eigenvalues --    1.70747   1.71356   1.72522   1.72956   1.74061
 Alpha virt. eigenvalues --    1.75173   1.75931   1.77187   1.79239   1.79748
 Alpha virt. eigenvalues --    1.82005   1.82158   1.83674   1.86320   1.86501
 Alpha virt. eigenvalues --    1.87895   1.90749   1.92411   1.92906   1.93366
 Alpha virt. eigenvalues --    1.95713   1.96411   1.97169   1.98667   1.99774
 Alpha virt. eigenvalues --    2.00977   2.02158   2.03133   2.06250   2.09453
 Alpha virt. eigenvalues --    2.10228   2.11830   2.13488   2.18078   2.20056
 Alpha virt. eigenvalues --    2.24563   2.26926   2.28163   2.35226   2.39698
 Alpha virt. eigenvalues --    2.40366   2.44282   2.46799   2.48177   2.50614
 Alpha virt. eigenvalues --    2.53098   2.54305   2.56039   2.60820   2.64692
 Alpha virt. eigenvalues --    2.65662   2.70038   2.75567   2.77300   2.81355
 Alpha virt. eigenvalues --    2.85263   2.91549   2.92907   3.05337   3.11784
 Alpha virt. eigenvalues --    3.46777   3.58499   3.61869   3.68872   3.86697
 Alpha virt. eigenvalues --    4.09398   4.28702
  Beta  occ. eigenvalues --  -24.48050 -14.17163 -10.16484 -10.12590 -10.11132
  Beta  occ. eigenvalues --  -10.10289 -10.08835 -10.08363 -10.08183 -10.08091
  Beta  occ. eigenvalues --  -10.07899 -10.07197 -10.07117  -1.34458  -1.03177
  Beta  occ. eigenvalues --   -0.97299  -0.90380  -0.89314  -0.85205  -0.84757
  Beta  occ. eigenvalues --   -0.75042  -0.74319  -0.71930  -0.69963  -0.65610
  Beta  occ. eigenvalues --   -0.62338  -0.60910  -0.59908  -0.59375  -0.57018
  Beta  occ. eigenvalues --   -0.55849  -0.53409  -0.52466  -0.51346  -0.50127
  Beta  occ. eigenvalues --   -0.48996  -0.47474  -0.46410  -0.45652  -0.41953
  Beta  occ. eigenvalues --   -0.39431  -0.37266  -0.35058  -0.33923  -0.32178
  Beta virt. eigenvalues --    0.02103   0.04921   0.07102   0.10587   0.14203
  Beta virt. eigenvalues --    0.15293   0.18727   0.19522   0.21259   0.21511
  Beta virt. eigenvalues --    0.21920   0.22537   0.24385   0.26941   0.28097
  Beta virt. eigenvalues --    0.30698   0.32889   0.35032   0.37553   0.37727
  Beta virt. eigenvalues --    0.39579   0.41358   0.42427   0.44438   0.49319
  Beta virt. eigenvalues --    0.51079   0.52393   0.53391   0.53893   0.54575
  Beta virt. eigenvalues --    0.55808   0.56422   0.57477   0.58617   0.59084
  Beta virt. eigenvalues --    0.60254   0.60487   0.60649   0.61674   0.61999
  Beta virt. eigenvalues --    0.62769   0.62980   0.63460   0.65327   0.66656
  Beta virt. eigenvalues --    0.67355   0.69396   0.70211   0.72259   0.72515
  Beta virt. eigenvalues --    0.73710   0.74075   0.74359   0.75296   0.77818
  Beta virt. eigenvalues --    0.79131   0.80009   0.81191   0.84752   0.85916
  Beta virt. eigenvalues --    0.87970   0.90084   0.92952   0.95153   0.96508
  Beta virt. eigenvalues --    0.97156   0.99127   1.00057   1.00594   1.02194
  Beta virt. eigenvalues --    1.03960   1.05814   1.05842   1.07055   1.08763
  Beta virt. eigenvalues --    1.10165   1.11118   1.11846   1.13009   1.13332
  Beta virt. eigenvalues --    1.15221   1.17250   1.18469   1.19973   1.21092
  Beta virt. eigenvalues --    1.23457   1.25321   1.27170   1.29935   1.32669
  Beta virt. eigenvalues --    1.36669   1.38201   1.41107   1.43112   1.46235
  Beta virt. eigenvalues --    1.47482   1.50368   1.55649   1.56333   1.56780
  Beta virt. eigenvalues --    1.57279   1.57817   1.58551   1.60088   1.60498
  Beta virt. eigenvalues --    1.63634   1.66708   1.67129   1.69216   1.70275
  Beta virt. eigenvalues --    1.70747   1.71356   1.72522   1.72956   1.74061
  Beta virt. eigenvalues --    1.75173   1.75931   1.77187   1.79239   1.79748
  Beta virt. eigenvalues --    1.82005   1.82158   1.83674   1.86320   1.86501
  Beta virt. eigenvalues --    1.87895   1.90749   1.92411   1.92906   1.93366
  Beta virt. eigenvalues --    1.95713   1.96411   1.97169   1.98667   1.99774
  Beta virt. eigenvalues --    2.00977   2.02158   2.03133   2.06250   2.09453
  Beta virt. eigenvalues --    2.10228   2.11830   2.13488   2.18078   2.20056
  Beta virt. eigenvalues --    2.24563   2.26926   2.28163   2.35226   2.39698
  Beta virt. eigenvalues --    2.40366   2.44282   2.46799   2.48177   2.50614
  Beta virt. eigenvalues --    2.53098   2.54305   2.56039   2.60820   2.64692
  Beta virt. eigenvalues --    2.65662   2.70038   2.75567   2.77300   2.81355
  Beta virt. eigenvalues --    2.85263   2.91549   2.92907   3.05337   3.11784
  Beta virt. eigenvalues --    3.46777   3.58499   3.61869   3.68872   3.86697
  Beta virt. eigenvalues --    4.09398   4.28702
          Condensed to atoms (all electrons):
               1          2          3          4          5          6
     1  C    4.759311   0.483591  -0.003611  -0.042569  -0.040826   0.480672
     2  C    0.483591   4.771089   0.509797  -0.027003  -0.028983  -0.026129
     3  C   -0.003611   0.509797   4.934498   0.391454  -0.072870  -0.059152
     4  C   -0.042569  -0.027003   0.391454   5.006444   0.580977  -0.076259
     5  N   -0.040826  -0.028983  -0.072870   0.580977   6.311046   0.539874
     6  C    0.480672  -0.026129  -0.059152  -0.076259   0.539874   4.665257
     7  C   -0.000236   0.006185  -0.098694   0.292098  -0.091568   0.007982
     8  C    0.000333  -0.000380   0.019693  -0.080281   0.010890  -0.000299
     9  C    0.000002   0.000004  -0.000122   0.010554   0.001155  -0.000005
    10  C   -0.000000  -0.000000  -0.000143  -0.000440   0.000033   0.000001
    11  C   -0.000000  -0.000003   0.000127   0.010024  -0.000098   0.000004
    12  C   -0.000124   0.000307  -0.031904  -0.078933   0.003428  -0.000003
    13  F   -0.000010   0.000931   0.004010  -0.012618   0.000011   0.000003
    14  H    0.405647  -0.043712   0.008814   0.000451   0.004740  -0.039833
    15  H   -0.049007   0.396319  -0.035248   0.008109  -0.000202   0.007116
    16  H    0.008185  -0.028613   0.393276  -0.039250   0.004542   0.000607
    17  H   -0.054829   0.005971   0.001069   0.001355  -0.028645   0.406582
    18  H    0.000303  -0.000063   0.002249  -0.031096   0.042394   0.000269
    19  H   -0.000000   0.000000   0.000001  -0.000288  -0.000034  -0.000001
    20  H   -0.000000   0.000000   0.000002   0.000014   0.000000   0.000000
    21  H    0.000000  -0.000001   0.000012  -0.000322   0.000001  -0.000000
               7          8          9         10         11         12
     1  C   -0.000236   0.000333   0.000002  -0.000000  -0.000000  -0.000124
     2  C    0.006185  -0.000380   0.000004  -0.000000  -0.000003   0.000307
     3  C   -0.098694   0.019693  -0.000122  -0.000143   0.000127  -0.031904
     4  C    0.292098  -0.080281   0.010554  -0.000440   0.010024  -0.078933
     5  N   -0.091568   0.010890   0.001155   0.000033  -0.000098   0.003428
     6  C    0.007982  -0.000299  -0.000005   0.000001   0.000004  -0.000003
     7  C    5.457948   0.395248   0.000767  -0.066281  -0.021469   0.276309
     8  C    0.395248   4.827588   0.481057  -0.003825  -0.077231  -0.031755
     9  C    0.000767   0.481057   4.759700   0.499880  -0.004976  -0.076203
    10  C   -0.066281  -0.003825   0.499880   4.776765   0.488722   0.000097
    11  C   -0.021469  -0.077231  -0.004976   0.488722   4.875406   0.476539
    12  C    0.276309  -0.031755  -0.076203   0.000097   0.476539   4.983441
    13  F   -0.050616   0.003039   0.000003   0.003989  -0.048720   0.415366
    14  H    0.000044  -0.000005  -0.000000   0.000000   0.000000   0.000001
    15  H   -0.000171   0.000010   0.000000  -0.000000  -0.000000   0.000006
    16  H   -0.019241  -0.000779   0.000003  -0.000062   0.001059   0.000293
    17  H   -0.000635  -0.000045  -0.000003  -0.000000   0.000000   0.000019
    18  H   -0.039465   0.400217  -0.050789   0.009665  -0.001178   0.009664
    19  H    0.008973  -0.048312   0.400485  -0.045970   0.010217   0.000115
    20  H   -0.001245   0.009349  -0.044353   0.389184  -0.039263   0.008500
    21  H    0.011575   0.000397   0.007514  -0.035433   0.373037  -0.034457
              13         14         15         16         17         18
     1  C   -0.000010   0.405647  -0.049007   0.008185  -0.054829   0.000303
     2  C    0.000931  -0.043712   0.396319  -0.028613   0.005971  -0.000063
     3  C    0.004010   0.008814  -0.035248   0.393276   0.001069   0.002249
     4  C   -0.012618   0.000451   0.008109  -0.039250   0.001355  -0.031096
     5  N    0.000011   0.004740  -0.000202   0.004542  -0.028645   0.042394
     6  C    0.000003  -0.039833   0.007116   0.000607   0.406582   0.000269
     7  C   -0.050616   0.000044  -0.000171  -0.019241  -0.000635  -0.039465
     8  C    0.003039  -0.000005   0.000010  -0.000779  -0.000045   0.400217
     9  C    0.000003  -0.000000   0.000000   0.000003  -0.000003  -0.050789
    10  C    0.003989   0.000000  -0.000000  -0.000062  -0.000000   0.009665
    11  C   -0.048720   0.000000  -0.000000   0.001059   0.000000  -0.001178
    12  C    0.415366   0.000001   0.000006   0.000293   0.000019   0.009664
    13  F    8.734990  -0.000000   0.000001   0.018770  -0.000000  -0.000019
    14  H   -0.000000   0.739618  -0.011365  -0.000168  -0.009525  -0.000008
    15  H    0.000001  -0.011365   0.675160  -0.015492  -0.000251   0.000002
    16  H    0.018770  -0.000168  -0.015492   0.690419   0.000089  -0.000094
    17  H   -0.000000  -0.009525  -0.000251   0.000089   0.674585  -0.000475
    18  H   -0.000019  -0.000008   0.000002  -0.000094  -0.000475   0.680521
    19  H    0.000003  -0.000000   0.000000  -0.000000   0.000000  -0.012508
    20  H   -0.000053  -0.000000  -0.000000   0.000001  -0.000000  -0.000178
    21  H    0.002289  -0.000000  -0.000000   0.000012   0.000000   0.000051
              19         20         21
     1  C   -0.000000  -0.000000   0.000000
     2  C    0.000000   0.000000  -0.000001
     3  C    0.000001   0.000002   0.000012
     4  C   -0.000288   0.000014  -0.000322
     5  N   -0.000034   0.000000   0.000001
     6  C   -0.000001   0.000000  -0.000000
     7  C    0.008973  -0.001245   0.011575
     8  C   -0.048312   0.009349   0.000397
     9  C    0.400485  -0.044353   0.007514
    10  C   -0.045970   0.389184  -0.035433
    11  C    0.010217  -0.039263   0.373037
    12  C    0.000115   0.008500  -0.034457
    13  F    0.000003  -0.000053   0.002289
    14  H   -0.000000  -0.000000  -0.000000
    15  H    0.000000  -0.000000  -0.000000
    16  H   -0.000000   0.000001   0.000012
    17  H    0.000000  -0.000000   0.000000
    18  H   -0.012508  -0.000178   0.000051
    19  H    0.703644  -0.013895  -0.000252
    20  H   -0.013895   0.683687  -0.013763
    21  H   -0.000252  -0.013763   0.669299
          Atomic-Atomic Spin Densities.
               1          2          3          4          5          6
     1  C   -0.000000  -0.000000  -0.000000   0.000000   0.000000   0.000000
     2  C   -0.000000   0.000000  -0.000000  -0.000000  -0.000000   0.000000
     3  C   -0.000000  -0.000000  -0.000000  -0.000000   0.000000   0.000000
     4  C    0.000000  -0.000000  -0.000000  -0.000000  -0.000000  -0.000000
     5  N    0.000000  -0.000000   0.000000  -0.000000   0.000000  -0.000000
     6  C    0.000000   0.000000   0.000000  -0.000000  -0.000000  -0.000000
     7  C   -0.000000  -0.000000  -0.000000   0.000000  -0.000000   0.000000
     8  C   -0.000000  -0.000000   0.000000   0.000000  -0.000000   0.000000
     9  C   -0.000000   0.000000  -0.000000   0.000000  -0.000000   0.000000
    10  C    0.000000  -0.000000   0.000000  -0.000000   0.000000  -0.000000
    11  C    0.000000   0.000000   0.000000  -0.000000  -0.000000  -0.000000
    12  C    0.000000  -0.000000   0.000000  -0.000000   0.000000  -0.000000
    13  F    0.000000  -0.000000   0.000000  -0.000000   0.000000  -0.000000
    14  H   -0.000000  -0.000000  -0.000000   0.000000   0.000000  -0.000000
    15  H    0.000000   0.000000   0.000000  -0.000000  -0.000000  -0.000000
    16  H    0.000000   0.000000   0.000000  -0.000000  -0.000000  -0.000000
    17  H    0.000000   0.000000  -0.000000   0.000000  -0.000000  -0.000000
    18  H   -0.000000  -0.000000   0.000000   0.000000   0.000000  -0.000000
    19  H   -0.000000   0.000000  -0.000000  -0.000000  -0.000000  -0.000000
    20  H   -0.000000  -0.000000  -0.000000   0.000000   0.000000   0.000000
    21  H   -0.000000   0.000000  -0.000000   0.000000  -0.000000   0.000000
               7          8          9         10         11         12
     1  C   -0.000000  -0.000000  -0.000000   0.000000   0.000000   0.000000
     2  C   -0.000000  -0.000000   0.000000  -0.000000   0.000000  -0.000000
     3  C   -0.000000   0.000000  -0.000000   0.000000   0.000000   0.000000
     4  C    0.000000   0.000000   0.000000  -0.000000  -0.000000  -0.000000
     5  N   -0.000000  -0.000000  -0.000000   0.000000  -0.000000   0.000000
     6  C    0.000000   0.000000   0.000000  -0.000000  -0.000000  -0.000000
     7  C    0.000000  -0.000000   0.000000  -0.000000   0.000000  -0.000000
     8  C   -0.000000   0.000000  -0.000000   0.000000  -0.000000   0.000000
     9  C    0.000000  -0.000000  -0.000000  -0.000000   0.000000  -0.000000
    10  C   -0.000000   0.000000  -0.000000   0.000000  -0.000000   0.000000
    11  C    0.000000  -0.000000   0.000000  -0.000000   0.000000  -0.000000
    12  C   -0.000000   0.000000  -0.000000   0.000000  -0.000000   0.000000
    13  F   -0.000000   0.000000  -0.000000   0.000000   0.000000  -0.000000
    14  H    0.000000  -0.000000   0.000000  -0.000000   0.000000   0.000000
    15  H    0.000000   0.000000  -0.000000  -0.000000  -0.000000  -0.000000
    16  H    0.000000   0.000000  -0.000000  -0.000000  -0.000000  -0.000000
    17  H    0.000000   0.000000  -0.000000   0.000000  -0.000000  -0.000000
    18  H   -0.000000   0.000000  -0.000000   0.000000  -0.000000   0.000000
    19  H    0.000000  -0.000000  -0.000000  -0.000000   0.000000  -0.000000
    20  H   -0.000000   0.000000  -0.000000   0.000000  -0.000000   0.000000
    21  H    0.000000  -0.000000   0.000000  -0.000000   0.000000  -0.000000
              13         14         15         16         17         18
     1  C    0.000000  -0.000000   0.000000   0.000000   0.000000  -0.000000
     2  C   -0.000000  -0.000000   0.000000   0.000000   0.000000  -0.000000
     3  C    0.000000  -0.000000   0.000000   0.000000  -0.000000   0.000000
     4  C   -0.000000   0.000000  -0.000000  -0.000000   0.000000   0.000000
     5  N    0.000000   0.000000  -0.000000  -0.000000  -0.000000   0.000000
     6  C   -0.000000  -0.000000  -0.000000  -0.000000  -0.000000  -0.000000
     7  C   -0.000000   0.000000   0.000000   0.000000   0.000000  -0.000000
     8  C    0.000000  -0.000000   0.000000   0.000000   0.000000   0.000000
     9  C   -0.000000   0.000000  -0.000000  -0.000000  -0.000000  -0.000000
    10  C    0.000000  -0.000000  -0.000000  -0.000000   0.000000   0.000000
    11  C    0.000000   0.000000  -0.000000  -0.000000  -0.000000  -0.000000
    12  C   -0.000000   0.000000  -0.000000  -0.000000  -0.000000   0.000000
    13  F    0.000000   0.000000  -0.000000   0.000000   0.000000   0.000000
    14  H    0.000000   0.000000   0.000000  -0.000000  -0.000000  -0.000000
    15  H   -0.000000   0.000000  -0.000000   0.000000  -0.000000  -0.000000
    16  H    0.000000  -0.000000   0.000000   0.000000  -0.000000   0.000000
    17  H    0.000000  -0.000000  -0.000000  -0.000000   0.000000   0.000000
    18  H    0.000000  -0.000000  -0.000000   0.000000   0.000000  -0.000000
    19  H   -0.000000   0.000000  -0.000000  -0.000000  -0.000000  -0.000000
    20  H   -0.000000  -0.000000  -0.000000   0.000000   0.000000   0.000000
    21  H    0.000000  -0.000000   0.000000  -0.000000   0.000000  -0.000000
              19         20         21
     1  C   -0.000000  -0.000000  -0.000000
     2  C    0.000000  -0.000000   0.000000
     3  C   -0.000000  -0.000000  -0.000000
     4  C   -0.000000   0.000000   0.000000
     5  N   -0.000000   0.000000  -0.000000
     6  C   -0.000000   0.000000   0.000000
     7  C    0.000000  -0.000000   0.000000
     8  C   -0.000000   0.000000  -0.000000
     9  C   -0.000000  -0.000000   0.000000
    10  C   -0.000000   0.000000  -0.000000
    11  C    0.000000  -0.000000   0.000000
    12  C   -0.000000   0.000000  -0.000000
    13  F   -0.000000  -0.000000   0.000000
    14  H    0.000000  -0.000000  -0.000000
    15  H   -0.000000  -0.000000   0.000000
    16  H   -0.000000   0.000000  -0.000000
    17  H   -0.000000   0.000000   0.000000
    18  H   -0.000000   0.000000  -0.000000
    19  H    0.000000  -0.000000   0.000000
    20  H   -0.000000   0.000000  -0.000000
    21  H    0.000000  -0.000000   0.000000
 Mulliken charges and spin densities:
               1          2
     1  C    0.053167  -0.000000
     2  C   -0.019307   0.000000
     3  C    0.036740  -0.000000
     4  C    0.087577  -0.000000
     5  N   -0.235865   0.000000
     6  C    0.093315   0.000000
     7  C   -0.067506  -0.000000
     8  C    0.095091   0.000000
     9  C    0.015326  -0.000000
    10  C   -0.016184   0.000000
    11  C   -0.042196   0.000000
    12  C    0.079294  -0.000000
    13  F   -0.071366   0.000000
    14  H   -0.054698  -0.000000
    15  H    0.025013  -0.000000
    16  H   -0.013554   0.000000
    17  H    0.004737   0.000000
    18  H   -0.009460   0.000000
    19  H   -0.002178  -0.000000
    20  H    0.022014   0.000000
    21  H    0.020041   0.000000
 Sum of Mulliken charges =  -0.00000  -0.00000
 Mulliken charges and spin densities with hydrogens summed into heavy atoms:
               1          2
     1  C   -0.001532  -0.000000
     2  C    0.005706   0.000000
     3  C    0.023186  -0.000000
     4  C    0.087577  -0.000000
     5  N   -0.235865   0.000000
     6  C    0.098052   0.000000
     7  C   -0.067506  -0.000000
     8  C    0.085631   0.000000
     9  C    0.013148  -0.000000
    10  C    0.005831   0.000000
    11  C   -0.022156   0.000000
    12  C    0.079294  -0.000000
    13  F   -0.071366   0.000000
 Electronic spatial extent (au):  <R**2>=           2470.5926
 Charge=             -0.0000 electrons
 Dipole moment (field-independent basis, Debye):
    X=             -0.5952    Y=              0.7886    Z=              0.0243  Tot=              0.9883
 Quadrupole moment (field-independent basis, Debye-Ang):
   XX=            -58.1105   YY=            -69.8609   ZZ=            -77.5703
   XY=             -1.6444   XZ=             -0.3076   YZ=             -0.4571
 Traceless Quadrupole moment (field-independent basis, Debye-Ang):
   XX=             10.4034   YY=             -1.3470   ZZ=             -9.0564
   XY=             -1.6444   XZ=             -0.3076   YZ=             -0.4571
 Octapole moment (field-independent basis, Debye-Ang**2):
  XXX=            -11.2008  YYY=             13.2516  ZZZ=              0.1789  XYY=             -0.5522
  XXY=              2.5006  XXZ=              0.9725  XZZ=              0.8423  YZZ=              6.6218
  YYZ=              0.7186  XYZ=              0.0407
 Hexadecapole moment (field-independent basis, Debye-Ang**3):
 XXXX=          -2206.3398 YYYY=           -674.2826 ZZZZ=            -80.5790 XXXY=             26.1502
 XXXZ=             -4.0972 YYYX=              4.0369 YYYZ=             -2.2079 ZZZX=             -0.1099
 ZZZY=              0.0570 XXYY=           -480.6503 XXZZ=           -479.6903 YYZZ=           -136.8914
 XXYZ=             -3.5741 YYXZ=             -1.3438 ZZXY=             11.0833
 N-N= 7.123553464519D+02 E-N=-2.772939374788D+03  KE= 5.744399409900D+02
                          Isotropic Fermi Contact Couplings
        Atom                 a.u.       MegaHertz       Gauss      10(-4) cm-1
     1  C(13)             -0.00000      -0.00000      -0.00000      -0.00000
     2  C(13)              0.00000       0.00000       0.00000       0.00000
     3  C(13)             -0.00000      -0.00000      -0.00000      -0.00000
     4  C(13)             -0.00000      -0.00000      -0.00000      -0.00000
     5  N(14)              0.00000       0.00000       0.00000       0.00000
     6  C(13)             -0.00000      -0.00000      -0.00000      -0.00000
     7  C(13)             -0.00000      -0.00000      -0.00000      -0.00000
     8  C(13)              0.00000       0.00000       0.00000       0.00000
     9  C(13)              0.00000       0.00000       0.00000       0.00000
    10  C(13)              0.00000       0.00000       0.00000       0.00000
    11  C(13)              0.00000       0.00000       0.00000       0.00000
    12  C(13)              0.00000       0.00000       0.00000       0.00000
    13  F(19)             -0.00000      -0.00000      -0.00000      -0.00000
    14  H(1)               0.00000       0.00000       0.00000       0.00000
    15  H(1)              -0.00000      -0.00000      -0.00000      -0.00000
    16  H(1)               0.00000       0.00000       0.00000       0.00000
    17  H(1)              -0.00000      -0.00000      -0.00000      -0.00000
    18  H(1)              -0.00000      -0.00000      -0.00000      -0.00000
    19  H(1)               0.00000       0.00000       0.00000       0.00000
    20  H(1)               0.00000       0.00000       0.00000       0.00000
    21  H(1)              -0.00000      -0.00000      -0.00000      -0.00000
 --------------------------------------------------------
       Center         ----  Spin Dipole Couplings  ----
                      3XX-RR        3YY-RR        3ZZ-RR
 --------------------------------------------------------
     1   Atom       -0.000000      0.000000      0.000000
     2   Atom        0.000000      0.000000     -0.000000
     3   Atom       -0.000000     -0.000000      0.000000
     4   Atom        0.000000     -0.000000     -0.000000
     5   Atom       -0.000000      0.000000     -0.000000
     6   Atom        0.000000     -0.000000     -0.000000
     7   Atom       -0.000000      0.000000     -0.000000
     8   Atom        0.000000      0.000000     -0.000000
     9   Atom       -0.000000     -0.000000      0.000000
    10   Atom        0.000000      0.000000     -0.000000
    11   Atom        0.000000      0.000000     -0.000000
    12   Atom        0.000000      0.000000     -0.000000
    13   Atom       -0.000000      0.000000      0.000000
    14   Atom        0.000000     -0.000000     -0.000000
    15   Atom       -0.000000     -0.000000      0.000000
    16   Atom       -0.000000      0.000000     -0.000000
    17   Atom       -0.000000      0.000000     -0.000000
    18   Atom       -0.000000      0.000000     -0.000000
    19   Atom        0.000000      0.000000     -0.000000
    20   Atom        0.000000     -0.000000     -0.000000
    21   Atom       -0.000000      0.000000     -0.000000
 --------------------------------------------------------
                        XY            XZ            YZ
 --------------------------------------------------------
     1   Atom        0.000000     -0.000000     -0.000000
     2   Atom       -0.000000     -0.000000      0.000000
     3   Atom       -0.000000      0.000000      0.000000
     4   Atom       -0.000000      0.000000      0.000000
     5   Atom        0.000000     -0.000000     -0.000000
     6   Atom       -0.000000      0.000000     -0.000000
     7   Atom       -0.000000     -0.000000     -0.000000
     8   Atom        0.000000     -0.000000      0.000000
     9   Atom        0.000000     -0.000000      0.000000
    10   Atom       -0.000000     -0.000000      0.000000
    11   Atom        0.000000      0.000000      0.000000
    12   Atom       -0.000000     -0.000000     -0.000000
    13   Atom       -0.000000      0.000000     -0.000000
    14   Atom       -0.000000      0.000000      0.000000
    15   Atom        0.000000     -0.000000     -0.000000
    16   Atom        0.000000     -0.000000     -0.000000
    17   Atom       -0.000000     -0.000000     -0.000000
    18   Atom        0.000000     -0.000000     -0.000000
    19   Atom        0.000000     -0.000000     -0.000000
    20   Atom       -0.000000      0.000000     -0.000000
    21   Atom        0.000000     -0.000000     -0.000000
 --------------------------------------------------------


 ---------------------------------------------------------------------------------
              Anisotropic Spin Dipole Couplings in Principal Axis System
 ---------------------------------------------------------------------------------

       Atom             a.u.   MegaHertz   Gauss  10(-4) cm-1        Axes

              Baa    -0.0000    -0.000    -0.000    -0.000  0.9980 -0.0635  0.0056
     1 C(13)  Bbb     0.0000     0.000     0.000     0.000  0.0600  0.9652  0.2544
              Bcc     0.0000     0.000     0.000     0.000 -0.0216 -0.2535  0.9671
 
              Baa    -0.0000    -0.000    -0.000    -0.000  0.0974 -0.0436  0.9943
     2 C(13)  Bbb     0.0000     0.000     0.000     0.000  0.5024  0.8646 -0.0112
              Bcc     0.0000     0.000     0.000     0.000  0.8592 -0.5006 -0.1061
 
              Baa    -0.0000    -0.000    -0.000    -0.000  0.8562  0.5161 -0.0237
     3 C(13)  Bbb     0.0000     0.000     0.000     0.000 -0.5166  0.8560 -0.0209
              Bcc     0.0000     0.000     0.000     0.000  0.0095  0.0301  0.9995
 
              Baa    -0.0000    -0.000    -0.000    -0.000  0.0402  0.9780 -0.2048
     4 C(13)  Bbb    -0.0000    -0.000    -0.000    -0.000 -0.1386  0.2084  0.9682
              Bcc     0.0000     0.000     0.000     0.000  0.9895 -0.0105  0.1439
 
              Baa    -0.0000    -0.000    -0.000    -0.000  0.1927  0.0033  0.9813
     5 N(14)  Bbb    -0.0000    -0.000    -0.000    -0.000  0.9808 -0.0310 -0.1925
              Bcc     0.0000     0.000     0.000     0.000  0.0298  0.9995 -0.0092
 
              Baa    -0.0000    -0.000    -0.000    -0.000  0.0640  0.9940  0.0890
     6 C(13)  Bbb    -0.0000    -0.000    -0.000    -0.000 -0.0387 -0.0866  0.9955
              Bcc     0.0000     0.000     0.000     0.000  0.9972 -0.0672  0.0329
 
              Baa    -0.0000    -0.000    -0.000    -0.000  0.9045  0.1731  0.3898
     7 C(13)  Bbb    -0.0000    -0.000    -0.000    -0.000 -0.4020  0.0407  0.9147
              Bcc     0.0000     0.000     0.000     0.000 -0.1425  0.9841 -0.1064
 
              Baa    -0.0000    -0.000    -0.000    -0.000  0.0039 -0.0012  1.0000
     8 C(13)  Bbb     0.0000     0.000     0.000     0.000  0.8978 -0.4404 -0.0040
              Bcc     0.0000     0.000     0.000     0.000  0.4404  0.8978 -0.0006
 
              Baa    -0.0000    -0.000    -0.000    -0.000 -0.5153  0.8529 -0.0840
     9 C(13)  Bbb     0.0000     0.000     0.000     0.000  0.8388  0.5220  0.1548
              Bcc     0.0000     0.000     0.000     0.000 -0.1758 -0.0093  0.9844
 
              Baa    -0.0000    -0.000    -0.000    -0.000  0.0311  0.0134  0.9994
    10 C(13)  Bbb    -0.0000    -0.000    -0.000    -0.000  0.8545  0.5184 -0.0336
              Bcc     0.0000     0.000     0.000     0.000 -0.5186  0.8550  0.0047
 
              Baa    -0.0000    -0.000    -0.000    -0.000  0.0539 -0.1043  0.9931
    11 C(13)  Bbb    -0.0000    -0.000    -0.000    -0.000  0.7903 -0.6034 -0.1063
              Bcc     0.0000     0.000     0.000     0.000  0.6103  0.7906  0.0499
 
              Baa    -0.0000    -0.000    -0.000    -0.000  0.2814  0.1200  0.9521
    12 C(13)  Bbb    -0.0000    -0.000    -0.000    -0.000  0.8920  0.3332 -0.3056
              Bcc     0.0000     0.000     0.000     0.000 -0.3539  0.9352 -0.0133
 
              Baa    -0.0000    -0.000    -0.000    -0.000  0.9327  0.3412 -0.1169
    13 F(19)  Bbb     0.0000     0.000     0.000     0.000  0.0062  0.3091  0.9510
              Bcc     0.0000     0.000     0.000     0.000 -0.3606  0.8877 -0.2861
 
              Baa    -0.0000    -0.000    -0.000    -0.000  0.1132  0.9848 -0.1319
    14 H(1)   Bbb    -0.0000    -0.000    -0.000    -0.000 -0.0100  0.1339  0.9909
              Bcc     0.0000     0.000     0.000     0.000  0.9935 -0.1108  0.0250
 
              Baa    -0.0000    -0.000    -0.000    -0.000  0.9033 -0.4287  0.0189
    15 H(1)   Bbb    -0.0000    -0.000    -0.000    -0.000  0.4229  0.8969  0.1289
              Bcc     0.0000     0.000     0.000     0.000 -0.0722 -0.1084  0.9915
 
              Baa    -0.0000    -0.000    -0.000    -0.000  0.9320 -0.3105  0.1868
    16 H(1)   Bbb    -0.0000    -0.000    -0.000    -0.000 -0.1733  0.0709  0.9823
              Bcc     0.0000     0.000     0.000     0.000  0.3182  0.9479 -0.0123
 
              Baa    -0.0000    -0.000    -0.000    -0.000  0.8334  0.4827  0.2692
    17 H(1)   Bbb     0.0000     0.000     0.000     0.000 -0.1815 -0.2210  0.9582
              Bcc     0.0000     0.000     0.000     0.000 -0.5220  0.8474  0.0966
 
              Baa    -0.0000    -0.000    -0.000    -0.000 -0.4657  0.3838  0.7974
    18 H(1)   Bbb    -0.0000    -0.000    -0.000    -0.000  0.7421 -0.3215  0.5881
              Bcc     0.0000     0.000     0.000     0.000  0.4821  0.8657 -0.1351
 
              Baa    -0.0000    -0.000    -0.000    -0.000  0.0148  0.0491  0.9987
    19 H(1)   Bbb     0.0000     0.000     0.000     0.000  0.9736 -0.2281 -0.0033
              Bcc     0.0000     0.000     0.000     0.000  0.2276  0.9724 -0.0512
 
              Baa    -0.0000    -0.000    -0.000    -0.000 -0.0144  0.3942  0.9189
    20 H(1)   Bbb    -0.0000    -0.000    -0.000    -0.000  0.0753  0.9168 -0.3922
              Bcc     0.0000     0.000     0.000     0.000  0.9971 -0.0636  0.0429
 
              Baa    -0.0000    -0.000    -0.000    -0.000 -0.5476  0.3218  0.7724
    21 H(1)   Bbb    -0.0000    -0.000    -0.000    -0.000  0.7232 -0.2822  0.6303
              Bcc     0.0000     0.000     0.000     0.000  0.4208  0.9038 -0.0782
 

 ---------------------------------------------------------------------------------

 No NMR shielding tensors so no spin-rotation constants.
 Leave Link  601 at Fri Jul 24 13:20:53 2020, MaxMem=  4026531840 cpu:               1.8 elap:               0.3
 (Enter /opt/ohpc/pub/libs/gaussian/g16-A.03/sandybridge/g16/l701.exe)
 ... and contract with generalized density number  0.
 Compute integral first derivatives.
 Leave Link  701 at Fri Jul 24 13:20:53 2020, MaxMem=  4026531840 cpu:               1.1 elap:               0.2
 (Enter /opt/ohpc/pub/libs/gaussian/g16-A.03/sandybridge/g16/l702.exe)
 L702 exits ... SP integral derivatives will be done elsewhere.
 Leave Link  702 at Fri Jul 24 13:20:53 2020, MaxMem=  4026531840 cpu:               0.2 elap:               0.1
 (Enter /opt/ohpc/pub/libs/gaussian/g16-A.03/sandybridge/g16/l703.exe)
 Integral derivatives from FoFJK, PRISM(SPDF).
 Compute integral first derivatives, UseDBF=F ICtDFT=           0.
 Calling FoFJK, ICntrl=      2127 FMM=F ISym2X=0 I1Cent= 0 IOpClX= 1 NMat=1 NMatS=1 NMatT=0.
 FoFJK:  IHMeth= 1 ICntrl=    2127 DoSepK=T KAlg= 0 I1Cent=           0 FoldK=F
 IRaf=         1 NMat=       1 IRICut=       1 DoRegI=T DoRafI=F ISym2E= 0 IDoP0=0 IntGTp=1.
 FoFCou: FMM=F IPFlag=           0 FMFlag=      100000 FMFlg1=         800
         NFxFlg=           0 DoJE=F BraDBF=F KetDBF=F FulRan=T
         wScrn=  0.000000 ICntrl=      2527 IOpCl=  0 I1Cent=           0 NGrid=           0
         NMat0=    1 NMatS0=      1 NMatT0=    0 NMatD0=    1 NMtDS0=    0 NMtDT0=    0
 Symmetry not used in FoFCou.
 Leave Link  703 at Fri Jul 24 13:21:06 2020, MaxMem=  4026531840 cpu:             103.1 elap:              12.9
 (Enter /opt/ohpc/pub/libs/gaussian/g16-A.03/sandybridge/g16/l716.exe)
 Dipole        =-2.34184594D-01 3.10253137D-01 9.54697619D-03
 ***** Axes restored to original set *****
 -------------------------------------------------------------------
 Center     Atomic                   Forces (Hartrees/Bohr)
 Number     Number              X              Y              Z
 -------------------------------------------------------------------
      1        6           0.142557809    0.016759138   -0.010867323
      2        6          -0.048255543   -0.003583060    0.013569044
      3        6          -0.022960916   -0.012807329   -0.016128721
      4        6          -0.013997302   -0.033343863    0.011245855
      5        7          -0.029464670    0.019270541   -0.005113442
      6        6           0.044854732    0.030207953    0.012026515
      7        6          -0.039169923    0.028469741   -0.012896214
      8        6           0.021365876   -0.006500304    0.014757500
      9        6           0.009754995   -0.023121456   -0.013816083
     10        6           0.062751103   -0.001345028    0.013997623
     11        6          -0.023162877    0.051309300   -0.019377901
     12        6           0.072026458   -0.064703684    0.016653775
     13        9          -0.025236176    0.050008566   -0.001954279
[...]
    16  H   -0.000000   0.000000  -0.000000   0.000000  -0.000000   0.000000
    17  H   -0.000000  -0.000000   0.000000   0.000000   0.000000   0.000000
    18  H    0.000000  -0.000000   0.000000   0.000000   0.000000   0.000000
    19  H   -0.000000   0.000000  -0.000000   0.000000  -0.000000   0.000000
    20  H    0.000000  -0.000000   0.000000  -0.000000  -0.000000  -0.000000
    21  H   -0.000000  -0.000000  -0.000000   0.000000   0.000000   0.000000
               7          8          9         10         11         12
     1  C   -0.000000   0.000000   0.000000   0.000000  -0.000000   0.000000
     2  C    0.000000  -0.000000  -0.000000   0.000000   0.000000   0.000000
     3  C   -0.000000   0.000000   0.000000   0.000000   0.000000  -0.000000
     4  C    0.000000   0.000000  -0.000000  -0.000000  -0.000000  -0.000000
     5  N   -0.000000   0.000000  -0.000000   0.000000  -0.000000  -0.000000
     6  C    0.000000   0.000000  -0.000000   0.000000  -0.000000  -0.000000
     7  C    0.000000  -0.000000   0.000000  -0.000000   0.000000  -0.000000
     8  C   -0.000000   0.000000   0.000000   0.000000  -0.000000   0.000000
     9  C    0.000000   0.000000  -0.000000  -0.000000   0.000000   0.000000
    10  C   -0.000000   0.000000  -0.000000  -0.000000  -0.000000   0.000000
    11  C    0.000000  -0.000000   0.000000  -0.000000   0.000000   0.000000
    12  C   -0.000000   0.000000   0.000000   0.000000   0.000000  -0.000000
    13  F    0.000000   0.000000  -0.000000   0.000000   0.000000   0.000000
    14  H   -0.000000  -0.000000   0.000000  -0.000000  -0.000000   0.000000
    15  H    0.000000   0.000000  -0.000000   0.000000  -0.000000  -0.000000
    16  H   -0.000000  -0.000000   0.000000  -0.000000   0.000000   0.000000
    17  H   -0.000000   0.000000   0.000000  -0.000000   0.000000  -0.000000
    18  H   -0.000000   0.000000   0.000000   0.000000  -0.000000  -0.000000
    19  H    0.000000  -0.000000   0.000000  -0.000000   0.000000  -0.000000
    20  H   -0.000000   0.000000  -0.000000   0.000000  -0.000000   0.000000
    21  H    0.000000  -0.000000  -0.000000   0.000000  -0.000000  -0.000000
              13         14         15         16         17         18
     1  C    0.000000  -0.000000   0.000000  -0.000000  -0.000000   0.000000
     2  C    0.000000   0.000000  -0.000000   0.000000  -0.000000  -0.000000
     3  C    0.000000  -0.000000   0.000000  -0.000000   0.000000   0.000000
     4  C   -0.000000   0.000000  -0.000000   0.000000   0.000000   0.000000
     5  N    0.000000  -0.000000   0.000000  -0.000000   0.000000   0.000000
     6  C   -0.000000   0.000000  -0.000000   0.000000   0.000000   0.000000
     7  C    0.000000  -0.000000   0.000000  -0.000000  -0.000000  -0.000000
     8  C    0.000000  -0.000000   0.000000  -0.000000   0.000000   0.000000
     9  C   -0.000000   0.000000  -0.000000   0.000000   0.000000   0.000000
    10  C    0.000000  -0.000000   0.000000  -0.000000  -0.000000   0.000000
    11  C    0.000000  -0.000000  -0.000000   0.000000   0.000000  -0.000000
    12  C    0.000000   0.000000  -0.000000   0.000000  -0.000000  -0.000000
    13  F   -0.000000   0.000000   0.000000  -0.000000  -0.000000   0.000000
    14  H    0.000000  -0.000000   0.000000  -0.000000   0.000000   0.000000
    15  H    0.000000   0.000000  -0.000000   0.000000  -0.000000   0.000000
    16  H   -0.000000  -0.000000   0.000000  -0.000000   0.000000  -0.000000
    17  H   -0.000000   0.000000  -0.000000   0.000000   0.000000  -0.000000
    18  H    0.000000   0.000000   0.000000  -0.000000  -0.000000  -0.000000
    19  H   -0.000000   0.000000   0.000000  -0.000000   0.000000  -0.000000
    20  H    0.000000   0.000000  -0.000000  -0.000000  -0.000000   0.000000
    21  H   -0.000000  -0.000000   0.000000   0.000000   0.000000   0.000000
              19         20         21
     1  C   -0.000000   0.000000  -0.000000
     2  C    0.000000  -0.000000  -0.000000
     3  C   -0.000000   0.000000  -0.000000
     4  C    0.000000  -0.000000   0.000000
     5  N   -0.000000  -0.000000   0.000000
     6  C    0.000000  -0.000000   0.000000
     7  C    0.000000  -0.000000   0.000000
     8  C   -0.000000   0.000000  -0.000000
     9  C    0.000000  -0.000000  -0.000000
    10  C   -0.000000   0.000000   0.000000
    11  C    0.000000  -0.000000  -0.000000
    12  C   -0.000000   0.000000  -0.000000
    13  F   -0.000000   0.000000  -0.000000
    14  H    0.000000   0.000000  -0.000000
    15  H    0.000000  -0.000000   0.000000
    16  H   -0.000000  -0.000000   0.000000
    17  H    0.000000  -0.000000   0.000000
    18  H   -0.000000   0.000000   0.000000
    19  H    0.000000  -0.000000  -0.000000
    20  H   -0.000000   0.000000   0.000000
    21  H   -0.000000   0.000000  -0.000000
 Mulliken charges and spin densities:
               1          2
     1  C   -0.047246  -0.000000
     2  C    0.067366  -0.000000
     3  C   -0.018848   0.000000
     4  C    0.087513  -0.000000
     5  N   -0.196734   0.000000
     6  C    0.089015   0.000000
     7  C   -0.046250   0.000000
     8  C    0.042820  -0.000000
     9  C    0.024185   0.000000
    10  C    0.025488  -0.000000
    11  C    0.011737   0.000000
    12  C    0.067906  -0.000000
    13  F   -0.136373   0.000000
    14  H    0.001731  -0.000000
    15  H    0.005323  -0.000000
    16  H    0.006944  -0.000000
    17  H    0.010834   0.000000
    18  H   -0.001977  -0.000000
    19  H   -0.003044   0.000000
    20  H    0.000585   0.000000
    21  H    0.009024  -0.000000
 Sum of Mulliken charges =  -0.00000   0.00000
 Mulliken charges and spin densities with hydrogens summed into heavy atoms:
               1          2
     1  C   -0.045515  -0.000000
     2  C    0.072689  -0.000000
     3  C   -0.011904   0.000000
     4  C    0.087513  -0.000000
     5  N   -0.196734   0.000000
     6  C    0.099850   0.000000
     7  C   -0.046250   0.000000
     8  C    0.040842  -0.000000
     9  C    0.021141   0.000000
    10  C    0.026073  -0.000000
    11  C    0.020761   0.000000
    12  C    0.067906  -0.000000
    13  F   -0.136373   0.000000
 Electronic spatial extent (au):  <R**2>=           2451.5974
 Charge=             -0.0000 electrons
 Dipole moment (field-independent basis, Debye):
    X=             -0.5238    Y=              0.3754    Z=              0.5194  Tot=              0.8277
 Quadrupole moment (field-independent basis, Debye-Ang):
   XX=            -57.4561   YY=            -70.5868   ZZ=            -77.2375
   XY=             -1.7758   XZ=             -0.2641   YZ=              0.4496
 Traceless Quadrupole moment (field-independent basis, Debye-Ang):
   XX=             10.9707   YY=             -2.1600   ZZ=             -8.8107
   XY=             -1.7758   XZ=             -0.2641   YZ=              0.4496
 Octapole moment (field-independent basis, Debye-Ang**2):
  XXX=             -5.5054  YYY=             10.1536  ZZZ=             -3.7148  XYY=             -0.0514
  XXY=              4.0772  XXZ=             -1.0818  XZZ=             -0.0627  YZZ=              6.9983
  YYZ=              2.9906  XYZ=             -4.9207
 Hexadecapole moment (field-independent basis, Debye-Ang**3):
 XXXX=          -2179.6830 YYYY=           -665.6827 ZZZZ=            -99.5280 XXXY=             23.1501
 XXXZ=             -0.5482 YYYX=              1.5322 YYYZ=             -1.3634 ZZZX=             -1.7536
 ZZZY=             -4.2225 XXYY=           -475.6316 XXZZ=           -472.4411 YYZZ=           -135.6545
 XXYZ=              5.8281 YYXZ=              0.1344 ZZXY=              9.6341
 N-N= 7.129562975143D+02 E-N=-2.774283114070D+03  KE= 5.743675389177D+02
                          Isotropic Fermi Contact Couplings
        Atom                 a.u.       MegaHertz       Gauss      10(-4) cm-1
     1  C(13)              0.00000       0.00000       0.00000       0.00000
     2  C(13)             -0.00000      -0.00000      -0.00000      -0.00000
     3  C(13)              0.00000       0.00000       0.00000       0.00000
     4  C(13)             -0.00000      -0.00000      -0.00000      -0.00000
     5  N(14)             -0.00000      -0.00000      -0.00000      -0.00000
     6  C(13)              0.00000       0.00000       0.00000       0.00000
     7  C(13)             -0.00000      -0.00000      -0.00000      -0.00000
     8  C(13)              0.00000       0.00000       0.00000       0.00000
     9  C(13)              0.00000       0.00000       0.00000       0.00000
    10  C(13)             -0.00000      -0.00000      -0.00000      -0.00000
    11  C(13)              0.00000       0.00000       0.00000       0.00000
    12  C(13)             -0.00000      -0.00000      -0.00000      -0.00000
    13  F(19)             -0.00000      -0.00000      -0.00000      -0.00000
    14  H(1)              -0.00000      -0.00000      -0.00000      -0.00000
    15  H(1)              -0.00000      -0.00000      -0.00000      -0.00000
    16  H(1)              -0.00000      -0.00000      -0.00000      -0.00000
    17  H(1)              -0.00000      -0.00000      -0.00000      -0.00000
    18  H(1)              -0.00000      -0.00000      -0.00000      -0.00000
    19  H(1)               0.00000       0.00000       0.00000       0.00000
    20  H(1)               0.00000       0.00000       0.00000       0.00000
    21  H(1)              -0.00000      -0.00000      -0.00000      -0.00000
 --------------------------------------------------------
       Center         ----  Spin Dipole Couplings  ----
                      3XX-RR        3YY-RR        3ZZ-RR
 --------------------------------------------------------
     1   Atom       -0.000000     -0.000000      0.000000
     2   Atom       -0.000000     -0.000000      0.000000
     3   Atom       -0.000000     -0.000000      0.000000
     4   Atom        0.000000     -0.000000     -0.000000
     5   Atom       -0.000000     -0.000000      0.000000
     6   Atom        0.000000     -0.000000      0.000000
     7   Atom       -0.000000      0.000000      0.000000
     8   Atom        0.000000     -0.000000     -0.000000
     9   Atom        0.000000      0.000000     -0.000000
    10   Atom       -0.000000      0.000000     -0.000000
    11   Atom        0.000000     -0.000000     -0.000000
    12   Atom       -0.000000      0.000000     -0.000000
    13   Atom       -0.000000     -0.000000      0.000000
    14   Atom       -0.000000      0.000000      0.000000
    15   Atom       -0.000000     -0.000000      0.000000
    16   Atom        0.000000     -0.000000      0.000000
    17   Atom       -0.000000      0.000000     -0.000000
    18   Atom       -0.000000      0.000000     -0.000000
    19   Atom       -0.000000      0.000000     -0.000000
    20   Atom        0.000000     -0.000000     -0.000000
    21   Atom        0.000000     -0.000000      0.000000
 --------------------------------------------------------
                        XY            XZ            YZ
 --------------------------------------------------------
     1   Atom       -0.000000     -0.000000     -0.000000
     2   Atom        0.000000      0.000000     -0.000000
     3   Atom        0.000000      0.000000     -0.000000
     4   Atom        0.000000      0.000000      0.000000
     5   Atom        0.000000     -0.000000     -0.000000
     6   Atom        0.000000      0.000000      0.000000
     7   Atom       -0.000000      0.000000     -0.000000
     8   Atom        0.000000      0.000000     -0.000000
     9   Atom       -0.000000      0.000000     -0.000000
    10   Atom       -0.000000     -0.000000     -0.000000
    11   Atom        0.000000     -0.000000      0.000000
    12   Atom        0.000000     -0.000000     -0.000000
    13   Atom       -0.000000     -0.000000     -0.000000
    14   Atom        0.000000      0.000000     -0.000000
    15   Atom        0.000000      0.000000     -0.000000
    16   Atom       -0.000000     -0.000000     -0.000000
    17   Atom       -0.000000      0.000000      0.000000
    18   Atom        0.000000     -0.000000      0.000000
    19   Atom        0.000000     -0.000000     -0.000000
    20   Atom       -0.000000      0.000000      0.000000
    21   Atom       -0.000000     -0.000000      0.000000
 --------------------------------------------------------


 ---------------------------------------------------------------------------------
              Anisotropic Spin Dipole Couplings in Principal Axis System
 ---------------------------------------------------------------------------------

       Atom             a.u.   MegaHertz   Gauss  10(-4) cm-1        Axes

              Baa    -0.0000    -0.000    -0.000    -0.000  0.7767  0.6133  0.1436
     1 C(13)  Bbb    -0.0000    -0.000    -0.000    -0.000 -0.6299  0.7558  0.1787
              Bcc     0.0000     0.000     0.000     0.000  0.0010 -0.2292  0.9734
 
              Baa    -0.0000    -0.000    -0.000    -0.000 -0.2434  0.9417  0.2324
     2 C(13)  Bbb    -0.0000    -0.000    -0.000    -0.000  0.9697  0.2415  0.0369
              Bcc     0.0000     0.000     0.000     0.000  0.0214 -0.2344  0.9719
 
              Baa    -0.0000    -0.000    -0.000    -0.000  0.8465 -0.4177 -0.3301
     3 C(13)  Bbb    -0.0000    -0.000    -0.000    -0.000  0.4828  0.8636  0.1452
              Bcc     0.0000     0.000     0.000     0.000  0.2244 -0.2823  0.9327
 
              Baa    -0.0000    -0.000    -0.000    -0.000 -0.2936  0.3111  0.9039
     4 C(13)  Bbb    -0.0000    -0.000    -0.000    -0.000 -0.1942  0.9064 -0.3751
              Bcc     0.0000     0.000     0.000     0.000  0.9360  0.2857  0.2057
 
              Baa    -0.0000    -0.000    -0.000    -0.000 -0.4799  0.8770  0.0250
     5 N(14)  Bbb    -0.0000    -0.000    -0.000    -0.000  0.8620  0.4660  0.1997
              Bcc     0.0000     0.000     0.000     0.000 -0.1635 -0.1174  0.9795
 
              Baa    -0.0000    -0.000    -0.000    -0.000 -0.2620  0.9644  0.0368
     6 C(13)  Bbb    -0.0000    -0.000    -0.000    -0.000 -0.5331 -0.1764  0.8275
              Bcc     0.0000     0.000     0.000     0.000  0.8045  0.1972  0.5603
 
              Baa    -0.0000    -0.000    -0.000    -0.000  0.9655  0.2572 -0.0415
     7 C(13)  Bbb     0.0000     0.000     0.000     0.000 -0.2458  0.9519  0.1828
              Bcc     0.0000     0.000     0.000     0.000  0.0865 -0.1663  0.9823
 
              Baa    -0.0000    -0.000    -0.000    -0.000 -0.2189  0.3027  0.9276
     8 C(13)  Bbb    -0.0000    -0.000    -0.000    -0.000  0.0353  0.9525 -0.3025
              Bcc     0.0000     0.000     0.000     0.000  0.9751  0.0335  0.2192
 
              Baa    -0.0000    -0.000    -0.000    -0.000  0.5788  0.6331  0.5139
     9 C(13)  Bbb    -0.0000    -0.000    -0.000    -0.000 -0.3765 -0.3515  0.8571
              Bcc     0.0000     0.000     0.000     0.000  0.7233 -0.6896  0.0349
 
              Baa    -0.0000    -0.000    -0.000    -0.000  0.0930  0.1430  0.9853
    10 C(13)  Bbb    -0.0000    -0.000    -0.000    -0.000  0.9953  0.0125 -0.0958
              Bcc     0.0000     0.000     0.000     0.000 -0.0260  0.9896 -0.1412
 
              Baa    -0.0000    -0.000    -0.000    -0.000 -0.2440  0.9350 -0.2575
    11 C(13)  Bbb    -0.0000    -0.000    -0.000    -0.000 -0.0893  0.2428  0.9660
              Bcc     0.0000     0.000     0.000     0.000  0.9657  0.2587  0.0242
 
              Baa    -0.0000    -0.000    -0.000    -0.000  0.9351 -0.3539 -0.0180
    12 C(13)  Bbb    -0.0000    -0.000    -0.000    -0.000  0.0575  0.1014  0.9932
              Bcc     0.0000     0.000     0.000     0.000  0.3497  0.9298 -0.1151
 
              Baa    -0.0000    -0.000    -0.000    -0.000  0.6209  0.7181  0.3143
    13 F(19)  Bbb     0.0000     0.000     0.000     0.000  0.1244 -0.4861  0.8650
              Bcc     0.0000     0.000     0.000     0.000  0.7740 -0.4979 -0.3911
 
              Baa    -0.0000    -0.000    -0.000    -0.000  0.9948 -0.0870 -0.0522
    14 H(1)   Bbb     0.0000     0.000     0.000     0.000  0.0946  0.9817  0.1654
              Bcc     0.0000     0.000     0.000     0.000  0.0369 -0.1695  0.9848
 
              Baa    -0.0000    -0.000    -0.000    -0.000 -0.5542  0.8155  0.1668
    15 H(1)   Bbb     0.0000     0.000     0.000     0.000  0.8297  0.5249  0.1901
              Bcc     0.0000     0.000     0.000     0.000 -0.0674 -0.2437  0.9675
 
              Baa    -0.0000    -0.000    -0.000    -0.000  0.3292  0.8973  0.2942
    16 H(1)   Bbb     0.0000     0.000     0.000     0.000  0.4500 -0.4230  0.7865
              Bcc     0.0000     0.000     0.000     0.000  0.8301 -0.1266 -0.5431
 
              Baa    -0.0000    -0.000    -0.000    -0.000  0.9814  0.1612 -0.1047
    17 H(1)   Bbb    -0.0000    -0.000    -0.000    -0.000  0.1526 -0.3221  0.9343
              Bcc     0.0000     0.000     0.000     0.000 -0.1169  0.9329  0.3407
 
              Baa    -0.0000    -0.000    -0.000    -0.000  0.9164 -0.3988  0.0327
    18 H(1)   Bbb    -0.0000    -0.000    -0.000    -0.000 -0.0271  0.0196  0.9994
              Bcc     0.0000     0.000     0.000     0.000  0.3993  0.9168 -0.0072
 
              Baa    -0.0000    -0.000    -0.000    -0.000  0.1485  0.0562  0.9873
    19 H(1)   Bbb    -0.0000    -0.000    -0.000    -0.000  0.9437 -0.3064 -0.1245
              Bcc     0.0000     0.000     0.000     0.000  0.2955  0.9503 -0.0986
 
              Baa    -0.0000    -0.000    -0.000    -0.000  0.0995  0.9947 -0.0264
    20 H(1)   Bbb    -0.0000    -0.000    -0.000    -0.000 -0.0037  0.0269  0.9996
              Bcc     0.0000     0.000     0.000     0.000  0.9950 -0.0994  0.0064
 
              Baa    -0.0000    -0.000    -0.000    -0.000  0.1259  0.9822 -0.1393
    21 H(1)   Bbb     0.0000     0.000     0.000     0.000  0.0720  0.1310  0.9888
              Bcc     0.0000     0.000     0.000     0.000  0.9894 -0.1345 -0.0542
 

 ---------------------------------------------------------------------------------

 No NMR shielding tensors so no spin-rotation constants.
 Leave Link  601 at Fri Jul 24 13:40:13 2020, MaxMem=  4026531840 cpu:               1.7 elap:               0.2
 (Enter /opt/ohpc/pub/libs/gaussian/g16-A.03/sandybridge/g16/l9999.exe)

 Test job not archived.
 1\1\GINC-SKYLAKE014\FOpt\ULC-wPBE\CC-pVDZ\C11H8F1N1\RDU230\24-Jul-2020
 \0\\#P uLC-wPBE/cc-pVDZ iop(3/107=0312000000, 3/108=0312000000) opt\\H
 8 C11 N1 F1\\0,1\C,-3.6075800806,-0.1676145751,-0.0520644767\C,-2.9603
 911084,1.0373701334,0.1988808547\C,-1.5701636521,1.072297719,0.2101112
 249\C,-0.8596285658,-0.1112762367,-0.0322300285\N,-1.485166897,-1.2763
 078893,-0.2618686377\C,-2.8168535117,-1.292993386,-0.2708779979\C,0.63
 29799758,-0.1880468852,-0.0170544191\C,1.2492147275,-1.4349603712,0.16
 51862852\C,2.6313935986,-1.5754406177,0.190669234\C,3.4477031081,-0.45
 7171759,0.0215720285\C,2.8698659546,0.7920979211,-0.1744898818\C,1.485
 9224783,0.9051756907,-0.1912560597\F,0.9770942122,2.1426247424,-0.4015
 242969\H,-4.6986816129,-0.2403616316,-0.0736678585\H,-3.5327619092,1.9
 513026008,0.3886481596\H,-1.0415310649,2.0042369728,0.4105579355\H,-3.
 2809997282,-2.2688677778,-0.4653696301\H,0.5909823987,-2.3000151413,0.
 2796059721\H,3.0747245039,-2.5642113069,0.3414560767\H,4.5376082328,-0
 .5551350996,0.0388038112\H,3.4690749403,1.6945548971,-0.3225062955\\Ve
 rsion=EM64L-G16RevA.03\State=1-A\HF=-578.1690591\S2=0.\S2-1=0.\S2A=0.\
 RMSD=4.968e-09\RMSF=3.877e-06\Dipole=-0.2056871,0.1557746,0.1986538\Qu
 adrupole=8.1507972,-1.5820876,-6.5687096,-1.3470205,-0.1501794,0.14665
 35\PG=C01 [X(C11H8F1N1)]\\@


 AN OPTIMIST IS A GUY
 THAT HAS NEVER HAD
 MUCH EXPERIENCE
   (CERTAIN MAXIMS OF ARCHY  -- DON MARQUIS)
 Job cpu time:       0 days  2 hours 39 minutes 37.9 seconds.
 Elapsed time:       0 days  0 hours 20 minutes 20.3 seconds.
 File lengths (MBytes):  RWF=    108 Int=      0 D2E=      0 Chk=     12 Scr=      8
 Normal termination of Gaussian 16 at Fri Jul 24 13:40:14 2020.
