 Entering Gaussian System, Link 0=g16
 Input=mols_65_1_26_n-cOC-CF_opt_0.gjf
 Output=mols_65_1_26_n-cOC-CF_opt_0.log
 Initial command:
 /opt/ohpc/pub/libs/gaussian/g16-A.03/sandybridge/g16/l1.exe "/mnt/gpfs2_4m/scratch/rdu230/ondemand/projects/dihedral_energies/7trial/wtuning/mols_65_1_26_n-cOC-CF/Gau-335546.inp" -scrdir="/mnt/gpfs2_4m/scratch/rdu230/ondemand/projects/dihedral_energies/7trial/wtuning/mols_65_1_26_n-cOC-CF/"
 Entering Link 1 = /opt/ohpc/pub/libs/gaussian/g16-A.03/sandybridge/g16/l1.exe PID=    335550.
  
 Copyright (c) 1988,1990,1992,1993,1995,1998,2003,2009,2016,
            Gaussian, Inc.  All Rights Reserved.
  
 This is part of the Gaussian(R) 16 program.  It is based on
 the Gaussian(R) 09 system (copyright 2009, Gaussian, Inc.),
 the Gaussian(R) 03 system (copyright 2003, Gaussian, Inc.),
 the Gaussian(R) 98 system (copyright 1998, Gaussian, Inc.),
 the Gaussian(R) 94 system (copyright 1995, Gaussian, Inc.),
 the Gaussian 92(TM) system (copyright 1992, Gaussian, Inc.),
 the Gaussian 90(TM) system (copyright 1990, Gaussian, Inc.),
 the Gaussian 88(TM) system (copyright 1988, Gaussian, Inc.),
 the Gaussian 86(TM) system (copyright 1986, Carnegie Mellon
 University), and the Gaussian 82(TM) system (copyright 1983,
 Carnegie Mellon University). Gaussian is a federally registered
 trademark of Gaussian, Inc.
  
 This software contains proprietary and confidential information,
 including trade secrets, belonging to Gaussian, Inc.
  
 This software is provided under written license and may be
 used, copied, transmitted, or stored only in accord with that
 written license.
  
 The following legend is applicable only to US Government
 contracts under FAR:
  
                    RESTRICTED RIGHTS LEGEND
  
 Use, reproduction and disclosure by the US Government is
 subject to restrictions as set forth in subparagraphs (a)
 and (c) of the Commercial Computer Software - Restricted
 Rights clause in FAR 52.227-19.
  
 Gaussian, Inc.
 340 Quinnipiac St., Bldg. 40, Wallingford CT 06492
  
  
 ---------------------------------------------------------------
 Warning -- This program may not be used in any manner that
 competes with the business of Gaussian, Inc. or will provide
 assistance to any competitor of Gaussian, Inc.  The licensee
 of this program is prohibited from giving any competitor of
 Gaussian, Inc. access to this program.  By using this program,
 the user acknowledges that Gaussian, Inc. is engaged in the
 business of creating and licensing software in the field of
 computational chemistry and represents and warrants to the
 licensee that it is not a competitor of Gaussian, Inc. and that
 it will not use this program in any manner prohibited above.
 ---------------------------------------------------------------
  

 Cite this work as:
 Gaussian 16, Revision A.03,
 M. J. Frisch, G. W. Trucks, H. B. Schlegel, G. E. Scuseria, 
 M. A. Robb, J. R. Cheeseman, G. Scalmani, V. Barone, 
 G. A. Petersson, H. Nakatsuji, X. Li, M. Caricato, A. V. Marenich, 
 J. Bloino, B. G. Janesko, R. Gomperts, B. Mennucci, H. P. Hratchian, 
 J. V. Ortiz, A. F. Izmaylov, J. L. Sonnenberg, D. Williams-Young, 
 F. Ding, F. Lipparini, F. Egidi, J. Goings, B. Peng, A. Petrone, 
 T. Henderson, D. Ranasinghe, V. G. Zakrzewski, J. Gao, N. Rega, 
 G. Zheng, W. Liang, M. Hada, M. Ehara, K. Toyota, R. Fukuda, 
 J. Hasegawa, M. Ishida, T. Nakajima, Y. Honda, O. Kitao, H. Nakai, 
 T. Vreven, K. Throssell, J. A. Montgomery, Jr., J. E. Peralta, 
 F. Ogliaro, M. J. Bearpark, J. J. Heyd, E. N. Brothers, K. N. Kudin, 
 V. N. Staroverov, T. A. Keith, R. Kobayashi, J. Normand, 
 K. Raghavachari, A. P. Rendell, J. C. Burant, S. S. Iyengar, 
 J. Tomasi, M. Cossi, J. M. Millam, M. Klene, C. Adamo, R. Cammi, 
 J. W. Ochterski, R. L. Martin, K. Morokuma, O. Farkas, 
 J. B. Foresman, and D. J. Fox, Gaussian, Inc., Wallingford CT, 2016.
 
 ******************************************
 Gaussian 16:  EM64L-G16RevA.03 25-Dec-2016
                23-Jul-2020 
 ******************************************
 %mem=30GB
 %nproc=8
 Will use up to    8 processors via shared memory.
 ---------------------------------------------------------------
 #P uLC-wPBE/cc-pVDZ iop(3/107=0264900000, 3/108=0264900000) opt
 ---------------------------------------------------------------
 1/18=20,19=15,26=3,38=1/1,3;
 2/9=110,12=2,17=6,18=5,40=1/2;
 3/5=16,11=2,25=1,30=1,71=1,74=-41,107=264900000,108=264900000,116=2/1,2,3;
 4//1;
 5/5=2,38=5/2;
 6/7=2,8=2,9=2,10=2,28=1/1;
 7//1,2,3,16;
 1/18=20,19=15,26=3/3(2);
 2/9=110/2;
 99//99;
 2/9=110/2;
 3/5=16,11=2,25=1,30=1,71=1,74=-41,107=264900000,108=264900000,116=2/1,2,3;
 4/5=5,16=3,69=1/1;
 5/5=2,38=5/2;
 7//1,2,3,16;
 1/18=20,19=15,26=3/3(-5);
 2/9=110/2;
 6/7=2,8=2,9=2,10=2,19=2,28=1/1;
 99/9=1/99;
 Leave Link    1 at Thu Jul 23 15:37:56 2020, MaxMem=  4026531840 cpu:               2.8 elap:               0.4
 (Enter /opt/ohpc/pub/libs/gaussian/g16-A.03/sandybridge/g16/l101.exe)
 ------------------
 H8 C10 S1 N1 O1 F1
 ------------------
 Symbolic Z-matrix:
 Charge =  0 Multiplicity = 1
 C                     3.1461   -1.36636   0.28785 
 C                     2.08514  -2.19101   0.49161 
 N                     0.77451  -1.8237    0.50911 
 C                     0.47951  -0.56312   0.14263 
 C                     1.50323   0.36018  -0.24831 
 O                     1.11896   1.65476  -0.59768 
 C                     2.12246   2.61913  -0.73729 
 C                     2.79567   0.01672  -0.11618 
 C                    -0.96335  -0.24769   0.10543 
 C                    -1.59774   0.80058   0.64805 
 F                    -1.02889   1.73544   1.45677 
 C                    -3.00533   0.72801   0.44579 
 C                    -3.38045  -0.3184   -0.37176 
 S                    -1.9732   -1.23469  -0.86178 
 H                     4.17289  -1.64517   0.36479 
 H                     2.2604   -3.18178   0.85492 
 H                     1.58142   3.54163  -1.02937 
 H                     2.63517   2.73104   0.13605 
 H                     2.69724   2.41279  -1.60951 
 H                     3.59621   0.61388  -0.35575 
 H                    -3.69264   1.48054   0.85343 
 H                    -4.37866  -0.56756  -0.73664 
 
 ITRead=  0  0  0  0  0  0  0  0  0  0  0  0  0  0  0  0  0  0  0  0
 ITRead=  0  0
 MicOpt= -1 -1 -1 -1 -1 -1 -1 -1 -1 -1 -1 -1 -1 -1 -1 -1 -1 -1 -1 -1
 MicOpt= -1 -1
 NAtoms=     22 NQM=       22 NQMF=       0 NMMI=      0 NMMIF=      0
                NMic=       0 NMicF=      0.
                    Isotopes and Nuclear Properties:
 (Nuclear quadrupole moments (NQMom) in fm**2, nuclear magnetic moments (NMagM)
  in nuclear magnetons)

  Atom         1           2           3           4           5           6           7           8           9          10
 IAtWgt=          12          12          14          12          12          16          12          12          12          12
 AtmWgt=  12.0000000  12.0000000  14.0030740  12.0000000  12.0000000  15.9949146  12.0000000  12.0000000  12.0000000  12.0000000
 NucSpn=           0           0           2           0           0           0           0           0           0           0
 AtZEff=  -0.0000000  -0.0000000  -0.0000000  -0.0000000  -0.0000000  -0.0000000  -0.0000000  -0.0000000  -0.0000000  -0.0000000
 NQMom=    0.0000000   0.0000000   2.0440000   0.0000000   0.0000000   0.0000000   0.0000000   0.0000000   0.0000000   0.0000000
 NMagM=    0.0000000   0.0000000   0.4037610   0.0000000   0.0000000   0.0000000   0.0000000   0.0000000   0.0000000   0.0000000
 AtZNuc=   6.0000000   6.0000000   7.0000000   6.0000000   6.0000000   8.0000000   6.0000000   6.0000000   6.0000000   6.0000000

  Atom        11          12          13          14          15          16          17          18          19          20
 IAtWgt=          19          12          12          32           1           1           1           1           1           1
 AtmWgt=  18.9984033  12.0000000  12.0000000  31.9720718   1.0078250   1.0078250   1.0078250   1.0078250   1.0078250   1.0078250
 NucSpn=           1           0           0           0           1           1           1           1           1           1
 AtZEff=  -0.0000000  -0.0000000  -0.0000000  -0.0000000  -0.0000000  -0.0000000  -0.0000000  -0.0000000  -0.0000000  -0.0000000
 NQMom=    0.0000000   0.0000000   0.0000000   0.0000000   0.0000000   0.0000000   0.0000000   0.0000000   0.0000000   0.0000000
 NMagM=    2.6288670   0.0000000   0.0000000   0.0000000   2.7928460   2.7928460   2.7928460   2.7928460   2.7928460   2.7928460
 AtZNuc=   9.0000000   6.0000000   6.0000000  16.0000000   1.0000000   1.0000000   1.0000000   1.0000000   1.0000000   1.0000000

  Atom        21          22
 IAtWgt=           1           1
 AtmWgt=   1.0078250   1.0078250
 NucSpn=           1           1
 AtZEff=  -0.0000000  -0.0000000
 NQMom=    0.0000000   0.0000000
 NMagM=    2.7928460   2.7928460
 AtZNuc=   1.0000000   1.0000000
 Leave Link  101 at Thu Jul 23 15:37:56 2020, MaxMem=  4026531840 cpu:               2.7 elap:               0.4
 (Enter /opt/ohpc/pub/libs/gaussian/g16-A.03/sandybridge/g16/l103.exe)

 GradGradGradGradGradGradGradGradGradGradGradGradGradGradGradGradGradGrad
 Berny optimization.
 Initialization pass.
                           ----------------------------
                           !    Initial Parameters    !
                           ! (Angstroms and Degrees)  !
 --------------------------                            --------------------------
 ! Name  Definition              Value          Derivative Info.                !
 --------------------------------------------------------------------------------
 ! R1    R(1,2)                  1.3591         estimate D2E/DX2                !
 ! R2    R(1,8)                  1.4829         estimate D2E/DX2                !
 ! R3    R(1,15)                 1.0668         estimate D2E/DX2                !
 ! R4    R(2,3)                  1.3612         estimate D2E/DX2                !
 ! R5    R(2,16)                 1.0697         estimate D2E/DX2                !
 ! R6    R(3,4)                  1.3455         estimate D2E/DX2                !
 ! R7    R(4,5)                  1.4329         estimate D2E/DX2                !
 ! R8    R(4,9)                  1.4774         estimate D2E/DX2                !
 ! R9    R(5,6)                  1.3949         estimate D2E/DX2                !
 ! R10   R(5,8)                  1.3438         estimate D2E/DX2                !
 ! R11   R(6,7)                  1.3988         estimate D2E/DX2                !
 ! R12   R(7,17)                 1.1086         estimate D2E/DX2                !
 ! R13   R(7,18)                 1.0189         estimate D2E/DX2                !
 ! R14   R(7,19)                 1.0648         estimate D2E/DX2                !
 ! R15   R(8,20)                 1.0271         estimate D2E/DX2                !
 ! R16   R(9,10)                 1.3401         estimate D2E/DX2                !
 ! R17   R(9,14)                 1.7116         estimate D2E/DX2                !
 ! R18   R(10,11)                1.3607         estimate D2E/DX2                !
 ! R19   R(10,12)                1.4239         estimate D2E/DX2                !
 ! R20   R(12,13)                1.3799         estimate D2E/DX2                !
 ! R21   R(12,21)                1.0977         estimate D2E/DX2                !
 ! R22   R(13,14)                1.7493         estimate D2E/DX2                !
 ! R23   R(13,22)                1.0916         estimate D2E/DX2                !
 ! A1    A(2,1,8)              114.9794         estimate D2E/DX2                !
 ! A2    A(2,1,15)             125.5906         estimate D2E/DX2                !
 ! A3    A(8,1,15)             119.3986         estimate D2E/DX2                !
 ! A4    A(1,2,3)              126.1432         estimate D2E/DX2                !
 ! A5    A(1,2,16)             119.012          estimate D2E/DX2                !
 ! A6    A(3,2,16)             113.7838         estimate D2E/DX2                !
 ! A7    A(2,3,4)              117.4126         estimate D2E/DX2                !
 ! A8    A(3,4,5)              121.4225         estimate D2E/DX2                !
 ! A9    A(3,4,9)              114.8983         estimate D2E/DX2                !
 ! A10   A(5,4,9)              123.5918         estimate D2E/DX2                !
 ! A11   A(4,5,6)              118.0042         estimate D2E/DX2                !
 ! A12   A(4,5,8)              119.7092         estimate D2E/DX2                !
 ! A13   A(6,5,8)              121.789          estimate D2E/DX2                !
 ! A14   A(5,6,7)              117.8555         estimate D2E/DX2                !
 ! A15   A(6,7,17)             104.4704         estimate D2E/DX2                !
 ! A16   A(6,7,18)             110.5602         estimate D2E/DX2                !
 ! A17   A(6,7,19)             109.5984         estimate D2E/DX2                !
 ! A18   A(17,7,18)            112.3352         estimate D2E/DX2                !
 ! A19   A(17,7,19)            102.0566         estimate D2E/DX2                !
 ! A20   A(18,7,19)            116.8587         estimate D2E/DX2                !
 ! A21   A(1,8,5)              119.5021         estimate D2E/DX2                !
 ! A22   A(1,8,20)             114.9385         estimate D2E/DX2                !
 ! A23   A(5,8,20)             125.3182         estimate D2E/DX2                !
 ! A24   A(4,9,10)             128.2547         estimate D2E/DX2                !
 ! A25   A(4,9,14)             117.8607         estimate D2E/DX2                !
 ! A26   A(10,9,14)            113.6161         estimate D2E/DX2                !
 ! A27   A(9,10,11)            125.4633         estimate D2E/DX2                !
 ! A28   A(9,10,12)            111.7527         estimate D2E/DX2                !
 ! A29   A(11,10,12)           122.1878         estimate D2E/DX2                !
 ! A30   A(10,12,13)           113.0505         estimate D2E/DX2                !
 ! A31   A(10,12,21)           122.093          estimate D2E/DX2                !
 ! A32   A(13,12,21)           124.7293         estimate D2E/DX2                !
 ! A33   A(12,13,14)           110.1506         estimate D2E/DX2                !
 ! A34   A(12,13,22)           128.2951         estimate D2E/DX2                !
 ! A35   A(14,13,22)           121.4958         estimate D2E/DX2                !
 ! A36   A(9,14,13)             90.8186         estimate D2E/DX2                !
 ! D1    D(8,1,2,3)             -8.0645         estimate D2E/DX2                !
 ! D2    D(8,1,2,16)          -175.5142         estimate D2E/DX2                !
 ! D3    D(15,1,2,3)           173.9976         estimate D2E/DX2                !
 ! D4    D(15,1,2,16)            6.5478         estimate D2E/DX2                !
 ! D5    D(2,1,8,5)              0.1629         estimate D2E/DX2                !
 ! D6    D(2,1,8,20)          -174.4933         estimate D2E/DX2                !
 ! D7    D(15,1,8,5)           178.2383         estimate D2E/DX2                !
 ! D8    D(15,1,8,20)            3.5821         estimate D2E/DX2                !
 ! D9    D(1,2,3,4)              8.1184         estimate D2E/DX2                !
 ! D10   D(16,2,3,4)           176.1329         estimate D2E/DX2                !
 ! D11   D(2,3,4,5)             -0.1473         estimate D2E/DX2                !
 ! D12   D(2,3,4,9)            176.5705         estimate D2E/DX2                !
 ! D13   D(3,4,5,6)           -179.1623         estimate D2E/DX2                !
 ! D14   D(3,4,5,8)             -7.1078         estimate D2E/DX2                !
 ! D15   D(9,4,5,6)              4.412          estimate D2E/DX2                !
 ! D16   D(9,4,5,8)            176.4665         estimate D2E/DX2                !
 ! D17   D(3,4,9,10)           130.8312         estimate D2E/DX2                !
 ! D18   D(3,4,9,14)           -55.5411         estimate D2E/DX2                !
 ! D19   D(5,4,9,10)           -52.5312         estimate D2E/DX2                !
 ! D20   D(5,4,9,14)           121.0965         estimate D2E/DX2                !
 ! D21   D(4,5,6,7)            168.3848         estimate D2E/DX2                !
 ! D22   D(8,5,6,7)             -3.4951         estimate D2E/DX2                !
 ! D23   D(4,5,8,1)              6.8484         estimate D2E/DX2                !
 ! D24   D(4,5,8,20)          -179.0921         estimate D2E/DX2                !
 ! D25   D(6,5,8,1)            178.5931         estimate D2E/DX2                !
 ! D26   D(6,5,8,20)            -7.3474         estimate D2E/DX2                !
 ! D27   D(5,6,7,17)           179.0632         estimate D2E/DX2                !
 ! D28   D(5,6,7,18)           -59.8743         estimate D2E/DX2                !
 ! D29   D(5,6,7,19)            70.3476         estimate D2E/DX2                !
 ! D30   D(4,9,10,11)           -6.2585         estimate D2E/DX2                !
 ! D31   D(4,9,10,12)         -177.5218         estimate D2E/DX2                !
 ! D32   D(14,9,10,11)         179.8893         estimate D2E/DX2                !
 ! D33   D(14,9,10,12)           8.626          estimate D2E/DX2                !
 ! D34   D(4,9,14,13)          178.6716         estimate D2E/DX2                !
 ! D35   D(10,9,14,13)          -6.7867         estimate D2E/DX2                !
 ! D36   D(9,10,12,13)          -6.2685         estimate D2E/DX2                !
 ! D37   D(9,10,12,21)         177.6498         estimate D2E/DX2                !
 ! D38   D(11,10,12,13)       -177.8627         estimate D2E/DX2                !
 ! D39   D(11,10,12,21)          6.0556         estimate D2E/DX2                !
 ! D40   D(10,12,13,14)          1.1994         estimate D2E/DX2                !
 ! D41   D(10,12,13,22)       -176.0147         estimate D2E/DX2                !
 ! D42   D(21,12,13,14)        177.16           estimate D2E/DX2                !
 ! D43   D(21,12,13,22)         -0.0541         estimate D2E/DX2                !
 ! D44   D(12,13,14,9)           2.9723         estimate D2E/DX2                !
 ! D45   D(22,13,14,9)        -179.5918         estimate D2E/DX2                !
 --------------------------------------------------------------------------------
 Trust Radius=3.00D-01 FncErr=1.00D-07 GrdErr=1.00D-06 EigMax=2.50D+02 EigMin=1.00D-04
 Number of steps in this run=    114 maximum allowed number of steps=    132.
 GradGradGradGradGradGradGradGradGradGradGradGradGradGradGradGradGradGrad

 Leave Link  103 at Thu Jul 23 15:37:56 2020, MaxMem=  4026531840 cpu:               0.1 elap:               0.0
 (Enter /opt/ohpc/pub/libs/gaussian/g16-A.03/sandybridge/g16/l202.exe)
                          Input orientation:                          
 ---------------------------------------------------------------------
 Center     Atomic      Atomic             Coordinates (Angstroms)
 Number     Number       Type             X           Y           Z
 ---------------------------------------------------------------------
      1          6           0        3.146096   -1.366363    0.287845
      2          6           0        2.085142   -2.191011    0.491606
      3          7           0        0.774509   -1.823704    0.509106
      4          6           0        0.479508   -0.563121    0.142625
      5          6           0        1.503226    0.360183   -0.248308
      6          8           0        1.118962    1.654756   -0.597682
      7          6           0        2.122456    2.619133   -0.737285
      8          6           0        2.795666    0.016722   -0.116184
      9          6           0       -0.963345   -0.247687    0.105428
     10          6           0       -1.597736    0.800581    0.648046
     11          9           0       -1.028886    1.735435    1.456765
     12          6           0       -3.005328    0.728012    0.445794
     13          6           0       -3.380453   -0.318404   -0.371755
     14         16           0       -1.973196   -1.234693   -0.861784
     15          1           0        4.172894   -1.645168    0.364785
     16          1           0        2.260397   -3.181778    0.854919
     17          1           0        1.581421    3.541629   -1.029374
     18          1           0        2.635167    2.731038    0.136045
     19          1           0        2.697242    2.412788   -1.609511
     20          1           0        3.596207    0.613876   -0.355748
     21          1           0       -3.692636    1.480542    0.853433
     22          1           0       -4.378661   -0.567560   -0.736635
 ---------------------------------------------------------------------
                    Distance matrix (angstroms):
                    1          2          3          4          5
     1  C    0.000000
     2  C    1.359112   0.000000
     3  N    2.425395   1.361242   0.000000
     4  C    2.788723   2.312979   1.345512   0.000000
     5  C    2.442835   2.719318   2.423647   1.432940   0.000000
     6  O    3.744408   4.112174   3.666512   2.424033   1.394862
     7  C    4.240626   4.964781   4.807208   3.687853   2.392781
     8  C    1.482891   2.397569   2.804145   2.401622   1.343809
     9  C    4.262888   3.635783   2.380530   1.477399   2.564880
    10  C    5.227746   4.747387   3.540300   2.535759   3.257816
    11  F    5.330854   5.103497   4.100946   3.047224   3.348161
    12  C    6.500106   5.868192   4.560968   3.728675   4.576476
    13  C    6.642976   5.841642   4.506168   3.901765   4.932144
    14  S    5.248441   4.383642   3.126685   2.734155   3.873692
    15  H    1.066755   2.161651   3.406130   3.855033   3.394767
    16  H    2.098039   1.069734   2.042502   3.245966   3.786279
    17  H    5.317110   5.952334   5.639577   4.408715   3.276855
    18  H    4.131923   4.965432   4.934258   3.936800   2.655178
    19  H    4.252460   5.097482   5.112074   4.104188   2.737103
    20  H    2.130295   3.296774   3.827760   3.368607   2.111036
    21  H    7.429200   6.855213   5.567045   4.699850   5.428261
    22  H    7.636073   6.776793   5.448388   4.937097   5.974593
                    6          7          8          9         10
     6  O    0.000000
     7  C    1.398754   0.000000
     8  C    2.392976   2.758899   0.000000
     9  C    2.906829   4.295462   3.774810   0.000000
    10  C    3.108360   4.366475   4.527744   1.340057   0.000000
    11  F    2.973300   3.940271   4.478319   2.400662   1.360724
    12  C    4.354017   5.591975   5.871395   2.288566   1.423899
    13  C    4.918245   6.248579   6.190482   2.464775   2.338846
    14  S    4.240296   5.625108   4.986382   1.711572   2.561815
    15  H    4.598080   4.858304   2.211327   5.329275   6.273922
    16  H    5.177353   6.017035   3.385256   4.423024   5.548619
    17  H    1.990105   1.108618   3.838395   4.703459   4.520412
    18  H    1.998904   1.018872   2.730731   4.671512   4.680414
    19  H    2.022221   1.064770   2.825039   4.839322   5.112985
    20  H    2.697908   2.517651   1.027059   4.663099   5.293345
    21  H    5.028674   6.135313   6.721681   3.315919   2.212044
    22  H    5.931429   7.240134   7.224771   3.532106   3.394510
                   11         12         13         14         15
    11  F    0.000000
    12  C    2.437886   0.000000
    13  C    3.618233   1.379888   0.000000
    14  S    3.884463   2.574348   1.749310   0.000000
    15  H    6.299160   7.560781   7.704274   6.280715   0.000000
    16  H    5.946477   6.571278   6.443821   4.966037   2.501809
    17  H    4.031988   5.579501   6.320800   5.956227   5.963411
    18  H    4.020051   5.993600   6.763478   6.161144   4.644147
    19  H    4.872872   6.291427   6.777155   5.972956   4.747884
    20  H    5.092601   6.650997   7.038692   5.889952   2.440290
    21  H    2.743090   1.097663   2.198807   3.642931   8.477936
    22  H    4.619067   2.227709   1.091621   2.499398   8.689273
                   16         17         18         19         20
    16  H    0.000000
    17  H    7.015395   0.000000
    18  H    5.968134   1.767948   0.000000
    19  H    6.128900   1.689940   1.775416   0.000000
    20  H    4.202034   3.617302   2.376517   2.369841   0.000000
    21  H    7.561470   5.967304   6.489952   6.911275   7.439117
    22  H    7.310559   7.245254   7.799750   7.727405   8.070897
                   21         22
    21  H    0.000000
    22  H    2.682101   0.000000
 Stoichiometry    C10H8FNOS
 Framework group  C1[X(C10H8FNOS)]
 Deg. of freedom    60
 Full point group                 C1      NOp   1
 Largest Abelian subgroup         C1      NOp   1
 Largest concise Abelian subgroup C1      NOp   1
                         Standard orientation:                         
 ---------------------------------------------------------------------
 Center     Atomic      Atomic             Coordinates (Angstroms)
 Number     Number       Type             X           Y           Z
 ---------------------------------------------------------------------
      1          6           0        3.123507   -1.389887    0.295786
      2          6           0        2.057440   -2.208000    0.499199
      3          7           0        0.748836   -1.833344    0.512170
      4          6           0        0.461831   -0.572232    0.141187
      5          6           0        1.491703    0.344186   -0.249787
      6          8           0        1.115582    1.639835   -0.603998
      7          6           0        2.124803    2.598186   -0.743818
      8          6           0        2.781857   -0.006078   -0.113253
      9          6           0       -0.979137   -0.248875    0.099267
     10          6           0       -1.609082    0.804521    0.637112
     11          9           0       -1.037137    1.738592    1.444553
     12          6           0       -3.016525    0.739196    0.431380
     13          6           0       -3.395348   -0.307539   -0.384052
     14         16           0       -1.991952   -1.233110   -0.867669
     15          1           0        4.148529   -1.674179    0.376248
     16          1           0        2.226214   -3.198643    0.865902
     17          1           0        1.589689    3.522810   -1.040056
     18          1           0        2.635850    2.709828    0.130521
     19          1           0        2.700703    2.386048   -1.613917
     20          1           0        3.586340    0.585890   -0.352479
     21          1           0       -3.700684    1.496754    0.834983
     22          1           0       -4.393975   -0.552213   -0.750813
 ---------------------------------------------------------------------
 Rotational constants (GHZ):           0.9682756           0.5084122           0.3838019
 Leave Link  202 at Thu Jul 23 15:37:56 2020, MaxMem=  4026531840 cpu:               0.1 elap:               0.1
 (Enter /opt/ohpc/pub/libs/gaussian/g16-A.03/sandybridge/g16/l301.exe)
 Standard basis: CC-pVDZ (5D, 7F)
 Ernie: Thresh=  0.10000D-02 Tol=  0.10000D-05 Strict=F.
 Ernie:  36 primitive shells out of 376 were deleted.
 There are   254 symmetry adapted cartesian basis functions of A   symmetry.
 There are   240 symmetry adapted basis functions of A   symmetry.
   240 basis functions,   556 primitive gaussians,   254 cartesian basis functions
    54 alpha electrons       54 beta electrons
       nuclear repulsion energy       967.3946963926 Hartrees.
 IExCor=32609 DFT=T Ex+Corr=LC-wPBE ExCW=0 ScaHFX=  1.000000
 ScaDFX=  1.000000  0.000000  1.000000  1.000000 ScalE2=  1.000000  1.000000
 IRadAn=      5 IRanWt=     -1 IRanGd=            0 ICorTp=0 IEmpDi=  4
 HFx  wShort=  0.000000 wLong=  0.264900 cFull=  0.000000 cShort=  0.000000 cLong=  1.000000
 DFx  wShort=  0.000000 wLong=  0.264900 cFull=  0.000000 cShort=  0.000000 cLong=  1.000000
 NAtoms=   22 NActive=   22 NUniq=   22 SFac= 1.00D+00 NAtFMM=   60 NAOKFM=F Big=F
 Integral buffers will be    131072 words long.
 Raffenetti 2 integral format.
 Two-electron integral symmetry is turned on.
 Leave Link  301 at Thu Jul 23 15:37:57 2020, MaxMem=  4026531840 cpu:               0.5 elap:               0.1
 (Enter /opt/ohpc/pub/libs/gaussian/g16-A.03/sandybridge/g16/l302.exe)
 NPDir=0 NMtPBC=     1 NCelOv=     1 NCel=       1 NClECP=     1 NCelD=      1
         NCelK=      1 NCelE2=     1 NClLst=     1 CellRange=     0.0.
 One-electron integrals computed using PRISM.
 One-electron integral symmetry used in STVInt
 NBasis=   240 RedAO= T EigKep=  6.91D-04  NBF=   240
 NBsUse=   240 1.00D-06 EigRej= -1.00D+00 NBFU=   240
 Precomputing XC quadrature grid using
 IXCGrd= 4 IRadAn=           5 IRanWt=          -1 IRanGd=           0 AccXCQ= 0.00D+00.
 Generated NRdTot=       0 NPtTot=           0 NUsed=           0 NTot=          32
 NSgBfM=   254   254   254   254   254 MxSgAt=    22 MxSgA2=    22.
 Leave Link  302 at Thu Jul 23 15:37:57 2020, MaxMem=  4026531840 cpu:               2.8 elap:               0.4
 (Enter /opt/ohpc/pub/libs/gaussian/g16-A.03/sandybridge/g16/l303.exe)
 DipDrv:  MaxL=1.
 Leave Link  303 at Thu Jul 23 15:37:57 2020, MaxMem=  4026531840 cpu:               0.5 elap:               0.1
 (Enter /opt/ohpc/pub/libs/gaussian/g16-A.03/sandybridge/g16/l401.exe)
 ExpMin= 1.22D-01 ExpMax= 1.11D+05 ExpMxC= 1.07D+03 IAcc=3 IRadAn=         5 AccDes= 0.00D+00
 Harris functional with IExCor=32609 and IRadAn=       5 diagonalized for initial guess.
 HarFok:  IExCor=32609 AccDes= 0.00D+00 IRadAn=         5 IDoV= 1 UseB2=F ITyADJ=14
 ICtDFT=  3500011 ScaDFX=  1.000000  1.000000  1.000000  1.000000
 FoFCou: FMM=F IPFlag=           0 FMFlag=      100000 FMFlg1=           0
         NFxFlg=           0 DoJE=T BraDBF=F KetDBF=T FulRan=T
         wScrn=  0.000000 ICntrl=       500 IOpCl=  0 I1Cent=   200000004 NGrid=           0
         NMat0=    1 NMatS0=      1 NMatT0=    0 NMatD0=    1 NMtDS0=    0 NMtDT0=    0
 Petite list used in FoFCou.
 Harris En= -1013.17733873817    
 JPrj=0 DoOrth=F DoCkMO=F.
 Initial guess <Sx>= 0.0000 <Sy>= 0.0000 <Sz>= 0.0000 <S**2>=-0.0000 S=-0.0000
 Leave Link  401 at Thu Jul 23 15:37:59 2020, MaxMem=  4026531840 cpu:              11.6 elap:               1.5
 (Enter /opt/ohpc/pub/libs/gaussian/g16-A.03/sandybridge/g16/l502.exe)
 Integral symmetry usage will be decided dynamically.
 UHF open shell SCF:
 Using DIIS extrapolation, IDIIS=  1040.
 NGot=  4026531840 LenX=  4026398048 LenY=  4026333091
 Requested convergence on RMS density matrix=1.00D-08 within 128 cycles.
 Requested convergence on MAX density matrix=1.00D-06.
 Requested convergence on             energy=1.00D-06.
 No special actions if energy rises.
 Fock matrices will be formed incrementally for  20 cycles.
 Integral accuracy reduced to 1.0D-05 until final iterations.

 Cycle   1  Pass 0  IDiag  1:
 FoFJK:  IHMeth= 1 ICntrl=       0 DoSepK=T KAlg= 0 I1Cent=           0 FoldK=F
 IRaf=         1 NMat=       1 IRICut=       1 DoRegI=T DoRafI=F ISym2E= 0 IDoP0=0 IntGTp=1.
 FoFCou: FMM=F IPFlag=           0 FMFlag=      100000 FMFlg1=           0
         NFxFlg=           0 DoJE=T BraDBF=F KetDBF=F FulRan=T
         wScrn=  0.000000 ICntrl=       500 IOpCl=  0 I1Cent=           0 NGrid=           0
         NMat0=    1 NMatS0=      1 NMatT0=    0 NMatD0=    1 NMtDS0=    0 NMtDT0=    0
 Symmetry not used in FoFCou.
 E= -1012.98891177139    
 DIIS: error= 2.01D-02 at cycle   1 NSaved=   1.
 NSaved= 1 IEnMin= 1 EnMin= -1012.98891177139     IErMin= 1 ErrMin= 2.01D-02
 ErrMax= 2.01D-02  0.00D+00 EMaxC= 1.00D-01 BMatC= 9.08D-01 BMatP= 9.08D-01
 IDIUse=3 WtCom= 7.99D-01 WtEn= 2.01D-01
 Coeff-Com:  0.100D+01
 Coeff-En:   0.100D+01
 Coeff:      0.100D+01
 Gap=     0.400 Goal=   None    Shift=    0.000
 Gap=     0.400 Goal=   None    Shift=    0.000
 GapD=    0.400 DampG=1.000 DampE=0.500 DampFc=0.5000 IDamp=-1.
 Damping current iteration by 5.00D-01
 RMSDP=3.79D-03 MaxDP=1.26D-01              OVMax= 1.34D-01

 Cycle   2  Pass 0  IDiag  1:
 RMSU=  1.89D-03    CP:  9.93D-01
 E= -1013.11753040422     Delta-E=       -0.128618632828 Rises=F Damp=T
 DIIS: error= 4.38D-03 at cycle   2 NSaved=   2.
 NSaved= 2 IEnMin= 2 EnMin= -1013.11753040422     IErMin= 2 ErrMin= 4.38D-03
 ErrMax= 4.38D-03  0.00D+00 EMaxC= 1.00D-01 BMatC= 4.37D-02 BMatP= 9.08D-01
 IDIUse=3 WtCom= 9.56D-01 WtEn= 4.38D-02
 Coeff-Com: -0.453D-01 0.105D+01
 Coeff-En:   0.000D+00 0.100D+01
 Coeff:     -0.433D-01 0.104D+01
 Gap=     0.368 Goal=   None    Shift=    0.000
 Gap=     0.368 Goal=   None    Shift=    0.000
 RMSDP=1.04D-03 MaxDP=2.27D-02 DE=-1.29D-01 OVMax= 1.03D-01

 Cycle   3  Pass 0  IDiag  1:
 RMSU=  9.90D-04    CP:  9.88D-01  1.16D+00
 E= -1013.24000623218     Delta-E=       -0.122475827956 Rises=F Damp=F
 DIIS: error= 1.90D-03 at cycle   3 NSaved=   3.
 NSaved= 3 IEnMin= 3 EnMin= -1013.24000623218     IErMin= 3 ErrMin= 1.90D-03
 ErrMax= 1.90D-03  0.00D+00 EMaxC= 1.00D-01 BMatC= 1.49D-02 BMatP= 4.37D-02
 IDIUse=3 WtCom= 9.81D-01 WtEn= 1.90D-02
 Coeff-Com: -0.386D-01 0.372D+00 0.667D+00
 Coeff-En:   0.000D+00 0.000D+00 0.100D+01
 Coeff:     -0.379D-01 0.365D+00 0.673D+00
 Gap=     0.323 Goal=   None    Shift=    0.000
 Gap=     0.323 Goal=   None    Shift=    0.000
 RMSDP=3.60D-04 MaxDP=1.10D-02 DE=-1.22D-01 OVMax= 2.58D-02

 Cycle   4  Pass 0  IDiag  1:
 RMSU=  2.92D-04    CP:  9.89D-01  1.20D+00  8.00D-01
 E= -1013.24343531843     Delta-E=       -0.003429086255 Rises=F Damp=F
 DIIS: error= 1.26D-03 at cycle   4 NSaved=   4.
 NSaved= 4 IEnMin= 4 EnMin= -1013.24343531843     IErMin= 4 ErrMin= 1.26D-03
 ErrMax= 1.26D-03  0.00D+00 EMaxC= 1.00D-01 BMatC= 3.01D-03 BMatP= 1.49D-02
 IDIUse=3 WtCom= 9.87D-01 WtEn= 1.26D-02
 Coeff-Com: -0.329D-02 0.449D-01 0.310D+00 0.648D+00
 Coeff-En:   0.000D+00 0.000D+00 0.627D-01 0.937D+00
 Coeff:     -0.325D-02 0.444D-01 0.307D+00 0.652D+00
 Gap=     0.321 Goal=   None    Shift=    0.000
 Gap=     0.321 Goal=   None    Shift=    0.000
 RMSDP=1.32D-04 MaxDP=5.01D-03 DE=-3.43D-03 OVMax= 8.67D-03

 Cycle   5  Pass 0  IDiag  1:
 RMSU=  9.64D-05    CP:  9.88D-01  1.20D+00  8.78D-01  8.38D-01
 E= -1013.24422388321     Delta-E=       -0.000788564778 Rises=F Damp=F
 DIIS: error= 2.91D-04 at cycle   5 NSaved=   5.
 NSaved= 5 IEnMin= 5 EnMin= -1013.24422388321     IErMin= 5 ErrMin= 2.91D-04
 ErrMax= 2.91D-04  0.00D+00 EMaxC= 1.00D-01 BMatC= 2.58D-04 BMatP= 3.01D-03
 IDIUse=3 WtCom= 9.97D-01 WtEn= 2.91D-03
 Coeff-Com:  0.628D-02-0.267D-01 0.508D-01 0.250D+00 0.719D+00
 Coeff-En:   0.000D+00 0.000D+00 0.000D+00 0.000D+00 0.100D+01
 Coeff:      0.626D-02-0.266D-01 0.506D-01 0.250D+00 0.720D+00
 Gap=     0.322 Goal=   None    Shift=    0.000
 Gap=     0.322 Goal=   None    Shift=    0.000
 RMSDP=5.05D-05 MaxDP=1.43D-03 DE=-7.89D-04 OVMax= 4.01D-03

 Cycle   6  Pass 0  IDiag  1:
 RMSU=  3.98D-05    CP:  9.88D-01  1.20D+00  8.94D-01  9.27D-01  9.93D-01
 E= -1013.24431646103     Delta-E=       -0.000092577821 Rises=F Damp=F
 DIIS: error= 1.12D-04 at cycle   6 NSaved=   6.
 NSaved= 6 IEnMin= 6 EnMin= -1013.24431646103     IErMin= 6 ErrMin= 1.12D-04
 ErrMax= 1.12D-04  0.00D+00 EMaxC= 1.00D-01 BMatC= 3.69D-05 BMatP= 2.58D-04
 IDIUse=3 WtCom= 9.99D-01 WtEn= 1.12D-03
 Coeff-Com:  0.404D-02-0.196D-01-0.272D-01-0.754D-02 0.245D+00 0.805D+00
 Coeff-En:   0.000D+00 0.000D+00 0.000D+00 0.000D+00 0.000D+00 0.100D+01
 Coeff:      0.403D-02-0.195D-01-0.271D-01-0.753D-02 0.245D+00 0.806D+00
 Gap=     0.322 Goal=   None    Shift=    0.000
 Gap=     0.322 Goal=   None    Shift=    0.000
 RMSDP=2.61D-05 MaxDP=7.39D-04 DE=-9.26D-05 OVMax= 2.45D-03

 Cycle   7  Pass 0  IDiag  1:
 RMSU=  1.54D-05    CP:  9.88D-01  1.20D+00  9.03D-01  9.60D-01  1.16D+00
                    CP:  1.09D+00
 E= -1013.24433763595     Delta-E=       -0.000021174915 Rises=F Damp=F
 DIIS: error= 6.20D-05 at cycle   7 NSaved=   7.
 NSaved= 7 IEnMin= 7 EnMin= -1013.24433763595     IErMin= 7 ErrMin= 6.20D-05
 ErrMax= 6.20D-05  0.00D+00 EMaxC= 1.00D-01 BMatC= 8.37D-06 BMatP= 3.69D-05
 IDIUse=1 WtCom= 1.00D+00 WtEn= 0.00D+00
 Coeff-Com:  0.646D-03-0.326D-02-0.164D-01-0.444D-01-0.421D-01 0.313D+00
 Coeff-Com:  0.792D+00
 Coeff:      0.646D-03-0.326D-02-0.164D-01-0.444D-01-0.421D-01 0.313D+00
 Coeff:      0.792D+00
 Gap=     0.322 Goal=   None    Shift=    0.000
 Gap=     0.322 Goal=   None    Shift=    0.000
 RMSDP=1.35D-05 MaxDP=3.31D-04 DE=-2.12D-05 OVMax= 1.23D-03

 Cycle   8  Pass 0  IDiag  1:
 RMSU=  7.54D-06    CP:  9.88D-01  1.20D+00  9.05D-01  9.79D-01  1.21D+00
                    CP:  1.29D+00  1.10D+00
 E= -1013.24434229732     Delta-E=       -0.000004661377 Rises=F Damp=F
 DIIS: error= 2.65D-05 at cycle   8 NSaved=   8.
 NSaved= 8 IEnMin= 8 EnMin= -1013.24434229732     IErMin= 8 ErrMin= 2.65D-05
 ErrMax= 2.65D-05  0.00D+00 EMaxC= 1.00D-01 BMatC= 1.81D-06 BMatP= 8.37D-06
 IDIUse=1 WtCom= 1.00D+00 WtEn= 0.00D+00
 Coeff-Com: -0.517D-03 0.263D-02-0.989D-03-0.193D-01-0.794D-01-0.336D-01
 Coeff-Com:  0.364D+00 0.768D+00
 Coeff:     -0.517D-03 0.263D-02-0.989D-03-0.193D-01-0.794D-01-0.336D-01
 Coeff:      0.364D+00 0.768D+00
 Gap=     0.322 Goal=   None    Shift=    0.000
 Gap=     0.322 Goal=   None    Shift=    0.000
 RMSDP=6.20D-06 MaxDP=1.48D-04 DE=-4.66D-06 OVMax= 5.94D-04

 Initial convergence to 1.0D-05 achieved.  Increase integral accuracy.
 Cycle   9  Pass 1  IDiag  1:
 E= -1013.24418566676     Delta-E=        0.000156630568 Rises=F Damp=F
 DIIS: error= 4.77D-05 at cycle   1 NSaved=   1.
 NSaved= 1 IEnMin= 1 EnMin= -1013.24418566676     IErMin= 1 ErrMin= 4.77D-05
 ErrMax= 4.77D-05  0.00D+00 EMaxC= 1.00D-01 BMatC= 1.43D-06 BMatP= 1.43D-06
 IDIUse=1 WtCom= 1.00D+00 WtEn= 0.00D+00
 Coeff-Com:  0.100D+01
 Coeff:      0.100D+01
 Gap=     0.322 Goal=   None    Shift=    0.000
 Gap=     0.322 Goal=   None    Shift=    0.000
 RMSDP=6.20D-06 MaxDP=1.48D-04 DE= 1.57D-04 OVMax= 1.17D-04

 Cycle  10  Pass 1  IDiag  1:
 RMSU=  2.31D-05    CP:  1.00D+00
 E= -1013.24418594991     Delta-E=       -0.000000283158 Rises=F Damp=F
 DIIS: error= 6.27D-06 at cycle   2 NSaved=   2.
 NSaved= 2 IEnMin= 2 EnMin= -1013.24418594991     IErMin= 2 ErrMin= 6.27D-06
 ErrMax= 6.27D-06  0.00D+00 EMaxC= 1.00D-01 BMatC= 8.63D-08 BMatP= 1.43D-06
 IDIUse=1 WtCom= 1.00D+00 WtEn= 0.00D+00
 Coeff-Com:  0.563D-01 0.944D+00
 Coeff:      0.563D-01 0.944D+00
 Gap=     0.322 Goal=   None    Shift=    0.000
 Gap=     0.322 Goal=   None    Shift=    0.000
 RMSDP=1.71D-06 MaxDP=4.28D-05 DE=-2.83D-07 OVMax= 6.97D-05

 Cycle  11  Pass 1  IDiag  1:
 RMSU=  1.22D-06    CP:  1.00D+00  1.05D+00
 E= -1013.24418596069     Delta-E=       -0.000000010773 Rises=F Damp=F
 DIIS: error= 7.15D-06 at cycle   3 NSaved=   3.
 NSaved= 3 IEnMin= 3 EnMin= -1013.24418596069     IErMin= 2 ErrMin= 6.27D-06
 ErrMax= 7.15D-06  0.00D+00 EMaxC= 1.00D-01 BMatC= 1.04D-07 BMatP= 8.63D-08
 IDIUse=1 WtCom= 1.00D+00 WtEn= 0.00D+00
 Coeff-Com: -0.253D-01 0.532D+00 0.493D+00
 Coeff:     -0.253D-01 0.532D+00 0.493D+00
 Gap=     0.322 Goal=   None    Shift=    0.000
 Gap=     0.322 Goal=   None    Shift=    0.000
 RMSDP=6.50D-07 MaxDP=2.40D-05 DE=-1.08D-08 OVMax= 3.05D-05

 Cycle  12  Pass 1  IDiag  1:
 RMSU=  4.92D-07    CP:  1.00D+00  1.06D+00  6.92D-01
 E= -1013.24418598094     Delta-E=       -0.000000020258 Rises=F Damp=F
 DIIS: error= 9.04D-07 at cycle   4 NSaved=   4.
 NSaved= 4 IEnMin= 4 EnMin= -1013.24418598094     IErMin= 4 ErrMin= 9.04D-07
 ErrMax= 9.04D-07  0.00D+00 EMaxC= 1.00D-01 BMatC= 2.07D-09 BMatP= 8.63D-08
 IDIUse=1 WtCom= 1.00D+00 WtEn= 0.00D+00
 Coeff-Com: -0.560D-02-0.439D-02 0.403D-01 0.970D+00
 Coeff:     -0.560D-02-0.439D-02 0.403D-01 0.970D+00
 Gap=     0.322 Goal=   None    Shift=    0.000
 Gap=     0.322 Goal=   None    Shift=    0.000
 RMSDP=2.56D-07 MaxDP=6.19D-06 DE=-2.03D-08 OVMax= 2.52D-05

 Cycle  13  Pass 1  IDiag  1:
 RMSU=  1.62D-07    CP:  1.00D+00  1.06D+00  7.86D-01  1.31D+00
 E= -1013.24418598305     Delta-E=       -0.000000002107 Rises=F Damp=F
 DIIS: error= 6.50D-07 at cycle   5 NSaved=   5.
 NSaved= 5 IEnMin= 5 EnMin= -1013.24418598305     IErMin= 5 ErrMin= 6.50D-07
 ErrMax= 6.50D-07  0.00D+00 EMaxC= 1.00D-01 BMatC= 8.77D-10 BMatP= 2.07D-09
 IDIUse=1 WtCom= 1.00D+00 WtEn= 0.00D+00
 Coeff-Com:  0.660D-02-0.197D+00-0.170D+00 0.438D+00 0.922D+00
 Coeff:      0.660D-02-0.197D+00-0.170D+00 0.438D+00 0.922D+00
 Gap=     0.322 Goal=   None    Shift=    0.000
 Gap=     0.322 Goal=   None    Shift=    0.000
 RMSDP=2.07D-07 MaxDP=4.45D-06 DE=-2.11D-09 OVMax= 2.28D-05

 Cycle  14  Pass 1  IDiag  1:
 RMSU=  9.24D-08    CP:  1.00D+00  1.06D+00  8.50D-01  1.64D+00  1.25D+00
 E= -1013.24418598384     Delta-E=       -0.000000000793 Rises=F Damp=F
 DIIS: error= 1.97D-07 at cycle   6 NSaved=   6.
 NSaved= 6 IEnMin= 6 EnMin= -1013.24418598384     IErMin= 6 ErrMin= 1.97D-07
 ErrMax= 1.97D-07  0.00D+00 EMaxC= 1.00D-01 BMatC= 1.09D-10 BMatP= 8.77D-10
 IDIUse=1 WtCom= 1.00D+00 WtEn= 0.00D+00
 Coeff-Com:  0.315D-02-0.789D-01-0.727D-01 0.835D-01 0.401D+00 0.664D+00
 Coeff:      0.315D-02-0.789D-01-0.727D-01 0.835D-01 0.401D+00 0.664D+00
 Gap=     0.322 Goal=   None    Shift=    0.000
 Gap=     0.322 Goal=   None    Shift=    0.000
 RMSDP=3.94D-08 MaxDP=9.15D-07 DE=-7.93D-10 OVMax= 3.53D-06

 Cycle  15  Pass 1  IDiag  1:
 RMSU=  2.64D-08    CP:  1.00D+00  1.06D+00  8.56D-01  1.68D+00  1.38D+00
                    CP:  1.03D+00
 E= -1013.24418598389     Delta-E=       -0.000000000047 Rises=F Damp=F
 DIIS: error= 6.66D-08 at cycle   7 NSaved=   7.
 NSaved= 7 IEnMin= 7 EnMin= -1013.24418598389     IErMin= 7 ErrMin= 6.66D-08
 ErrMax= 6.66D-08  0.00D+00 EMaxC= 1.00D-01 BMatC= 1.22D-11 BMatP= 1.09D-10
 IDIUse=1 WtCom= 1.00D+00 WtEn= 0.00D+00
 Coeff-Com: -0.237D-04 0.644D-02 0.387D-02-0.534D-01-0.109D-01 0.236D+00
 Coeff-Com:  0.818D+00
 Coeff:     -0.237D-04 0.644D-02 0.387D-02-0.534D-01-0.109D-01 0.236D+00
 Coeff:      0.818D+00
 Gap=     0.322 Goal=   None    Shift=    0.000
 Gap=     0.322 Goal=   None    Shift=    0.000
 RMSDP=1.73D-08 MaxDP=3.64D-07 DE=-4.73D-11 OVMax= 1.66D-06

 Cycle  16  Pass 1  IDiag  1:
 RMSU=  9.26D-09    CP:  1.00D+00  1.06D+00  8.58D-01  1.69D+00  1.43D+00
                    CP:  1.14D+00  9.98D-01
 E= -1013.24418598391     Delta-E=       -0.000000000017 Rises=F Damp=F
 DIIS: error= 3.17D-08 at cycle   8 NSaved=   8.
 NSaved= 8 IEnMin= 8 EnMin= -1013.24418598391     IErMin= 8 ErrMin= 3.17D-08
 ErrMax= 3.17D-08  0.00D+00 EMaxC= 1.00D-01 BMatC= 2.13D-12 BMatP= 1.22D-11
 IDIUse=1 WtCom= 1.00D+00 WtEn= 0.00D+00
 Coeff-Com: -0.359D-03 0.114D-01 0.986D-02-0.333D-01-0.476D-01 0.153D-01
 Coeff-Com:  0.339D+00 0.706D+00
 Coeff:     -0.359D-03 0.114D-01 0.986D-02-0.333D-01-0.476D-01 0.153D-01
 Coeff:      0.339D+00 0.706D+00
 Gap=     0.322 Goal=   None    Shift=    0.000
 Gap=     0.322 Goal=   None    Shift=    0.000
 RMSDP=6.07D-09 MaxDP=1.32D-07 DE=-1.68D-11 OVMax= 4.82D-07

 SCF Done:  E(ULC-wPBE) =  -1013.24418598     A.U. after   16 cycles
            NFock= 16  Conv=0.61D-08     -V/T= 2.0044
 <Sx>= 0.0000 <Sy>= 0.0000 <Sz>= 0.0000 <S**2>=-0.0000 S=-0.0000
 <L.S>= 0.000000000000E+00
 KE= 1.008778365254D+03 PE=-4.319244430218D+03 EE= 1.329827182588D+03
 Annihilation of the first spin contaminant:
 S**2 before annihilation    -0.0000,   after     0.0000
 Leave Link  502 at Thu Jul 23 15:39:11 2020, MaxMem=  4026531840 cpu:             565.9 elap:              71.8
 (Enter /opt/ohpc/pub/libs/gaussian/g16-A.03/sandybridge/g16/l601.exe)
 Copying SCF densities to generalized density rwf, IOpCl= 1 IROHF=0.

 **********************************************************************

            Population analysis using the SCF density.

 **********************************************************************

 Orbital symmetries:
 Alpha Orbitals:
       Occupied  (A) (A) (A) (A) (A) (A) (A) (A) (A) (A) (A) (A)
                 (A) (A) (A) (A) (A) (A) (A) (A) (A) (A) (A) (A)
                 (A) (A) (A) (A) (A) (A) (A) (A) (A) (A) (A) (A)
                 (A) (A) (A) (A) (A) (A) (A) (A) (A) (A) (A) (A)
                 (A) (A) (A) (A) (A) (A)
       Virtual   (A) (A) (A) (A) (A) (A) (A) (A) (A) (A) (A) (A)
                 (A) (A) (A) (A) (A) (A) (A) (A) (A) (A) (A) (A)
                 (A) (A) (A) (A) (A) (A) (A) (A) (A) (A) (A) (A)
                 (A) (A) (A) (A) (A) (A) (A) (A) (A) (A) (A) (A)
                 (A) (A) (A) (A) (A) (A) (A) (A) (A) (A) (A) (A)
                 (A) (A) (A) (A) (A) (A) (A) (A) (A) (A) (A) (A)
                 (A) (A) (A) (A) (A) (A) (A) (A) (A) (A) (A) (A)
                 (A) (A) (A) (A) (A) (A) (A) (A) (A) (A) (A) (A)
                 (A) (A) (A) (A) (A) (A) (A) (A) (A) (A) (A) (A)
                 (A) (A) (A) (A) (A) (A) (A) (A) (A) (A) (A) (A)
                 (A) (A) (A) (A) (A) (A) (A) (A) (A) (A) (A) (A)
                 (A) (A) (A) (A) (A) (A) (A) (A) (A) (A) (A) (A)
                 (A) (A) (A) (A) (A) (A) (A) (A) (A) (A) (A) (A)
                 (A) (A) (A) (A) (A) (A) (A) (A) (A) (A) (A) (A)
                 (A) (A) (A) (A) (A) (A) (A) (A) (A) (A) (A) (A)
                 (A) (A) (A) (A) (A) (A)
 Beta  Orbitals:
       Occupied  (A) (A) (A) (A) (A) (A) (A) (A) (A) (A) (A) (A)
                 (A) (A) (A) (A) (A) (A) (A) (A) (A) (A) (A) (A)
                 (A) (A) (A) (A) (A) (A) (A) (A) (A) (A) (A) (A)
                 (A) (A) (A) (A) (A) (A) (A) (A) (A) (A) (A) (A)
                 (A) (A) (A) (A) (A) (A)
       Virtual   (A) (A) (A) (A) (A) (A) (A) (A) (A) (A) (A) (A)
                 (A) (A) (A) (A) (A) (A) (A) (A) (A) (A) (A) (A)
                 (A) (A) (A) (A) (A) (A) (A) (A) (A) (A) (A) (A)
                 (A) (A) (A) (A) (A) (A) (A) (A) (A) (A) (A) (A)
                 (A) (A) (A) (A) (A) (A) (A) (A) (A) (A) (A) (A)
                 (A) (A) (A) (A) (A) (A) (A) (A) (A) (A) (A) (A)
                 (A) (A) (A) (A) (A) (A) (A) (A) (A) (A) (A) (A)
                 (A) (A) (A) (A) (A) (A) (A) (A) (A) (A) (A) (A)
                 (A) (A) (A) (A) (A) (A) (A) (A) (A) (A) (A) (A)
                 (A) (A) (A) (A) (A) (A) (A) (A) (A) (A) (A) (A)
                 (A) (A) (A) (A) (A) (A) (A) (A) (A) (A) (A) (A)
                 (A) (A) (A) (A) (A) (A) (A) (A) (A) (A) (A) (A)
                 (A) (A) (A) (A) (A) (A) (A) (A) (A) (A) (A) (A)
                 (A) (A) (A) (A) (A) (A) (A) (A) (A) (A) (A) (A)
                 (A) (A) (A) (A) (A) (A) (A) (A) (A) (A) (A) (A)
                 (A) (A) (A) (A) (A) (A)
 The electronic state is 1-A.
 Alpha  occ. eigenvalues --  -88.24825 -24.42793 -18.94299 -14.14768 -10.12168
 Alpha  occ. eigenvalues --  -10.11634 -10.10103 -10.09159 -10.08077 -10.07242
 Alpha  occ. eigenvalues --  -10.06956 -10.06292 -10.06031 -10.05583  -7.85284
 Alpha  occ. eigenvalues --   -5.87207  -5.86724  -5.86283  -1.26090  -1.13166
 Alpha  occ. eigenvalues --   -1.01633  -0.96816  -0.88333  -0.86650  -0.81914
 Alpha  occ. eigenvalues --   -0.81008  -0.79110  -0.72697  -0.69751  -0.66301
 Alpha  occ. eigenvalues --   -0.64908  -0.63193  -0.60621  -0.58946  -0.57454
 Alpha  occ. eigenvalues --   -0.55740  -0.53601  -0.53182  -0.52715  -0.51941
 Alpha  occ. eigenvalues --   -0.51403  -0.49799  -0.47453  -0.45926  -0.45320
 Alpha  occ. eigenvalues --   -0.44052  -0.42789  -0.42269  -0.40797  -0.36669
 Alpha  occ. eigenvalues --   -0.34390  -0.33301  -0.32169  -0.30218
 Alpha virt. eigenvalues --    0.01957   0.05664   0.07377   0.10706   0.14021
 Alpha virt. eigenvalues --    0.14833   0.15887   0.15986   0.17477   0.19097
 Alpha virt. eigenvalues --    0.19422   0.21055   0.21389   0.21787   0.22470
 Alpha virt. eigenvalues --    0.23509   0.25436   0.28942   0.31525   0.33293
 Alpha virt. eigenvalues --    0.35924   0.37168   0.39546   0.40554   0.43221
 Alpha virt. eigenvalues --    0.44302   0.48953   0.49910   0.51537   0.52072
 Alpha virt. eigenvalues --    0.53025   0.53378   0.53813   0.54568   0.54937
 Alpha virt. eigenvalues --    0.55308   0.55579   0.56365   0.56437   0.57839
 Alpha virt. eigenvalues --    0.58311   0.58804   0.60093   0.61185   0.61996
 Alpha virt. eigenvalues --    0.63215   0.64622   0.64751   0.65667   0.67321
 Alpha virt. eigenvalues --    0.68208   0.69414   0.70507   0.72103   0.72653
 Alpha virt. eigenvalues --    0.73342   0.74220   0.74758   0.75038   0.76630
 Alpha virt. eigenvalues --    0.77512   0.78257   0.81320   0.81649   0.82214
 Alpha virt. eigenvalues --    0.85395   0.87254   0.90473   0.92054   0.93144
 Alpha virt. eigenvalues --    0.94804   0.97659   0.98155   0.98243   0.99869
 Alpha virt. eigenvalues --    1.00718   1.01359   1.02794   1.03419   1.05223
 Alpha virt. eigenvalues --    1.05293   1.07191   1.08855   1.11027   1.11356
 Alpha virt. eigenvalues --    1.13802   1.14706   1.15553   1.17852   1.19642
 Alpha virt. eigenvalues --    1.21421   1.22462   1.23870   1.27873   1.29090
 Alpha virt. eigenvalues --    1.32979   1.33296   1.35575   1.37121   1.38754
 Alpha virt. eigenvalues --    1.41933   1.43872   1.44735   1.46673   1.46982
 Alpha virt. eigenvalues --    1.48704   1.50891   1.53698   1.53962   1.55675
 Alpha virt. eigenvalues --    1.56668   1.58112   1.60056   1.61235   1.62632
 Alpha virt. eigenvalues --    1.65475   1.66319   1.67035   1.67690   1.69901
 Alpha virt. eigenvalues --    1.71413   1.71586   1.72891   1.74544   1.75725
 Alpha virt. eigenvalues --    1.77165   1.77669   1.78841   1.80175   1.80302
 Alpha virt. eigenvalues --    1.82039   1.83393   1.85407   1.86617   1.88590
 Alpha virt. eigenvalues --    1.91960   1.92939   1.94851   1.96318   1.97408
 Alpha virt. eigenvalues --    2.00551   2.01216   2.02031   2.05471   2.07630
 Alpha virt. eigenvalues --    2.10437   2.11820   2.12274   2.14171   2.16033
 Alpha virt. eigenvalues --    2.18251   2.19003   2.22774   2.26907   2.30783
 Alpha virt. eigenvalues --    2.32796   2.35211   2.37817   2.45429   2.47599
 Alpha virt. eigenvalues --    2.48502   2.48661   2.49152   2.52288   2.54467
 Alpha virt. eigenvalues --    2.55929   2.61109   2.64977   2.66605   2.71678
 Alpha virt. eigenvalues --    2.74665   2.84913   2.91890   2.94341   2.96756
 Alpha virt. eigenvalues --    3.03947   3.07647   3.11759   3.28929   3.42666
 Alpha virt. eigenvalues --    3.60902   3.62219   3.63587   3.81757   3.99000
 Alpha virt. eigenvalues --    4.22435
  Beta  occ. eigenvalues --  -88.24825 -24.42793 -18.94299 -14.14768 -10.12168
  Beta  occ. eigenvalues --  -10.11634 -10.10103 -10.09159 -10.08077 -10.07242
  Beta  occ. eigenvalues --  -10.06956 -10.06292 -10.06031 -10.05583  -7.85284
  Beta  occ. eigenvalues --   -5.87207  -5.86724  -5.86283  -1.26090  -1.13166
  Beta  occ. eigenvalues --   -1.01633  -0.96816  -0.88333  -0.86650  -0.81914
  Beta  occ. eigenvalues --   -0.81008  -0.79110  -0.72697  -0.69751  -0.66301
  Beta  occ. eigenvalues --   -0.64908  -0.63193  -0.60621  -0.58946  -0.57454
  Beta  occ. eigenvalues --   -0.55740  -0.53601  -0.53182  -0.52715  -0.51941
  Beta  occ. eigenvalues --   -0.51403  -0.49799  -0.47453  -0.45926  -0.45320
  Beta  occ. eigenvalues --   -0.44052  -0.42789  -0.42269  -0.40797  -0.36669
  Beta  occ. eigenvalues --   -0.34390  -0.33301  -0.32169  -0.30218
  Beta virt. eigenvalues --    0.01957   0.05664   0.07377   0.10706   0.14021
  Beta virt. eigenvalues --    0.14833   0.15887   0.15986   0.17477   0.19097
  Beta virt. eigenvalues --    0.19422   0.21055   0.21389   0.21787   0.22470
  Beta virt. eigenvalues --    0.23509   0.25436   0.28942   0.31525   0.33293
  Beta virt. eigenvalues --    0.35924   0.37168   0.39546   0.40554   0.43221
  Beta virt. eigenvalues --    0.44302   0.48953   0.49910   0.51537   0.52072
  Beta virt. eigenvalues --    0.53025   0.53378   0.53813   0.54568   0.54937
  Beta virt. eigenvalues --    0.55308   0.55579   0.56365   0.56437   0.57839
  Beta virt. eigenvalues --    0.58311   0.58804   0.60093   0.61185   0.61996
  Beta virt. eigenvalues --    0.63215   0.64622   0.64751   0.65667   0.67321
  Beta virt. eigenvalues --    0.68208   0.69414   0.70507   0.72103   0.72653
  Beta virt. eigenvalues --    0.73342   0.74220   0.74758   0.75038   0.76630
  Beta virt. eigenvalues --    0.77512   0.78257   0.81320   0.81649   0.82214
  Beta virt. eigenvalues --    0.85395   0.87254   0.90473   0.92054   0.93144
  Beta virt. eigenvalues --    0.94804   0.97659   0.98155   0.98243   0.99869
  Beta virt. eigenvalues --    1.00718   1.01359   1.02794   1.03419   1.05223
  Beta virt. eigenvalues --    1.05293   1.07191   1.08855   1.11027   1.11356
  Beta virt. eigenvalues --    1.13802   1.14706   1.15553   1.17852   1.19642
  Beta virt. eigenvalues --    1.21421   1.22462   1.23870   1.27873   1.29090
  Beta virt. eigenvalues --    1.32979   1.33296   1.35575   1.37121   1.38754
  Beta virt. eigenvalues --    1.41933   1.43872   1.44735   1.46673   1.46982
  Beta virt. eigenvalues --    1.48704   1.50891   1.53698   1.53962   1.55675
  Beta virt. eigenvalues --    1.56668   1.58112   1.60056   1.61235   1.62632
  Beta virt. eigenvalues --    1.65475   1.66319   1.67035   1.67690   1.69901
  Beta virt. eigenvalues --    1.71413   1.71586   1.72891   1.74544   1.75725
  Beta virt. eigenvalues --    1.77165   1.77669   1.78841   1.80175   1.80302
  Beta virt. eigenvalues --    1.82039   1.83393   1.85407   1.86617   1.88590
  Beta virt. eigenvalues --    1.91960   1.92939   1.94851   1.96318   1.97408
  Beta virt. eigenvalues --    2.00551   2.01216   2.02031   2.05471   2.07630
  Beta virt. eigenvalues --    2.10437   2.11820   2.12274   2.14171   2.16033
  Beta virt. eigenvalues --    2.18251   2.19003   2.22774   2.26907   2.30783
  Beta virt. eigenvalues --    2.32796   2.35211   2.37817   2.45429   2.47599
  Beta virt. eigenvalues --    2.48502   2.48661   2.49152   2.52288   2.54467
  Beta virt. eigenvalues --    2.55929   2.61109   2.64977   2.66605   2.71678
  Beta virt. eigenvalues --    2.74665   2.84913   2.91890   2.94341   2.96756
  Beta virt. eigenvalues --    3.03947   3.07647   3.11759   3.28929   3.42666
  Beta virt. eigenvalues --    3.60902   3.62219   3.63587   3.81757   3.99000
  Beta virt. eigenvalues --    4.22435
          Condensed to atoms (all electrons):
               1          2          3          4          5          6
     1  C    4.811869   0.514258  -0.037415  -0.036915   0.008383   0.003653
     2  C    0.514258   4.643956   0.540363  -0.093704  -0.050182   0.000139
     3  N   -0.037415   0.540363   6.249536   0.601570  -0.045990   0.001188
     4  C   -0.036915  -0.093704   0.601570   5.102538   0.365800  -0.056210
     5  C    0.008383  -0.050182  -0.045990   0.365800   5.011652   0.434199
     6  O    0.003653   0.000139   0.001188  -0.056210   0.434199   7.674711
     7  C    0.000620   0.000023  -0.000098   0.005641  -0.076083   0.356259
     8  C    0.460908  -0.033266  -0.038206  -0.058978   0.391599  -0.071759
     9  C    0.001756   0.004880  -0.063024   0.221259  -0.096108   0.001916
    10  C   -0.000074   0.000040   0.000732  -0.053219  -0.010969   0.006369
    11  F   -0.000004   0.000004  -0.000014   0.005759   0.000332  -0.000613
    12  C   -0.000002   0.000010  -0.000239   0.010084   0.000442   0.000326
    13  C    0.000001   0.000002   0.000242   0.002881  -0.000128  -0.000004
    14  S    0.000078   0.000335   0.003765  -0.057205   0.004188  -0.000138
    15  H    0.392682  -0.039910   0.004722   0.000931   0.009002  -0.000047
    16  H   -0.057477   0.399260  -0.029109   0.002303   0.001796   0.000009
    17  H   -0.000022   0.000003   0.000005  -0.000090   0.004665  -0.020432
    18  H    0.000164  -0.000061  -0.000029   0.000725  -0.011015  -0.031554
    19  H    0.000109  -0.000015  -0.000001  -0.000528  -0.010186  -0.030686
    20  H   -0.041482   0.009670  -0.000216   0.006426  -0.056678  -0.009956
    21  H    0.000000  -0.000000   0.000003  -0.000400   0.000021   0.000009
    22  H    0.000000  -0.000000  -0.000001  -0.000255   0.000003  -0.000000
               7          8          9         10         11         12
     1  C    0.000620   0.460908   0.001756  -0.000074  -0.000004  -0.000002
     2  C    0.000023  -0.033266   0.004880   0.000040   0.000004   0.000010
     3  N   -0.000098  -0.038206  -0.063024   0.000732  -0.000014  -0.000239
     4  C    0.005641  -0.058978   0.221259  -0.053219   0.005759   0.010084
     5  C   -0.076083   0.391599  -0.096108  -0.010969   0.000332   0.000442
     6  O    0.356259  -0.071759   0.001916   0.006369  -0.000613   0.000326
     7  C    4.401111   0.003127  -0.000431  -0.000225   0.000184  -0.000005
     8  C    0.003127   4.910029   0.006881   0.000762   0.000020   0.000024
     9  C   -0.000431   0.006881   5.625032   0.312683  -0.081704  -0.068862
    10  C   -0.000225   0.000762   0.312683   4.854557   0.459667   0.407412
    11  F    0.000184   0.000020  -0.081704   0.459667   8.791931  -0.052740
    12  C   -0.000005   0.000024  -0.068862   0.407412  -0.052740   4.878898
    13  C   -0.000000  -0.000000  -0.097351  -0.005443   0.003635   0.507784
    14  S    0.000002  -0.000173   0.346659  -0.066673   0.002193  -0.092283
    15  H   -0.000021  -0.034305   0.000062  -0.000001  -0.000000   0.000000
    16  H   -0.000000   0.006696  -0.001022   0.000020   0.000000  -0.000000
    17  H    0.397180  -0.000549  -0.000042  -0.000055   0.000063  -0.000006
    18  H    0.396751   0.015598   0.000241  -0.000018   0.000096  -0.000002
    19  H    0.395808   0.006699  -0.000098   0.000052  -0.000000   0.000004
    20  H    0.009302   0.403175  -0.000402   0.000003   0.000005   0.000000
    21  H   -0.000000   0.000000   0.012740  -0.032265   0.000747   0.390765
    22  H   -0.000000  -0.000000   0.000309   0.007551  -0.000018  -0.021964
              13         14         15         16         17         18
     1  C    0.000001   0.000078   0.392682  -0.057477  -0.000022   0.000164
     2  C    0.000002   0.000335  -0.039910   0.399260   0.000003  -0.000061
     3  N    0.000242   0.003765   0.004722  -0.029109   0.000005  -0.000029
     4  C    0.002881  -0.057205   0.000931   0.002303  -0.000090   0.000725
     5  C   -0.000128   0.004188   0.009002   0.001796   0.004665  -0.011015
     6  O   -0.000004  -0.000138  -0.000047   0.000009  -0.020432  -0.031554
     7  C   -0.000000   0.000002  -0.000021  -0.000000   0.397180   0.396751
     8  C   -0.000000  -0.000173  -0.034305   0.006696  -0.000549   0.015598
     9  C   -0.097351   0.346659   0.000062  -0.001022  -0.000042   0.000241
    10  C   -0.005443  -0.066673  -0.000001   0.000020  -0.000055  -0.000018
    11  F    0.003635   0.002193  -0.000000   0.000000   0.000063   0.000096
    12  C    0.507784  -0.092283   0.000000  -0.000000  -0.000006  -0.000002
    13  C    5.013070   0.358242  -0.000000  -0.000001  -0.000000   0.000000
    14  S    0.358242  15.331923  -0.000002  -0.000044  -0.000000   0.000002
    15  H   -0.000000  -0.000002   0.702832  -0.009161  -0.000000   0.000010
    16  H   -0.000001  -0.000044  -0.009161   0.694951  -0.000000  -0.000001
    17  H   -0.000000  -0.000000  -0.000000  -0.000000   0.622052  -0.023896
    18  H    0.000000   0.000002   0.000010  -0.000001  -0.023896   0.667625
    19  H   -0.000000  -0.000003   0.000016   0.000001  -0.029228  -0.044400
    20  H   -0.000000   0.000007  -0.014020  -0.000315  -0.000463   0.002981
    21  H   -0.052223   0.006866  -0.000000  -0.000000  -0.000000  -0.000000
    22  H    0.400204  -0.035919  -0.000000  -0.000000  -0.000000   0.000000
              19         20         21         22
     1  C    0.000109  -0.041482   0.000000   0.000000
     2  C   -0.000015   0.009670  -0.000000  -0.000000
     3  N   -0.000001  -0.000216   0.000003  -0.000001
     4  C   -0.000528   0.006426  -0.000400  -0.000255
     5  C   -0.010186  -0.056678   0.000021   0.000003
     6  O   -0.030686  -0.009956   0.000009  -0.000000
     7  C    0.395808   0.009302  -0.000000  -0.000000
     8  C    0.006699   0.403175   0.000000  -0.000000
     9  C   -0.000098  -0.000402   0.012740   0.000309
    10  C    0.000052   0.000003  -0.032265   0.007551
    11  F   -0.000000   0.000005   0.000747  -0.000018
    12  C    0.000004   0.000000   0.390765  -0.021964
    13  C   -0.000000  -0.000000  -0.052223   0.400204
    14  S   -0.000003   0.000007   0.006866  -0.035919
    15  H    0.000016  -0.014020  -0.000000  -0.000000
    16  H    0.000001  -0.000315  -0.000000  -0.000000
    17  H   -0.029228  -0.000463  -0.000000  -0.000000
    18  H   -0.044400   0.002981  -0.000000   0.000000
    19  H    0.683767   0.001370   0.000000  -0.000000
    20  H    0.001370   0.718330  -0.000000   0.000000
    21  H    0.000000  -0.000000   0.677371  -0.007156
    22  H   -0.000000   0.000000  -0.007156   0.626417
          Atomic-Atomic Spin Densities.
               1          2          3          4          5          6
     1  C   -0.000000   0.000000  -0.000000   0.000000  -0.000000  -0.000000
     2  C    0.000000  -0.000000   0.000000  -0.000000   0.000000   0.000000
     3  N   -0.000000   0.000000   0.000000  -0.000000   0.000000  -0.000000
     4  C    0.000000  -0.000000  -0.000000  -0.000000   0.000000   0.000000
     5  C   -0.000000   0.000000   0.000000   0.000000  -0.000000  -0.000000
     6  O   -0.000000   0.000000  -0.000000   0.000000  -0.000000   0.000000
     7  C   -0.000000   0.000000   0.000000  -0.000000  -0.000000   0.000000
     8  C    0.000000  -0.000000   0.000000  -0.000000   0.000000   0.000000
     9  C    0.000000   0.000000  -0.000000  -0.000000   0.000000  -0.000000
    10  C    0.000000   0.000000  -0.000000   0.000000   0.000000   0.000000
    11  F   -0.000000   0.000000   0.000000   0.000000  -0.000000   0.000000
    12  C   -0.000000  -0.000000   0.000000  -0.000000   0.000000  -0.000000
    13  C   -0.000000   0.000000  -0.000000   0.000000   0.000000  -0.000000
    14  S    0.000000  -0.000000  -0.000000  -0.000000  -0.000000  -0.000000
    15  H   -0.000000   0.000000  -0.000000   0.000000  -0.000000  -0.000000
    16  H    0.000000  -0.000000   0.000000   0.000000  -0.000000  -0.000000
    17  H   -0.000000   0.000000   0.000000   0.000000  -0.000000   0.000000
    18  H    0.000000  -0.000000   0.000000  -0.000000   0.000000  -0.000000
    19  H   -0.000000  -0.000000   0.000000  -0.000000   0.000000  -0.000000
    20  H   -0.000000  -0.000000  -0.000000  -0.000000   0.000000   0.000000
    21  H    0.000000  -0.000000   0.000000  -0.000000  -0.000000  -0.000000
    22  H    0.000000   0.000000  -0.000000   0.000000  -0.000000  -0.000000
               7          8          9         10         11         12
     1  C   -0.000000   0.000000   0.000000   0.000000  -0.000000  -0.000000
     2  C    0.000000  -0.000000   0.000000   0.000000   0.000000  -0.000000
     3  N    0.000000   0.000000  -0.000000  -0.000000   0.000000   0.000000
     4  C   -0.000000  -0.000000  -0.000000   0.000000   0.000000  -0.000000
     5  C   -0.000000   0.000000   0.000000   0.000000  -0.000000   0.000000
     6  O    0.000000   0.000000  -0.000000   0.000000   0.000000  -0.000000
     7  C    0.000000  -0.000000  -0.000000   0.000000   0.000000  -0.000000
     8  C   -0.000000  -0.000000  -0.000000  -0.000000  -0.000000   0.000000
     9  C   -0.000000  -0.000000   0.000000   0.000000   0.000000  -0.000000
    10  C    0.000000  -0.000000   0.000000  -0.000000  -0.000000   0.000000
    11  F    0.000000  -0.000000   0.000000  -0.000000   0.000000   0.000000
    12  C   -0.000000   0.000000  -0.000000   0.000000   0.000000  -0.000000
    13  C   -0.000000   0.000000   0.000000  -0.000000  -0.000000  -0.000000
    14  S   -0.000000  -0.000000   0.000000   0.000000  -0.000000  -0.000000
    15  H    0.000000   0.000000   0.000000  -0.000000   0.000000  -0.000000
    16  H   -0.000000  -0.000000   0.000000   0.000000   0.000000   0.000000
    17  H    0.000000   0.000000   0.000000   0.000000   0.000000  -0.000000
    18  H    0.000000  -0.000000  -0.000000  -0.000000   0.000000   0.000000
    19  H   -0.000000  -0.000000  -0.000000   0.000000   0.000000  -0.000000
    20  H    0.000000  -0.000000  -0.000000  -0.000000  -0.000000   0.000000
    21  H   -0.000000  -0.000000  -0.000000   0.000000   0.000000  -0.000000
    22  H    0.000000  -0.000000   0.000000  -0.000000  -0.000000   0.000000
              13         14         15         16         17         18
     1  C   -0.000000   0.000000  -0.000000   0.000000  -0.000000   0.000000
     2  C    0.000000  -0.000000   0.000000  -0.000000   0.000000  -0.000000
     3  N   -0.000000  -0.000000  -0.000000   0.000000   0.000000   0.000000
     4  C    0.000000  -0.000000   0.000000   0.000000   0.000000  -0.000000
     5  C    0.000000  -0.000000  -0.000000  -0.000000  -0.000000   0.000000
     6  O   -0.000000  -0.000000  -0.000000  -0.000000   0.000000  -0.000000
     7  C   -0.000000  -0.000000   0.000000  -0.000000   0.000000   0.000000
     8  C    0.000000  -0.000000   0.000000  -0.000000   0.000000  -0.000000
     9  C    0.000000   0.000000   0.000000   0.000000   0.000000  -0.000000
    10  C   -0.000000   0.000000  -0.000000   0.000000   0.000000  -0.000000
    11  F   -0.000000  -0.000000   0.000000   0.000000   0.000000   0.000000
    12  C   -0.000000  -0.000000  -0.000000   0.000000  -0.000000   0.000000
    13  C    0.000000   0.000000   0.000000  -0.000000   0.000000  -0.000000
    14  S    0.000000  -0.000000   0.000000  -0.000000  -0.000000   0.000000
    15  H    0.000000   0.000000  -0.000000   0.000000  -0.000000   0.000000
    16  H   -0.000000  -0.000000   0.000000  -0.000000  -0.000000   0.000000
    17  H    0.000000  -0.000000  -0.000000  -0.000000  -0.000000   0.000000
    18  H   -0.000000   0.000000   0.000000   0.000000   0.000000   0.000000
    19  H    0.000000  -0.000000   0.000000   0.000000  -0.000000  -0.000000
    20  H   -0.000000   0.000000   0.000000   0.000000   0.000000  -0.000000
    21  H    0.000000  -0.000000   0.000000  -0.000000  -0.000000   0.000000
    22  H    0.000000   0.000000   0.000000  -0.000000   0.000000  -0.000000
              19         20         21         22
     1  C   -0.000000  -0.000000   0.000000   0.000000
     2  C   -0.000000  -0.000000  -0.000000   0.000000
     3  N    0.000000  -0.000000   0.000000  -0.000000
     4  C   -0.000000  -0.000000  -0.000000   0.000000
     5  C    0.000000   0.000000  -0.000000  -0.000000
     6  O   -0.000000   0.000000  -0.000000  -0.000000
     7  C   -0.000000   0.000000  -0.000000   0.000000
     8  C   -0.000000  -0.000000  -0.000000  -0.000000
     9  C   -0.000000  -0.000000  -0.000000   0.000000
    10  C    0.000000  -0.000000   0.000000  -0.000000
    11  F    0.000000  -0.000000   0.000000  -0.000000
    12  C   -0.000000   0.000000  -0.000000   0.000000
    13  C    0.000000  -0.000000   0.000000   0.000000
    14  S   -0.000000   0.000000  -0.000000   0.000000
    15  H    0.000000   0.000000   0.000000   0.000000
    16  H    0.000000   0.000000  -0.000000  -0.000000
    17  H   -0.000000   0.000000  -0.000000   0.000000
    18  H   -0.000000  -0.000000   0.000000  -0.000000
    19  H    0.000000   0.000000  -0.000000   0.000000
    20  H    0.000000  -0.000000   0.000000  -0.000000
    21  H   -0.000000   0.000000  -0.000000   0.000000
    22  H    0.000000  -0.000000   0.000000  -0.000000
 Mulliken charges and spin densities:
               1          2
     1  C   -0.021090   0.000000
     2  C    0.104196  -0.000000
     3  N   -0.187786   0.000000
     4  C    0.031588  -0.000000
     5  C    0.125256  -0.000000
     6  O   -0.257378   0.000000
     7  C    0.110857   0.000000
     8  C    0.031719   0.000000
     9  C   -0.125375   0.000000
    10  C    0.119095   0.000000
    11  F   -0.129542   0.000000
    12  C    0.040353  -0.000000
    13  C   -0.130910   0.000000
    14  S    0.198179  -0.000000
    15  H   -0.012791  -0.000000
    16  H   -0.007907  -0.000000
    17  H    0.050815  -0.000000
    18  H    0.026786   0.000000
    19  H    0.027321   0.000000
    20  H   -0.027736  -0.000000
    21  H    0.003521  -0.000000
    22  H    0.030829  -0.000000
 Sum of Mulliken charges =  -0.00000   0.00000
 Mulliken charges and spin densities with hydrogens summed into heavy atoms:
               1          2
     1  C   -0.033881   0.000000
     2  C    0.096289  -0.000000
     3  N   -0.187786   0.000000
     4  C    0.031588  -0.000000
     5  C    0.125256  -0.000000
     6  O   -0.257378   0.000000
     7  C    0.215779   0.000000
     8  C    0.003983   0.000000
     9  C   -0.125375   0.000000
    10  C    0.119095   0.000000
    11  F   -0.129542   0.000000
    12  C    0.043874  -0.000000
    13  C   -0.100081   0.000000
    14  S    0.198179  -0.000000
 Electronic spatial extent (au):  <R**2>=           2930.3359
 Charge=             -0.0000 electrons
 Dipole moment (field-independent basis, Debye):
    X=              1.8758    Y=              1.6121    Z=             -1.1855  Tot=              2.7428
 Quadrupole moment (field-independent basis, Debye-Ang):
   XX=            -66.5250   YY=            -83.2022   ZZ=            -88.2966
   XY=              1.7959   XZ=              0.6047   YZ=             -0.7197
 Traceless Quadrupole moment (field-independent basis, Debye-Ang):
   XX=             12.8163   YY=             -3.8609   ZZ=             -8.9554
   XY=              1.7959   XZ=              0.6047   YZ=             -0.7197
 Octapole moment (field-independent basis, Debye-Ang**2):
  XXX=             -2.8533  YYY=             35.6395  ZZZ=              3.8080  XYY=             18.5189
  XXY=              9.1899  XXZ=             -4.6181  XZZ=             -0.4728  YZZ=              8.1459
  YYZ=             -3.6088  XYZ=            -12.1247
 Hexadecapole moment (field-independent basis, Debye-Ang**3):
 XXXX=          -2123.2476 YYYY=          -1064.4771 ZZZZ=           -307.8520 XXXY=             -6.7634
 XXXZ=             17.6980 YYYX=             10.5812 YYYZ=             -9.5216 ZZZX=            -14.7419
 ZZZY=             12.4184 XXYY=           -536.0928 XXZZ=           -467.3957 YYZZ=           -234.3605
 XXYZ=              9.4360 YYXZ=             -2.0944 ZZXY=             11.9372
 N-N= 9.673946963926D+02 E-N=-4.319244422851D+03  KE= 1.008778365254D+03
                          Isotropic Fermi Contact Couplings
        Atom                 a.u.       MegaHertz       Gauss      10(-4) cm-1
     1  C(13)             -0.00000      -0.00000      -0.00000      -0.00000
     2  C(13)             -0.00000      -0.00000      -0.00000      -0.00000
     3  N(14)              0.00000       0.00000       0.00000       0.00000
     4  C(13)             -0.00000      -0.00000      -0.00000      -0.00000
     5  C(13)             -0.00000      -0.00000      -0.00000      -0.00000
     6  O(17)              0.00000      -0.00000      -0.00000      -0.00000
     7  C(13)              0.00000       0.00000       0.00000       0.00000
     8  C(13)             -0.00000      -0.00000      -0.00000      -0.00000
     9  C(13)              0.00000       0.00000       0.00000       0.00000
    10  C(13)              0.00000       0.00000       0.00000       0.00000
    11  F(19)              0.00000       0.00000       0.00000       0.00000
    12  C(13)             -0.00000      -0.00000      -0.00000      -0.00000
    13  C(13)             -0.00000      -0.00000      -0.00000      -0.00000
    14  S(33)             -0.00000      -0.00000      -0.00000      -0.00000
    15  H(1)               0.00000       0.00000       0.00000       0.00000
    16  H(1)               0.00000       0.00000       0.00000       0.00000
    17  H(1)               0.00000       0.00000       0.00000       0.00000
    18  H(1)              -0.00000      -0.00000      -0.00000      -0.00000
    19  H(1)               0.00000       0.00000       0.00000       0.00000
    20  H(1)              -0.00000      -0.00000      -0.00000      -0.00000
    21  H(1)              -0.00000      -0.00000      -0.00000      -0.00000
    22  H(1)              -0.00000      -0.00000      -0.00000      -0.00000
 --------------------------------------------------------
       Center         ----  Spin Dipole Couplings  ----
                      3XX-RR        3YY-RR        3ZZ-RR
 --------------------------------------------------------
     1   Atom       -0.000000      0.000000     -0.000000
     2   Atom       -0.000000      0.000000      0.000000
     3   Atom        0.000000     -0.000000     -0.000000
     4   Atom        0.000000     -0.000000     -0.000000
     5   Atom        0.000000     -0.000000      0.000000
     6   Atom        0.000000     -0.000000     -0.000000
     7   Atom       -0.000000      0.000000     -0.000000
     8   Atom       -0.000000      0.000000      0.000000
     9   Atom        0.000000     -0.000000     -0.000000
    10   Atom        0.000000     -0.000000     -0.000000
    11   Atom       -0.000000     -0.000000      0.000000
    12   Atom        0.000000     -0.000000      0.000000
    13   Atom        0.000000     -0.000000     -0.000000
    14   Atom       -0.000000     -0.000000      0.000000
    15   Atom       -0.000000      0.000000      0.000000
    16   Atom        0.000000     -0.000000      0.000000
    17   Atom        0.000000      0.000000     -0.000000
    18   Atom       -0.000000      0.000000     -0.000000
    19   Atom       -0.000000      0.000000      0.000000
    20   Atom        0.000000     -0.000000      0.000000
    21   Atom        0.000000     -0.000000      0.000000
    22   Atom       -0.000000     -0.000000      0.000000
 --------------------------------------------------------
                        XY            XZ            YZ
 --------------------------------------------------------
     1   Atom        0.000000      0.000000     -0.000000
     2   Atom        0.000000      0.000000     -0.000000
     3   Atom       -0.000000     -0.000000      0.000000
     4   Atom        0.000000      0.000000     -0.000000
     5   Atom        0.000000     -0.000000      0.000000
     6   Atom       -0.000000      0.000000     -0.000000
     7   Atom       -0.000000      0.000000     -0.000000
     8   Atom        0.000000      0.000000     -0.000000
     9   Atom       -0.000000     -0.000000      0.000000
    10   Atom       -0.000000     -0.000000     -0.000000
    11   Atom       -0.000000     -0.000000      0.000000
    12   Atom       -0.000000      0.000000     -0.000000
    13   Atom       -0.000000     -0.000000     -0.000000
    14   Atom        0.000000      0.000000      0.000000
    15   Atom        0.000000     -0.000000      0.000000
    16   Atom       -0.000000      0.000000      0.000000
    17   Atom       -0.000000      0.000000     -0.000000
    18   Atom        0.000000      0.000000      0.000000
    19   Atom       -0.000000     -0.000000      0.000000
    20   Atom       -0.000000      0.000000      0.000000
    21   Atom       -0.000000     -0.000000      0.000000
    22   Atom        0.000000     -0.000000     -0.000000
 --------------------------------------------------------


 ---------------------------------------------------------------------------------
              Anisotropic Spin Dipole Couplings in Principal Axis System
 ---------------------------------------------------------------------------------

       Atom             a.u.   MegaHertz   Gauss  10(-4) cm-1        Axes

              Baa    -0.0000    -0.000    -0.000    -0.000  0.7570 -0.6155 -0.2192
     1 C(13)  Bbb     0.0000     0.000     0.000     0.000  0.2463 -0.0418  0.9683
              Bcc     0.0000     0.000     0.000     0.000  0.6051  0.7870 -0.1200
 
              Baa    -0.0000    -0.000    -0.000    -0.000  0.9791 -0.1924 -0.0659
     2 C(13)  Bbb    -0.0000    -0.000    -0.000    -0.000  0.0994  0.1698  0.9805
              Bcc     0.0000     0.000     0.000     0.000  0.1775  0.9665 -0.1854
 
              Baa    -0.0000    -0.000    -0.000    -0.000  0.1879  0.1609  0.9689
     3 N(14)  Bbb    -0.0000    -0.000    -0.000    -0.000  0.0994  0.9783 -0.1817
              Bcc     0.0000     0.000     0.000     0.000  0.9771 -0.1304 -0.1679
 
              Baa    -0.0000    -0.000    -0.000    -0.000 -0.0819  0.3077  0.9480
     4 C(13)  Bbb    -0.0000    -0.000    -0.000    -0.000 -0.2086  0.9248 -0.3182
              Bcc     0.0000     0.000     0.000     0.000  0.9746  0.2238  0.0116
 
              Baa    -0.0000    -0.000    -0.000    -0.000 -0.5481  0.7827 -0.2950
     5 C(13)  Bbb     0.0000     0.000     0.000     0.000 -0.5928 -0.1147  0.7971
              Bcc     0.0000     0.000     0.000     0.000  0.5900  0.6118  0.5269
 
              Baa    -0.0000     0.000     0.000     0.000 -0.1964  0.1078  0.9746
     6 O(17)  Bbb    -0.0000     0.000     0.000     0.000  0.1816  0.9807 -0.0719
              Bcc     0.0000    -0.000    -0.000    -0.000  0.9636 -0.1629  0.2122
 
              Baa    -0.0000    -0.000    -0.000    -0.000 -0.3896  0.3383  0.8566
     7 C(13)  Bbb    -0.0000    -0.000    -0.000    -0.000  0.8878  0.3855  0.2516
              Bcc     0.0000     0.000     0.000     0.000 -0.2451  0.8585 -0.4505
 
              Baa    -0.0000    -0.000    -0.000    -0.000  0.9958 -0.0902 -0.0155
     8 C(13)  Bbb     0.0000     0.000     0.000     0.000  0.0915  0.9853  0.1441
              Bcc     0.0000     0.000     0.000     0.000  0.0023 -0.1449  0.9894
 
              Baa    -0.0000    -0.000    -0.000    -0.000 -0.0705 -0.5909  0.8037
     9 C(13)  Bbb    -0.0000    -0.000    -0.000    -0.000  0.6326  0.5964  0.4940
              Bcc     0.0000     0.000     0.000     0.000  0.7712 -0.5432 -0.3318
 
              Baa    -0.0000    -0.000    -0.000    -0.000  0.0570  0.9830  0.1746
    10 C(13)  Bbb    -0.0000    -0.000    -0.000    -0.000  0.1791 -0.1821  0.9668
              Bcc     0.0000     0.000     0.000     0.000  0.9822 -0.0239 -0.1864
 
              Baa    -0.0000    -0.000    -0.000    -0.000  0.6845  0.7257 -0.0700
    11 F(19)  Bbb     0.0000     0.000     0.000     0.000  0.5945 -0.5000  0.6297
              Bcc     0.0000     0.000     0.000     0.000 -0.4220  0.4726  0.7737
 
              Baa    -0.0000    -0.000    -0.000    -0.000  0.3504  0.9364 -0.0174
    12 C(13)  Bbb     0.0000     0.000     0.000     0.000 -0.3148  0.1353  0.9395
              Bcc     0.0000     0.000     0.000     0.000  0.8821 -0.3237  0.3422
 
              Baa    -0.0000    -0.000    -0.000    -0.000  0.3229  0.6661  0.6724
    13 C(13)  Bbb    -0.0000    -0.000    -0.000    -0.000 -0.1167 -0.6770  0.7267
              Bcc     0.0000     0.000     0.000     0.000  0.9392 -0.3131 -0.1409
 
              Baa    -0.0000    -0.000    -0.000    -0.000 -0.6278 -0.4167  0.6574
    14 S(33)  Bbb    -0.0000    -0.000    -0.000    -0.000 -0.6204  0.7779 -0.0994
              Bcc     0.0000     0.000     0.000     0.000  0.4700  0.4703  0.7469
 
              Baa    -0.0000    -0.000    -0.000    -0.000  0.9237 -0.3789  0.0569
    15 H(1)   Bbb     0.0000     0.000     0.000     0.000  0.3811  0.8929 -0.2399
              Bcc     0.0000     0.000     0.000     0.000  0.0401  0.2433  0.9691
 
              Baa    -0.0000    -0.000    -0.000    -0.000  0.5760  0.7849 -0.2282
    16 H(1)   Bbb     0.0000     0.000     0.000     0.000 -0.4704  0.5466  0.6928
              Bcc     0.0000     0.000     0.000     0.000  0.6685 -0.2917  0.6841
 
              Baa    -0.0000    -0.000    -0.000    -0.000  0.6699  0.7399 -0.0618
    17 H(1)   Bbb    -0.0000    -0.000    -0.000    -0.000 -0.0702  0.1460  0.9868
              Bcc     0.0000     0.000     0.000     0.000  0.7391 -0.6567  0.1497
 
              Baa    -0.0000    -0.000    -0.000    -0.000  0.9977 -0.0449 -0.0502
    18 H(1)   Bbb    -0.0000    -0.000    -0.000    -0.000  0.0486 -0.0369  0.9981
              Bcc     0.0000     0.000     0.000     0.000  0.0466  0.9983  0.0346
 
              Baa    -0.0000    -0.000    -0.000    -0.000  0.9287  0.3096  0.2039
    19 H(1)   Bbb     0.0000     0.000     0.000     0.000 -0.0883 -0.3496  0.9327
              Bcc     0.0000     0.000     0.000     0.000 -0.3601  0.8843  0.2974
[...]
     9  C   -0.000000  -0.000000  -0.000000   0.000000  -0.000000   0.000000
    10  C   -0.000000   0.000000   0.000000  -0.000000   0.000000  -0.000000
    11  F    0.000000   0.000000  -0.000000   0.000000  -0.000000  -0.000000
    12  C    0.000000  -0.000000   0.000000  -0.000000  -0.000000   0.000000
    13  C   -0.000000  -0.000000  -0.000000   0.000000   0.000000  -0.000000
    14  S   -0.000000   0.000000  -0.000000   0.000000   0.000000  -0.000000
    15  H   -0.000000  -0.000000   0.000000  -0.000000   0.000000   0.000000
    16  H    0.000000   0.000000  -0.000000  -0.000000   0.000000   0.000000
    17  H    0.000000   0.000000  -0.000000   0.000000  -0.000000   0.000000
    18  H    0.000000   0.000000   0.000000   0.000000   0.000000  -0.000000
    19  H   -0.000000  -0.000000  -0.000000   0.000000   0.000000   0.000000
    20  H   -0.000000   0.000000  -0.000000   0.000000  -0.000000  -0.000000
    21  H   -0.000000   0.000000  -0.000000   0.000000  -0.000000   0.000000
    22  H   -0.000000   0.000000  -0.000000  -0.000000   0.000000  -0.000000
              13         14         15         16         17         18
     1  C    0.000000  -0.000000   0.000000  -0.000000  -0.000000  -0.000000
     2  C    0.000000   0.000000   0.000000   0.000000   0.000000  -0.000000
     3  N    0.000000  -0.000000   0.000000  -0.000000  -0.000000  -0.000000
     4  C   -0.000000  -0.000000   0.000000   0.000000   0.000000   0.000000
     5  C    0.000000   0.000000  -0.000000  -0.000000  -0.000000   0.000000
     6  O   -0.000000   0.000000   0.000000  -0.000000   0.000000   0.000000
     7  C   -0.000000  -0.000000  -0.000000   0.000000   0.000000   0.000000
     8  C   -0.000000   0.000000  -0.000000   0.000000   0.000000   0.000000
     9  C   -0.000000  -0.000000   0.000000  -0.000000  -0.000000   0.000000
    10  C    0.000000   0.000000  -0.000000  -0.000000   0.000000   0.000000
    11  F    0.000000   0.000000   0.000000   0.000000  -0.000000   0.000000
    12  C   -0.000000  -0.000000   0.000000   0.000000   0.000000  -0.000000
    13  C   -0.000000   0.000000  -0.000000  -0.000000  -0.000000   0.000000
    14  S    0.000000  -0.000000  -0.000000   0.000000  -0.000000   0.000000
    15  H   -0.000000  -0.000000  -0.000000  -0.000000  -0.000000   0.000000
    16  H   -0.000000   0.000000  -0.000000  -0.000000   0.000000  -0.000000
    17  H   -0.000000  -0.000000  -0.000000   0.000000  -0.000000  -0.000000
    18  H    0.000000   0.000000   0.000000  -0.000000  -0.000000  -0.000000
    19  H   -0.000000  -0.000000   0.000000  -0.000000   0.000000   0.000000
    20  H    0.000000  -0.000000   0.000000   0.000000   0.000000   0.000000
    21  H    0.000000  -0.000000  -0.000000   0.000000  -0.000000  -0.000000
    22  H    0.000000  -0.000000  -0.000000  -0.000000  -0.000000   0.000000
              19         20         21         22
     1  C   -0.000000   0.000000  -0.000000   0.000000
     2  C   -0.000000  -0.000000   0.000000   0.000000
     3  N    0.000000  -0.000000  -0.000000   0.000000
     4  C    0.000000   0.000000   0.000000  -0.000000
     5  C    0.000000   0.000000  -0.000000   0.000000
     6  O    0.000000  -0.000000   0.000000  -0.000000
     7  C   -0.000000  -0.000000  -0.000000  -0.000000
     8  C   -0.000000   0.000000   0.000000   0.000000
     9  C   -0.000000  -0.000000  -0.000000  -0.000000
    10  C    0.000000   0.000000   0.000000  -0.000000
    11  F    0.000000  -0.000000  -0.000000   0.000000
    12  C    0.000000  -0.000000   0.000000  -0.000000
    13  C   -0.000000   0.000000   0.000000   0.000000
    14  S   -0.000000  -0.000000  -0.000000  -0.000000
    15  H    0.000000   0.000000  -0.000000  -0.000000
    16  H   -0.000000   0.000000   0.000000  -0.000000
    17  H    0.000000   0.000000  -0.000000  -0.000000
    18  H    0.000000   0.000000  -0.000000   0.000000
    19  H    0.000000  -0.000000   0.000000  -0.000000
    20  H   -0.000000  -0.000000   0.000000   0.000000
    21  H    0.000000   0.000000  -0.000000   0.000000
    22  H   -0.000000   0.000000   0.000000   0.000000
 Mulliken charges and spin densities:
               1          2
     1  C   -0.030792   0.000000
     2  C    0.077939   0.000000
     3  N   -0.191402   0.000000
     4  C    0.078270  -0.000000
     5  C    0.110964   0.000000
     6  O   -0.228815  -0.000000
     7  C    0.055351   0.000000
     8  C    0.008712   0.000000
     9  C   -0.166725   0.000000
    10  C    0.103649  -0.000000
    11  F   -0.119302  -0.000000
    12  C    0.048983   0.000000
    13  C   -0.130325  -0.000000
    14  S    0.201335   0.000000
    15  H   -0.005036  -0.000000
    16  H    0.004086  -0.000000
    17  H    0.058920  -0.000000
    18  H    0.047205  -0.000000
    19  H    0.045477   0.000000
    20  H    0.000436  -0.000000
    21  H    0.001743  -0.000000
    22  H    0.029326   0.000000
 Sum of Mulliken charges =  -0.00000  -0.00000
 Mulliken charges and spin densities with hydrogens summed into heavy atoms:
               1          2
     1  C   -0.035828  -0.000000
     2  C    0.082025   0.000000
     3  N   -0.191402   0.000000
     4  C    0.078270  -0.000000
     5  C    0.110964   0.000000
     6  O   -0.228815  -0.000000
     7  C    0.206953   0.000000
     8  C    0.009148   0.000000
     9  C   -0.166725   0.000000
    10  C    0.103649  -0.000000
    11  F   -0.119302  -0.000000
    12  C    0.050726   0.000000
    13  C   -0.100999  -0.000000
    14  S    0.201335   0.000000
 Electronic spatial extent (au):  <R**2>=           2957.0586
 Charge=              0.0000 electrons
 Dipole moment (field-independent basis, Debye):
    X=              1.9701    Y=              1.7470    Z=             -0.7661  Tot=              2.7423
 Quadrupole moment (field-independent basis, Debye-Ang):
   XX=            -66.9064   YY=            -81.8175   ZZ=            -89.1551
   XY=              2.3051   XZ=              0.0841   YZ=             -0.9926
 Traceless Quadrupole moment (field-independent basis, Debye-Ang):
   XX=             12.3866   YY=             -2.5245   ZZ=             -9.8621
   XY=              2.3051   XZ=              0.0841   YZ=             -0.9926
 Octapole moment (field-independent basis, Debye-Ang**2):
  XXX=             -6.9126  YYY=             34.5390  ZZZ=              3.8296  XYY=             18.7647
  XXY=             10.7619  XXZ=             -3.8139  XZZ=              0.3262  YZZ=              9.2567
  YYZ=             -3.2380  XYZ=             -8.9406
 Hexadecapole moment (field-independent basis, Debye-Ang**3):
 XXXX=          -2187.3372 YYYY=          -1142.5010 ZZZZ=           -200.5640 XXXY=              6.1882
 XXXZ=              9.8254 YYYX=              4.9280 YYYZ=             -8.5758 ZZZX=            -13.9246
 ZZZY=             12.0895 XXYY=           -545.1818 XXZZ=           -473.7515 YYZZ=           -238.9365
 XXYZ=              6.6202 YYXZ=             -2.3485 ZZXY=              9.6342
 N-N= 9.687603459488D+02 E-N=-4.321827987244D+03  KE= 1.008480628841D+03
                          Isotropic Fermi Contact Couplings
        Atom                 a.u.       MegaHertz       Gauss      10(-4) cm-1
     1  C(13)              0.00000       0.00000       0.00000       0.00000
     2  C(13)             -0.00000      -0.00000      -0.00000      -0.00000
     3  N(14)              0.00000       0.00000       0.00000       0.00000
     4  C(13)             -0.00000      -0.00000      -0.00000      -0.00000
     5  C(13)             -0.00000      -0.00000      -0.00000      -0.00000
     6  O(17)             -0.00000       0.00000       0.00000       0.00000
     7  C(13)             -0.00000      -0.00000      -0.00000      -0.00000
     8  C(13)              0.00000       0.00000       0.00000       0.00000
     9  C(13)              0.00000       0.00000       0.00000       0.00000
    10  C(13)             -0.00000      -0.00000      -0.00000      -0.00000
    11  F(19)             -0.00000      -0.00000      -0.00000      -0.00000
    12  C(13)              0.00000       0.00000       0.00000       0.00000
    13  C(13)             -0.00000      -0.00000      -0.00000      -0.00000
    14  S(33)             -0.00000      -0.00000      -0.00000      -0.00000
    15  H(1)              -0.00000      -0.00000      -0.00000      -0.00000
    16  H(1)               0.00000       0.00000       0.00000       0.00000
    17  H(1)              -0.00000      -0.00000      -0.00000      -0.00000
    18  H(1)              -0.00000      -0.00000      -0.00000      -0.00000
    19  H(1)               0.00000       0.00000       0.00000       0.00000
    20  H(1)              -0.00000      -0.00000      -0.00000      -0.00000
    21  H(1)              -0.00000      -0.00000      -0.00000      -0.00000
    22  H(1)               0.00000       0.00000       0.00000       0.00000
 --------------------------------------------------------
       Center         ----  Spin Dipole Couplings  ----
                      3XX-RR        3YY-RR        3ZZ-RR
 --------------------------------------------------------
     1   Atom        0.000000      0.000000     -0.000000
     2   Atom       -0.000000      0.000000     -0.000000
     3   Atom        0.000000     -0.000000      0.000000
     4   Atom       -0.000000      0.000000      0.000000
     5   Atom       -0.000000      0.000000     -0.000000
     6   Atom        0.000000     -0.000000      0.000000
     7   Atom       -0.000000      0.000000     -0.000000
     8   Atom        0.000000      0.000000     -0.000000
     9   Atom       -0.000000      0.000000     -0.000000
    10   Atom       -0.000000      0.000000      0.000000
    11   Atom        0.000000     -0.000000     -0.000000
    12   Atom       -0.000000      0.000000     -0.000000
    13   Atom       -0.000000      0.000000      0.000000
    14   Atom        0.000000      0.000000     -0.000000
    15   Atom        0.000000     -0.000000     -0.000000
    16   Atom       -0.000000      0.000000     -0.000000
    17   Atom       -0.000000      0.000000      0.000000
    18   Atom       -0.000000      0.000000     -0.000000
    19   Atom       -0.000000      0.000000      0.000000
    20   Atom       -0.000000      0.000000     -0.000000
    21   Atom        0.000000     -0.000000      0.000000
    22   Atom        0.000000     -0.000000     -0.000000
 --------------------------------------------------------
                        XY            XZ            YZ
 --------------------------------------------------------
     1   Atom       -0.000000      0.000000     -0.000000
     2   Atom       -0.000000      0.000000     -0.000000
     3   Atom       -0.000000      0.000000      0.000000
     4   Atom        0.000000      0.000000     -0.000000
     5   Atom       -0.000000     -0.000000     -0.000000
     6   Atom        0.000000      0.000000      0.000000
     7   Atom       -0.000000      0.000000     -0.000000
     8   Atom        0.000000     -0.000000     -0.000000
     9   Atom       -0.000000     -0.000000      0.000000
    10   Atom        0.000000      0.000000     -0.000000
    11   Atom       -0.000000      0.000000     -0.000000
    12   Atom       -0.000000      0.000000      0.000000
    13   Atom        0.000000     -0.000000      0.000000
    14   Atom        0.000000     -0.000000     -0.000000
    15   Atom       -0.000000      0.000000     -0.000000
    16   Atom        0.000000      0.000000     -0.000000
    17   Atom       -0.000000      0.000000     -0.000000
    18   Atom        0.000000      0.000000      0.000000
    19   Atom        0.000000      0.000000     -0.000000
    20   Atom        0.000000     -0.000000     -0.000000
    21   Atom        0.000000      0.000000     -0.000000
    22   Atom       -0.000000     -0.000000     -0.000000
 --------------------------------------------------------


 ---------------------------------------------------------------------------------
              Anisotropic Spin Dipole Couplings in Principal Axis System
 ---------------------------------------------------------------------------------

       Atom             a.u.   MegaHertz   Gauss  10(-4) cm-1        Axes

              Baa    -0.0000    -0.000    -0.000    -0.000 -0.0982  0.1672  0.9810
     1 C(13)  Bbb    -0.0000    -0.000    -0.000    -0.000  0.9271  0.3736  0.0291
              Bcc     0.0000     0.000     0.000     0.000 -0.3616  0.9124 -0.1917
 
              Baa    -0.0000    -0.000    -0.000    -0.000  0.9948  0.0612 -0.0809
     2 C(13)  Bbb    -0.0000    -0.000    -0.000    -0.000  0.0684  0.1836  0.9806
              Bcc     0.0000     0.000     0.000     0.000 -0.0749  0.9811 -0.1784
 
              Baa    -0.0000    -0.000    -0.000    -0.000  0.2310  0.9538 -0.1920
     3 N(14)  Bbb     0.0000     0.000     0.000     0.000  0.7489 -0.3003 -0.5907
              Bcc     0.0000     0.000     0.000     0.000  0.6211  0.0073  0.7837
 
              Baa    -0.0000    -0.000    -0.000    -0.000  0.9414 -0.3210 -0.1034
     4 C(13)  Bbb     0.0000     0.000     0.000     0.000  0.1442  0.1061  0.9838
              Bcc     0.0000     0.000     0.000     0.000  0.3049  0.9411 -0.1461
 
              Baa    -0.0000    -0.000    -0.000    -0.000  0.6546  0.4156  0.6315
     5 C(13)  Bbb    -0.0000    -0.000    -0.000    -0.000 -0.5662 -0.2839  0.7738
              Bcc     0.0000     0.000     0.000     0.000 -0.5009  0.8641 -0.0495
 
              Baa    -0.0000     0.000     0.000     0.000  0.0311  0.9885 -0.1483
     6 O(17)  Bbb    -0.0000     0.000     0.000     0.000  0.8693 -0.0999 -0.4841
              Bcc     0.0000    -0.000    -0.000    -0.000  0.4934  0.1139  0.8623
 
              Baa    -0.0000    -0.000    -0.000    -0.000  0.8439  0.3928 -0.3655
     7 C(13)  Bbb     0.0000     0.000     0.000     0.000  0.2120  0.3816  0.8997
              Bcc     0.0000     0.000     0.000     0.000 -0.4928  0.8367 -0.2387
 
              Baa    -0.0000    -0.000    -0.000    -0.000 -0.0579  0.2325  0.9709
     8 C(13)  Bbb    -0.0000    -0.000    -0.000    -0.000 -0.4704  0.8514 -0.2320
              Bcc     0.0000     0.000     0.000     0.000  0.8806  0.4701 -0.0601
 
              Baa    -0.0000    -0.000    -0.000    -0.000  0.8065  0.5619  0.1843
     9 C(13)  Bbb    -0.0000    -0.000    -0.000    -0.000 -0.1218 -0.1471  0.9816
              Bcc     0.0000     0.000     0.000     0.000 -0.5786  0.8140  0.0502
 
              Baa    -0.0000    -0.000    -0.000    -0.000  0.8131 -0.5690 -0.1225
    10 C(13)  Bbb     0.0000     0.000     0.000     0.000  0.3704  0.3435  0.8630
              Bcc     0.0000     0.000     0.000     0.000  0.4490  0.7471 -0.4901
 
              Baa    -0.0000    -0.000    -0.000    -0.000  0.0586  0.9830  0.1743
    11 F(19)  Bbb    -0.0000    -0.000    -0.000    -0.000 -0.0266 -0.1730  0.9846
              Bcc     0.0000     0.000     0.000     0.000  0.9979 -0.0624  0.0160
 
              Baa    -0.0000    -0.000    -0.000    -0.000  0.6735  0.3844 -0.6314
    12 C(13)  Bbb    -0.0000    -0.000    -0.000    -0.000  0.6676  0.0505  0.7428
              Bcc     0.0000     0.000     0.000     0.000 -0.3174  0.9218  0.2226
 
              Baa    -0.0000    -0.000    -0.000    -0.000  0.9816 -0.1787  0.0666
    13 C(13)  Bbb     0.0000     0.000     0.000     0.000 -0.1164 -0.2842  0.9517
              Bcc     0.0000     0.000     0.000     0.000  0.1511  0.9420  0.2998
 
              Baa    -0.0000    -0.000    -0.000    -0.000  0.4160  0.2722  0.8677
    14 S(33)  Bbb     0.0000     0.000     0.000     0.000 -0.5311  0.8472 -0.0112
              Bcc     0.0000     0.000     0.000     0.000  0.7382  0.4562 -0.4970
 
              Baa    -0.0000    -0.000    -0.000    -0.000  0.6094  0.7886 -0.0826
    15 H(1)   Bbb    -0.0000    -0.000    -0.000    -0.000 -0.0856  0.1690  0.9819
              Bcc     0.0000     0.000     0.000     0.000  0.7882 -0.5913  0.1705
 
              Baa    -0.0000    -0.000    -0.000    -0.000 -0.5639  0.3370  0.7540
    16 H(1)   Bbb    -0.0000    -0.000    -0.000    -0.000  0.7745 -0.1010  0.6244
              Bcc     0.0000     0.000     0.000     0.000  0.2866  0.9361 -0.2041
 
              Baa    -0.0000    -0.000    -0.000    -0.000  0.7065 -0.4022 -0.5822
    17 H(1)   Bbb    -0.0000    -0.000    -0.000    -0.000  0.6441  0.7063  0.2937
              Bcc     0.0000     0.000     0.000     0.000  0.2931 -0.5825  0.7581
 
              Baa    -0.0000    -0.000    -0.000    -0.000 -0.5965 -0.0900  0.7975
    18 H(1)   Bbb     0.0000     0.000     0.000     0.000  0.6813 -0.5821  0.4438
              Bcc     0.0000     0.000     0.000     0.000  0.4243  0.8081  0.4086
 
              Baa    -0.0000    -0.000    -0.000    -0.000  0.7560 -0.4567 -0.4689
    19 H(1)   Bbb    -0.0000    -0.000    -0.000    -0.000  0.6530  0.4777  0.5877
              Bcc     0.0000     0.000     0.000     0.000  0.0444  0.7505 -0.6594
 
              Baa    -0.0000    -0.000    -0.000    -0.000  0.6167  0.0380  0.7863
    20 H(1)   Bbb    -0.0000    -0.000    -0.000    -0.000  0.7546 -0.3129 -0.5768
              Bcc     0.0000     0.000     0.000     0.000  0.2241  0.9490 -0.2216
 
              Baa    -0.0000    -0.000    -0.000    -0.000 -0.4767  0.8472  0.2345
    21 H(1)   Bbb     0.0000     0.000     0.000     0.000  0.5955  0.1150  0.7951
              Bcc     0.0000     0.000     0.000     0.000  0.6466  0.5186 -0.5594
 
              Baa    -0.0000    -0.000    -0.000    -0.000  0.0694  0.8817  0.4667
    22 H(1)   Bbb    -0.0000    -0.000    -0.000    -0.000 -0.0235 -0.4663  0.8843
              Bcc     0.0000     0.000     0.000     0.000  0.9973 -0.0723 -0.0117
 

 ---------------------------------------------------------------------------------

 No NMR shielding tensors so no spin-rotation constants.
 Leave Link  601 at Thu Jul 23 15:52:55 2020, MaxMem=  4026531840 cpu:               2.8 elap:               0.4
 (Enter /opt/ohpc/pub/libs/gaussian/g16-A.03/sandybridge/g16/l9999.exe)

 Test job not archived.
 1\1\GINC-SKYLAKE041\FOpt\ULC-wPBE\CC-pVDZ\C10H8F1N1O1S1\RDU230\23-Jul-
 2020\0\\#P uLC-wPBE/cc-pVDZ iop(3/107=0264900000, 3/108=0264900000) op
 t\\H8 C10 S1 N1 O1 F1\\0,1\C,3.1332166437,-1.3508224136,0.2308414139\C
 ,2.0731901765,-2.2336388366,0.4077000993\N,0.7921446197,-1.8510747725,
 0.3609463215\C,0.5060672827,-0.5648309215,0.1263612407\C,1.5185009202,
 0.3942863227,-0.1299797392\O,1.108781583,1.6403582061,-0.4662402739\C,
 2.0987832449,2.631728756,-0.6720827818\C,2.8522368285,-0.0127126863,-0
 .0508324779\C,-0.9293189711,-0.2253335328,0.0872240679\C,-1.6293843199
 ,0.8965663625,0.4714073259\F,-1.0691699357,1.9892428622,1.0153988777\C
 ,-3.0392745546,0.8102483058,0.3031543143\C,-3.4008558501,-0.4081694461
 ,-0.2058256528\S,-2.0481220476,-1.4384072544,-0.4604588814\H,4.1694710
 574,-1.7002598885,0.2964192557\H,2.2514376138,-3.2999847669,0.60139200
 65\H,1.5527161074,3.5598428694,-0.8995328088\H,2.7155848503,2.78680858
 22,0.2348498803\H,2.7600255462,2.3803519909,-1.5249389573\H,3.66803439
 62,0.6958090901,-0.223125311\H,-3.7273068797,1.6176055345,0.5657407477
 \H,-4.408106312,-0.7624083632,-0.4362876674\\Version=EM64L-G16RevA.03\
 State=1-A\HF=-1013.278075\S2=0.\S2-1=0.\S2A=0.\RMSD=8.560e-09\RMSF=1.2
 73e-05\Dipole=0.7560029,0.6978909,-0.3247205\Quadrupole=9.1320364,-1.8
 284136,-7.3036227,1.9268728,-0.2067746,-0.8580615\PG=C01 [X(C10H8F1N1O
 1S1)]\\@


 THEORY:  SUPPOSITION WHICH HAS SCIENTIFIC BASIS,
          BUT NOT EXPERIMENTALLY PROVEN.
 FACT:    A THEORY WHICH HAS BEEN PROVEN BY ENOUGH 
          MONEY TO PAY FOR THE EXPERIMENTS.

                          --  THE WIZARD OF ID
 Job cpu time:       0 days  1 hours 58 minutes 18.0 seconds.
 Elapsed time:       0 days  0 hours 14 minutes 58.2 seconds.
 File lengths (MBytes):  RWF=    124 Int=      0 D2E=      0 Chk=     12 Scr=      8
 Normal termination of Gaussian 16 at Thu Jul 23 15:52:55 2020.
