 Entering Gaussian System, Link 0=g16
 Input=mols_66_5_09_c-c-cF-cF_opt_0.gjf
 Output=mols_66_5_09_c-c-cF-cF_opt_0.log
 Initial command:
 /opt/ohpc/pub/libs/gaussian/g16-A.03/sandybridge/g16/l1.exe "/mnt/gpfs2_4m/scratch/rdu230/ondemand/projects/dihedral_energies/7trial/wtuning/mols_66_5_09_c-c-cF-cF/Gau-287835.inp" -scrdir="/mnt/gpfs2_4m/scratch/rdu230/ondemand/projects/dihedral_energies/7trial/wtuning/mols_66_5_09_c-c-cF-cF/"
 Entering Link 1 = /opt/ohpc/pub/libs/gaussian/g16-A.03/sandybridge/g16/l1.exe PID=    287836.
  
 Copyright (c) 1988,1990,1992,1993,1995,1998,2003,2009,2016,
            Gaussian, Inc.  All Rights Reserved.
  
 This is part of the Gaussian(R) 16 program.  It is based on
 the Gaussian(R) 09 system (copyright 2009, Gaussian, Inc.),
 the Gaussian(R) 03 system (copyright 2003, Gaussian, Inc.),
 the Gaussian(R) 98 system (copyright 1998, Gaussian, Inc.),
 the Gaussian(R) 94 system (copyright 1995, Gaussian, Inc.),
 the Gaussian 92(TM) system (copyright 1992, Gaussian, Inc.),
 the Gaussian 90(TM) system (copyright 1990, Gaussian, Inc.),
 the Gaussian 88(TM) system (copyright 1988, Gaussian, Inc.),
 the Gaussian 86(TM) system (copyright 1986, Carnegie Mellon
 University), and the Gaussian 82(TM) system (copyright 1983,
 Carnegie Mellon University). Gaussian is a federally registered
 trademark of Gaussian, Inc.
  
 This software contains proprietary and confidential information,
 including trade secrets, belonging to Gaussian, Inc.
  
 This software is provided under written license and may be
 used, copied, transmitted, or stored only in accord with that
 written license.
  
 The following legend is applicable only to US Government
 contracts under FAR:
  
                    RESTRICTED RIGHTS LEGEND
  
 Use, reproduction and disclosure by the US Government is
 subject to restrictions as set forth in subparagraphs (a)
 and (c) of the Commercial Computer Software - Restricted
 Rights clause in FAR 52.227-19.
  
 Gaussian, Inc.
 340 Quinnipiac St., Bldg. 40, Wallingford CT 06492
  
  
 ---------------------------------------------------------------
 Warning -- This program may not be used in any manner that
 competes with the business of Gaussian, Inc. or will provide
 assistance to any competitor of Gaussian, Inc.  The licensee
 of this program is prohibited from giving any competitor of
 Gaussian, Inc. access to this program.  By using this program,
 the user acknowledges that Gaussian, Inc. is engaged in the
 business of creating and licensing software in the field of
 computational chemistry and represents and warrants to the
 licensee that it is not a competitor of Gaussian, Inc. and that
 it will not use this program in any manner prohibited above.
 ---------------------------------------------------------------
  

 Cite this work as:
 Gaussian 16, Revision A.03,
 M. J. Frisch, G. W. Trucks, H. B. Schlegel, G. E. Scuseria, 
 M. A. Robb, J. R. Cheeseman, G. Scalmani, V. Barone, 
 G. A. Petersson, H. Nakatsuji, X. Li, M. Caricato, A. V. Marenich, 
 J. Bloino, B. G. Janesko, R. Gomperts, B. Mennucci, H. P. Hratchian, 
 J. V. Ortiz, A. F. Izmaylov, J. L. Sonnenberg, D. Williams-Young, 
 F. Ding, F. Lipparini, F. Egidi, J. Goings, B. Peng, A. Petrone, 
 T. Henderson, D. Ranasinghe, V. G. Zakrzewski, J. Gao, N. Rega, 
 G. Zheng, W. Liang, M. Hada, M. Ehara, K. Toyota, R. Fukuda, 
 J. Hasegawa, M. Ishida, T. Nakajima, Y. Honda, O. Kitao, H. Nakai, 
 T. Vreven, K. Throssell, J. A. Montgomery, Jr., J. E. Peralta, 
 F. Ogliaro, M. J. Bearpark, J. J. Heyd, E. N. Brothers, K. N. Kudin, 
 V. N. Staroverov, T. A. Keith, R. Kobayashi, J. Normand, 
 K. Raghavachari, A. P. Rendell, J. C. Burant, S. S. Iyengar, 
 J. Tomasi, M. Cossi, J. M. Millam, M. Klene, C. Adamo, R. Cammi, 
 J. W. Ochterski, R. L. Martin, K. Morokuma, O. Farkas, 
 J. B. Foresman, and D. J. Fox, Gaussian, Inc., Wallingford CT, 2016.
 
 ******************************************
 Gaussian 16:  EM64L-G16RevA.03 25-Dec-2016
                24-Jul-2020 
 ******************************************
 %mem=30GB
 %nproc=8
 Will use up to    8 processors via shared memory.
 ---------------------------------------------------------------
 #P uLC-wPBE/cc-pVDZ iop(3/107=0387900000, 3/108=0387900000) opt
 ---------------------------------------------------------------
 1/18=20,19=15,26=3,38=1/1,3;
 2/9=110,12=2,17=6,18=5,40=1/2;
 3/5=16,11=2,25=1,30=1,71=1,74=-41,107=387900000,108=387900000,116=2/1,2,3;
 4//1;
 5/5=2,38=5/2;
 6/7=2,8=2,9=2,10=2,28=1/1;
 7//1,2,3,16;
 1/18=20,19=15,26=3/3(2);
 2/9=110/2;
 99//99;
 2/9=110/2;
 3/5=16,11=2,25=1,30=1,71=1,74=-41,107=387900000,108=387900000,116=2/1,2,3;
 4/5=5,16=3,69=1/1;
 5/5=2,38=5/2;
 7//1,2,3,16;
 1/18=20,19=15,26=3/3(-5);
 2/9=110/2;
 6/7=2,8=2,9=2,10=2,19=2,28=1/1;
 99/9=1/99;
 Leave Link    1 at Fri Jul 24 18:20:35 2020, MaxMem=  4026531840 cpu:               2.5 elap:               0.4
 (Enter /opt/ohpc/pub/libs/gaussian/g16-A.03/sandybridge/g16/l101.exe)
 -----------
 H32 C60 F10
 -----------
 Symbolic Z-matrix:
 Charge =  0 Multiplicity = 1
 C                     20.78273   0.11559  -0.62412 
 C                     20.10562   1.3578   -0.77543 
 C                     18.70411   1.33702  -0.63911 
 F                     18.0099   2.44035  -0.83035 
 C                     18.05033   0.1124   -0.37875 
 C                     18.74943  -1.09529  -0.19853 
 C                     20.16996  -1.08406  -0.35579 
 C                     16.57226   0.08244  -0.23804 
 C                     15.83391   1.03145   0.58787 
 C                     14.48279   1.08611   0.73303 
 C                     13.67095   0.08403  -0.01582 
 C                     14.36116  -0.80384  -0.74284 
 C                     15.78359  -0.84211  -0.9071 
 F                     16.26514  -1.72167  -1.71341 
 C                     12.27042   0.11937   0.14948 
 C                     11.52374  -1.08063   0.52429 
 C                     10.15308  -1.08209   0.53775 
 F                     9.47942  -2.1553    0.85696 
 C                     9.42003   0.13472   0.2878 
 C                     10.10408   1.26322  -0.05588 
 C                     11.48194   1.30113  -0.05312 
 C                     7.93793   0.05505   0.35532 
 C                     7.26312   0.49992   1.54816 
 C                     5.81953   0.41284   1.54101 
 C                     5.05703   0.06736   0.4793 
 C                     5.77408  -0.30734  -0.68063 
 C                     7.16411  -0.24732  -0.71353 
 F                     7.7939   -0.57715  -1.91398 
 C                     3.61052   0.12142   0.46917 
 C                     2.88031  -1.11391   0.07524 
 C                     1.53609  -1.06117   0.09174 
 F                     0.81445  -2.16951  -0.27728 
 C                     0.75972   0.08268   0.43443 
 C                     1.51106   1.22476   0.89791 
 C                     2.88444   1.25442   0.8706 
 C                    -0.75526   0.07287   0.4959 
 C                    -1.39411  -0.39508  -0.62936 
 C                    -2.784    -0.39859  -0.69209 
 C                    -3.59248   0.15363   0.38824 
 C                    -2.83996   0.60372   1.48484 
 C                    -1.44051   0.56706   1.51225 
 F                    -0.90152   1.07506   2.60387 
 C                    -5.06607   0.15656   0.36104 
 C                    -5.82191  -1.06078   0.08302 
 C                    -7.19109  -1.0613    0.03252 
 F                    -7.83714  -2.1905   -0.24657 
 C                    -7.91611   0.1647    0.14577 
 C                    -7.2213    1.31368   0.48209 
 C                    -5.78202   1.28818   0.58069 
 C                    -9.4083    0.14727   0.09172 
 C                    -9.964     0.96757  -0.84174 
 C                    -11.43072   1.00409  -1.00673 
 C                    -12.18965   0.19452  -0.18678 
 C                    -11.53084  -0.57301   0.811 
 C                    -10.21315  -0.61976   0.94959 
 F                    -9.61133  -1.36585   1.82923 
 C                    -13.62718   0.18564  -0.28074 
 C                    -14.40818   1.30879  -0.3386 
 C                    -15.81659   1.34728  -0.50762 
 F                    -16.4026   2.48819  -0.51325 
 C                    -16.54258   0.0941   -0.57556 
 C                    -15.7609  -1.01081  -0.52476 
 C                    -14.40123  -1.01867  -0.33593 
 C                    -17.9936   0.15721  -0.69377 
 C                    -18.61792   0.93272  -1.73111 
 C                    -20.0576   0.86713  -1.864 
 C                    -20.76978   0.03287  -1.07412 
 C                    -20.21914  -0.73462  -0.08647 
 C                    -18.76334  -0.6689    0.0685 
 F                    -18.27172  -1.45316   1.01936 
 H                     21.9195   0.13704  -0.78625 
 H                     20.62437   2.22744  -1.0796 
 H                     18.24914  -2.02692  -0.00428 
 H                     20.75904  -1.95487  -0.22292 
 H                     16.44859   1.83288   1.06686 
 H                     13.96332   1.80888   1.34922 
 H                     13.74583  -1.58779  -1.29889 
 H                     12.03837  -1.98973   0.73812 
 H                     9.57643   2.1695   -0.24112 
 H                     11.95081   2.2192   -0.34945 
 H                     7.74399   0.7299    2.43126 
 H                     5.35107   0.689     2.49088 
 H                     5.2824   -0.57136  -1.60313 
 H                     3.41427  -1.94001  -0.18303 
 H                     1.00515   2.13064   1.17386 
 H                     3.39015   2.1585    1.17683 
 H                    -0.9325   -0.75732  -1.514 
 H                    -3.36192  -0.76911  -1.62922 
 H                    -3.45714   0.97478   2.39104 
 H                    -5.22386  -2.02593  -0.07991 
 H                    -7.7405    2.25828   0.65154 
 H                    -5.30157   2.23209   0.73481 
 H                    -9.42195   1.63454  -1.55683 
 H                    -11.886    1.54785  -1.76893 
 H                    -12.15572  -1.21699   1.46676 
 H                    -13.9345   2.2753   -0.23407 
 H                    -16.27476  -2.00646  -0.63947 
 H                    -13.84901  -1.97939  -0.40772 
 H                    -17.98304   1.53285  -2.34857 
 H                    -20.44375   1.44941  -2.60628 
 H                    -21.8754   0.01663  -1.20612 
 H                    -20.77329  -1.32618   0.64705 
 
 ITRead=  0  0  0  0  0  0  0  0  0  0  0  0  0  0  0  0  0  0  0  0
 ITRead=  0  0  0  0  0  0  0  0  0  0  0  0  0  0  0  0  0  0  0  0
 ITRead=  0  0  0  0  0  0  0  0  0  0  0  0  0  0  0  0  0  0  0  0
 ITRead=  0  0  0  0  0  0  0  0  0  0  0  0  0  0  0  0  0  0  0  0
 ITRead=  0  0  0  0  0  0  0  0  0  0  0  0  0  0  0  0  0  0  0  0
 ITRead=  0  0
 MicOpt= -1 -1 -1 -1 -1 -1 -1 -1 -1 -1 -1 -1 -1 -1 -1 -1 -1 -1 -1 -1
 MicOpt= -1 -1 -1 -1 -1 -1 -1 -1 -1 -1 -1 -1 -1 -1 -1 -1 -1 -1 -1 -1
 MicOpt= -1 -1 -1 -1 -1 -1 -1 -1 -1 -1 -1 -1 -1 -1 -1 -1 -1 -1 -1 -1
 MicOpt= -1 -1 -1 -1 -1 -1 -1 -1 -1 -1 -1 -1 -1 -1 -1 -1 -1 -1 -1 -1
 MicOpt= -1 -1 -1 -1 -1 -1 -1 -1 -1 -1 -1 -1 -1 -1 -1 -1 -1 -1 -1 -1
 MicOpt= -1 -1
 NAtoms=    102 NQM=      102 NQMF=       0 NMMI=      0 NMMIF=      0
                NMic=       0 NMicF=      0.
                    Isotopes and Nuclear Properties:
 (Nuclear quadrupole moments (NQMom) in fm**2, nuclear magnetic moments (NMagM)
  in nuclear magnetons)

  Atom         1           2           3           4           5           6           7           8           9          10
 IAtWgt=          12          12          12          19          12          12          12          12          12          12
 AtmWgt=  12.0000000  12.0000000  12.0000000  18.9984033  12.0000000  12.0000000  12.0000000  12.0000000  12.0000000  12.0000000
 NucSpn=           0           0           0           1           0           0           0           0           0           0
 AtZEff=  -0.0000000  -0.0000000  -0.0000000  -0.0000000  -0.0000000  -0.0000000  -0.0000000  -0.0000000  -0.0000000  -0.0000000
 NQMom=    0.0000000   0.0000000   0.0000000   0.0000000   0.0000000   0.0000000   0.0000000   0.0000000   0.0000000   0.0000000
 NMagM=    0.0000000   0.0000000   0.0000000   2.6288670   0.0000000   0.0000000   0.0000000   0.0000000   0.0000000   0.0000000
 AtZNuc=   6.0000000   6.0000000   6.0000000   9.0000000   6.0000000   6.0000000   6.0000000   6.0000000   6.0000000   6.0000000

  Atom        11          12          13          14          15          16          17          18          19          20
 IAtWgt=          12          12          12          19          12          12          12          19          12          12
 AtmWgt=  12.0000000  12.0000000  12.0000000  18.9984033  12.0000000  12.0000000  12.0000000  18.9984033  12.0000000  12.0000000
 NucSpn=           0           0           0           1           0           0           0           1           0           0
 AtZEff=  -0.0000000  -0.0000000  -0.0000000  -0.0000000  -0.0000000  -0.0000000  -0.0000000  -0.0000000  -0.0000000  -0.0000000
 NQMom=    0.0000000   0.0000000   0.0000000   0.0000000   0.0000000   0.0000000   0.0000000   0.0000000   0.0000000   0.0000000
 NMagM=    0.0000000   0.0000000   0.0000000   2.6288670   0.0000000   0.0000000   0.0000000   2.6288670   0.0000000   0.0000000
 AtZNuc=   6.0000000   6.0000000   6.0000000   9.0000000   6.0000000   6.0000000   6.0000000   9.0000000   6.0000000   6.0000000

  Atom        21          22          23          24          25          26          27          28          29          30
 IAtWgt=          12          12          12          12          12          12          12          19          12          12
 AtmWgt=  12.0000000  12.0000000  12.0000000  12.0000000  12.0000000  12.0000000  12.0000000  18.9984033  12.0000000  12.0000000
 NucSpn=           0           0           0           0           0           0           0           1           0           0
 AtZEff=  -0.0000000  -0.0000000  -0.0000000  -0.0000000  -0.0000000  -0.0000000  -0.0000000  -0.0000000  -0.0000000  -0.0000000
 NQMom=    0.0000000   0.0000000   0.0000000   0.0000000   0.0000000   0.0000000   0.0000000   0.0000000   0.0000000   0.0000000
 NMagM=    0.0000000   0.0000000   0.0000000   0.0000000   0.0000000   0.0000000   0.0000000   2.6288670   0.0000000   0.0000000
 AtZNuc=   6.0000000   6.0000000   6.0000000   6.0000000   6.0000000   6.0000000   6.0000000   9.0000000   6.0000000   6.0000000

  Atom        31          32          33          34          35          36          37          38          39          40
 IAtWgt=          12          19          12          12          12          12          12          12          12          12
 AtmWgt=  12.0000000  18.9984033  12.0000000  12.0000000  12.0000000  12.0000000  12.0000000  12.0000000  12.0000000  12.0000000
 NucSpn=           0           1           0           0           0           0           0           0           0           0
 AtZEff=  -0.0000000  -0.0000000  -0.0000000  -0.0000000  -0.0000000  -0.0000000  -0.0000000  -0.0000000  -0.0000000  -0.0000000
 NQMom=    0.0000000   0.0000000   0.0000000   0.0000000   0.0000000   0.0000000   0.0000000   0.0000000   0.0000000   0.0000000
 NMagM=    0.0000000   2.6288670   0.0000000   0.0000000   0.0000000   0.0000000   0.0000000   0.0000000   0.0000000   0.0000000
 AtZNuc=   6.0000000   9.0000000   6.0000000   6.0000000   6.0000000   6.0000000   6.0000000   6.0000000   6.0000000   6.0000000

  Atom        41          42          43          44          45          46          47          48          49          50
 IAtWgt=          12          19          12          12          12          19          12          12          12          12
 AtmWgt=  12.0000000  18.9984033  12.0000000  12.0000000  12.0000000  18.9984033  12.0000000  12.0000000  12.0000000  12.0000000
 NucSpn=           0           1           0           0           0           1           0           0           0           0
 AtZEff=  -0.0000000  -0.0000000  -0.0000000  -0.0000000  -0.0000000  -0.0000000  -0.0000000  -0.0000000  -0.0000000  -0.0000000
 NQMom=    0.0000000   0.0000000   0.0000000   0.0000000   0.0000000   0.0000000   0.0000000   0.0000000   0.0000000   0.0000000
 NMagM=    0.0000000   2.6288670   0.0000000   0.0000000   0.0000000   2.6288670   0.0000000   0.0000000   0.0000000   0.0000000
 AtZNuc=   6.0000000   9.0000000   6.0000000   6.0000000   6.0000000   9.0000000   6.0000000   6.0000000   6.0000000   6.0000000

  Atom        51          52          53          54          55          56          57          58          59          60
 IAtWgt=          12          12          12          12          12          19          12          12          12          19
 AtmWgt=  12.0000000  12.0000000  12.0000000  12.0000000  12.0000000  18.9984033  12.0000000  12.0000000  12.0000000  18.9984033
 NucSpn=           0           0           0           0           0           1           0           0           0           1
 AtZEff=  -0.0000000  -0.0000000  -0.0000000  -0.0000000  -0.0000000  -0.0000000  -0.0000000  -0.0000000  -0.0000000  -0.0000000
 NQMom=    0.0000000   0.0000000   0.0000000   0.0000000   0.0000000   0.0000000   0.0000000   0.0000000   0.0000000   0.0000000
 NMagM=    0.0000000   0.0000000   0.0000000   0.0000000   0.0000000   2.6288670   0.0000000   0.0000000   0.0000000   2.6288670
 AtZNuc=   6.0000000   6.0000000   6.0000000   6.0000000   6.0000000   9.0000000   6.0000000   6.0000000   6.0000000   9.0000000

  Atom        61          62          63          64          65          66          67          68          69          70
 IAtWgt=          12          12          12          12          12          12          12          12          12          19
 AtmWgt=  12.0000000  12.0000000  12.0000000  12.0000000  12.0000000  12.0000000  12.0000000  12.0000000  12.0000000  18.9984033
 NucSpn=           0           0           0           0           0           0           0           0           0           1
 AtZEff=  -0.0000000  -0.0000000  -0.0000000  -0.0000000  -0.0000000  -0.0000000  -0.0000000  -0.0000000  -0.0000000  -0.0000000
 NQMom=    0.0000000   0.0000000   0.0000000   0.0000000   0.0000000   0.0000000   0.0000000   0.0000000   0.0000000   0.0000000
 NMagM=    0.0000000   0.0000000   0.0000000   0.0000000   0.0000000   0.0000000   0.0000000   0.0000000   0.0000000   2.6288670
 AtZNuc=   6.0000000   6.0000000   6.0000000   6.0000000   6.0000000   6.0000000   6.0000000   6.0000000   6.0000000   9.0000000

  Atom        71          72          73          74          75          76          77          78          79          80
 IAtWgt=           1           1           1           1           1           1           1           1           1           1
 AtmWgt=   1.0078250   1.0078250   1.0078250   1.0078250   1.0078250   1.0078250   1.0078250   1.0078250   1.0078250   1.0078250
 NucSpn=           1           1           1           1           1           1           1           1           1           1
 AtZEff=  -0.0000000  -0.0000000  -0.0000000  -0.0000000  -0.0000000  -0.0000000  -0.0000000  -0.0000000  -0.0000000  -0.0000000
 NQMom=    0.0000000   0.0000000   0.0000000   0.0000000   0.0000000   0.0000000   0.0000000   0.0000000   0.0000000   0.0000000
 NMagM=    2.7928460   2.7928460   2.7928460   2.7928460   2.7928460   2.7928460   2.7928460   2.7928460   2.7928460   2.7928460
 AtZNuc=   1.0000000   1.0000000   1.0000000   1.0000000   1.0000000   1.0000000   1.0000000   1.0000000   1.0000000   1.0000000

  Atom        81          82          83          84          85          86          87          88          89          90
 IAtWgt=           1           1           1           1           1           1           1           1           1           1
 AtmWgt=   1.0078250   1.0078250   1.0078250   1.0078250   1.0078250   1.0078250   1.0078250   1.0078250   1.0078250   1.0078250
 NucSpn=           1           1           1           1           1           1           1           1           1           1
 AtZEff=  -0.0000000  -0.0000000  -0.0000000  -0.0000000  -0.0000000  -0.0000000  -0.0000000  -0.0000000  -0.0000000  -0.0000000
 NQMom=    0.0000000   0.0000000   0.0000000   0.0000000   0.0000000   0.0000000   0.0000000   0.0000000   0.0000000   0.0000000
 NMagM=    2.7928460   2.7928460   2.7928460   2.7928460   2.7928460   2.7928460   2.7928460   2.7928460   2.7928460   2.7928460
 AtZNuc=   1.0000000   1.0000000   1.0000000   1.0000000   1.0000000   1.0000000   1.0000000   1.0000000   1.0000000   1.0000000

  Atom        91          92          93          94          95          96          97          98          99         100
 IAtWgt=           1           1           1           1           1           1           1           1           1           1
 AtmWgt=   1.0078250   1.0078250   1.0078250   1.0078250   1.0078250   1.0078250   1.0078250   1.0078250   1.0078250   1.0078250
 NucSpn=           1           1           1           1           1           1           1           1           1           1
 AtZEff=  -0.0000000  -0.0000000  -0.0000000  -0.0000000  -0.0000000  -0.0000000  -0.0000000  -0.0000000  -0.0000000  -0.0000000
 NQMom=    0.0000000   0.0000000   0.0000000   0.0000000   0.0000000   0.0000000   0.0000000   0.0000000   0.0000000   0.0000000
 NMagM=    2.7928460   2.7928460   2.7928460   2.7928460   2.7928460   2.7928460   2.7928460   2.7928460   2.7928460   2.7928460
 AtZNuc=   1.0000000   1.0000000   1.0000000   1.0000000   1.0000000   1.0000000   1.0000000   1.0000000   1.0000000   1.0000000

  Atom       101         102
 IAtWgt=           1           1
 AtmWgt=   1.0078250   1.0078250
 NucSpn=           1           1
 AtZEff=  -0.0000000  -0.0000000
 NQMom=    0.0000000   0.0000000
 NMagM=    2.7928460   2.7928460
 AtZNuc=   1.0000000   1.0000000
 Leave Link  101 at Fri Jul 24 18:20:36 2020, MaxMem=  4026531840 cpu:               3.1 elap:               0.4
 (Enter /opt/ohpc/pub/libs/gaussian/g16-A.03/sandybridge/g16/l103.exe)

 GradGradGradGradGradGradGradGradGradGradGradGradGradGradGradGradGradGrad
 Berny optimization.
 Initialization pass.
                           ----------------------------
                           !    Initial Parameters    !
                           ! (Angstroms and Degrees)  !
 --------------------------                            --------------------------
 ! Name  Definition              Value          Derivative Info.                !
 --------------------------------------------------------------------------------
 ! R1    R(1,2)                  1.4228         estimate D2E/DX2                !
 ! R2    R(1,7)                  1.3736         estimate D2E/DX2                !
 ! R3    R(1,71)                 1.1485         estimate D2E/DX2                !
 ! R4    R(2,3)                  1.4083         estimate D2E/DX2                !
 ! R5    R(2,72)                 1.0573         estimate D2E/DX2                !
 ! R6    R(3,4)                  1.3175         estimate D2E/DX2                !
 ! R7    R(3,5)                  1.4124         estimate D2E/DX2                !
 ! R8    R(5,6)                  1.407          estimate D2E/DX2                !
 ! R9    R(5,8)                  1.4851         estimate D2E/DX2                !
 ! R10   R(6,7)                  1.4293         estimate D2E/DX2                !
 ! R11   R(6,73)                 1.0752         estimate D2E/DX2                !
 ! R12   R(7,74)                 1.0597         estimate D2E/DX2                !
 ! R13   R(8,9)                  1.4587         estimate D2E/DX2                !
 ! R14   R(8,13)                 1.3872         estimate D2E/DX2                !
 ! R15   R(9,10)                 1.36           estimate D2E/DX2                !
 ! R16   R(9,75)                 1.1178         estimate D2E/DX2                !
 ! R17   R(10,11)                1.4913         estimate D2E/DX2                !
 ! R18   R(10,76)                1.0826         estimate D2E/DX2                !
 ! R19   R(11,12)                1.3391         estimate D2E/DX2                !
 ! R20   R(11,15)                1.4107         estimate D2E/DX2                !
 ! R21   R(12,13)                1.4324         estimate D2E/DX2                !
 ! R22   R(12,77)                1.1412         estimate D2E/DX2                !
 ! R23   R(13,14)                1.2867         estimate D2E/DX2                !
 ! R24   R(15,16)                1.4622         estimate D2E/DX2                !
 ! R25   R(15,21)                1.435          estimate D2E/DX2                !
 ! R26   R(16,17)                1.3707         estimate D2E/DX2                !
 ! R27   R(16,78)                1.0663         estimate D2E/DX2                !
 ! R28   R(17,18)                1.3067         estimate D2E/DX2                !
 ! R29   R(17,19)                1.4424         estimate D2E/DX2                !
 ! R30   R(19,20)                1.3637         estimate D2E/DX2                !
 ! R31   R(19,22)                1.4858         estimate D2E/DX2                !
 ! R32   R(20,21)                1.3784         estimate D2E/DX2                !
 ! R33   R(20,79)                1.0649         estimate D2E/DX2                !
 ! R34   R(21,80)                1.0726         estimate D2E/DX2                !
 ! R35   R(22,23)                1.4409         estimate D2E/DX2                !
 ! R36   R(22,27)                1.3538         estimate D2E/DX2                !
 ! R37   R(23,24)                1.4462         estimate D2E/DX2                !
 ! R38   R(23,81)                1.0315         estimate D2E/DX2                !
 ! R39   R(24,25)                1.352          estimate D2E/DX2                !
 ! R40   R(24,82)                1.0945         estimate D2E/DX2                !
 ! R41   R(25,26)                1.4142         estimate D2E/DX2                !
 ! R42   R(25,29)                1.4475         estimate D2E/DX2                !
 ! R43   R(26,27)                1.3917         estimate D2E/DX2                !
 ! R44   R(26,83)                1.0782         estimate D2E/DX2                !
 ! R45   R(27,28)                1.3952         estimate D2E/DX2                !
 ! R46   R(29,30)                1.4881         estimate D2E/DX2                !
 ! R47   R(29,35)                1.4043         estimate D2E/DX2                !
 ! R48   R(30,31)                1.3454         estimate D2E/DX2                !
 ! R49   R(30,84)                1.017          estimate D2E/DX2                !
 ! R50   R(31,32)                1.3731         estimate D2E/DX2                !
 ! R51   R(31,33)                1.4243         estimate D2E/DX2                !
 ! R52   R(33,34)                1.4435         estimate D2E/DX2                !
 ! R53   R(33,36)                1.5163         estimate D2E/DX2                !
 ! R54   R(34,35)                1.374          estimate D2E/DX2                !
 ! R55   R(34,85)                1.0736         estimate D2E/DX2                !
 ! R56   R(35,86)                1.0802         estimate D2E/DX2                !
 ! R57   R(36,37)                1.376          estimate D2E/DX2                !
 ! R58   R(36,41)                1.3217         estimate D2E/DX2                !
 ! R59   R(37,38)                1.3913         estimate D2E/DX2                !
 ! R60   R(37,87)                1.0616         estimate D2E/DX2                !
 ! R61   R(38,39)                1.458          estimate D2E/DX2                !
 ! R62   R(38,88)                1.1617         estimate D2E/DX2                !
 ! R63   R(39,40)                1.4041         estimate D2E/DX2                !
 ! R64   R(39,43)                1.4738         estimate D2E/DX2                !
 ! R65   R(40,41)                1.4002         estimate D2E/DX2                !
 ! R66   R(40,89)                1.1575         estimate D2E/DX2                !
 ! R67   R(41,42)                1.3192         estimate D2E/DX2                !
 ! R68   R(43,44)                1.4596         estimate D2E/DX2                !
 ! R69   R(43,49)                1.357          estimate D2E/DX2                !
 ! R70   R(44,45)                1.3701         estimate D2E/DX2                !
 ! R71   R(44,90)                1.1471         estimate D2E/DX2                !
 ! R72   R(45,46)                1.3306         estimate D2E/DX2                !
 ! R73   R(45,47)                1.4288         estimate D2E/DX2                !
 ! R74   R(47,48)                1.3842         estimate D2E/DX2                !
 ! R75   R(47,50)                1.4933         estimate D2E/DX2                !
 ! R76   R(48,49)                1.4429         estimate D2E/DX2                !
 ! R77   R(48,91)                1.0911         estimate D2E/DX2                !
 ! R78   R(49,92)                1.0703         estimate D2E/DX2                !
 ! R79   R(50,51)                1.3613         estimate D2E/DX2                !
 ! R80   R(50,55)                1.4043         estimate D2E/DX2                !
 ! R81   R(51,52)                1.4764         estimate D2E/DX2                !
 ! R82   R(51,93)                1.118          estimate D2E/DX2                !
 ! R83   R(52,53)                1.3798         estimate D2E/DX2                !
 ! R84   R(52,94)                1.0411         estimate D2E/DX2                !
 ! R85   R(53,54)                1.4208         estimate D2E/DX2                !
 ! R86   R(53,57)                1.4406         estimate D2E/DX2                !
 ! R87   R(54,55)                1.3258         estimate D2E/DX2                !
 ! R88   R(54,95)                1.1114         estimate D2E/DX2                !
 ! R89   R(55,56)                1.301          estimate D2E/DX2                !
 ! R90   R(57,58)                1.3692         estimate D2E/DX2                !
 ! R91   R(57,63)                1.4327         estimate D2E/DX2                !
 ! R92   R(58,59)                1.419          estimate D2E/DX2                !
 ! R93   R(58,96)                1.0814         estimate D2E/DX2                !
 ! R94   R(59,60)                1.2826         estimate D2E/DX2                !
 ! R95   R(59,61)                1.4499         estimate D2E/DX2                !
 ! R96   R(61,62)                1.3544         estimate D2E/DX2                !
 ! R97   R(61,64)                1.4572         estimate D2E/DX2                !
 ! R98   R(62,63)                1.3727         estimate D2E/DX2                !
 ! R99   R(62,97)                1.1263         estimate D2E/DX2                !
 ! R100  R(63,98)                1.1104         estimate D2E/DX2                !
 ! R101  R(64,65)                1.4378         estimate D2E/DX2                !
 ! R102  R(64,69)                1.3623         estimate D2E/DX2                !
 ! R103  R(65,66)                1.4473         estimate D2E/DX2                !
 ! R104  R(65,99)                1.0698         estimate D2E/DX2                !
 ! R105  R(66,67)                1.3517         estimate D2E/DX2                !
 ! R106  R(66,100)               1.0194         estimate D2E/DX2                !
 ! R107  R(67,68)                1.3666         estimate D2E/DX2                !
 ! R108  R(67,101)               1.1136         estimate D2E/DX2                !
 ! R109  R(68,69)                1.4655         estimate D2E/DX2                !
 ! R110  R(68,102)               1.0932         estimate D2E/DX2                !
 ! R111  R(69,70)                1.327          estimate D2E/DX2                !
 ! A1    A(2,1,7)              124.8192         estimate D2E/DX2                !
 ! A2    A(2,1,71)             116.0862         estimate D2E/DX2                !
 ! A3    A(7,1,71)             119.0427         estimate D2E/DX2                !
 ! A4    A(1,2,3)              116.7715         estimate D2E/DX2                !
 ! A5    A(1,2,72)             121.0105         estimate D2E/DX2                !
 ! A6    A(3,2,72)             121.8876         estimate D2E/DX2                !
 ! A7    A(2,3,4)              119.8668         estimate D2E/DX2                !
 ! A8    A(2,3,5)              119.4253         estimate D2E/DX2                !
 ! A9    A(4,3,5)              120.5934         estimate D2E/DX2                !
 ! A10   A(3,5,6)              122.5355         estimate D2E/DX2                !
 ! A11   A(3,5,8)              119.7133         estimate D2E/DX2                !
 ! A12   A(6,5,8)              117.7154         estimate D2E/DX2                !
 ! A13   A(5,6,7)              118.2288         estimate D2E/DX2                !
 ! A14   A(5,6,73)             122.3899         estimate D2E/DX2                !
 ! A15   A(7,6,73)             119.2864         estimate D2E/DX2                !
 ! A16   A(1,7,6)              118.1483         estimate D2E/DX2                !
 ! A17   A(1,7,74)             119.618          estimate D2E/DX2                !
 ! A18   A(6,7,74)             122.1566         estimate D2E/DX2                !
 ! A19   A(5,8,9)              122.9768         estimate D2E/DX2                !
 ! A20   A(5,8,13)             122.2484         estimate D2E/DX2                !
 ! A21   A(9,8,13)             114.7645         estimate D2E/DX2                !
 ! A22   A(8,9,10)             126.1166         estimate D2E/DX2                !
 ! A23   A(8,9,75)             115.5122         estimate D2E/DX2                !
 ! A24   A(10,9,75)            118.1482         estimate D2E/DX2                !
 ! A25   A(9,10,11)            117.4019         estimate D2E/DX2                !
 ! A26   A(9,10,76)            124.3539         estimate D2E/DX2                !
 ! A27   A(11,10,76)           118.2434         estimate D2E/DX2                !
 ! A28   A(10,11,12)           115.9472         estimate D2E/DX2                !
 ! A29   A(10,11,15)           117.6965         estimate D2E/DX2                !
 ! A30   A(12,11,15)           126.294          estimate D2E/DX2                !
 ! A31   A(11,12,13)           126.2849         estimate D2E/DX2                !
 ! A32   A(11,12,77)           116.2363         estimate D2E/DX2                !
 ! A33   A(13,12,77)           117.4651         estimate D2E/DX2                !
 ! A34   A(8,13,12)            119.4362         estimate D2E/DX2                !
 ! A35   A(8,13,14)            123.0274         estimate D2E/DX2                !
 ! A36   A(12,13,14)           117.5004         estimate D2E/DX2                !
 ! A37   A(11,15,16)           121.095          estimate D2E/DX2                !
 ! A38   A(11,15,21)           123.3381         estimate D2E/DX2                !
 ! A39   A(16,15,21)           115.5595         estimate D2E/DX2                !
 ! A40   A(15,16,17)           120.9322         estimate D2E/DX2                !
 ! A41   A(15,16,78)           120.3072         estimate D2E/DX2                !
 ! A42   A(17,16,78)           118.6671         estimate D2E/DX2                !
 ! A43   A(16,17,18)           121.2509         estimate D2E/DX2                !
 ! A44   A(16,17,19)           120.3708         estimate D2E/DX2                !
 ! A45   A(18,17,19)           118.2416         estimate D2E/DX2                !
 ! A46   A(17,19,20)           119.1354         estimate D2E/DX2                !
 ! A47   A(17,19,22)           116.9912         estimate D2E/DX2                !
 ! A48   A(20,19,22)           123.7943         estimate D2E/DX2                !
 ! A49   A(19,20,21)           121.5804         estimate D2E/DX2                !
 ! A50   A(19,20,79)           119.9714         estimate D2E/DX2                !
 ! A51   A(21,20,79)           118.1791         estimate D2E/DX2                !
 ! A52   A(15,21,20)           121.7947         estimate D2E/DX2                !
 ! A53   A(15,21,80)           120.2437         estimate D2E/DX2                !
 ! A54   A(20,21,80)           117.384          estimate D2E/DX2                !
 ! A55   A(19,22,23)           119.2246         estimate D2E/DX2                !
 ! A56   A(19,22,27)           123.1134         estimate D2E/DX2                !
 ! A57   A(23,22,27)           117.0572         estimate D2E/DX2                !
 ! A58   A(22,23,24)           116.4099         estimate D2E/DX2                !
 ! A59   A(22,23,81)           124.005          estimate D2E/DX2                !
 ! A60   A(24,23,81)           118.8807         estimate D2E/DX2                !
 ! A61   A(23,24,25)           125.6058         estimate D2E/DX2                !
 ! A62   A(23,24,82)           114.0627         estimate D2E/DX2                !
 ! A63   A(25,24,82)           120.3038         estimate D2E/DX2                !
 ! A64   A(24,25,26)           115.2031         estimate D2E/DX2                !
 ! A65   A(24,25,29)           124.0222         estimate D2E/DX2                !
 ! A66   A(26,25,29)           120.7183         estimate D2E/DX2                !
 ! A67   A(25,26,27)           120.9558         estimate D2E/DX2                !
 ! A68   A(25,26,83)           122.373          estimate D2E/DX2                !
 ! A69   A(27,26,83)           116.4755         estimate D2E/DX2                !
 ! A70   A(22,27,26)           124.1868         estimate D2E/DX2                !
 ! A71   A(22,27,28)           118.3019         estimate D2E/DX2                !
 ! A72   A(26,27,28)           117.4517         estimate D2E/DX2                !
 ! A73   A(25,29,30)           117.4646         estimate D2E/DX2                !
 ! A74   A(25,29,35)           123.011          estimate D2E/DX2                !
 ! A75   A(30,29,35)           119.4541         estimate D2E/DX2                !
 ! A76   A(29,30,31)           117.0326         estimate D2E/DX2                !
 ! A77   A(29,30,84)           118.941          estimate D2E/DX2                !
 ! A78   A(31,30,84)           124.0257         estimate D2E/DX2                !
 ! A79   A(30,31,32)           119.352          estimate D2E/DX2                !
 ! A80   A(30,31,33)           125.3851         estimate D2E/DX2                !
 ! A81   A(32,31,33)           115.2423         estimate D2E/DX2                !
 ! A82   A(31,33,34)           115.4007         estimate D2E/DX2                !
 ! A83   A(31,33,36)           123.3114         estimate D2E/DX2                !
 ! A84   A(34,33,36)           120.8081         estimate D2E/DX2                !
 ! A85   A(33,34,35)           122.0713         estimate D2E/DX2                !
 ! A86   A(33,34,85)           120.3199         estimate D2E/DX2                !
 ! A87   A(35,34,85)           117.2514         estimate D2E/DX2                !
 ! A88   A(29,35,34)           120.3371         estimate D2E/DX2                !
 ! A89   A(29,35,86)           120.9467         estimate D2E/DX2                !
 ! A90   A(34,35,86)           118.7102         estimate D2E/DX2                !
 ! A91   A(33,36,37)           115.6549         estimate D2E/DX2                !
 ! A92   A(33,36,41)           123.1477         estimate D2E/DX2                !
 ! A93   A(37,36,41)           121.0186         estimate D2E/DX2                !
 ! A94   A(36,37,38)           120.1023         estimate D2E/DX2                !
 ! A95   A(36,37,87)           126.5593         estimate D2E/DX2                !
 ! A96   A(38,37,87)           113.3265         estimate D2E/DX2                !
 ! A97   A(37,38,39)           121.305          estimate D2E/DX2                !
 ! A98   A(37,38,88)           122.2864         estimate D2E/DX2                !
 ! A99   A(39,38,88)           116.2759         estimate D2E/DX2                !
 ! A100  A(38,39,40)           113.7616         estimate D2E/DX2                !
 ! A101  A(38,39,43)           122.7858         estimate D2E/DX2                !
 ! A102  A(40,39,43)           123.3427         estimate D2E/DX2                !
 ! A103  A(39,40,41)           122.8587         estimate D2E/DX2                !
 ! A104  A(39,40,89)           115.3684         estimate D2E/DX2                !
 ! A105  A(41,40,89)           121.735          estimate D2E/DX2                !
 ! A106  A(36,41,40)           120.8598         estimate D2E/DX2                !
 ! A107  A(36,41,42)           124.6461         estimate D2E/DX2                !
 ! A108  A(40,41,42)           114.4864         estimate D2E/DX2                !
 ! A109  A(39,43,44)           121.3057         estimate D2E/DX2                !
 ! A110  A(39,43,49)           121.7479         estimate D2E/DX2                !
 ! A111  A(44,43,49)           116.944          estimate D2E/DX2                !
 ! A112  A(43,44,45)           121.6562         estimate D2E/DX2                !
 ! A113  A(43,44,90)           117.3107         estimate D2E/DX2                !
 ! A114  A(45,44,90)           121.0289         estimate D2E/DX2                !
 ! A115  A(44,45,46)           119.5561         estimate D2E/DX2                !
 ! A116  A(44,45,47)           120.254          estimate D2E/DX2                !
 ! A117  A(46,45,47)           119.8968         estimate D2E/DX2                !
 ! A118  A(45,47,48)           118.4755         estimate D2E/DX2                !
 ! A119  A(45,47,50)           119.6156         estimate D2E/DX2                !
 ! A120  A(48,47,50)           121.3371         estimate D2E/DX2                !
 ! A121  A(47,48,49)           120.1744         estimate D2E/DX2                !
 ! A122  A(47,48,91)           121.1632         estimate D2E/DX2                !
 ! A123  A(49,48,91)           118.6427         estimate D2E/DX2                !
 ! A124  A(43,49,48)           122.0032         estimate D2E/DX2                !
 ! A125  A(43,49,92)           121.4613         estimate D2E/DX2                !
 ! A126  A(48,49,92)           116.2328         estimate D2E/DX2                !
 ! A127  A(47,50,51)           115.1957         estimate D2E/DX2                !
 ! A128  A(47,50,55)           123.8471         estimate D2E/DX2                !
 ! A129  A(51,50,55)           120.9364         estimate D2E/DX2                !
 ! A130  A(50,51,52)           119.8066         estimate D2E/DX2                !
 ! A131  A(50,51,93)           126.8814         estimate D2E/DX2                !
 ! A132  A(52,51,93)           113.2909         estimate D2E/DX2                !
 ! A133  A(51,52,53)           117.7433         estimate D2E/DX2                !
 ! A134  A(51,52,94)           121.949          estimate D2E/DX2                !
 ! A135  A(53,52,94)           120.0655         estimate D2E/DX2                !
 ! A136  A(52,53,54)           118.6365         estimate D2E/DX2                !
 ! A137  A(52,53,57)           120.9121         estimate D2E/DX2                !
 ! A138  A(54,53,57)           120.3427         estimate D2E/DX2                !
 ! A139  A(53,54,55)           123.595          estimate D2E/DX2                !
 ! A140  A(53,54,95)           117.8176         estimate D2E/DX2                !
 ! A141  A(55,54,95)           118.4705         estimate D2E/DX2                !
 ! A142  A(50,55,54)           119.1116         estimate D2E/DX2                !
 ! A143  A(50,55,56)           117.4614         estimate D2E/DX2                !
 ! A144  A(54,55,56)           123.4122         estimate D2E/DX2                !
 ! A145  A(53,57,58)           124.5326         estimate D2E/DX2                !
 ! A146  A(53,57,63)           123.1489         estimate D2E/DX2                !
 ! A147  A(58,57,63)           112.3164         estimate D2E/DX2                !
 ! A148  A(57,58,59)           126.3997         estimate D2E/DX2                !
 ! A149  A(57,58,96)           118.6324         estimate D2E/DX2                !
 ! A150  A(59,58,96)           114.9618         estimate D2E/DX2                !
 ! A151  A(58,59,60)           118.5628         estimate D2E/DX2                !
 ! A152  A(58,59,61)           118.6271         estimate D2E/DX2                !
 ! A153  A(60,59,61)           122.6739         estimate D2E/DX2                !
 ! A154  A(59,61,62)           114.4796         estimate D2E/DX2                !
 ! A155  A(59,61,64)           117.7083         estimate D2E/DX2                !
 ! A156  A(62,61,64)           127.8115         estimate D2E/DX2                !
 ! A157  A(61,62,63)           125.5541         estimate D2E/DX2                !
 ! A158  A(61,62,97)           117.0027         estimate D2E/DX2                !
 ! A159  A(63,62,97)           117.4414         estimate D2E/DX2                !
 ! A160  A(57,63,62)           122.3863         estimate D2E/DX2                !
 ! A161  A(57,63,98)           117.4563         estimate D2E/DX2                !
 ! A162  A(62,63,98)           119.2499         estimate D2E/DX2                !
 ! A163  A(61,64,65)           120.9481         estimate D2E/DX2                !
 ! A164  A(61,64,69)           119.4038         estimate D2E/DX2                !
 ! A165  A(65,64,69)           119.04           estimate D2E/DX2                !
 ! A166  A(64,65,66)           118.2768         estimate D2E/DX2                !
 ! A167  A(64,65,99)           117.4714         estimate D2E/DX2                !
 ! A168  A(66,65,99)           124.247          estimate D2E/DX2                !
 ! A169  A(65,66,67)           119.8958         estimate D2E/DX2                !
 ! A170  A(65,66,100)          114.6946         estimate D2E/DX2                !
 ! A171  A(67,66,100)          125.3434         estimate D2E/DX2                !
 ! A172  A(66,67,68)           123.8229         estimate D2E/DX2                !
 ! A173  A(66,67,101)          117.5703         estimate D2E/DX2                !
 ! A174  A(68,67,101)          118.5229         estimate D2E/DX2                !
 ! A175  A(67,68,69)           116.8388         estimate D2E/DX2                !
 ! A176  A(67,68,102)          125.7723         estimate D2E/DX2                !
 ! A177  A(69,68,102)          117.1853         estimate D2E/DX2                !
 ! A178  A(64,69,68)           121.958          estimate D2E/DX2                !
 ! A179  A(64,69,70)           123.3661         estimate D2E/DX2                !
 ! A180  A(68,69,70)           114.6637         estimate D2E/DX2                !
 ! D1    D(7,1,2,3)             -0.1127         estimate D2E/DX2                !
 ! D2    D(7,1,2,72)          -173.6333         estimate D2E/DX2                !
 ! D3    D(71,1,2,3)           177.2325         estimate D2E/DX2                !
 ! D4    D(71,1,2,72)            3.7119         estimate D2E/DX2                !
 ! D5    D(2,1,7,6)             -0.8138         estimate D2E/DX2                !
 ! D6    D(2,1,7,74)          -177.6914         estimate D2E/DX2                !
 ! D7    D(71,1,7,6)          -178.0865         estimate D2E/DX2                !
 ! D8    D(71,1,7,74)            5.0359         estimate D2E/DX2                !
 ! D9    D(1,2,3,4)           -176.7691         estimate D2E/DX2                !
 ! D10   D(1,2,3,5)             -0.6358         estimate D2E/DX2                !
 ! D11   D(72,2,3,4)            -3.3097         estimate D2E/DX2                !
 ! D12   D(72,2,3,5)           172.8236         estimate D2E/DX2                !
 ! D13   D(2,3,5,6)              2.4183         estimate D2E/DX2                !
 ! D14   D(2,3,5,8)           -179.8099         estimate D2E/DX2                !
 ! D15   D(4,3,5,6)            178.5228         estimate D2E/DX2                !
 ! D16   D(4,3,5,8)             -3.7053         estimate D2E/DX2                !
 ! D17   D(3,5,6,7)             -3.322          estimate D2E/DX2                !
 ! D18   D(3,5,6,73)          -179.7528         estimate D2E/DX2                !
 ! D19   D(8,5,6,7)            178.864          estimate D2E/DX2                !
 ! D20   D(8,5,6,73)             2.4331         estimate D2E/DX2                !
 ! D21   D(3,5,8,9)            -47.1823         estimate D2E/DX2                !
 ! D22   D(3,5,8,13)           131.5939         estimate D2E/DX2                !
 ! D23   D(6,5,8,9)            130.6959         estimate D2E/DX2                !
 ! D24   D(6,5,8,13)           -50.528          estimate D2E/DX2                !
 ! D25   D(5,6,7,1)              2.4489         estimate D2E/DX2                !
 ! D26   D(5,6,7,74)           179.2426         estimate D2E/DX2                !
 ! D27   D(73,6,7,1)           178.9935         estimate D2E/DX2                !
 ! D28   D(73,6,7,74)           -4.2129         estimate D2E/DX2                !
 ! D29   D(5,8,9,10)           178.0463         estimate D2E/DX2                !
 ! D30   D(5,8,9,75)             3.606          estimate D2E/DX2                !
 ! D31   D(13,8,9,10)           -0.8138         estimate D2E/DX2                !
 ! D32   D(13,8,9,75)         -175.2541         estimate D2E/DX2                !
 ! D33   D(5,8,13,12)         -179.0756         estimate D2E/DX2                !
 ! D34   D(5,8,13,14)           -1.3138         estimate D2E/DX2                !
 ! D35   D(9,8,13,12)           -0.2063         estimate D2E/DX2                !
 ! D36   D(9,8,13,14)          177.5555         estimate D2E/DX2                !
 ! D37   D(8,9,10,11)            0.1523         estimate D2E/DX2                !
 ! D38   D(8,9,10,76)         -179.5219         estimate D2E/DX2                !
 ! D39   D(75,9,10,11)         174.4612         estimate D2E/DX2                !
 ! D40   D(75,9,10,76)          -5.213          estimate D2E/DX2                !
 ! D41   D(9,10,11,12)           1.547          estimate D2E/DX2                !
 ! D42   D(9,10,11,15)         178.8579         estimate D2E/DX2                !
 ! D43   D(76,10,11,12)       -178.7583         estimate D2E/DX2                !
 ! D44   D(76,10,11,15)         -1.4474         estimate D2E/DX2                !
 ! D45   D(10,11,12,13)         -2.7399         estimate D2E/DX2                !
 ! D46   D(10,11,12,77)        178.6488         estimate D2E/DX2                !
 ! D47   D(15,11,12,13)       -179.7855         estimate D2E/DX2                !
 ! D48   D(15,11,12,77)          1.6031         estimate D2E/DX2                !
 ! D49   D(10,11,15,16)       -127.4165         estimate D2E/DX2                !
 ! D50   D(10,11,15,21)         53.6174         estimate D2E/DX2                !
 ! D51   D(12,11,15,16)         49.5832         estimate D2E/DX2                !
 ! D52   D(12,11,15,21)       -129.3829         estimate D2E/DX2                !
 ! D53   D(11,12,13,8)           2.1199         estimate D2E/DX2                !
 ! D54   D(11,12,13,14)       -175.7646         estimate D2E/DX2                !
 ! D55   D(77,12,13,8)        -179.2839         estimate D2E/DX2                !
 ! D56   D(77,12,13,14)          2.8316         estimate D2E/DX2                !
 ! D57   D(11,15,16,17)       -172.5954         estimate D2E/DX2                !
 ! D58   D(11,15,16,78)          3.8405         estimate D2E/DX2                !
 ! D59   D(21,15,16,17)          6.4472         estimate D2E/DX2                !
 ! D60   D(21,15,16,78)       -177.1169         estimate D2E/DX2                !
 ! D61   D(11,15,21,20)        171.3143         estimate D2E/DX2                !
 ! D62   D(11,15,21,80)          0.2591         estimate D2E/DX2                !
 ! D63   D(16,15,21,20)         -7.7044         estimate D2E/DX2                !
 ! D64   D(16,15,21,80)       -178.7595         estimate D2E/DX2                !
 ! D65   D(15,16,17,18)        179.2129         estimate D2E/DX2                !
 ! D66   D(15,16,17,19)         -5.1112         estimate D2E/DX2                !
 ! D67   D(78,16,17,18)          2.7197         estimate D2E/DX2                !
 ! D68   D(78,16,17,19)        178.3956         estimate D2E/DX2                !
 ! D69   D(16,17,19,20)          4.654          estimate D2E/DX2                !
 ! D70   D(16,17,19,22)       -178.4558         estimate D2E/DX2                !
 ! D71   D(18,17,19,20)       -179.5419         estimate D2E/DX2                !
 ! D72   D(18,17,19,22)         -2.6518         estimate D2E/DX2                !
 ! D73   D(17,19,20,21)         -5.9229         estimate D2E/DX2                !
 ! D74   D(17,19,20,79)       -179.8545         estimate D2E/DX2                !
 ! D75   D(22,19,20,21)        177.4118         estimate D2E/DX2                !
 ! D76   D(22,19,20,79)          3.4802         estimate D2E/DX2                !
 ! D77   D(17,19,22,23)         99.8798         estimate D2E/DX2                !
 ! D78   D(17,19,22,27)        -89.3059         estimate D2E/DX2                !
 ! D79   D(20,19,22,23)        -83.389          estimate D2E/DX2                !
 ! D80   D(20,19,22,27)         87.4253         estimate D2E/DX2                !
 ! D81   D(19,20,21,15)          7.7925         estimate D2E/DX2                !
 ! D82   D(19,20,21,80)        179.0919         estimate D2E/DX2                !
 ! D83   D(79,20,21,15)       -178.1708         estimate D2E/DX2                !
 ! D84   D(79,20,21,80)         -6.8715         estimate D2E/DX2                !
 ! D85   D(19,22,23,24)        179.1559         estimate D2E/DX2                !
 ! D86   D(19,22,23,81)        -10.5962         estimate D2E/DX2                !
 ! D87   D(27,22,23,24)          7.791          estimate D2E/DX2                !
 ! D88   D(27,22,23,81)        178.0389         estimate D2E/DX2                !
 ! D89   D(19,22,27,26)       -178.9424         estimate D2E/DX2                !
 ! D90   D(19,22,27,28)          3.9414         estimate D2E/DX2                !
 ! D91   D(23,22,27,26)         -7.9425         estimate D2E/DX2                !
 ! D92   D(23,22,27,28)        174.9413         estimate D2E/DX2                !
 ! D93   D(22,23,24,25)         -6.2804         estimate D2E/DX2                !
 ! D94   D(22,23,24,82)        175.6406         estimate D2E/DX2                !
 ! D95   D(81,23,24,25)       -177.0525         estimate D2E/DX2                !
 ! D96   D(81,23,24,82)          4.8686         estimate D2E/DX2                !
 ! D97   D(23,24,25,26)          3.8138         estimate D2E/DX2                !
 ! D98   D(23,24,25,29)       -173.464          estimate D2E/DX2                !
 ! D99   D(82,24,25,26)       -178.218          estimate D2E/DX2                !
 ! D100  D(82,24,25,29)          4.5042         estimate D2E/DX2                !
 ! D101  D(24,25,26,27)         -3.1176         estimate D2E/DX2                !
 ! D102  D(24,25,26,83)       -177.8527         estimate D2E/DX2                !
 ! D103  D(29,25,26,27)        174.258          estimate D2E/DX2                !
 ! D104  D(29,25,26,83)         -0.4772         estimate D2E/DX2                !
 ! D105  D(24,25,29,30)       -126.6211         estimate D2E/DX2                !
 ! D106  D(24,25,29,35)         50.3092         estimate D2E/DX2                !
 ! D107  D(26,25,29,30)         56.2441         estimate D2E/DX2                !
 ! D108  D(26,25,29,35)       -126.8256         estimate D2E/DX2                !
 ! D109  D(25,26,27,22)          5.6394         estimate D2E/DX2                !
 ! D110  D(25,26,27,28)       -177.2218         estimate D2E/DX2                !
 ! D111  D(83,26,27,22)       -179.3274         estimate D2E/DX2                !
 ! D112  D(83,26,27,28)         -2.1887         estimate D2E/DX2                !
 ! D113  D(25,29,30,31)        178.8511         estimate D2E/DX2                !
 ! D114  D(25,29,30,84)         -0.8474         estimate D2E/DX2                !
 ! D115  D(35,29,30,31)          1.8072         estimate D2E/DX2                !
 ! D116  D(35,29,30,84)       -177.8913         estimate D2E/DX2                !
 ! D117  D(25,29,35,34)       -176.9743         estimate D2E/DX2                !
 ! D118  D(25,29,35,86)          2.1253         estimate D2E/DX2                !
 ! D119  D(30,29,35,34)         -0.1023         estimate D2E/DX2                !
 ! D120  D(30,29,35,86)        178.9972         estimate D2E/DX2                !
 ! D121  D(29,30,31,32)        179.2891         estimate D2E/DX2                !
 ! D122  D(29,30,31,33)          1.0214         estimate D2E/DX2                !
 ! D123  D(84,30,31,32)         -1.0293         estimate D2E/DX2                !
 ! D124  D(84,30,31,33)       -179.297          estimate D2E/DX2                !
 ! D125  D(30,31,33,34)         -5.1486         estimate D2E/DX2                !
 ! D126  D(30,31,33,36)       -177.244          estimate D2E/DX2                !
 ! D127  D(32,31,33,34)        176.5207         estimate D2E/DX2                !
 ! D128  D(32,31,33,36)          4.4253         estimate D2E/DX2                !
 ! D129  D(31,33,34,35)          6.8151         estimate D2E/DX2                !
 ! D130  D(31,33,34,85)        179.7613         estimate D2E/DX2                !
 ! D131  D(36,33,34,35)        179.1252         estimate D2E/DX2                !
 ! D132  D(36,33,34,85)         -7.9285         estimate D2E/DX2                !
 ! D133  D(31,33,36,37)        -52.8834         estimate D2E/DX2                !
 ! D134  D(31,33,36,41)        131.9396         estimate D2E/DX2                !
 ! D135  D(34,33,36,37)        135.4331         estimate D2E/DX2                !
 ! D136  D(34,33,36,41)        -39.7439         estimate D2E/DX2                !
 ! D137  D(33,34,35,29)         -4.4024         estimate D2E/DX2                !
 ! D138  D(33,34,35,86)        176.4782         estimate D2E/DX2                !
 ! D139  D(85,34,35,29)       -177.5542         estimate D2E/DX2                !
 ! D140  D(85,34,35,86)          3.3263         estimate D2E/DX2                !
 ! D141  D(33,36,37,38)       -177.6382         estimate D2E/DX2                !
 ! D142  D(33,36,37,87)          1.0186         estimate D2E/DX2                !
 ! D143  D(41,36,37,38)         -2.3499         estimate D2E/DX2                !
 ! D144  D(41,36,37,87)        176.3069         estimate D2E/DX2                !
 ! D145  D(33,36,41,40)        176.2449         estimate D2E/DX2                !
 ! D146  D(33,36,41,42)         -2.6929         estimate D2E/DX2                !
 ! D147  D(37,36,41,40)          1.3185         estimate D2E/DX2                !
 ! D148  D(37,36,41,42)       -177.6192         estimate D2E/DX2                !
 ! D149  D(36,37,38,39)          3.3556         estimate D2E/DX2                !
 ! D150  D(36,37,38,88)        179.01           estimate D2E/DX2                !
 ! D151  D(87,37,38,39)       -175.4695         estimate D2E/DX2                !
 ! D152  D(87,37,38,88)          0.1849         estimate D2E/DX2                !
 ! D153  D(37,38,39,40)         -3.1637         estimate D2E/DX2                !
 ! D154  D(37,38,39,43)       -179.4676         estimate D2E/DX2                !
 ! D155  D(88,38,39,40)       -179.067          estimate D2E/DX2                !
 ! D156  D(88,38,39,43)          4.629          estimate D2E/DX2                !
 ! D157  D(38,39,40,41)          2.1667         estimate D2E/DX2                !
 ! D158  D(38,39,40,89)       -175.6289         estimate D2E/DX2                !
 ! D159  D(43,39,40,41)        178.4471         estimate D2E/DX2                !
 ! D160  D(43,39,40,89)          0.6515         estimate D2E/DX2                !
 ! D161  D(38,39,43,44)         51.0825         estimate D2E/DX2                !
 ! D162  D(38,39,43,49)       -128.3359         estimate D2E/DX2                !
 ! D163  D(40,39,43,44)       -124.8677         estimate D2E/DX2                !
 ! D164  D(40,39,43,49)         55.7139         estimate D2E/DX2                !
 ! D165  D(39,40,41,36)         -1.345          estimate D2E/DX2                !
 ! D166  D(39,40,41,42)        177.6947         estimate D2E/DX2                !
 ! D167  D(89,40,41,36)        176.3129         estimate D2E/DX2                !
 ! D168  D(89,40,41,42)         -4.6474         estimate D2E/DX2                !
 ! D169  D(39,43,44,45)       -178.8226         estimate D2E/DX2                !
 ! D170  D(39,43,44,90)          1.9156         estimate D2E/DX2                !
 ! D171  D(49,43,44,45)          0.6227         estimate D2E/DX2                !
 ! D172  D(49,43,44,90)       -178.6392         estimate D2E/DX2                !
 ! D173  D(39,43,49,48)        176.481          estimate D2E/DX2                !
 ! D174  D(39,43,49,92)          3.0392         estimate D2E/DX2                !
 ! D175  D(44,43,49,48)         -2.9616         estimate D2E/DX2                !
 ! D176  D(44,43,49,92)       -176.4034         estimate D2E/DX2                !
 ! D177  D(43,44,45,46)        178.8743         estimate D2E/DX2                !
 ! D178  D(43,44,45,47)          5.0977         estimate D2E/DX2                !
 ! D179  D(90,44,45,46)         -1.8911         estimate D2E/DX2                !
 ! D180  D(90,44,45,47)       -175.6677         estimate D2E/DX2                !
 ! D181  D(44,45,47,48)         -8.4246         estimate D2E/DX2                !
 ! D182  D(44,45,47,50)       -179.872          estimate D2E/DX2                !
 ! D183  D(46,45,47,48)        177.82           estimate D2E/DX2                !
 ! D184  D(46,45,47,50)          6.3726         estimate D2E/DX2                !
 ! D185  D(45,47,48,49)          6.1361         estimate D2E/DX2                !
 ! D186  D(45,47,48,91)       -175.4995         estimate D2E/DX2                !
 ! D187  D(50,47,48,49)        177.4297         estimate D2E/DX2                !
 ! D188  D(50,47,48,91)         -4.2059         estimate D2E/DX2                !
 ! D189  D(45,47,50,51)       -125.7385         estimate D2E/DX2                !
 ! D190  D(45,47,50,55)         55.9119         estimate D2E/DX2                !
 ! D191  D(48,47,50,51)         63.0654         estimate D2E/DX2                !
 ! D192  D(48,47,50,55)       -115.2842         estimate D2E/DX2                !
 ! D193  D(47,48,49,43)         -0.4572         estimate D2E/DX2                !
 ! D194  D(47,48,49,92)        173.3077         estimate D2E/DX2                !
 ! D195  D(91,48,49,43)       -178.8625         estimate D2E/DX2                !
 ! D196  D(91,48,49,92)         -5.0976         estimate D2E/DX2                !
 ! D197  D(47,50,51,52)        178.4217         estimate D2E/DX2                !
 ! D198  D(47,50,51,93)          0.2123         estimate D2E/DX2                !
 ! D199  D(55,50,51,52)         -3.1764         estimate D2E/DX2                !
 ! D200  D(55,50,51,93)        178.6143         estimate D2E/DX2                !
 ! D201  D(47,50,55,54)       -179.4184         estimate D2E/DX2                !
 ! D202  D(47,50,55,56)         -0.7691         estimate D2E/DX2                !
 ! D203  D(51,50,55,54)          2.3227         estimate D2E/DX2                !
 ! D204  D(51,50,55,56)       -179.028          estimate D2E/DX2                !
 ! D205  D(50,51,52,53)          0.338          estimate D2E/DX2                !
 ! D206  D(50,51,52,94)       -174.0069         estimate D2E/DX2                !
 ! D207  D(93,51,52,53)        178.7787         estimate D2E/DX2                !
 ! D208  D(93,51,52,94)          4.4338         estimate D2E/DX2                !
 ! D209  D(51,52,53,54)          3.1865         estimate D2E/DX2                !
 ! D210  D(51,52,53,57)        179.4086         estimate D2E/DX2                !
 ! D211  D(94,52,53,54)        177.6424         estimate D2E/DX2                !
 ! D212  D(94,52,53,57)         -6.1354         estimate D2E/DX2                !
 ! D213  D(52,53,54,55)         -4.2593         estimate D2E/DX2                !
 ! D214  D(52,53,54,95)        179.7385         estimate D2E/DX2                !
 ! D215  D(57,53,54,55)        179.4963         estimate D2E/DX2                !
 ! D216  D(57,53,54,95)          3.4941         estimate D2E/DX2                !
 ! D217  D(52,53,57,58)        -46.7943         estimate D2E/DX2                !
 ! D218  D(52,53,57,63)        132.6419         estimate D2E/DX2                !
 ! D219  D(54,53,57,58)        129.3637         estimate D2E/DX2                !
 ! D220  D(54,53,57,63)        -51.2002         estimate D2E/DX2                !
 ! D221  D(53,54,55,50)          1.4634         estimate D2E/DX2                !
 ! D222  D(53,54,55,56)       -177.1008         estimate D2E/DX2                !
 ! D223  D(95,54,55,50)        177.4412         estimate D2E/DX2                !
 ! D224  D(95,54,55,56)         -1.1231         estimate D2E/DX2                !
 ! D225  D(53,57,58,59)        176.1595         estimate D2E/DX2                !
 ! D226  D(53,57,58,96)         -4.7874         estimate D2E/DX2                !
 ! D227  D(63,57,58,59)         -3.3302         estimate D2E/DX2                !
 ! D228  D(63,57,58,96)        175.7228         estimate D2E/DX2                !
 ! D229  D(53,57,63,62)       -175.0611         estimate D2E/DX2                !
 ! D230  D(53,57,63,98)         -6.0573         estimate D2E/DX2                !
 ! D231  D(58,57,63,62)          4.4368         estimate D2E/DX2                !
 ! D232  D(58,57,63,98)        173.4406         estimate D2E/DX2                !
 ! D233  D(57,58,59,60)        178.5826         estimate D2E/DX2                !
 ! D234  D(57,58,59,61)          2.7088         estimate D2E/DX2                !
 ! D235  D(96,58,59,60)         -0.5006         estimate D2E/DX2                !
 ! D236  D(96,58,59,61)       -176.3744         estimate D2E/DX2                !
 ! D237  D(58,59,61,62)         -2.7388         estimate D2E/DX2                !
 ! D238  D(58,59,61,64)        177.5179         estimate D2E/DX2                !
 ! D239  D(60,59,61,62)       -178.4331         estimate D2E/DX2                !
 ! D240  D(60,59,61,64)          1.8236         estimate D2E/DX2                !
 ! D241  D(59,61,62,63)          4.2506         estimate D2E/DX2                !
 ! D242  D(59,61,62,97)       -176.2616         estimate D2E/DX2                !
 ! D243  D(64,61,62,63)       -176.0371         estimate D2E/DX2                !
 ! D244  D(64,61,62,97)          3.4508         estimate D2E/DX2                !
 ! D245  D(59,61,64,65)         53.2701         estimate D2E/DX2                !
 ! D246  D(59,61,64,69)       -135.7565         estimate D2E/DX2                !
 ! D247  D(62,61,64,65)       -126.4342         estimate D2E/DX2                !
 ! D248  D(62,61,64,69)         44.5392         estimate D2E/DX2                !
 ! D249  D(61,62,63,57)         -5.4307         estimate D2E/DX2                !
 ! D250  D(61,62,63,98)       -174.2447         estimate D2E/DX2                !
 ! D251  D(97,62,63,57)        175.0834         estimate D2E/DX2                !
 ! D252  D(97,62,63,98)          6.2695         estimate D2E/DX2                !
 ! D253  D(61,64,65,66)        174.9788         estimate D2E/DX2                !
 ! D254  D(61,64,65,99)         -5.7849         estimate D2E/DX2                !
 ! D255  D(69,64,65,66)          3.9731         estimate D2E/DX2                !
 ! D256  D(69,64,65,99)       -176.7906         estimate D2E/DX2                !
 ! D257  D(61,64,69,68)       -174.6682         estimate D2E/DX2                !
 ! D258  D(61,64,69,70)          6.6761         estimate D2E/DX2                !
 ! D259  D(65,64,69,68)         -3.5215         estimate D2E/DX2                !
 ! D260  D(65,64,69,70)        177.8228         estimate D2E/DX2                !
 ! D261  D(64,65,66,67)         -3.7547         estimate D2E/DX2                !
 ! D262  D(64,65,66,100)       179.0473         estimate D2E/DX2                !
 ! D263  D(99,65,66,67)        177.065          estimate D2E/DX2                !
 ! D264  D(99,65,66,100)        -0.133          estimate D2E/DX2                !
 ! D265  D(65,66,67,68)          3.13           estimate D2E/DX2                !
 ! D266  D(65,66,67,101)       179.7444         estimate D2E/DX2                !
 ! D267  D(100,66,67,68)      -179.9913         estimate D2E/DX2                !
 ! D268  D(100,66,67,101)       -3.3769         estimate D2E/DX2                !
 ! D269  D(66,67,68,69)         -2.4644         estimate D2E/DX2                !
 ! D270  D(66,67,68,102)       172.1812         estimate D2E/DX2                !
 ! D271  D(101,67,68,69)      -179.0487         estimate D2E/DX2                !
 ! D272  D(101,67,68,102)       -4.403          estimate D2E/DX2                !
 ! D273  D(67,68,69,64)          2.6784         estimate D2E/DX2                !
 ! D274  D(67,68,69,70)       -178.557          estimate D2E/DX2                !
 ! D275  D(102,68,69,64)      -172.439          estimate D2E/DX2                !
 ! D276  D(102,68,69,70)         6.3255         estimate D2E/DX2                !
 --------------------------------------------------------------------------------
 Trust Radius=3.00D-01 FncErr=1.00D-07 GrdErr=1.00D-06 EigMax=2.50D+02 EigMin=1.00D-04
 Number of steps in this run=    577 maximum allowed number of steps=    612.
 GradGradGradGradGradGradGradGradGradGradGradGradGradGradGradGradGradGrad

 Leave Link  103 at Fri Jul 24 18:20:36 2020, MaxMem=  4026531840 cpu:               0.1 elap:               0.0
 (Enter /opt/ohpc/pub/libs/gaussian/g16-A.03/sandybridge/g16/l202.exe)
 Stoichiometry    C60H32F10
 Framework group  C1[X(C60H32F10)]
 Deg. of freedom   300
 Full point group                 C1      NOp   1
 Largest Abelian subgroup         C1      NOp   1
 Largest concise Abelian subgroup C1      NOp   1
                         Standard orientation:                         
 ---------------------------------------------------------------------
 Center     Atomic      Atomic             Coordinates (Angstroms)
 Number     Number       Type             X           Y           Z
 ---------------------------------------------------------------------
      1          6           0       20.781765    0.108311   -0.636745
      2          6           0       20.104416    1.348736   -0.800991
      3          6           0       18.702989    1.329263   -0.663666
      4          9           0       18.008524    2.430385   -0.866342
      5          6           0       18.049505    0.107422   -0.389796
      6          6           0       18.748863   -1.098178   -0.197028
      7          6           0       20.169300   -1.088463   -0.355206
      8          6           0       16.571522    0.078802   -0.247933
      9          6           0       15.833521    1.036539    0.568158
     10          6           0       14.482479    1.092586    0.713488
     11          6           0       13.670339    0.082436   -0.024099
     12          6           0       14.360250   -0.813108   -0.741937
     13          6           0       15.782588   -0.852966   -0.906580
     14          9           0       16.263784   -1.741080   -1.703685
     15          6           0       12.269900    0.119376    0.141611
     16          6           0       11.523584   -1.076619    0.529703
     17          6           0       10.152927   -1.078098    0.543960
     18          9           0        9.479584   -2.147897    0.875056
     19          6           0        9.419587    0.135872    0.281380
     20          6           0       10.103296    1.260698   -0.074783
     21          6           0       11.481153    1.298803   -0.073213
     22          6           0        7.937532    0.056758    0.350589
     23          6           0        7.263344    0.514326    1.538974
     24          6           0        5.819755    0.426998    1.533579
     25          6           0        5.056698    0.070053    0.476074
     26          6           0        5.773140   -0.316993   -0.680177
     27          6           0        7.163141   -0.257157   -0.714504
     28          9           0        7.792292   -0.599782   -1.911704
     29          6           0        3.610182    0.123828    0.466182
     30          6           0        2.879899   -1.115747    0.085959
     31          6           0        1.535678   -1.062988    0.102655
     32          9           0        0.813971   -2.175310   -0.254042
     33          6           0        0.759367    0.084385    0.433485
     34          6           0        1.510822    1.231457    0.884253
     35          6           0        2.884187    1.260986    0.855848
     36          6           0       -0.755576    0.075053    0.495916
     37          6           0       -1.395014   -0.405030   -0.623889
     38          6           0       -2.784937   -0.409375   -0.685783
     39          6           0       -3.592868    0.154314    0.389012
     40          6           0       -2.839780    0.616237    1.480290
     41          6           0       -1.440312    0.580038    1.507298
     42          9           0       -0.900772    1.099799    2.593095
     43          6           0       -5.066473    0.156777    0.362616
     44          6           0       -5.822322   -1.063562    0.098116
     45          6           0       -7.191525   -1.064787    0.048398
     46          9           0       -7.837597   -2.197004   -0.218186
     47          6           0       -7.916638    0.162263    0.148896
     48          6           0       -7.221777    1.314878    0.472464
     49          6           0       -5.782437    1.290605    0.570514
     50          6           0       -9.408859    0.144080    0.095888
     51          6           0       -9.965184    0.954248   -0.846006
     52          6           0      -11.432004    0.988820   -1.010549
     53          6           0      -12.190370    0.188007   -0.181518
     54          6           0      -11.530894   -0.568692    0.824060
     55          6           0      -10.213119   -0.613796    0.962393
     56          9           0       -9.610708   -1.350322    1.849657
     57          6           0      -13.627948    0.177948   -0.274567
     58          6           0      -14.409129    1.300317   -0.344037
     59          6           0      -15.817635    1.336829   -0.512655
     60          9           0      -16.403795    2.477538   -0.530196
     61          6           0      -16.543508    0.082899   -0.566729
     62          6           0      -15.761665   -1.021303   -0.504513
     63          6           0      -14.401880   -1.026973   -0.316381
     64          6           0      -17.994606    0.144564   -0.684782
     65          6           0      -18.619604    0.908820   -1.730033
     66          6           0      -20.059359    0.841637   -1.861386
     67          6           0      -20.770987    0.015817   -1.062194
     68          6           0      -20.219690   -0.740958   -0.066675
     69          6           0      -18.763803   -0.673403    0.086744
     70          9           0      -18.271544   -1.447355    1.045695
     71          1           0       21.918437    0.128154   -0.799740
     72          1           0       20.622887    2.215125   -1.114775
     73          1           0       18.248793   -2.027728    0.007498
     74          1           0       20.758559   -1.957734   -0.213329
     75          1           0       16.448374    1.843132    1.038166
     76          1           0       13.963269    1.821871    1.322183
     77          1           0       13.744702   -1.603058   -1.289190
     78          1           0       12.038441   -1.983305    0.752990
     79          1           0        9.575428    2.164879   -0.269442
     80          1           0       11.949739    2.213692   -0.379645
     81          1           0        7.744681    0.753826    2.419283
     82          1           0        5.351802    0.713287    2.480699
     83          1           0        5.280974   -0.590951   -1.599509
     84          1           0        3.413820   -1.944503   -0.163733
     85          1           0        1.004959    2.140191    1.150746
     86          1           0        3.389954    2.168368    1.152068
     87          1           0       -0.933860   -0.776688   -1.504853
     88          1           0       -3.363337   -0.789996   -1.618553
     89          1           0       -3.456500    0.996926    2.382802
     90          1           0       -5.224241   -2.030341   -0.054791
     91          1           0       -7.741004    2.261179    0.632065
     92          1           0       -5.302027    2.236166    0.714222
     93          1           0       -9.423625    1.613567   -1.568528
     94          1           0      -11.887782    1.524314   -1.778277
     95          1           0      -12.155324   -1.205663    1.487054
     96          1           0      -13.935504    2.267951   -0.250154
     97          1           0      -16.275462   -2.018194   -0.608238
     98          1           0      -13.849582   -1.988346   -0.378171
     99          1           0      -17.985155    1.502362   -2.354256
    100          1           0      -20.445998    1.415875   -2.609659
    101          1           0      -21.876678   -0.001968   -1.193385
    102          1           0      -20.773344   -1.324670    0.673466
 ---------------------------------------------------------------------
 Rotational constants (GHZ):           0.2483345           0.0034517           0.0034422
 Leave Link  202 at Fri Jul 24 18:20:36 2020, MaxMem=  4026531840 cpu:               0.2 elap:               0.1
 (Enter /opt/ohpc/pub/libs/gaussian/g16-A.03/sandybridge/g16/l301.exe)
 Standard basis: CC-pVDZ (5D, 7F)
 Ernie: Thresh=  0.10000D-02 Tol=  0.10000D-05 Strict=F.
 Ernie:  140 primitive shells out of 1700 were deleted.
 There are  1210 symmetry adapted cartesian basis functions of A   symmetry.
 There are  1140 symmetry adapted basis functions of A   symmetry.
  1140 basis functions,  2534 primitive gaussians,  1210 cartesian basis functions
   241 alpha electrons      241 beta electrons
       nuclear repulsion energy      8000.7305174648 Hartrees.
 IExCor=32609 DFT=T Ex+Corr=LC-wPBE ExCW=0 ScaHFX=  1.000000
 ScaDFX=  1.000000  0.000000  1.000000  1.000000 ScalE2=  1.000000  1.000000
 IRadAn=      5 IRanWt=     -1 IRanGd=            0 ICorTp=0 IEmpDi=  4
 HFx  wShort=  0.000000 wLong=  0.387900 cFull=  0.000000 cShort=  0.000000 cLong=  1.000000
 DFx  wShort=  0.000000 wLong=  0.387900 cFull=  0.000000 cShort=  0.000000 cLong=  1.000000
 NAtoms=  102 NActive=  102 NUniq=  102 SFac= 1.00D+00 NAtFMM=   60 NAOKFM=T Big=T
 Integral buffers will be    131072 words long.
 Raffenetti 2 integral format.
 Two-electron integral symmetry is turned on.
 Leave Link  301 at Fri Jul 24 18:20:36 2020, MaxMem=  4026531840 cpu:               0.4 elap:               0.1
 (Enter /opt/ohpc/pub/libs/gaussian/g16-A.03/sandybridge/g16/l302.exe)
 NPDir=0 NMtPBC=     1 NCelOv=     1 NCel=       1 NClECP=     1 NCelD=      1
         NCelK=      1 NCelE2=     1 NClLst=     1 CellRange=     0.0.
 One-electron integrals computed using PRISM.
 One-electron integral symmetry used in STVInt
 NBasis=  1140 RedAO= T EigKep=  2.85D-04  NBF=  1140
 NBsUse=  1140 1.00D-06 EigRej= -1.00D+00 NBFU=  1140
 Precomputing XC quadrature grid using
 IXCGrd= 4 IRadAn=           5 IRanWt=          -1 IRanGd=           0 AccXCQ= 0.00D+00.
 Generated NRdTot=       0 NPtTot=           0 NUsed=           0 NTot=          32
 NSgBfM=   646   646   646   646   646 MxSgAt=   102 MxSgA2=    85.
 Leave Link  302 at Fri Jul 24 18:20:41 2020, MaxMem=  4026531840 cpu:              38.2 elap:               4.8
 (Enter /opt/ohpc/pub/libs/gaussian/g16-A.03/sandybridge/g16/l303.exe)
 DipDrv:  MaxL=1.
[...]
  Beta virt. eigenvalues --    1.43510   1.43747   1.44332   1.44472   1.44580
  Beta virt. eigenvalues --    1.44637   1.45703   1.46203   1.46982   1.47371
  Beta virt. eigenvalues --    1.48164   1.48579   1.48971   1.49407   1.49654
  Beta virt. eigenvalues --    1.49719   1.51076   1.51956   1.52063   1.52814
  Beta virt. eigenvalues --    1.53388   1.53880   1.54341   1.54702   1.54928
  Beta virt. eigenvalues --    1.55174   1.55379   1.55518   1.55840   1.56057
  Beta virt. eigenvalues --    1.56159   1.56244   1.56420   1.56944   1.57480
  Beta virt. eigenvalues --    1.57539   1.58119   1.58779   1.59268   1.59473
  Beta virt. eigenvalues --    1.59698   1.59928   1.60079   1.60243   1.60435
  Beta virt. eigenvalues --    1.60571   1.60635   1.60800   1.61205   1.61543
  Beta virt. eigenvalues --    1.61942   1.62074   1.62349   1.62821   1.63122
  Beta virt. eigenvalues --    1.63648   1.63967   1.64193   1.64545   1.65019
  Beta virt. eigenvalues --    1.65595   1.65857   1.66192   1.66381   1.66431
  Beta virt. eigenvalues --    1.66818   1.67086   1.67572   1.67811   1.68121
  Beta virt. eigenvalues --    1.68624   1.68899   1.69366   1.69417   1.69554
  Beta virt. eigenvalues --    1.70049   1.70147   1.70400   1.70467   1.70686
  Beta virt. eigenvalues --    1.70760   1.70964   1.71083   1.71447   1.71827
  Beta virt. eigenvalues --    1.71869   1.72044   1.72382   1.72702   1.72851
  Beta virt. eigenvalues --    1.73136   1.73314   1.73491   1.73926   1.74227
  Beta virt. eigenvalues --    1.74363   1.74719   1.74821   1.75036   1.75130
  Beta virt. eigenvalues --    1.75148   1.75228   1.75448   1.75631   1.75897
  Beta virt. eigenvalues --    1.76047   1.76454   1.76630   1.76880   1.77122
  Beta virt. eigenvalues --    1.77530   1.77673   1.77906   1.78025   1.78167
  Beta virt. eigenvalues --    1.78314   1.78594   1.78848   1.79178   1.79304
  Beta virt. eigenvalues --    1.79477   1.79665   1.79811   1.80133   1.80303
  Beta virt. eigenvalues --    1.80389   1.80657   1.81080   1.81574   1.81661
  Beta virt. eigenvalues --    1.81926   1.82404   1.82603   1.82631   1.82779
  Beta virt. eigenvalues --    1.83065   1.83201   1.83354   1.83595   1.83810
  Beta virt. eigenvalues --    1.84015   1.84250   1.84388   1.84610   1.84802
  Beta virt. eigenvalues --    1.85068   1.85258   1.85553   1.86054   1.86176
  Beta virt. eigenvalues --    1.86211   1.86516   1.86625   1.87167   1.87272
  Beta virt. eigenvalues --    1.87740   1.87866   1.88055   1.88369   1.88804
  Beta virt. eigenvalues --    1.89160   1.89601   1.90013   1.90094   1.90688
  Beta virt. eigenvalues --    1.90754   1.91170   1.91402   1.91880   1.92115
  Beta virt. eigenvalues --    1.92500   1.92546   1.93354   1.93606   1.93678
  Beta virt. eigenvalues --    1.93897   1.94252   1.94527   1.94557   1.94890
  Beta virt. eigenvalues --    1.94897   1.95214   1.95280   1.95433   1.95849
  Beta virt. eigenvalues --    1.96243   1.96605   1.96667   1.96991   1.97186
  Beta virt. eigenvalues --    1.97452   1.97556   1.97759   1.98181   1.98328
  Beta virt. eigenvalues --    1.98751   1.98964   1.99130   1.99435   1.99564
  Beta virt. eigenvalues --    1.99724   2.00107   2.00406   2.00658   2.00846
  Beta virt. eigenvalues --    2.00935   2.00975   2.01273   2.01525   2.01819
  Beta virt. eigenvalues --    2.02516   2.02799   2.03445   2.03718   2.04300
  Beta virt. eigenvalues --    2.04373   2.04717   2.05123   2.05551   2.05967
  Beta virt. eigenvalues --    2.06231   2.06497   2.06610   2.06850   2.07011
  Beta virt. eigenvalues --    2.07356   2.07607   2.08841   2.09355   2.09724
  Beta virt. eigenvalues --    2.11116   2.11184   2.11572   2.11941   2.12686
  Beta virt. eigenvalues --    2.12978   2.13154   2.13367   2.13531   2.14273
  Beta virt. eigenvalues --    2.14304   2.14706   2.15151   2.15285   2.16000
  Beta virt. eigenvalues --    2.16169   2.17650   2.18050   2.18202   2.19106
  Beta virt. eigenvalues --    2.19382   2.20026   2.20352   2.20451   2.20612
  Beta virt. eigenvalues --    2.20837   2.21486   2.25246   2.25383   2.26765
  Beta virt. eigenvalues --    2.27687   2.28133   2.28357   2.28964   2.29359
  Beta virt. eigenvalues --    2.29650   2.30387   2.30592   2.31003   2.31558
  Beta virt. eigenvalues --    2.31684   2.31799   2.32046   2.32307   2.32763
  Beta virt. eigenvalues --    2.33056   2.33704   2.34214   2.35269   2.35393
  Beta virt. eigenvalues --    2.36293   2.37177   2.37769   2.37994   2.38057
  Beta virt. eigenvalues --    2.39671   2.39958   2.41647   2.41710   2.42331
  Beta virt. eigenvalues --    2.42377   2.43154   2.43674   2.44281   2.44331
  Beta virt. eigenvalues --    2.44592   2.45301   2.49485   2.49568   2.49614
  Beta virt. eigenvalues --    2.49733   2.49919   2.50230   2.51393   2.51711
  Beta virt. eigenvalues --    2.52789   2.53801   2.53947   2.54127   2.54213
  Beta virt. eigenvalues --    2.54556   2.54818   2.55355   2.55944   2.57583
  Beta virt. eigenvalues --    2.58006   2.59078   2.59385   2.60847   2.61499
  Beta virt. eigenvalues --    2.62728   2.63258   2.63294   2.63647   2.63804
  Beta virt. eigenvalues --    2.64039   2.64219   2.64352   2.64532   2.65214
  Beta virt. eigenvalues --    2.66302   2.67287   2.67654   2.71145   2.71464
  Beta virt. eigenvalues --    2.71935   2.72118   2.73039   2.73264   2.73493
  Beta virt. eigenvalues --    2.74260   2.75153   2.75663   2.76764   2.77071
  Beta virt. eigenvalues --    2.78178   2.79001   2.79558   2.79719   2.79940
  Beta virt. eigenvalues --    2.80406   2.80977   2.81203   2.82365   2.82509
  Beta virt. eigenvalues --    2.83008   2.83207   2.85562   2.88158   2.88658
  Beta virt. eigenvalues --    2.89135   2.89522   2.89845   2.90253   2.90533
  Beta virt. eigenvalues --    2.90602   2.90984   2.91051   2.91360   2.93354
  Beta virt. eigenvalues --    2.93497   2.94620   2.95948   2.97637   2.97828
  Beta virt. eigenvalues --    3.04692   3.05910   3.06452   3.07338   3.37471
  Beta virt. eigenvalues --    3.39158   3.41766   3.44425   3.50069   3.52054
  Beta virt. eigenvalues --    3.54528   3.56124   3.57552   3.57718   3.67454
  Beta virt. eigenvalues --    3.67612   3.67639   3.67651   3.67807   3.67854
  Beta virt. eigenvalues --    3.67888   3.67940   3.68209   3.68238   3.70320
  Beta virt. eigenvalues --    3.70524   3.70567   3.70949   3.71258   3.71689
  Beta virt. eigenvalues --    3.72031   3.72324   3.72565   3.72609   3.85856
  Beta virt. eigenvalues --    3.86097   3.86108   3.86661   3.86874   3.86888
  Beta virt. eigenvalues --    3.86983   3.86994   3.87150   3.87185   4.07882
  Beta virt. eigenvalues --    4.07965   4.07972   4.09378   4.09416   4.10837
  Beta virt. eigenvalues --    4.10912   4.10918   4.10986   4.11016   4.27889
  Beta virt. eigenvalues --    4.28149   4.28658   4.28901   4.29097   4.31521
  Beta virt. eigenvalues --    4.32013   4.32099   4.33272   4.33463
          Condensed to atoms (all electrons):
          Atomic-Atomic Spin Densities.
 Mulliken charges and spin densities:
               1          2
     1  C    0.013414  -0.000000
     2  C   -0.003699  -0.000000
     3  C    0.098465   0.000000
     4  F   -0.130688   0.000000
     5  C   -0.056081  -0.000000
     6  C    0.022638   0.000000
     7  C    0.007281   0.000000
     8  C   -0.049151   0.000000
     9  C    0.036285   0.000000
    10  C    0.000722  -0.000000
    11  C    0.008178  -0.000000
    12  C   -0.003846   0.000000
    13  C    0.108129  -0.000000
    14  F   -0.127490  -0.000000
    15  C    0.009070   0.000000
    16  C   -0.006202  -0.000000
    17  C    0.128142   0.000000
    18  F   -0.120627  -0.000000
    19  C   -0.061700  -0.000000
    20  C    0.024893   0.000000
    21  C    0.001780   0.000000
    22  C   -0.061524  -0.000000
    23  C    0.025119  -0.000000
    24  C    0.001780   0.000000
    25  C    0.008744  -0.000000
    26  C   -0.006300   0.000000
    27  C    0.128272  -0.000000
    28  F   -0.120351   0.000000
    29  C    0.008356  -0.000000
    30  C   -0.002554   0.000000
    31  C    0.106890  -0.000000
    32  F   -0.127401   0.000000
    33  C   -0.048912   0.000000
    34  C    0.033864  -0.000000
    35  C    0.001471   0.000000
    36  C   -0.048868  -0.000000
    37  C    0.033941  -0.000000
    38  C    0.001964   0.000000
    39  C    0.009644   0.000000
    40  C   -0.003440  -0.000000
    41  C    0.106498   0.000000
    42  F   -0.128324   0.000000
    43  C    0.006691  -0.000000
    44  C   -0.005837  -0.000000
    45  C    0.129782  -0.000000
    46  F   -0.120301   0.000000
    47  C   -0.064330   0.000000
    48  C    0.026458   0.000000
    49  C    0.002057   0.000000
    50  C   -0.062243   0.000000
    51  C    0.025358  -0.000000
    52  C    0.001275   0.000000
    53  C    0.009359  -0.000000
    54  C   -0.006699   0.000000
    55  C    0.128480  -0.000000
    56  F   -0.120171   0.000000
    57  C    0.008688  -0.000000
    58  C   -0.005327   0.000000
    59  C    0.107866   0.000000
    60  F   -0.128219   0.000000
    61  C   -0.049128  -0.000000
    62  C    0.036549   0.000000
    63  C    0.001237   0.000000
    64  C   -0.056198   0.000000
    65  C    0.022708  -0.000000
    66  C    0.007192   0.000000
    67  C    0.013404  -0.000000
    68  C   -0.003666   0.000000
    69  C    0.098745   0.000000
    70  F   -0.130125   0.000000
    71  H    0.013162   0.000000
    72  H    0.020624   0.000000
    73  H    0.008761   0.000000
    74  H    0.008337   0.000000
    75  H    0.009412   0.000000
    76  H    0.000277   0.000000
    77  H    0.016555   0.000000
    78  H    0.015943  -0.000000
    79  H    0.005016   0.000000
    80  H    0.003228  -0.000000
    81  H    0.005358  -0.000000
    82  H    0.003192  -0.000000
    83  H    0.015872  -0.000000
    84  H    0.017333   0.000000
    85  H    0.009290  -0.000000
    86  H    0.000763  -0.000000
    87  H    0.010385  -0.000000
    88  H    0.002587   0.000000
    89  H    0.015736   0.000000
    90  H    0.017334  -0.000000
    91  H    0.005415  -0.000000
    92  H    0.001579   0.000000
    93  H    0.005138  -0.000000
    94  H    0.001859   0.000000
    95  H    0.017395   0.000000
    96  H    0.013786  -0.000000
    97  H    0.010174  -0.000000
    98  H    0.003257  -0.000000
    99  H    0.008134  -0.000000
   100  H    0.008051   0.000000
   101  H    0.013160   0.000000
   102  H    0.020901   0.000000
 Sum of Mulliken charges =  -0.00000   0.00000
 Mulliken charges and spin densities with hydrogens summed into heavy atoms:
               1          2
     1  C    0.026577  -0.000000
     2  C    0.016925  -0.000000
     3  C    0.098465   0.000000
     4  F   -0.130688   0.000000
     5  C   -0.056081  -0.000000
     6  C    0.031399   0.000000
     7  C    0.015618   0.000000
     8  C   -0.049151   0.000000
     9  C    0.045696   0.000000
    10  C    0.000999  -0.000000
    11  C    0.008178  -0.000000
    12  C    0.012709   0.000000
    13  C    0.108129  -0.000000
    14  F   -0.127490  -0.000000
    15  C    0.009070   0.000000
    16  C    0.009741  -0.000000
    17  C    0.128142   0.000000
    18  F   -0.120627  -0.000000
    19  C   -0.061700  -0.000000
    20  C    0.029909   0.000000
    21  C    0.005009   0.000000
    22  C   -0.061524  -0.000000
    23  C    0.030477  -0.000000
    24  C    0.004972   0.000000
    25  C    0.008744  -0.000000
    26  C    0.009572   0.000000
    27  C    0.128272  -0.000000
    28  F   -0.120351   0.000000
    29  C    0.008356  -0.000000
    30  C    0.014779   0.000000
    31  C    0.106890  -0.000000
    32  F   -0.127401   0.000000
    33  C   -0.048912   0.000000
    34  C    0.043154  -0.000000
    35  C    0.002234   0.000000
    36  C   -0.048868  -0.000000
    37  C    0.044326  -0.000000
    38  C    0.004551   0.000000
    39  C    0.009644   0.000000
    40  C    0.012296  -0.000000
    41  C    0.106498   0.000000
    42  F   -0.128324   0.000000
    43  C    0.006691  -0.000000
    44  C    0.011497  -0.000000
    45  C    0.129782  -0.000000
    46  F   -0.120301   0.000000
    47  C   -0.064330   0.000000
    48  C    0.031872   0.000000
    49  C    0.003636   0.000000
    50  C   -0.062243   0.000000
    51  C    0.030497  -0.000000
    52  C    0.003134   0.000000
    53  C    0.009359  -0.000000
    54  C    0.010696   0.000000
    55  C    0.128480  -0.000000
    56  F   -0.120171   0.000000
    57  C    0.008688  -0.000000
    58  C    0.008459  -0.000000
    59  C    0.107866   0.000000
    60  F   -0.128219   0.000000
    61  C   -0.049128  -0.000000
    62  C    0.046724   0.000000
    63  C    0.004495   0.000000
    64  C   -0.056198   0.000000
    65  C    0.030843  -0.000000
    66  C    0.015243   0.000000
    67  C    0.026564  -0.000000
    68  C    0.017235   0.000000
    69  C    0.098745   0.000000
    70  F   -0.130125   0.000000
 Electronic spatial extent (au):  <R**2>=         271195.5856
 Charge=             -0.0000 electrons
 Dipole moment (field-independent basis, Debye):
    X=              0.0215    Y=              3.0818    Z=             -0.8464  Tot=              3.1959
 Quadrupole moment (field-independent basis, Debye-Ang):
   XX=           -296.3892   YY=           -376.4218   ZZ=           -394.1687
   XY=              7.1531   XZ=             40.0094   YZ=             -0.1555
 Traceless Quadrupole moment (field-independent basis, Debye-Ang):
   XX=             59.2707   YY=            -20.7619   ZZ=            -38.5088
   XY=              7.1531   XZ=             40.0094   YZ=             -0.1555
 Octapole moment (field-independent basis, Debye-Ang**2):
  XXX=              6.9698  YYY=            -32.0696  ZZZ=              2.3345  XYY=             62.6652
  XXY=             47.4079  XXZ=             27.9787  XZZ=            -63.1621  YZZ=             -8.8014
  YYZ=              7.0575  XYZ=             64.0501
 Hexadecapole moment (field-independent basis, Debye-Ang**3):
 XXXX=        -282609.8771 YYYY=          -3229.9582 ZZZZ=          -1434.4461 XXXY=           1796.0243
 XXXZ=           9347.7570 YYYX=             65.6315 YYYZ=              3.7793 ZZZX=           -504.2318
 ZZZY=             -3.8889 XXYY=         -59338.7453 XXZZ=         -61319.7128 YYZZ=           -772.5756
 XXYZ=          -1405.6785 YYXZ=              9.0231 ZZXY=           -138.0035
 N-N= 8.030513967491D+03 E-N=-2.378407206171D+04  KE= 3.281750394226D+03
 Leave Link  601 at Fri Jul 24 23:35:26 2020, MaxMem=  4026531840 cpu:               9.4 elap:               1.3
 (Enter /opt/ohpc/pub/libs/gaussian/g16-A.03/sandybridge/g16/l9999.exe)

 Test job not archived.
 1\1\GINC-SKYLAKE005\FOpt\ULC-wPBE\CC-pVDZ\C60H32F10\RDU230\24-Jul-2020
 \0\\#P uLC-wPBE/cc-pVDZ iop(3/107=0387900000, 3/108=0387900000) opt\\H
 32 C60 F10\\0,1\C,20.8198283427,0.1120436271,0.1771824491\C,20.1310575
 332,1.307246394,0.0283129596\C,18.7476572606,1.2868273057,0.009390158\
 F,18.1007205452,2.4576325266,-0.1378241488\C,18.0083143578,0.113182450
 1,0.1330410361\C,18.7297924307,-1.0747824835,0.2770854969\C,20.1170748
 635,-1.0809397136,0.3027451381\C,16.5249839981,0.1331233071,0.12115308
 87\C,15.7882587256,1.0431506036,0.8826363389\C,14.4023468525,1.0447327
 405,0.8763917575\C,13.6911406853,0.1294582665,0.0976713944\C,14.408843
 5966,-0.7846618297,-0.6706657302\C,15.7908960712,-0.7667990969,-0.6465
 543278\F,16.4412232997,-1.6602517144,-1.4128712415\C,12.2063417987,0.1
 258962423,0.084809587\C,11.5009717359,-1.0769072468,0.0985250703\C,10.
 1193434294,-1.0635342144,0.0847983829\F,9.4720772043,-2.2367847937,0.1
 33413466\C,9.3791275976,0.1142286947,0.0512110524\C,10.09881489,1.3088
 189499,0.0419890217\C,11.4858937731,1.3214271284,0.0591229497\C,7.8975
 133564,0.101934281,0.0605541541\C,7.1679692903,0.8274269193,1.00207437
 53\C,5.7807391131,0.8366375285,0.9963269239\C,5.0703141504,0.110547186
 6,0.0387748952\C,5.7854159621,-0.6166544294,-0.9121372975\C,7.16695416
 4,-0.606780951,-0.8882791307\F,7.8235199566,-1.2886978187,-1.837722735
 8\C,3.5855227753,0.1091674421,0.0287683071\C,2.8794501368,-1.067170374
 3,-0.2136414292\C,1.4973206665,-1.0500974164,-0.2184669631\F,0.8583297
 108,-2.2114255378,-0.4454439178\C,0.7516124919,0.1034961162,0.00922239
 12\C,1.4769087418,1.2723449798,0.2523951886\C,2.8626603096,1.281128095
 4,0.2613192592\C,-0.7306381573,0.0857585954,-0.0162002699\C,-1.4491989
 091,-0.5617484813,-1.0241294663\C,-2.8348188468,-0.561479026,-1.046034
 2437\C,-3.5646531478,0.0893236001,-0.0490698026\C,-2.8653224779,0.7383
 728145,0.9662139164\C,-1.4831675147,0.7250805467,0.9653481844\F,-0.851
 266158,1.3552126827,1.9718311605\C,-5.049473244,0.0960430732,-0.064690
 2384\C,-5.756709359,-1.0565176069,-0.4046940695\C,-7.1383615371,-1.036
 6243851,-0.4146981703\F,-7.7872176098,-2.1571103678,-0.7626322579\C,-7
 .876586089,0.0980371257,-0.0926694088\C,-7.154790011,1.2445126956,0.23
 81292495\C,-5.7676711191,1.24972963,0.2547604482\C,-9.3578576053,0.099
 2581172,-0.1325277192\C,-10.0672412559,1.0430097772,-0.8748590336\C,-1
 1.454277871,1.0594814031,-0.8924163364\C,-12.1850025242,0.121481855,-0
 .1608071273\C,-11.4899016483,-0.8258209325,0.5901571902\C,-10.10814873
 95,-0.8198573405,0.5944113854\F,-9.4710572007,-1.7224272207,1.35401473
 01\C,-13.6697656214,0.1245825959,-0.1771808873\C,-14.375360595,1.32496
 14069,-0.1286542538\C,-15.7575071581,1.3107809057,-0.146897069\F,-16.3
 956390417,2.4932987234,-0.0870171185\C,-16.5035760896,0.137417022,-0.2
 136493746\C,-15.7789979698,-1.0558220054,-0.258748297\C,-14.3932075567
 ,-1.0679744689,-0.2432407611\C,-17.9865441145,0.1617319889,-0.24532116
 47\C,-18.6932278274,1.0227529912,-1.088935867\C,-20.0803521245,1.02663
 36298,-1.1224502077\C,-20.7977763912,0.1653539403,-0.3000438101\C,-20.
 1238476845,-0.6981057863,0.5516213496\C,-18.7402633186,-0.6850028876,0
 .5635762042\F,-18.1077436615,-1.5294763782,1.398592798\H,21.9112011198
 ,0.114907225,0.1948795362\H,20.6439938336,2.2636946989,-0.0779190477\H
 ,18.1814008167,-2.0124014335,0.3738318705\H,20.6523171491,-2.024268871
 2,0.4214804731\H,16.3235012946,1.762205943,1.5033899561\H,13.863058184
 2,1.7545766343,1.5056354784\H,13.90951598,-1.5058764895,-1.3189193269\
 H,12.0119058811,-2.0391886521,0.1493183091\H,9.548713419,2.2511669144,
 -0.000637311\H,12.0176417568,2.2734908044,0.0222749051\H,7.710490595,1
 .3816484031,1.7707947642\H,5.2413266603,1.3920559455,1.7651659707\H,5.
 2822587628,-1.176845906,-1.7012284819\H,3.3881730961,-2.0183041579,-0.
 3755816194\H,0.933055974,2.2005917211,0.42936187\H,3.3928783295,2.2199
 153101,0.4290949494\H,-0.9000527335,-1.0708319604,-1.8165924238\H,-3.3
 587100701,-1.0571412594,-1.864937914\H,-3.3798624731,1.2396812979,1.78
 68187008\H,-5.2471527135,-1.9890071435,-0.6501535796\H,-7.7036233354,2
 .1527915257,0.495549016\H,-5.2346708993,2.1686616315,0.5043025712\H,-9
 .508910668,1.7692500561,-1.4692516158\H,-11.9770821461,1.7945022567,-1
 .5065621436\H,-12.0097601077,-1.5615421048,1.2048894036\H,-13.86664484
 23,2.28638622,-0.0489044129\H,-16.3236574864,-1.9985891175,-0.31711083
 92\H,-13.8636585144,-2.0200171965,-0.3064706358\H,-18.1331809212,1.700
 7163385,-1.7338887475\H,-20.6039281158,1.7071804815,-1.7956448315\H,-2
 1.8891178879,0.1636849868,-0.3197819575\H,-20.6485615753,-1.3858135003
 ,1.2156315324\\Version=EM64L-G16RevA.03\State=1-A\HF=-3302.0018474\S2=
 0.\S2-1=0.\S2A=0.\RMSD=2.943e-09\RMSF=1.169e-06\Dipole=0.0087372,1.251
 8314,-0.1176933\Quadrupole=44.0018298,-15.7932196,-28.2086102,0.069159
 4,30.2948379,2.1406554\PG=C01 [X(C60H32F10)]\\@


 My opinions may have changed, but not the fact that I am right.
                       -- Ashleigh Brilliant
 Job cpu time:       1 days 17 hours 11 minutes 55.5 seconds.
 Elapsed time:       0 days  5 hours 14 minutes 48.9 seconds.
 File lengths (MBytes):  RWF=   1472 Int=      0 D2E=      0 Chk=    132 Scr=      8
 Normal termination of Gaussian 16 at Fri Jul 24 23:35:27 2020.
