 Entering Gaussian System, Link 0=g16
 Input=mols_66_3_14_n-n-cF-cOC_opt_0.gjf
 Output=mols_66_3_14_n-n-cF-cOC_opt_0.log
 Initial command:
 /opt/ohpc/pub/libs/gaussian/g16-A.03/sandybridge/g16/l1.exe "/mnt/gpfs2_4m/scratch/rdu230/ondemand/projects/dihedral_energies/7trial/wtuning/mols_66_3_14_n-n-cF-cOC/Gau-175504.inp" -scrdir="/mnt/gpfs2_4m/scratch/rdu230/ondemand/projects/dihedral_energies/7trial/wtuning/mols_66_3_14_n-n-cF-cOC/"
 Entering Link 1 = /opt/ohpc/pub/libs/gaussian/g16-A.03/sandybridge/g16/l1.exe PID=    175505.
  
 Copyright (c) 1988,1990,1992,1993,1995,1998,2003,2009,2016,
            Gaussian, Inc.  All Rights Reserved.
  
 This is part of the Gaussian(R) 16 program.  It is based on
 the Gaussian(R) 09 system (copyright 2009, Gaussian, Inc.),
 the Gaussian(R) 03 system (copyright 2003, Gaussian, Inc.),
 the Gaussian(R) 98 system (copyright 1998, Gaussian, Inc.),
 the Gaussian(R) 94 system (copyright 1995, Gaussian, Inc.),
 the Gaussian 92(TM) system (copyright 1992, Gaussian, Inc.),
 the Gaussian 90(TM) system (copyright 1990, Gaussian, Inc.),
 the Gaussian 88(TM) system (copyright 1988, Gaussian, Inc.),
 the Gaussian 86(TM) system (copyright 1986, Carnegie Mellon
 University), and the Gaussian 82(TM) system (copyright 1983,
 Carnegie Mellon University). Gaussian is a federally registered
 trademark of Gaussian, Inc.
  
 This software contains proprietary and confidential information,
 including trade secrets, belonging to Gaussian, Inc.
  
 This software is provided under written license and may be
 used, copied, transmitted, or stored only in accord with that
 written license.
  
 The following legend is applicable only to US Government
 contracts under FAR:
  
                    RESTRICTED RIGHTS LEGEND
  
 Use, reproduction and disclosure by the US Government is
 subject to restrictions as set forth in subparagraphs (a)
 and (c) of the Commercial Computer Software - Restricted
 Rights clause in FAR 52.227-19.
  
 Gaussian, Inc.
 340 Quinnipiac St., Bldg. 40, Wallingford CT 06492
  
  
 ---------------------------------------------------------------
 Warning -- This program may not be used in any manner that
 competes with the business of Gaussian, Inc. or will provide
 assistance to any competitor of Gaussian, Inc.  The licensee
 of this program is prohibited from giving any competitor of
 Gaussian, Inc. access to this program.  By using this program,
 the user acknowledges that Gaussian, Inc. is engaged in the
 business of creating and licensing software in the field of
 computational chemistry and represents and warrants to the
 licensee that it is not a competitor of Gaussian, Inc. and that
 it will not use this program in any manner prohibited above.
 ---------------------------------------------------------------
  

 Cite this work as:
 Gaussian 16, Revision A.03,
 M. J. Frisch, G. W. Trucks, H. B. Schlegel, G. E. Scuseria, 
 M. A. Robb, J. R. Cheeseman, G. Scalmani, V. Barone, 
 G. A. Petersson, H. Nakatsuji, X. Li, M. Caricato, A. V. Marenich, 
 J. Bloino, B. G. Janesko, R. Gomperts, B. Mennucci, H. P. Hratchian, 
 J. V. Ortiz, A. F. Izmaylov, J. L. Sonnenberg, D. Williams-Young, 
 F. Ding, F. Lipparini, F. Egidi, J. Goings, B. Peng, A. Petrone, 
 T. Henderson, D. Ranasinghe, V. G. Zakrzewski, J. Gao, N. Rega, 
 G. Zheng, W. Liang, M. Hada, M. Ehara, K. Toyota, R. Fukuda, 
 J. Hasegawa, M. Ishida, T. Nakajima, Y. Honda, O. Kitao, H. Nakai, 
 T. Vreven, K. Throssell, J. A. Montgomery, Jr., J. E. Peralta, 
 F. Ogliaro, M. J. Bearpark, J. J. Heyd, E. N. Brothers, K. N. Kudin, 
 V. N. Staroverov, T. A. Keith, R. Kobayashi, J. Normand, 
 K. Raghavachari, A. P. Rendell, J. C. Burant, S. S. Iyengar, 
 J. Tomasi, M. Cossi, J. M. Millam, M. Klene, C. Adamo, R. Cammi, 
 J. W. Ochterski, R. L. Martin, K. Morokuma, O. Farkas, 
 J. B. Foresman, and D. J. Fox, Gaussian, Inc., Wallingford CT, 2016.
 
 ******************************************
 Gaussian 16:  EM64L-G16RevA.03 25-Dec-2016
                24-Jul-2020 
 ******************************************
 %mem=30GB
 %nproc=8
 Will use up to    8 processors via shared memory.
 ---------------------------------------------------------------
 #P uLC-wPBE/cc-pVDZ iop(3/107=0348800000, 3/108=0348800000) opt
 ---------------------------------------------------------------
 1/18=20,19=15,26=3,38=1/1,3;
 2/9=110,12=2,17=6,18=5,40=1/2;
 3/5=16,11=2,25=1,30=1,71=1,74=-41,107=348800000,108=348800000,116=2/1,2,3;
 4//1;
 5/5=2,38=5/2;
 6/7=2,8=2,9=2,10=2,28=1/1;
 7//1,2,3,16;
 1/18=20,19=15,26=3/3(2);
 2/9=110/2;
 99//99;
 2/9=110/2;
 3/5=16,11=2,25=1,30=1,71=1,74=-41,107=348800000,108=348800000,116=2/1,2,3;
 4/5=5,16=3,69=1/1;
 5/5=2,38=5/2;
 7//1,2,3,16;
 1/18=20,19=15,26=3/3(-5);
 2/9=110/2;
 6/7=2,8=2,9=2,10=2,19=2,28=1/1;
 99/9=1/99;
 Leave Link    1 at Fri Jul 24 14:47:15 2020, MaxMem=  4026531840 cpu:               1.0 elap:               0.2
 (Enter /opt/ohpc/pub/libs/gaussian/g16-A.03/sandybridge/g16/l101.exe)
 ----------------
 H23 C33 N6 O3 F3
 ----------------
 Symbolic Z-matrix:
 Charge =  0 Multiplicity = 1
 C                    -12.07782  -0.83681  -0.82814 
 C                    -11.55914  -0.47535   0.44181 
 C                    -10.20622  -0.21825   0.53309 
 F                    -9.68696   0.21265   1.74404 
 C                    -9.31196  -0.48534  -0.57204 
 N                    -9.75737  -0.87619  -1.73135 
 C                    -11.10835  -1.10078  -1.82803 
 C                    -7.9188   -0.3014   -0.40669 
 N                    -7.19193  -1.4878   -0.47827 
 C                    -5.77888  -1.34501  -0.4123 
 C                    -5.0918   -0.18484  -0.2682 
 C                    -5.8897    0.9837   -0.11682 
 C                    -7.22199   0.92607  -0.25476 
 O                    -8.08641   2.07623  -0.16438 
 C                    -7.50835   3.29954   0.02917 
 C                    -3.63298  -0.12822  -0.16384 
 C                    -3.01464   0.66843   0.83222 
 C                    -1.5677    0.66004   0.94114 
 F                    -1.02103   1.44638   1.82997 
 C                    -0.88685  -0.14175   0.0406 
 N                    -1.47917  -0.88206  -0.95802 
 C                    -2.77939  -0.85981  -0.97754 
 C                     0.59916  -0.12401  -0.01558 
 N                     1.26196   0.27196  -1.12343 
 C                     2.51765   0.3388   -1.1464 
 C                     3.39857  -0.02155  -0.06627 
 C                     2.77318  -0.41401   1.02595 
 C                     1.41817  -0.50037   1.16599 
 O                     0.64159  -0.93633   2.22413 
 C                     1.40317  -1.38935   3.33359 
 C                     4.89947   0.15036  -0.20075 
 C                     5.61114  -0.50729  -1.13548 
 C                     7.01199  -0.36728  -1.24952 
 F                     7.64222  -0.9964   -2.16892 
 C                     7.57861   0.48316  -0.29638 
 N                     6.89725   1.07008   0.65211 
 C                     5.61691   0.93136   0.67726 
 C                     9.04179   0.64448  -0.28844 
 N                     9.50573   1.91736  -0.69521 
 C                     10.77146   2.14644  -0.80425 
 C                     11.7882   1.21318  -0.49163 
 C                     11.33489  -0.00861  -0.10292 
 C                     10.01302  -0.35469  -0.05218 
 O                     9.43949  -1.56832   0.30457 
 C                     10.43101  -2.5908    0.6881 
 H                    -13.08248  -1.07279  -0.93518 
 H                    -12.2281  -0.30139   1.24839 
 H                    -11.46897  -1.35716  -2.79937 
 H                    -5.2718   -2.3096   -0.37907 
 H                    -5.38843   1.96122  -0.0991 
 H                    -6.86214   3.61557  -0.6979 
 H                    -6.99565   3.32708   1.02258 
 H                    -8.32165   4.0282    0.1059 
 H                    -3.513     1.25728   1.4985 
 H                    -3.28299  -1.51931  -1.74172 
 H                     2.92268   0.70495  -2.1266 
 H                     3.36197  -0.69609   1.87882 
 H                     0.73354  -1.75644   4.10293 
 H                     2.00199  -0.58963   3.84685 
 H                     2.0558   -2.21766   3.07662 
 H                     5.10476  -1.23195  -1.85648 
 H                     5.07495   1.47666   1.48406 
 H                     11.0224   3.13317  -1.0639 
 H                     12.76097   1.49814  -0.55772 
 H                     12.12362  -0.81554   0.18133 
 H                     11.08176  -2.88001  -0.1458 
 H                     10.97304  -2.33434   1.61673 
 H                     9.82188  -3.44515   0.96064 
 
 ITRead=  0  0  0  0  0  0  0  0  0  0  0  0  0  0  0  0  0  0  0  0
 ITRead=  0  0  0  0  0  0  0  0  0  0  0  0  0  0  0  0  0  0  0  0
 ITRead=  0  0  0  0  0  0  0  0  0  0  0  0  0  0  0  0  0  0  0  0
 ITRead=  0  0  0  0  0  0  0  0
 MicOpt= -1 -1 -1 -1 -1 -1 -1 -1 -1 -1 -1 -1 -1 -1 -1 -1 -1 -1 -1 -1
 MicOpt= -1 -1 -1 -1 -1 -1 -1 -1 -1 -1 -1 -1 -1 -1 -1 -1 -1 -1 -1 -1
 MicOpt= -1 -1 -1 -1 -1 -1 -1 -1 -1 -1 -1 -1 -1 -1 -1 -1 -1 -1 -1 -1
 MicOpt= -1 -1 -1 -1 -1 -1 -1 -1
 NAtoms=     68 NQM=       68 NQMF=       0 NMMI=      0 NMMIF=      0
                NMic=       0 NMicF=      0.
                    Isotopes and Nuclear Properties:
 (Nuclear quadrupole moments (NQMom) in fm**2, nuclear magnetic moments (NMagM)
  in nuclear magnetons)

  Atom         1           2           3           4           5           6           7           8           9          10
 IAtWgt=          12          12          12          19          12          14          12          12          14          12
 AtmWgt=  12.0000000  12.0000000  12.0000000  18.9984033  12.0000000  14.0030740  12.0000000  12.0000000  14.0030740  12.0000000
 NucSpn=           0           0           0           1           0           2           0           0           2           0
 AtZEff=  -0.0000000  -0.0000000  -0.0000000  -0.0000000  -0.0000000  -0.0000000  -0.0000000  -0.0000000  -0.0000000  -0.0000000
 NQMom=    0.0000000   0.0000000   0.0000000   0.0000000   0.0000000   2.0440000   0.0000000   0.0000000   2.0440000   0.0000000
 NMagM=    0.0000000   0.0000000   0.0000000   2.6288670   0.0000000   0.4037610   0.0000000   0.0000000   0.4037610   0.0000000
 AtZNuc=   6.0000000   6.0000000   6.0000000   9.0000000   6.0000000   7.0000000   6.0000000   6.0000000   7.0000000   6.0000000

  Atom        11          12          13          14          15          16          17          18          19          20
 IAtWgt=          12          12          12          16          12          12          12          12          19          12
 AtmWgt=  12.0000000  12.0000000  12.0000000  15.9949146  12.0000000  12.0000000  12.0000000  12.0000000  18.9984033  12.0000000
 NucSpn=           0           0           0           0           0           0           0           0           1           0
 AtZEff=  -0.0000000  -0.0000000  -0.0000000  -0.0000000  -0.0000000  -0.0000000  -0.0000000  -0.0000000  -0.0000000  -0.0000000
 NQMom=    0.0000000   0.0000000   0.0000000   0.0000000   0.0000000   0.0000000   0.0000000   0.0000000   0.0000000   0.0000000
 NMagM=    0.0000000   0.0000000   0.0000000   0.0000000   0.0000000   0.0000000   0.0000000   0.0000000   2.6288670   0.0000000
 AtZNuc=   6.0000000   6.0000000   6.0000000   8.0000000   6.0000000   6.0000000   6.0000000   6.0000000   9.0000000   6.0000000

  Atom        21          22          23          24          25          26          27          28          29          30
 IAtWgt=          14          12          12          14          12          12          12          12          16          12
 AtmWgt=  14.0030740  12.0000000  12.0000000  14.0030740  12.0000000  12.0000000  12.0000000  12.0000000  15.9949146  12.0000000
 NucSpn=           2           0           0           2           0           0           0           0           0           0
 AtZEff=  -0.0000000  -0.0000000  -0.0000000  -0.0000000  -0.0000000  -0.0000000  -0.0000000  -0.0000000  -0.0000000  -0.0000000
 NQMom=    2.0440000   0.0000000   0.0000000   2.0440000   0.0000000   0.0000000   0.0000000   0.0000000   0.0000000   0.0000000
 NMagM=    0.4037610   0.0000000   0.0000000   0.4037610   0.0000000   0.0000000   0.0000000   0.0000000   0.0000000   0.0000000
 AtZNuc=   7.0000000   6.0000000   6.0000000   7.0000000   6.0000000   6.0000000   6.0000000   6.0000000   8.0000000   6.0000000

  Atom        31          32          33          34          35          36          37          38          39          40
 IAtWgt=          12          12          12          19          12          14          12          12          14          12
 AtmWgt=  12.0000000  12.0000000  12.0000000  18.9984033  12.0000000  14.0030740  12.0000000  12.0000000  14.0030740  12.0000000
 NucSpn=           0           0           0           1           0           2           0           0           2           0
 AtZEff=  -0.0000000  -0.0000000  -0.0000000  -0.0000000  -0.0000000  -0.0000000  -0.0000000  -0.0000000  -0.0000000  -0.0000000
 NQMom=    0.0000000   0.0000000   0.0000000   0.0000000   0.0000000   2.0440000   0.0000000   0.0000000   2.0440000   0.0000000
 NMagM=    0.0000000   0.0000000   0.0000000   2.6288670   0.0000000   0.4037610   0.0000000   0.0000000   0.4037610   0.0000000
 AtZNuc=   6.0000000   6.0000000   6.0000000   9.0000000   6.0000000   7.0000000   6.0000000   6.0000000   7.0000000   6.0000000

  Atom        41          42          43          44          45          46          47          48          49          50
 IAtWgt=          12          12          12          16          12           1           1           1           1           1
 AtmWgt=  12.0000000  12.0000000  12.0000000  15.9949146  12.0000000   1.0078250   1.0078250   1.0078250   1.0078250   1.0078250
 NucSpn=           0           0           0           0           0           1           1           1           1           1
 AtZEff=  -0.0000000  -0.0000000  -0.0000000  -0.0000000  -0.0000000  -0.0000000  -0.0000000  -0.0000000  -0.0000000  -0.0000000
 NQMom=    0.0000000   0.0000000   0.0000000   0.0000000   0.0000000   0.0000000   0.0000000   0.0000000   0.0000000   0.0000000
 NMagM=    0.0000000   0.0000000   0.0000000   0.0000000   0.0000000   2.7928460   2.7928460   2.7928460   2.7928460   2.7928460
 AtZNuc=   6.0000000   6.0000000   6.0000000   8.0000000   6.0000000   1.0000000   1.0000000   1.0000000   1.0000000   1.0000000

  Atom        51          52          53          54          55          56          57          58          59          60
 IAtWgt=           1           1           1           1           1           1           1           1           1           1
 AtmWgt=   1.0078250   1.0078250   1.0078250   1.0078250   1.0078250   1.0078250   1.0078250   1.0078250   1.0078250   1.0078250
 NucSpn=           1           1           1           1           1           1           1           1           1           1
 AtZEff=  -0.0000000  -0.0000000  -0.0000000  -0.0000000  -0.0000000  -0.0000000  -0.0000000  -0.0000000  -0.0000000  -0.0000000
 NQMom=    0.0000000   0.0000000   0.0000000   0.0000000   0.0000000   0.0000000   0.0000000   0.0000000   0.0000000   0.0000000
 NMagM=    2.7928460   2.7928460   2.7928460   2.7928460   2.7928460   2.7928460   2.7928460   2.7928460   2.7928460   2.7928460
 AtZNuc=   1.0000000   1.0000000   1.0000000   1.0000000   1.0000000   1.0000000   1.0000000   1.0000000   1.0000000   1.0000000

  Atom        61          62          63          64          65          66          67          68
 IAtWgt=           1           1           1           1           1           1           1           1
 AtmWgt=   1.0078250   1.0078250   1.0078250   1.0078250   1.0078250   1.0078250   1.0078250   1.0078250
 NucSpn=           1           1           1           1           1           1           1           1
 AtZEff=  -0.0000000  -0.0000000  -0.0000000  -0.0000000  -0.0000000  -0.0000000  -0.0000000  -0.0000000
 NQMom=    0.0000000   0.0000000   0.0000000   0.0000000   0.0000000   0.0000000   0.0000000   0.0000000
 NMagM=    2.7928460   2.7928460   2.7928460   2.7928460   2.7928460   2.7928460   2.7928460   2.7928460
 AtZNuc=   1.0000000   1.0000000   1.0000000   1.0000000   1.0000000   1.0000000   1.0000000   1.0000000
 Leave Link  101 at Fri Jul 24 14:47:16 2020, MaxMem=  4026531840 cpu:               2.9 elap:               0.4
 (Enter /opt/ohpc/pub/libs/gaussian/g16-A.03/sandybridge/g16/l103.exe)

 GradGradGradGradGradGradGradGradGradGradGradGradGradGradGradGradGradGrad
 Berny optimization.
 Initialization pass.
                           ----------------------------
                           !    Initial Parameters    !
                           ! (Angstroms and Degrees)  !
 --------------------------                            --------------------------
 ! Name  Definition              Value          Derivative Info.                !
 --------------------------------------------------------------------------------
 ! R1    R(1,2)                  1.4186         estimate D2E/DX2                !
 ! R2    R(1,7)                  1.4175         estimate D2E/DX2                !
 ! R3    R(1,46)                 1.0375         estimate D2E/DX2                !
 ! R4    R(2,3)                  1.3802         estimate D2E/DX2                !
 ! R5    R(2,47)                 1.0622         estimate D2E/DX2                !
 ! R6    R(3,4)                  1.3863         estimate D2E/DX2                !
 ! R7    R(3,5)                  1.4465         estimate D2E/DX2                !
 ! R8    R(5,6)                  1.302          estimate D2E/DX2                !
 ! R9    R(5,8)                  1.4149         estimate D2E/DX2                !
 ! R10   R(6,7)                  1.3729         estimate D2E/DX2                !
 ! R11   R(7,48)                 1.0674         estimate D2E/DX2                !
 ! R12   R(8,9)                  1.3932         estimate D2E/DX2                !
 ! R13   R(8,13)                 1.4196         estimate D2E/DX2                !
 ! R14   R(9,10)                 1.4218         estimate D2E/DX2                !
 ! R15   R(10,11)                1.356          estimate D2E/DX2                !
 ! R16   R(10,49)                1.0903         estimate D2E/DX2                !
 ! R17   R(11,12)                1.423          estimate D2E/DX2                !
 ! R18   R(11,16)                1.4636         estimate D2E/DX2                !
 ! R19   R(12,13)                1.3407         estimate D2E/DX2                !
 ! R20   R(12,50)                1.0987         estimate D2E/DX2                !
 ! R21   R(13,14)                1.4416         estimate D2E/DX2                !
 ! R22   R(14,15)                1.3668         estimate D2E/DX2                !
 ! R23   R(15,51)                1.0228         estimate D2E/DX2                !
 ! R24   R(15,52)                1.1183         estimate D2E/DX2                !
 ! R25   R(15,53)                1.0947         estimate D2E/DX2                !
 ! R26   R(16,17)                1.4174         estimate D2E/DX2                !
 ! R27   R(16,22)                1.3878         estimate D2E/DX2                !
 ! R28   R(17,18)                1.4511         estimate D2E/DX2                !
 ! R29   R(17,54)                1.0193         estimate D2E/DX2                !
 ! R30   R(18,19)                1.3066         estimate D2E/DX2                !
 ! R31   R(18,20)                1.3847         estimate D2E/DX2                !
 ! R32   R(20,21)                1.377          estimate D2E/DX2                !
 ! R33   R(20,23)                1.4872         estimate D2E/DX2                !
 ! R34   R(21,22)                1.3006         estimate D2E/DX2                !
 ! R35   R(22,55)                1.1281         estimate D2E/DX2                !
 ! R36   R(23,24)                1.3503         estimate D2E/DX2                !
 ! R37   R(23,28)                1.4861         estimate D2E/DX2                !
 ! R38   R(24,25)                1.2577         estimate D2E/DX2                !
 ! R39   R(25,26)                1.4396         estimate D2E/DX2                !
 ! R40   R(25,56)                1.122          estimate D2E/DX2                !
 ! R41   R(26,27)                1.3184         estimate D2E/DX2                !
 ! R42   R(26,31)                1.5167         estimate D2E/DX2                !
 ! R43   R(27,28)                1.365          estimate D2E/DX2                !
 ! R44   R(27,57)                1.0741         estimate D2E/DX2                !
 ! R45   R(28,29)                1.383          estimate D2E/DX2                !
 ! R46   R(29,30)                1.4199         estimate D2E/DX2                !
 ! R47   R(30,58)                1.084          estimate D2E/DX2                !
 ! R48   R(30,59)                1.1232         estimate D2E/DX2                !
 ! R49   R(30,60)                1.0854         estimate D2E/DX2                !
 ! R50   R(31,32)                1.3464         estimate D2E/DX2                !
 ! R51   R(31,37)                1.3768         estimate D2E/DX2                !
 ! R52   R(32,33)                1.4124         estimate D2E/DX2                !
 ! R53   R(32,61)                1.1408         estimate D2E/DX2                !
 ! R54   R(33,34)                1.28           estimate D2E/DX2                !
 ! R55   R(33,35)                1.3974         estimate D2E/DX2                !
 ! R56   R(35,36)                1.307          estimate D2E/DX2                !
 ! R57   R(35,38)                1.4721         estimate D2E/DX2                !
 ! R58   R(36,37)                1.2881         estimate D2E/DX2                !
 ! R59   R(37,62)                1.1145         estimate D2E/DX2                !
 ! R60   R(38,39)                1.4145         estimate D2E/DX2                !
 ! R61   R(38,43)                1.4133         estimate D2E/DX2                !
 ! R62   R(39,40)                1.2909         estimate D2E/DX2                !
 ! R63   R(40,41)                1.4151         estimate D2E/DX2                !
 ! R64   R(40,63)                1.0507         estimate D2E/DX2                !
 ! R65   R(41,42)                1.3599         estimate D2E/DX2                !
 ! R66   R(41,64)                1.0158         estimate D2E/DX2                !
 ! R67   R(42,43)                1.3674         estimate D2E/DX2                !
 ! R68   R(42,65)                1.1636         estimate D2E/DX2                !
 ! R69   R(43,44)                1.3889         estimate D2E/DX2                !
 ! R70   R(44,45)                1.475          estimate D2E/DX2                !
 ! R71   R(45,66)                1.0966         estimate D2E/DX2                !
 ! R72   R(45,67)                1.1054         estimate D2E/DX2                !
 ! R73   R(45,68)                1.0841         estimate D2E/DX2                !
 ! A1    A(2,1,7)              115.3946         estimate D2E/DX2                !
 ! A2    A(2,1,46)             120.2883         estimate D2E/DX2                !
 ! A3    A(7,1,46)             123.1701         estimate D2E/DX2                !
 ! A4    A(1,2,3)              117.7158         estimate D2E/DX2                !
 ! A5    A(1,2,47)             119.4205         estimate D2E/DX2                !
 ! A6    A(3,2,47)             122.4534         estimate D2E/DX2                !
 ! A7    A(2,3,4)              118.8726         estimate D2E/DX2                !
 ! A8    A(2,3,5)              121.4058         estimate D2E/DX2                !
 ! A9    A(4,3,5)              119.5519         estimate D2E/DX2                !
 ! A10   A(3,5,6)              121.6157         estimate D2E/DX2                !
 ! A11   A(3,5,8)              119.6975         estimate D2E/DX2                !
 ! A12   A(6,5,8)              118.6798         estimate D2E/DX2                !
 ! A13   A(5,6,7)              116.6437         estimate D2E/DX2                !
 ! A14   A(1,7,6)              126.3603         estimate D2E/DX2                !
 ! A15   A(1,7,48)             117.1022         estimate D2E/DX2                !
 ! A16   A(6,7,48)             115.8383         estimate D2E/DX2                !
 ! A17   A(5,8,9)              113.3899         estimate D2E/DX2                !
 ! A18   A(5,8,13)             127.4593         estimate D2E/DX2                !
 ! A19   A(9,8,13)             119.0594         estimate D2E/DX2                !
 ! A20   A(8,9,10)             115.5066         estimate D2E/DX2                !
 ! A21   A(9,10,11)            126.4719         estimate D2E/DX2                !
 ! A22   A(9,10,49)            112.012          estimate D2E/DX2                !
 ! A23   A(11,10,49)           121.2014         estimate D2E/DX2                !
 ! A24   A(10,11,12)           115.452          estimate D2E/DX2                !
 ! A25   A(10,11,16)           123.0718         estimate D2E/DX2                !
 ! A26   A(12,11,16)           121.2986         estimate D2E/DX2                !
 ! A27   A(11,12,13)           120.728          estimate D2E/DX2                !
 ! A28   A(11,12,50)           118.4566         estimate D2E/DX2                !
 ! A29   A(13,12,50)           119.5575         estimate D2E/DX2                !
 ! A30   A(8,13,12)            122.409          estimate D2E/DX2                !
 ! A31   A(8,13,14)            113.7177         estimate D2E/DX2                !
 ! A32   A(12,13,14)           123.7201         estimate D2E/DX2                !
 ! A33   A(13,14,15)           117.9925         estimate D2E/DX2                !
 ! A34   A(14,15,51)           116.3021         estimate D2E/DX2                !
 ! A35   A(14,15,52)           109.9843         estimate D2E/DX2                !
 ! A36   A(14,15,53)           106.9465         estimate D2E/DX2                !
 ! A37   A(51,15,52)           109.5249         estimate D2E/DX2                !
 ! A38   A(51,15,53)           108.2736         estimate D2E/DX2                !
 ! A39   A(52,15,53)           105.1873         estimate D2E/DX2                !
 ! A40   A(11,16,17)           120.4411         estimate D2E/DX2                !
 ! A41   A(11,16,22)           123.4249         estimate D2E/DX2                !
 ! A42   A(17,16,22)           116.1032         estimate D2E/DX2                !
 ! A43   A(16,17,18)           118.9798         estimate D2E/DX2                !
 ! A44   A(16,17,54)           124.8006         estimate D2E/DX2                !
 ! A45   A(18,17,54)           116.2186         estimate D2E/DX2                !
 ! A46   A(17,18,19)           117.6963         estimate D2E/DX2                !
 ! A47   A(17,18,20)           116.4125         estimate D2E/DX2                !
 ! A48   A(19,18,20)           125.8147         estimate D2E/DX2                !
 ! A49   A(18,20,21)           124.8507         estimate D2E/DX2                !
 ! A50   A(18,20,23)           120.5953         estimate D2E/DX2                !
 ! A51   A(21,20,23)           114.1313         estimate D2E/DX2                !
 ! A52   A(20,21,22)           115.577          estimate D2E/DX2                !
 ! A53   A(16,22,21)           127.9617         estimate D2E/DX2                !
 ! A54   A(16,22,55)           115.5188         estimate D2E/DX2                !
 ! A55   A(21,22,55)           116.5178         estimate D2E/DX2                !
 ! A56   A(20,23,24)           121.6646         estimate D2E/DX2                !
 ! A57   A(20,23,28)           121.1726         estimate D2E/DX2                !
 ! A58   A(24,23,28)           117.1328         estimate D2E/DX2                !
 ! A59   A(23,24,25)           121.3749         estimate D2E/DX2                !
 ! A60   A(24,25,26)           125.7271         estimate D2E/DX2                !
 ! A61   A(24,25,56)           113.1861         estimate D2E/DX2                !
 ! A62   A(26,25,56)           121.081          estimate D2E/DX2                !
 ! A63   A(25,26,27)           113.943          estimate D2E/DX2                !
 ! A64   A(25,26,31)           120.7063         estimate D2E/DX2                !
 ! A65   A(27,26,31)           125.2139         estimate D2E/DX2                !
 ! A66   A(26,27,28)           125.0819         estimate D2E/DX2                !
 ! A67   A(26,27,57)           118.4236         estimate D2E/DX2                !
 ! A68   A(28,27,57)           116.4937         estimate D2E/DX2                !
 ! A69   A(23,28,27)           116.7111         estimate D2E/DX2                !
 ! A70   A(23,28,29)           112.2516         estimate D2E/DX2                !
 ! A71   A(27,28,29)           130.9844         estimate D2E/DX2                !
 ! A72   A(28,29,30)           113.4038         estimate D2E/DX2                !
 ! A73   A(29,30,58)           109.3458         estimate D2E/DX2                !
 ! A74   A(29,30,59)           114.572          estimate D2E/DX2                !
 ! A75   A(29,30,60)           112.3956         estimate D2E/DX2                !
 ! A76   A(58,30,59)           104.2499         estimate D2E/DX2                !
 ! A77   A(58,30,60)           106.3217         estimate D2E/DX2                !
 ! A78   A(59,30,60)           109.3284         estimate D2E/DX2                !
 ! A79   A(26,31,32)           121.9564         estimate D2E/DX2                !
 ! A80   A(26,31,37)           121.5618         estimate D2E/DX2                !
 ! A81   A(32,31,37)           116.3843         estimate D2E/DX2                !
 ! A82   A(31,32,33)           122.1326         estimate D2E/DX2                !
 ! A83   A(31,32,61)           120.9605         estimate D2E/DX2                !
 ! A84   A(33,32,61)           116.8836         estimate D2E/DX2                !
 ! A85   A(32,33,34)           119.8425         estimate D2E/DX2                !
 ! A86   A(32,33,35)           114.0419         estimate D2E/DX2                !
 ! A87   A(34,33,35)           126.1156         estimate D2E/DX2                !
 ! A88   A(33,35,36)           123.8397         estimate D2E/DX2                !
 ! A89   A(33,35,38)           118.2552         estimate D2E/DX2                !
 ! A90   A(36,35,38)           117.7119         estimate D2E/DX2                !
 ! A91   A(35,36,37)           118.9452         estimate D2E/DX2                !
 ! A92   A(31,37,36)           124.5134         estimate D2E/DX2                !
 ! A93   A(31,37,62)           119.0665         estimate D2E/DX2                !
 ! A94   A(36,37,62)           116.4117         estimate D2E/DX2                !
 ! A95   A(35,38,39)           115.0284         estimate D2E/DX2                !
 ! A96   A(35,38,43)           127.3354         estimate D2E/DX2                !
 ! A97   A(39,38,43)           117.3128         estimate D2E/DX2                !
 ! A98   A(38,39,40)           120.3688         estimate D2E/DX2                !
 ! A99   A(39,40,41)           124.6658         estimate D2E/DX2                !
 ! A100  A(39,40,63)           114.9418         estimate D2E/DX2                !
 ! A101  A(41,40,63)           120.1545         estimate D2E/DX2                !
 ! A102  A(40,41,42)           114.5931         estimate D2E/DX2                !
 ! A103  A(40,41,64)           119.2542         estimate D2E/DX2                !
 ! A104  A(42,41,64)           126.1457         estimate D2E/DX2                !
 ! A105  A(41,42,43)           124.0728         estimate D2E/DX2                !
 ! A106  A(41,42,65)           117.8345         estimate D2E/DX2                !
 ! A107  A(43,42,65)           118.0785         estimate D2E/DX2                !
 ! A108  A(38,43,42)           118.6334         estimate D2E/DX2                !
 ! A109  A(38,43,44)           112.1422         estimate D2E/DX2                !
 ! A110  A(42,43,44)           129.0417         estimate D2E/DX2                !
 ! A111  A(43,44,45)           113.2609         estimate D2E/DX2                !
 ! A112  A(44,45,66)           112.5815         estimate D2E/DX2                !
 ! A113  A(44,45,67)           112.7817         estimate D2E/DX2                !
 ! A114  A(44,45,68)           103.5303         estimate D2E/DX2                !
 ! A115  A(66,45,67)           114.1447         estimate D2E/DX2                !
 ! A116  A(66,45,68)           108.4681         estimate D2E/DX2                !
 ! A117  A(67,45,68)           104.3101         estimate D2E/DX2                !
 ! D1    D(7,1,2,3)              9.5949         estimate D2E/DX2                !
 ! D2    D(7,1,2,47)          -177.5743         estimate D2E/DX2                !
 ! D3    D(46,1,2,3)           177.7372         estimate D2E/DX2                !
 ! D4    D(46,1,2,47)           -9.432          estimate D2E/DX2                !
 ! D5    D(2,1,7,6)             -8.8922         estimate D2E/DX2                !
 ! D6    D(2,1,7,48)          -178.8646         estimate D2E/DX2                !
 ! D7    D(46,1,7,6)          -176.6541         estimate D2E/DX2                !
 ! D8    D(46,1,7,48)           13.3735         estimate D2E/DX2                !
 ! D9    D(1,2,3,4)            176.2716         estimate D2E/DX2                !
 ! D10   D(1,2,3,5)             -8.4834         estimate D2E/DX2                !
 ! D11   D(47,2,3,4)             3.6733         estimate D2E/DX2                !
 ! D12   D(47,2,3,5)           178.9183         estimate D2E/DX2                !
 ! D13   D(2,3,5,6)              5.616          estimate D2E/DX2                !
 ! D14   D(2,3,5,8)           -175.3546         estimate D2E/DX2                !
 ! D15   D(4,3,5,6)           -179.1706         estimate D2E/DX2                !
 ! D16   D(4,3,5,8)             -0.1413         estimate D2E/DX2                !
 ! D17   D(3,5,6,7)             -3.8709         estimate D2E/DX2                !
 ! D18   D(8,5,6,7)            177.0902         estimate D2E/DX2                !
 ! D19   D(3,5,8,9)            113.8492         estimate D2E/DX2                !
 ! D20   D(3,5,8,13)           -69.6948         estimate D2E/DX2                !
 ! D21   D(6,5,8,9)            -67.093          estimate D2E/DX2                !
 ! D22   D(6,5,8,13)           109.363          estimate D2E/DX2                !
 ! D23   D(5,6,7,1)              5.9758         estimate D2E/DX2                !
 ! D24   D(5,6,7,48)           176.0588         estimate D2E/DX2                !
 ! D25   D(5,8,9,10)           175.7481         estimate D2E/DX2                !
 ! D26   D(13,8,9,10)           -1.034          estimate D2E/DX2                !
 ! D27   D(5,8,13,12)         -179.3485         estimate D2E/DX2                !
 ! D28   D(5,8,13,14)            4.998          estimate D2E/DX2                !
 ! D29   D(9,8,13,12)           -3.0699         estimate D2E/DX2                !
 ! D30   D(9,8,13,14)         -178.7234         estimate D2E/DX2                !
 ! D31   D(8,9,10,11)            1.0815         estimate D2E/DX2                !
 ! D32   D(8,9,10,49)          174.6507         estimate D2E/DX2                !
 ! D33   D(9,10,11,12)           2.6758         estimate D2E/DX2                !
 ! D34   D(9,10,11,16)         177.8827         estimate D2E/DX2                !
 ! D35   D(49,10,11,12)       -170.3515         estimate D2E/DX2                !
 ! D36   D(49,10,11,16)          4.8555         estimate D2E/DX2                !
 ! D37   D(10,11,12,13)         -6.7345         estimate D2E/DX2                !
 ! D38   D(10,11,12,50)       -173.8676         estimate D2E/DX2                !
 ! D39   D(16,11,12,13)        177.9659         estimate D2E/DX2                !
 ! D40   D(16,11,12,50)         10.8328         estimate D2E/DX2                !
 ! D41   D(10,11,16,17)       -133.8036         estimate D2E/DX2                !
 ! D42   D(10,11,16,22)         44.0982         estimate D2E/DX2                !
 ! D43   D(12,11,16,17)         41.1308         estimate D2E/DX2                !
 ! D44   D(12,11,16,22)       -140.9675         estimate D2E/DX2                !
 ! D45   D(11,12,13,8)           7.1722         estimate D2E/DX2                !
 ! D46   D(11,12,13,14)       -177.6131         estimate D2E/DX2                !
 ! D47   D(50,12,13,8)         174.1651         estimate D2E/DX2                !
 ! D48   D(50,12,13,14)        -10.6202         estimate D2E/DX2                !
 ! D49   D(8,13,14,15)         177.8226         estimate D2E/DX2                !
 ! D50   D(12,13,14,15)          2.2345         estimate D2E/DX2                !
 ! D51   D(13,14,15,51)         60.9096         estimate D2E/DX2                !
 ! D52   D(13,14,15,52)        -64.2916         estimate D2E/DX2                !
 ! D53   D(13,14,15,53)       -178.009          estimate D2E/DX2                !
 ! D54   D(11,16,17,18)        177.5834         estimate D2E/DX2                !
 ! D55   D(11,16,17,54)         -2.041          estimate D2E/DX2                !
 ! D56   D(22,16,17,18)         -0.4665         estimate D2E/DX2                !
 ! D57   D(22,16,17,54)        179.9091         estimate D2E/DX2                !
 ! D58   D(11,16,22,21)       -179.644          estimate D2E/DX2                !
 ! D59   D(11,16,22,55)         -0.1446         estimate D2E/DX2                !
 ! D60   D(17,16,22,21)         -1.6585         estimate D2E/DX2                !
 ! D61   D(17,16,22,55)        177.841          estimate D2E/DX2                !
 ! D62   D(16,17,18,19)        177.1584         estimate D2E/DX2                !
 ! D63   D(16,17,18,20)          0.1521         estimate D2E/DX2                !
 ! D64   D(54,17,18,19)         -3.1853         estimate D2E/DX2                !
 ! D65   D(54,17,18,20)        179.8084         estimate D2E/DX2                !
 ! D66   D(17,18,20,21)          2.1729         estimate D2E/DX2                !
 ! D67   D(17,18,20,23)        174.2624         estimate D2E/DX2                !
 ! D68   D(19,18,20,21)       -174.5581         estimate D2E/DX2                !
 ! D69   D(19,18,20,23)         -2.4685         estimate D2E/DX2                !
 ! D70   D(18,20,21,22)         -4.0031         estimate D2E/DX2                !
 ! D71   D(23,20,21,22)       -176.5446         estimate D2E/DX2                !
 ! D72   D(18,20,23,24)       -117.4675         estimate D2E/DX2                !
 ! D73   D(18,20,23,28)         60.4788         estimate D2E/DX2                !
 ! D74   D(21,20,23,24)         55.4236         estimate D2E/DX2                !
 ! D75   D(21,20,23,28)       -126.6301         estimate D2E/DX2                !
 ! D76   D(20,21,22,16)          3.7697         estimate D2E/DX2                !
 ! D77   D(20,21,22,55)       -175.7254         estimate D2E/DX2                !
 ! D78   D(20,23,24,25)        176.9533         estimate D2E/DX2                !
 ! D79   D(28,23,24,25)         -1.0723         estimate D2E/DX2                !
 ! D80   D(20,23,28,27)       -178.1237         estimate D2E/DX2                !
 ! D81   D(20,23,28,29)          4.2285         estimate D2E/DX2                !
 ! D82   D(24,23,28,27)         -0.0878         estimate D2E/DX2                !
 ! D83   D(24,23,28,29)       -177.7356         estimate D2E/DX2                !
 ! D84   D(23,24,25,26)          2.158          estimate D2E/DX2                !
 ! D85   D(23,24,25,56)       -178.7152         estimate D2E/DX2                !
 ! D86   D(24,25,26,27)         -1.8846         estimate D2E/DX2                !
 ! D87   D(24,25,26,31)       -177.849          estimate D2E/DX2                !
 ! D88   D(56,25,26,27)        179.0527         estimate D2E/DX2                !
 ! D89   D(56,25,26,31)          3.0882         estimate D2E/DX2                !
 ! D90   D(25,26,27,28)          0.6015         estimate D2E/DX2                !
 ! D91   D(25,26,27,57)       -179.7463         estimate D2E/DX2                !
 ! D92   D(31,26,27,28)        176.3542         estimate D2E/DX2                !
 ! D93   D(31,26,27,57)         -3.9936         estimate D2E/DX2                !
 ! D94   D(25,26,31,32)        -61.7348         estimate D2E/DX2                !
 ! D95   D(25,26,31,37)        121.9848         estimate D2E/DX2                !
 ! D96   D(27,26,31,32)        122.7805         estimate D2E/DX2                !
 ! D97   D(27,26,31,37)        -53.4999         estimate D2E/DX2                !
 ! D98   D(26,27,28,23)          0.2419         estimate D2E/DX2                !
 ! D99   D(26,27,28,29)        177.3576         estimate D2E/DX2                !
 ! D100  D(57,27,28,23)       -179.4163         estimate D2E/DX2                !
 ! D101  D(57,27,28,29)         -2.3007         estimate D2E/DX2                !
 ! D102  D(23,28,29,30)        175.9082         estimate D2E/DX2                !
 ! D103  D(27,28,29,30)         -1.308          estimate D2E/DX2                !
 ! D104  D(28,29,30,58)       -177.415          estimate D2E/DX2                !
 ! D105  D(28,29,30,59)         66.0083         estimate D2E/DX2                !
 ! D106  D(28,29,30,60)        -59.5867         estimate D2E/DX2                !
 ! D107  D(26,31,32,33)       -178.9094         estimate D2E/DX2                !
 ! D108  D(26,31,32,61)         -0.7189         estimate D2E/DX2                !
 ! D109  D(37,31,32,33)         -2.4471         estimate D2E/DX2                !
 ! D110  D(37,31,32,61)        175.7434         estimate D2E/DX2                !
 ! D111  D(26,31,37,36)        176.8077         estimate D2E/DX2                !
 ! D112  D(26,31,37,62)         -2.1063         estimate D2E/DX2                !
 ! D113  D(32,31,37,36)          0.3303         estimate D2E/DX2                !
 ! D114  D(32,31,37,62)       -178.5837         estimate D2E/DX2                !
 ! D115  D(31,32,33,34)       -178.8412         estimate D2E/DX2                !
 ! D116  D(31,32,33,35)          1.2597         estimate D2E/DX2                !
 ! D117  D(61,32,33,34)          2.8984         estimate D2E/DX2                !
 ! D118  D(61,32,33,35)       -177.0007         estimate D2E/DX2                !
 ! D119  D(32,33,35,36)          2.2293         estimate D2E/DX2                !
 ! D120  D(32,33,35,38)        177.0529         estimate D2E/DX2                !
 ! D121  D(34,33,35,36)       -177.6624         estimate D2E/DX2                !
 ! D122  D(34,33,35,38)         -2.8388         estimate D2E/DX2                !
 ! D123  D(33,35,36,37)         -4.3245         estimate D2E/DX2                !
 ! D124  D(38,35,36,37)       -179.1742         estimate D2E/DX2                !
 ! D125  D(33,35,38,39)        110.8596         estimate D2E/DX2                !
 ! D126  D(33,35,38,43)        -62.3806         estimate D2E/DX2                !
 ! D127  D(36,35,38,39)        -73.9962         estimate D2E/DX2                !
 ! D128  D(36,35,38,43)        112.7636         estimate D2E/DX2                !
 ! D129  D(35,36,37,31)          2.9943         estimate D2E/DX2                !
 ! D130  D(35,36,37,62)       -178.0656         estimate D2E/DX2                !
 ! D131  D(35,38,39,40)       -175.809          estimate D2E/DX2                !
 ! D132  D(43,38,39,40)         -1.8554         estimate D2E/DX2                !
 ! D133  D(35,38,43,42)        179.249          estimate D2E/DX2                !
 ! D134  D(35,38,43,44)         -5.2218         estimate D2E/DX2                !
 ! D135  D(39,38,43,42)          6.1432         estimate D2E/DX2                !
 ! D136  D(39,38,43,44)       -178.3275         estimate D2E/DX2                !
 ! D137  D(38,39,40,41)         -2.611          estimate D2E/DX2                !
 ! D138  D(38,39,40,63)       -176.9896         estimate D2E/DX2                !
 ! D139  D(39,40,41,42)          2.5566         estimate D2E/DX2                !
 ! D140  D(39,40,41,64)       -176.5467         estimate D2E/DX2                !
 ! D141  D(63,40,41,42)        176.6608         estimate D2E/DX2                !
 ! D142  D(63,40,41,64)         -2.4425         estimate D2E/DX2                !
 ! D143  D(40,41,42,43)          2.1964         estimate D2E/DX2                !
 ! D144  D(40,41,42,65)       -179.2057         estimate D2E/DX2                !
 ! D145  D(64,41,42,43)       -178.7724         estimate D2E/DX2                !
 ! D146  D(64,41,42,65)         -0.1745         estimate D2E/DX2                !
 ! D147  D(41,42,43,38)         -6.5019         estimate D2E/DX2                !
 ! D148  D(41,42,43,44)        178.8321         estimate D2E/DX2                !
 ! D149  D(65,42,43,38)        174.9034         estimate D2E/DX2                !
 ! D150  D(65,42,43,44)          0.2374         estimate D2E/DX2                !
 ! D151  D(38,43,44,45)       -174.2194         estimate D2E/DX2                !
 ! D152  D(42,43,44,45)          0.7269         estimate D2E/DX2                !
 ! D153  D(43,44,45,66)        -64.7704         estimate D2E/DX2                !
 ! D154  D(43,44,45,67)         66.1609         estimate D2E/DX2                !
 ! D155  D(43,44,45,68)        178.2966         estimate D2E/DX2                !
 --------------------------------------------------------------------------------
 Trust Radius=3.00D-01 FncErr=1.00D-07 GrdErr=1.00D-06 EigMax=2.50D+02 EigMin=1.00D-04
 Number of steps in this run=    355 maximum allowed number of steps=    408.
 GradGradGradGradGradGradGradGradGradGradGradGradGradGradGradGradGradGrad

 Leave Link  103 at Fri Jul 24 14:47:16 2020, MaxMem=  4026531840 cpu:               0.2 elap:               0.1
 (Enter /opt/ohpc/pub/libs/gaussian/g16-A.03/sandybridge/g16/l202.exe)
 Stoichiometry    C33H23F3N6O3
 Framework group  C1[X(C33H23F3N6O3)]
 Deg. of freedom   198
 Full point group                 C1      NOp   1
 Largest Abelian subgroup         C1      NOp   1
 Largest concise Abelian subgroup C1      NOp   1
                         Standard orientation:                         
 ---------------------------------------------------------------------
 Center     Atomic      Atomic             Coordinates (Angstroms)
 Number     Number       Type             X           Y           Z
 ---------------------------------------------------------------------
      1          6           0      -12.075889   -0.873662   -0.796639
      2          6           0      -11.558058   -0.463162    0.458669
      3          6           0      -10.205203   -0.202667    0.540809
      4          9           0       -9.686758    0.274922    1.734469
      5          6           0       -9.310202   -0.512432   -0.552521
      6          7           0       -9.754836   -0.948007   -1.696089
      7          6           0      -11.105744   -1.176211   -1.784881
      8          6           0       -7.917152   -0.322170   -0.393502
      9          7           0       -7.190231   -1.510436   -0.418488
     10          6           0       -5.777225   -1.365151   -0.357164
     11          6           0       -5.090247   -0.200249   -0.257751
     12          6           0       -5.888250    0.973263   -0.152380
     13          6           0       -7.220447    0.910291   -0.288874
     14          8           0       -8.084931    2.063069   -0.243785
     15          6           0       -7.507007    3.292978   -0.097480
     16          6           0       -3.631498   -0.139574   -0.154686
     17          6           0       -3.013825    0.695154    0.810111
     18          6           0       -1.566957    0.691039    0.920247
     19          9           0       -1.020890    1.511307    1.778243
     20          6           0       -0.885499   -0.145085    0.051967
     21          7           0       -1.477148   -0.923614   -0.917567
     22          6           0       -2.777362   -0.902175   -0.938803
     23          6           0        0.600545   -0.129493   -0.003867
     24          7           0        1.264084    0.223188   -1.125805
     25          6           0        2.519792    0.289122   -1.150519
     26          6           0        3.399989   -0.029001   -0.056618
     27          6           0        2.773869   -0.378789    1.049587
     28          6           0        1.418764   -0.459687    1.191972
     29          8           0        0.641472   -0.854257    2.265713
     30          6           0        1.402307   -1.263848    3.392438
     31          6           0        4.900979    0.137601   -0.196665
     32          6           0        5.613271   -0.555819   -1.104683
     33          6           0        7.014200   -0.420298   -1.223137
     34          9           0        7.645047   -1.084620   -2.117001
     35          6           0        7.580177    0.466508   -0.303348
     36          7           0        6.898184    1.089784    0.621187
     37          6           0        5.617821    0.952112    0.650841
     38          6           0        9.043349    0.628061   -0.300700
     39          7           0        9.507560    1.884200   -0.756260
     40          6           0       10.773361    2.108917   -0.873263
     41          6           0       11.789893    1.188524   -0.523968
     42          6           0       11.336332   -0.017267   -0.088430
     43          6           0       10.014430   -0.361156   -0.025181
     44          8           0        9.440655   -1.560038    0.378032
     45          6           0       10.431924   -2.566838    0.801630
     46          1           0      -13.080478   -1.113645   -0.895114
     47          1           0      -12.227565   -0.258035    1.257437
     48          1           0      -11.465714   -1.470115   -2.745779
     49          1           0       -5.270166   -2.327716   -0.286179
     50          1           0       -5.386993    1.950752   -0.172280
     51          1           0       -6.860309    3.580571   -0.835840
     52          1           0       -6.994964    3.359083    0.894455
     53          1           0       -8.320352    4.024048   -0.049640
     54          1           0       -3.512633    1.309409    1.452695
     55          1           0       -3.280448   -1.590864   -1.677139
     56          1           0        2.925478    0.616956   -2.143921
     57          1           0        3.362086   -0.627531    1.913162
     58          1           0        0.732161   -1.600822    4.174998
     59          1           0        2.000780   -0.444790    3.874660
     60          1           0        2.055115   -2.101497    3.168254
     61          1           0        5.107381   -1.307937   -1.797347
     62          1           0        5.075320    1.528305    1.435505
     63          1           0       11.024476    3.084830   -1.170848
     64          1           0       12.762709    1.470724   -0.600417
     65          1           0       12.124868   -0.812539    0.227462
     66          1           0       11.083233   -2.888178   -0.019980
     67          1           0       10.973329   -2.274505    1.719963
     68          1           0        9.822609   -3.409975    1.106715
 ---------------------------------------------------------------------
 Rotational constants (GHZ):           0.3094964           0.0151974           0.0151642
 Leave Link  202 at Fri Jul 24 14:47:16 2020, MaxMem=  4026531840 cpu:               0.3 elap:               0.1
 (Enter /opt/ohpc/pub/libs/gaussian/g16-A.03/sandybridge/g16/l301.exe)
 Standard basis: CC-pVDZ (5D, 7F)
 Ernie: Thresh=  0.10000D-02 Tol=  0.10000D-05 Strict=F.
 Ernie:  90 primitive shells out of 1105 were deleted.
 There are   790 symmetry adapted cartesian basis functions of A   symmetry.
 There are   745 symmetry adapted basis functions of A   symmetry.
   745 basis functions,  1646 primitive gaussians,   790 cartesian basis functions
   157 alpha electrons      157 beta electrons
       nuclear repulsion energy      4639.9007622923 Hartrees.
 IExCor=32609 DFT=T Ex+Corr=LC-wPBE ExCW=0 ScaHFX=  1.000000
 ScaDFX=  1.000000  0.000000  1.000000  1.000000 ScalE2=  1.000000  1.000000
 IRadAn=      5 IRanWt=     -1 IRanGd=            0 ICorTp=0 IEmpDi=  4
 HFx  wShort=  0.000000 wLong=  0.348800 cFull=  0.000000 cShort=  0.000000 cLong=  1.000000
 DFx  wShort=  0.000000 wLong=  0.348800 cFull=  0.000000 cShort=  0.000000 cLong=  1.000000
 NAtoms=   68 NActive=   68 NUniq=   68 SFac= 1.00D+00 NAtFMM=   60 NAOKFM=T Big=T
 Integral buffers will be    131072 words long.
 Raffenetti 2 integral format.
 Two-electron integral symmetry is turned on.
 Leave Link  301 at Fri Jul 24 14:47:16 2020, MaxMem=  4026531840 cpu:               0.5 elap:               0.1
 (Enter /opt/ohpc/pub/libs/gaussian/g16-A.03/sandybridge/g16/l302.exe)
 NPDir=0 NMtPBC=     1 NCelOv=     1 NCel=       1 NClECP=     1 NCelD=      1
         NCelK=      1 NCelE2=     1 NClLst=     1 CellRange=     0.0.
 One-electron integrals computed using PRISM.
 One-electron integral symmetry used in STVInt
 NBasis=   745 RedAO= T EigKep=  4.23D-04  NBF=   745
 NBsUse=   745 1.00D-06 EigRej= -1.00D+00 NBFU=   745
 Precomputing XC quadrature grid using
 IXCGrd= 4 IRadAn=           5 IRanWt=          -1 IRanGd=           0 AccXCQ= 0.00D+00.
 Generated NRdTot=       0 NPtTot=           0 NUsed=           0 NTot=          32
 NSgBfM=   663   643   654   662   663 MxSgAt=    68 MxSgA2=    68.
 Leave Link  302 at Fri Jul 24 14:47:18 2020, MaxMem=  4026531840 cpu:              15.1 elap:               1.9
 (Enter /opt/ohpc/pub/libs/gaussian/g16-A.03/sandybridge/g16/l303.exe)
 DipDrv:  MaxL=1.
 Leave Link  303 at Fri Jul 24 14:47:18 2020, MaxMem=  4026531840 cpu:               1.2 elap:               0.2
 (Enter /opt/ohpc/pub/libs/gaussian/g16-A.03/sandybridge/g16/l401.exe)
 ExpMin= 1.22D-01 ExpMax= 1.47D+04 ExpMxC= 5.03D+02 IAcc=3 IRadAn=         5 AccDes= 0.00D+00
 Harris functional with IExCor=32609 and IRadAn=       5 diagonalized for initial guess.
 HarFok:  IExCor=32609 AccDes= 0.00D+00 IRadAn=         5 IDoV= 1 UseB2=F ITyADJ=14
 ICtDFT=  3500011 ScaDFX=  1.000000  1.000000  1.000000  1.000000
 FoFCou: FMM=F IPFlag=           0 FMFlag=      100000 FMFlg1=        2001
         NFxFlg=           0 DoJE=T BraDBF=F KetDBF=T FulRan=T
         wScrn=  0.000000 ICntrl=       500 IOpCl=  0 I1Cent=   200000004 NGrid=           0
         NMat0=    1 NMatS0=      1 NMatT0=    0 NMatD0=    1 NMtDS0=    0 NMtDT0=    0
 Petite list used in FoFCou.
 Harris En= -2123.14793505169    
 JPrj=0 DoOrth=F DoCkMO=F.
 Initial guess <Sx>= 0.0000 <Sy>= 0.0000 <Sz>= 0.0000 <S**2>=-0.0000 S=-0.0000
 Leave Link  401 at Fri Jul 24 14:47:26 2020, MaxMem=  4026531840 cpu:              63.7 elap:               8.0
 (Enter /opt/ohpc/pub/libs/gaussian/g16-A.03/sandybridge/g16/l502.exe)
 Integral symmetry usage will be decided dynamically.
 UHF open shell SCF:
 Using DIIS extrapolation, IDIIS=  1040.
 NGot=  4026531840 LenX=  4025269216 LenY=  4024644326
 Requested convergence on RMS density matrix=1.00D-08 within 128 cycles.
 Requested convergence on MAX density matrix=1.00D-06.
 Requested convergence on             energy=1.00D-06.
 No special actions if energy rises.
 Fock matrices will be formed incrementally for  20 cycles.
 Integral accuracy reduced to 1.0D-05 until final iterations.

 Cycle   1  Pass 0  IDiag  1:
 FoFJK:  IHMeth= 1 ICntrl=       0 DoSepK=T KAlg= 0 I1Cent=           0 FoldK=F
 IRaf=         1 NMat=       1 IRICut=       1 DoRegI=T DoRafI=F ISym2E= 0 IDoP0=0 IntGTp=1.
 FoFCou: FMM=T IPFlag=           0 FMFlag=      100000 FMFlg1=        2001
         NFxFlg=           0 DoJE=T BraDBF=F KetDBF=F FulRan=T
         wScrn=  0.000000 ICntrl=       500 IOpCl=  0 I1Cent=           0 NGrid=           0
         NMat0=    1 NMatS0=      1 NMatT0=    0 NMatD0=    1 NMtDS0=    0 NMtDT0=    0
 Symmetry not used in FoFCou.
 FMM levels:  10  Number of levels for PrismC:   9
 E= -2122.92957725385    
 DIIS: error= 1.83D-02 at cycle   1 NSaved=   1.
 NSaved= 1 IEnMin= 1 EnMin= -2122.92957725385     IErMin= 1 ErrMin= 1.83D-02
 ErrMax= 1.83D-02  0.00D+00 EMaxC= 1.00D-01 BMatC= 1.97D+00 BMatP= 1.97D+00
 IDIUse=3 WtCom= 8.17D-01 WtEn= 1.83D-01
 Coeff-Com:  0.100D+01
 Coeff-En:   0.100D+01
 Coeff:      0.100D+01
 Gap=     0.324 Goal=   None    Shift=    0.000
 Gap=     0.324 Goal=   None    Shift=    0.000
 GapD=    0.324 DampG=1.000 DampE=0.500 DampFc=0.5000 IDamp=-1.
 Damping current iteration by 5.00D-01
 RMSDP=1.80D-03 MaxDP=7.74D-02              OVMax= 1.24D-01

 Cycle   2  Pass 0  IDiag  1:
 RMSU=  8.89D-04    CP:  9.89D-01
 E= -2123.20819578460     Delta-E=       -0.278618530751 Rises=F Damp=T
 DIIS: error= 4.78D-03 at cycle   2 NSaved=   2.
 NSaved= 2 IEnMin= 2 EnMin= -2123.20819578460     IErMin= 2 ErrMin= 4.78D-03
 ErrMax= 4.78D-03  0.00D+00 EMaxC= 1.00D-01 BMatC= 1.78D-01 BMatP= 1.97D+00
 IDIUse=3 WtCom= 9.52D-01 WtEn= 4.78D-02
 Coeff-Com: -0.166D+00 0.117D+01
 Coeff-En:   0.000D+00 0.100D+01
 Coeff:     -0.158D+00 0.116D+01
 Gap=     0.353 Goal=   None    Shift=    0.000
 Gap=     0.353 Goal=   None    Shift=    0.000
 RMSDP=7.54D-04 MaxDP=2.29D-02 DE=-2.79D-01 OVMax= 7.18D-02

 Cycle   3  Pass 0  IDiag  1:
 RMSU=  5.94D-04    CP:  9.79D-01  1.51D+00
 E= -2123.45227955604     Delta-E=       -0.244083771443 Rises=F Damp=F
 DIIS: error= 2.38D-03 at cycle   3 NSaved=   3.
 NSaved= 3 IEnMin= 3 EnMin= -2123.45227955604     IErMin= 3 ErrMin= 2.38D-03
 ErrMax= 2.38D-03  0.00D+00 EMaxC= 1.00D-01 BMatC= 7.25D-02 BMatP= 1.78D-01
 IDIUse=3 WtCom= 9.76D-01 WtEn= 2.38D-02
 Coeff-Com: -0.126D+00 0.499D+00 0.627D+00
 Coeff-En:   0.000D+00 0.000D+00 0.100D+01
 Coeff:     -0.123D+00 0.487D+00 0.636D+00
 Gap=     0.313 Goal=   None    Shift=    0.000
 Gap=     0.313 Goal=   None    Shift=    0.000
 RMSDP=2.18D-04 MaxDP=1.33D-02 DE=-2.44D-01 OVMax= 3.00D-02

 Cycle   4  Pass 0  IDiag  1:
 RMSU=  1.62D-04    CP:  9.80D-01  1.55D+00  7.62D-01
 E= -2123.46921171111     Delta-E=       -0.016932155072 Rises=F Damp=F
 DIIS: error= 8.05D-04 at cycle   4 NSaved=   4.
 NSaved= 4 IEnMin= 4 EnMin= -2123.46921171111     IErMin= 4 ErrMin= 8.05D-04
 ErrMax= 8.05D-04  0.00D+00 EMaxC= 1.00D-01 BMatC= 6.15D-03 BMatP= 7.25D-02
 IDIUse=3 WtCom= 9.92D-01 WtEn= 8.05D-03
 Coeff-Com: -0.230D-01 0.690D-01 0.247D+00 0.707D+00
 Coeff-En:   0.000D+00 0.000D+00 0.000D+00 0.100D+01
 Coeff:     -0.228D-01 0.684D-01 0.245D+00 0.709D+00
 Gap=     0.312 Goal=   None    Shift=    0.000
 Gap=     0.312 Goal=   None    Shift=    0.000
 RMSDP=6.81D-05 MaxDP=3.79D-03 DE=-1.69D-02 OVMax= 6.92D-03

 Cycle   5  Pass 0  IDiag  1:
 RMSU=  4.39D-05    CP:  9.79D-01  1.55D+00  8.39D-01  8.53D-01
 E= -2123.47072574111     Delta-E=       -0.001514029996 Rises=F Damp=F
 DIIS: error= 2.31D-04 at cycle   5 NSaved=   5.
 NSaved= 5 IEnMin= 5 EnMin= -2123.47072574111     IErMin= 5 ErrMin= 2.31D-04
 ErrMax= 2.31D-04  0.00D+00 EMaxC= 1.00D-01 BMatC= 6.09D-04 BMatP= 6.15D-03
 IDIUse=3 WtCom= 9.98D-01 WtEn= 2.31D-03
 Coeff-Com:  0.345D-02-0.177D-01 0.480D-01 0.288D+00 0.678D+00
 Coeff-En:   0.000D+00 0.000D+00 0.000D+00 0.000D+00 0.100D+01
 Coeff:      0.345D-02-0.176D-01 0.479D-01 0.287D+00 0.679D+00
 Gap=     0.313 Goal=   None    Shift=    0.000
 Gap=     0.313 Goal=   None    Shift=    0.000
 RMSDP=2.34D-05 MaxDP=9.27D-04 DE=-1.51D-03 OVMax= 3.25D-03

 Cycle   6  Pass 0  IDiag  1:
 RMSU=  1.94D-05    CP:  9.79D-01  1.55D+00  8.48D-01  9.21D-01  9.16D-01
 E= -2123.47089133814     Delta-E=       -0.000165597034 Rises=F Damp=F
 DIIS: error= 7.71D-05 at cycle   6 NSaved=   6.
 NSaved= 6 IEnMin= 6 EnMin= -2123.47089133814     IErMin= 6 ErrMin= 7.71D-05
 ErrMax= 7.71D-05  0.00D+00 EMaxC= 1.00D-01 BMatC= 7.34D-05 BMatP= 6.09D-04
 IDIUse=1 WtCom= 1.00D+00 WtEn= 0.00D+00
 Coeff-Com:  0.496D-02-0.170D-01-0.117D-01 0.151D-01 0.246D+00 0.763D+00
 Coeff:      0.496D-02-0.170D-01-0.117D-01 0.151D-01 0.246D+00 0.763D+00
 Gap=     0.313 Goal=   None    Shift=    0.000
 Gap=     0.313 Goal=   None    Shift=    0.000
 RMSDP=1.14D-05 MaxDP=3.94D-04 DE=-1.66D-04 OVMax= 1.55D-03

 Cycle   7  Pass 0  IDiag  1:
 RMSU=  8.55D-06    CP:  9.79D-01  1.56D+00  8.56D-01  9.35D-01  1.04D+00
                    CP:  1.02D+00
 E= -2123.47092256300     Delta-E=       -0.000031224858 Rises=F Damp=F
 DIIS: error= 4.62D-05 at cycle   7 NSaved=   7.
 NSaved= 7 IEnMin= 7 EnMin= -2123.47092256300     IErMin= 7 ErrMin= 4.62D-05
 ErrMax= 4.62D-05  0.00D+00 EMaxC= 1.00D-01 BMatC= 1.13D-05 BMatP= 7.34D-05
 IDIUse=1 WtCom= 1.00D+00 WtEn= 0.00D+00
 Coeff-Com:  0.132D-02-0.333D-02-0.899D-02-0.374D-01-0.254D-01 0.242D+00
 Coeff-Com:  0.832D+00
 Coeff:      0.132D-02-0.333D-02-0.899D-02-0.374D-01-0.254D-01 0.242D+00
 Coeff:      0.832D+00
 Gap=     0.313 Goal=   None    Shift=    0.000
 Gap=     0.313 Goal=   None    Shift=    0.000
 RMSDP=9.19D-06 MaxDP=2.78D-04 DE=-3.12D-05 OVMax= 1.01D-03

 Initial convergence to 1.0D-05 achieved.  Increase integral accuracy.
 Cycle   8  Pass 1  IDiag  1:
 E= -2123.47033472586     Delta-E=        0.000587837140 Rises=F Damp=F
 DIIS: error= 1.90D-04 at cycle   1 NSaved=   1.
 NSaved= 1 IEnMin= 1 EnMin= -2123.47033472586     IErMin= 1 ErrMin= 1.90D-04
 ErrMax= 1.90D-04  0.00D+00 EMaxC= 1.00D-01 BMatC= 1.38D-04 BMatP= 1.38D-04
 IDIUse=3 WtCom= 9.98D-01 WtEn= 1.90D-03
 Coeff-Com:  0.100D+01
 Coeff-En:   0.100D+01
 Coeff:      0.100D+01
 Gap=     0.313 Goal=   None    Shift=    0.000
 Gap=     0.313 Goal=   None    Shift=    0.000
 RMSDP=9.19D-06 MaxDP=2.78D-04 DE= 5.88D-04 OVMax= 5.71D-04

 Cycle   9  Pass 1  IDiag  1:
 RMSU=  1.35D-04    CP:  1.00D+00
 E= -2123.47036378700     Delta-E=       -0.000029061141 Rises=F Damp=F
 DIIS: error= 2.41D-05 at cycle   2 NSaved=   2.
 NSaved= 2 IEnMin= 2 EnMin= -2123.47036378700     IErMin= 2 ErrMin= 2.41D-05
 ErrMax= 2.41D-05  0.00D+00 EMaxC= 1.00D-01 BMatC= 2.20D-06 BMatP= 1.38D-04
 IDIUse=1 WtCom= 1.00D+00 WtEn= 0.00D+00
 Coeff-Com: -0.140D-01 0.101D+01
 Coeff:     -0.140D-01 0.101D+01
 Gap=     0.313 Goal=   None    Shift=    0.000
 Gap=     0.313 Goal=   None    Shift=    0.000
 RMSDP=8.70D-06 MaxDP=3.47D-04 DE=-2.91D-05 OVMax= 4.02D-04

 Cycle  10  Pass 1  IDiag  1:
 RMSU=  3.62D-06    CP:  1.00D+00  1.06D+00
 E= -2123.47036394998     Delta-E=       -0.000000162985 Rises=F Damp=F
 DIIS: error= 2.90D-05 at cycle   3 NSaved=   3.
 NSaved= 3 IEnMin= 3 EnMin= -2123.47036394998     IErMin= 2 ErrMin= 2.41D-05
 ErrMax= 2.90D-05  0.00D+00 EMaxC= 1.00D-01 BMatC= 3.09D-06 BMatP= 2.20D-06
 IDIUse=1 WtCom= 1.00D+00 WtEn= 0.00D+00
 Coeff-Com: -0.233D-01 0.564D+00 0.459D+00
 Coeff:     -0.233D-01 0.564D+00 0.459D+00
 Gap=     0.313 Goal=   None    Shift=    0.000
 Gap=     0.313 Goal=   None    Shift=    0.000
 RMSDP=1.23D-06 MaxDP=8.57D-05 DE=-1.63D-07 OVMax= 1.52D-04

 Cycle  11  Pass 1  IDiag  1:
 RMSU=  1.10D-06    CP:  1.00D+00  1.06D+00  8.72D-01
 E= -2123.47036468025     Delta-E=       -0.000000730264 Rises=F Damp=F
 DIIS: error= 3.72D-06 at cycle   4 NSaved=   4.
 NSaved= 4 IEnMin= 4 EnMin= -2123.47036468025     IErMin= 4 ErrMin= 3.72D-06
 ErrMax= 3.72D-06  0.00D+00 EMaxC= 1.00D-01 BMatC= 6.64D-08 BMatP= 2.20D-06
 IDIUse=1 WtCom= 1.00D+00 WtEn= 0.00D+00
 Coeff-Com: -0.262D-02 0.198D-01 0.414D-01 0.941D+00
 Coeff:     -0.262D-02 0.198D-01 0.414D-01 0.941D+00
 Gap=     0.313 Goal=   None    Shift=    0.000
 Gap=     0.313 Goal=   None    Shift=    0.000
 RMSDP=5.08D-07 MaxDP=1.83D-05 DE=-7.30D-07 OVMax= 1.08D-04

 Cycle  12  Pass 1  IDiag  1:
 RMSU=  3.39D-07    CP:  1.00D+00  1.06D+00  9.51D-01  1.14D+00
 E= -2123.47036474703     Delta-E=       -0.000000066783 Rises=F Damp=F
 DIIS: error= 2.33D-06 at cycle   5 NSaved=   5.
 NSaved= 5 IEnMin= 5 EnMin= -2123.47036474703     IErMin= 5 ErrMin= 2.33D-06
 ErrMax= 2.33D-06  0.00D+00 EMaxC= 1.00D-01 BMatC= 3.31D-08 BMatP= 6.64D-08
 IDIUse=1 WtCom= 1.00D+00 WtEn= 0.00D+00
 Coeff-Com:  0.779D-02-0.207D+00-0.173D+00 0.418D+00 0.955D+00
 Coeff:      0.779D-02-0.207D+00-0.173D+00 0.418D+00 0.955D+00
 Gap=     0.313 Goal=   None    Shift=    0.000
 Gap=     0.313 Goal=   None    Shift=    0.000
 RMSDP=4.05D-07 MaxDP=1.75D-05 DE=-6.68D-08 OVMax= 8.90D-05

 Cycle  13  Pass 1  IDiag  1:
 RMSU=  2.11D-07    CP:  1.00D+00  1.06D+00  9.91D-01  1.33D+00  1.62D+00
 E= -2123.47036478283     Delta-E=       -0.000000035795 Rises=F Damp=F
 DIIS: error= 7.57D-07 at cycle   6 NSaved=   6.
 NSaved= 6 IEnMin= 6 EnMin= -2123.47036478283     IErMin= 6 ErrMin= 7.57D-07
 ErrMax= 7.57D-07  0.00D+00 EMaxC= 1.00D-01 BMatC= 3.15D-09 BMatP= 3.31D-08
 IDIUse=1 WtCom= 1.00D+00 WtEn= 0.00D+00
 Coeff-Com:  0.170D-02-0.373D-01-0.400D-01-0.701D-01 0.171D+00 0.975D+00
 Coeff:      0.170D-02-0.373D-01-0.400D-01-0.701D-01 0.171D+00 0.975D+00
 Gap=     0.313 Goal=   None    Shift=    0.000
 Gap=     0.313 Goal=   None    Shift=    0.000
 RMSDP=1.44D-07 MaxDP=6.45D-06 DE=-3.58D-08 OVMax= 3.49D-05

 Cycle  14  Pass 1  IDiag  1:
 RMSU=  6.51D-08    CP:  1.00D+00  1.06D+00  9.87D-01  1.35D+00  1.93D+00
                    CP:  1.24D+00
 E= -2123.47036478248     Delta-E=        0.000000000348 Rises=F Damp=F
 DIIS: error= 4.22D-07 at cycle   7 NSaved=   7.
 NSaved= 7 IEnMin= 6 EnMin= -2123.47036478283     IErMin= 7 ErrMin= 4.22D-07
 ErrMax= 4.22D-07  0.00D+00 EMaxC= 1.00D-01 BMatC= 1.12D-09 BMatP= 3.15D-09
 IDIUse=1 WtCom= 1.00D+00 WtEn= 0.00D+00
 Coeff-Com: -0.505D-03 0.172D-01 0.986D-02-0.110D+00-0.979D-01 0.474D+00
 Coeff-Com:  0.707D+00
 Coeff:     -0.505D-03 0.172D-01 0.986D-02-0.110D+00-0.979D-01 0.474D+00
 Coeff:      0.707D+00
 Gap=     0.313 Goal=   None    Shift=    0.000
 Gap=     0.313 Goal=   None    Shift=    0.000
 RMSDP=5.79D-08 MaxDP=2.37D-06 DE= 3.48D-10 OVMax= 9.05D-06

 Cycle  15  Pass 1  IDiag  1:
 RMSU=  2.66D-08    CP:  1.00D+00  1.06D+00  9.84D-01  1.36D+00  2.03D+00
                    CP:  1.38D+00  1.04D+00
 E= -2123.47036478295     Delta-E=       -0.000000000469 Rises=F Damp=F
 DIIS: error= 9.91D-08 at cycle   8 NSaved=   8.
 NSaved= 8 IEnMin= 8 EnMin= -2123.47036478295     IErMin= 8 ErrMin= 9.91D-08
 ErrMax= 9.91D-08  0.00D+00 EMaxC= 1.00D-01 BMatC= 8.75D-11 BMatP= 1.12D-09
 IDIUse=1 WtCom= 1.00D+00 WtEn= 0.00D+00
 Coeff-Com: -0.316D-03 0.860D-02 0.723D-02-0.185D-01-0.508D-01 0.280D-01
 Coeff-Com:  0.220D+00 0.805D+00
 Coeff:     -0.316D-03 0.860D-02 0.723D-02-0.185D-01-0.508D-01 0.280D-01
 Coeff:      0.220D+00 0.805D+00
 Gap=     0.313 Goal=   None    Shift=    0.000
 Gap=     0.313 Goal=   None    Shift=    0.000
 RMSDP=1.53D-08 MaxDP=4.98D-07 DE=-4.69D-10 OVMax= 2.63D-06

 Cycle  16  Pass 1  IDiag  1:
 RMSU=  7.97D-09    CP:  1.00D+00  1.06D+00  9.83D-01  1.36D+00  2.04D+00
                    CP:  1.40D+00  1.18D+00  1.17D+00
 E= -2123.47036478308     Delta-E=       -0.000000000132 Rises=F Damp=F
 DIIS: error= 4.07D-08 at cycle   9 NSaved=   9.
 NSaved= 9 IEnMin= 9 EnMin= -2123.47036478308     IErMin= 9 ErrMin= 4.07D-08
 ErrMax= 4.07D-08  0.00D+00 EMaxC= 1.00D-01 BMatC= 1.37D-11 BMatP= 8.75D-11
 IDIUse=1 WtCom= 1.00D+00 WtEn= 0.00D+00
 Coeff-Com:  0.690D-04-0.277D-02-0.866D-03 0.268D-01 0.943D-02-0.117D+00
 Coeff-Com: -0.114D+00 0.137D+00 0.106D+01
 Coeff:      0.690D-04-0.277D-02-0.866D-03 0.268D-01 0.943D-02-0.117D+00
 Coeff:     -0.114D+00 0.137D+00 0.106D+01
 Gap=     0.313 Goal=   None    Shift=    0.000
 Gap=     0.313 Goal=   None    Shift=    0.000
 RMSDP=8.53D-09 MaxDP=3.35D-07 DE=-1.32D-10 OVMax= 1.82D-06

 SCF Done:  E(ULC-wPBE) =  -2123.47036478     A.U. after   16 cycles
            NFock= 16  Conv=0.85D-08     -V/T= 2.0061
 <Sx>= 0.0000 <Sy>= 0.0000 <Sz>= 0.0000 <S**2>=-0.0000 S=-0.0000
 <L.S>= 0.000000000000E+00
 KE= 2.110503172970D+03 PE=-1.423985259202D+04 EE= 5.365978291978D+03
 Annihilation of the first spin contaminant:
 S**2 before annihilation    -0.0000,   after    -0.0000
 Leave Link  502 at Fri Jul 24 14:55:19 2020, MaxMem=  4026531840 cpu:            3705.8 elap:             473.0
 (Enter /opt/ohpc/pub/libs/gaussian/g16-A.03/sandybridge/g16/l601.exe)
 Copying SCF densities to generalized density rwf, IOpCl= 1 IROHF=0.

 **********************************************************************

            Population analysis using the SCF density.

 **********************************************************************

 Orbital symmetries:
 Alpha Orbitals:
       Occupied  (A) (A) (A) (A) (A) (A) (A) (A) (A) (A) (A) (A)
                 (A) (A) (A) (A) (A) (A) (A) (A) (A) (A) (A) (A)
                 (A) (A) (A) (A) (A) (A) (A) (A) (A) (A) (A) (A)
                 (A) (A) (A) (A) (A) (A) (A) (A) (A) (A) (A) (A)
                 (A) (A) (A) (A) (A) (A) (A) (A) (A) (A) (A) (A)
                 (A) (A) (A) (A) (A) (A) (A) (A) (A) (A) (A) (A)
                 (A) (A) (A) (A) (A) (A) (A) (A) (A) (A) (A) (A)
                 (A) (A) (A) (A) (A) (A) (A) (A) (A) (A) (A) (A)
                 (A) (A) (A) (A) (A) (A) (A) (A) (A) (A) (A) (A)
                 (A) (A) (A) (A) (A) (A) (A) (A) (A) (A) (A) (A)
                 (A) (A) (A) (A) (A) (A) (A) (A) (A) (A) (A) (A)
                 (A) (A) (A) (A) (A) (A) (A) (A) (A) (A) (A) (A)
                 (A) (A) (A) (A) (A) (A) (A) (A) (A) (A) (A) (A)
                 (A)
       Virtual   (A) (A) (A) (A) (A) (A) (A) (A) (A) (A) (A) (A)
                 (A) (A) (A) (A) (A) (A) (A) (A) (A) (A) (A) (A)
                 (A) (A) (A) (A) (A) (A) (A) (A) (A) (A) (A) (A)
                 (A) (A) (A) (A) (A) (A) (A) (A) (A) (A) (A) (A)
                 (A) (A) (A) (A) (A) (A) (A) (A) (A) (A) (A) (A)
                 (A) (A) (A) (A) (A) (A) (A) (A) (A) (A) (A) (A)
                 (A) (A) (A) (A) (A) (A) (A) (A) (A) (A) (A) (A)
                 (A) (A) (A) (A) (A) (A) (A) (A) (A) (A) (A) (A)
                 (A) (A) (A) (A) (A) (A) (A) (A) (A) (A) (A) (A)
                 (A) (A) (A) (A) (A) (A) (A) (A) (A) (A) (A) (A)
                 (A) (A) (A) (A) (A) (A) (A) (A) (A) (A) (A) (A)
                 (A) (A) (A) (A) (A) (A) (A) (A) (A) (A) (A) (A)
                 (A) (A) (A) (A) (A) (A) (A) (A) (A) (A) (A) (A)
                 (A) (A) (A) (A) (A) (A) (A) (A) (A) (A) (A) (A)
                 (A) (A) (A) (A) (A) (A) (A) (A) (A) (A) (A) (A)
                 (A) (A) (A) (A) (A) (A) (A) (A) (A) (A) (A) (A)
                 (A) (A) (A) (A) (A) (A) (A) (A) (A) (A) (A) (A)
                 (A) (A) (A) (A) (A) (A) (A) (A) (A) (A) (A) (A)
                 (A) (A) (A) (A) (A) (A) (A) (A) (A) (A) (A) (A)
                 (A) (A) (A) (A) (A) (A) (A) (A) (A) (A) (A) (A)
                 (A) (A) (A) (A) (A) (A) (A) (A) (A) (A) (A) (A)
                 (A) (A) (A) (A) (A) (A) (A) (A) (A) (A) (A) (A)
                 (A) (A) (A) (A) (A) (A) (A) (A) (A) (A) (A) (A)
                 (A) (A) (A) (A) (A) (A) (A) (A) (A) (A) (A) (A)
                 (A) (A) (A) (A) (A) (A) (A) (A) (A) (A) (A) (A)
                 (A) (A) (A) (A) (A) (A) (A) (A) (A) (A) (A) (A)
                 (A) (A) (A) (A) (A) (A) (A) (A) (A) (A) (A) (A)
                 (A) (A) (A) (A) (A) (A) (A) (A) (A) (A) (A) (A)
                 (A) (A) (A) (A) (A) (A) (A) (A) (A) (A) (A) (A)
                 (A) (A) (A) (A) (A) (A) (A) (A) (A) (A) (A) (A)
                 (A) (A) (A) (A) (A) (A) (A) (A) (A) (A) (A) (A)
                 (A) (A) (A) (A) (A) (A) (A) (A) (A) (A) (A) (A)
                 (A) (A) (A) (A) (A) (A) (A) (A) (A) (A) (A) (A)
                 (A) (A) (A) (A) (A) (A) (A) (A) (A) (A) (A) (A)
                 (A) (A) (A) (A) (A) (A) (A) (A) (A) (A) (A) (A)
                 (A) (A) (A) (A) (A) (A) (A) (A) (A) (A) (A) (A)
                 (A) (A) (A) (A) (A) (A) (A) (A) (A) (A) (A) (A)
                 (A) (A) (A) (A) (A) (A) (A) (A) (A) (A) (A) (A)
                 (A) (A) (A) (A) (A) (A) (A) (A) (A) (A) (A) (A)
                 (A) (A) (A) (A) (A) (A) (A) (A) (A) (A) (A) (A)
                 (A) (A) (A) (A) (A) (A) (A) (A) (A) (A) (A) (A)
                 (A) (A) (A) (A) (A) (A) (A) (A) (A) (A) (A) (A)
                 (A) (A) (A) (A) (A) (A) (A) (A) (A) (A) (A) (A)
                 (A) (A) (A) (A) (A) (A) (A) (A) (A) (A) (A) (A)
                 (A) (A) (A) (A) (A) (A) (A) (A) (A) (A) (A) (A)
                 (A) (A) (A) (A) (A) (A) (A) (A) (A) (A) (A) (A)
                 (A) (A) (A) (A) (A) (A) (A) (A) (A) (A) (A) (A)
                 (A) (A) (A) (A) (A) (A) (A) (A) (A) (A) (A) (A)
                 (A) (A) (A) (A) (A) (A) (A) (A) (A) (A) (A) (A)
 Beta  Orbitals:
       Occupied  (A) (A) (A) (A) (A) (A) (A) (A) (A) (A) (A) (A)
                 (A) (A) (A) (A) (A) (A) (A) (A) (A) (A) (A) (A)
                 (A) (A) (A) (A) (A) (A) (A) (A) (A) (A) (A) (A)
                 (A) (A) (A) (A) (A) (A) (A) (A) (A) (A) (A) (A)
                 (A) (A) (A) (A) (A) (A) (A) (A) (A) (A) (A) (A)
                 (A) (A) (A) (A) (A) (A) (A) (A) (A) (A) (A) (A)
                 (A) (A) (A) (A) (A) (A) (A) (A) (A) (A) (A) (A)
                 (A) (A) (A) (A) (A) (A) (A) (A) (A) (A) (A) (A)
                 (A) (A) (A) (A) (A) (A) (A) (A) (A) (A) (A) (A)
                 (A) (A) (A) (A) (A) (A) (A) (A) (A) (A) (A) (A)
                 (A) (A) (A) (A) (A) (A) (A) (A) (A) (A) (A) (A)
                 (A) (A) (A) (A) (A) (A) (A) (A) (A) (A) (A) (A)
                 (A) (A) (A) (A) (A) (A) (A) (A) (A) (A) (A) (A)
                 (A)
       Virtual   (A) (A) (A) (A) (A) (A) (A) (A) (A) (A) (A) (A)
                 (A) (A) (A) (A) (A) (A) (A) (A) (A) (A) (A) (A)
                 (A) (A) (A) (A) (A) (A) (A) (A) (A) (A) (A) (A)
                 (A) (A) (A) (A) (A) (A) (A) (A) (A) (A) (A) (A)
                 (A) (A) (A) (A) (A) (A) (A) (A) (A) (A) (A) (A)
                 (A) (A) (A) (A) (A) (A) (A) (A) (A) (A) (A) (A)
                 (A) (A) (A) (A) (A) (A) (A) (A) (A) (A) (A) (A)
                 (A) (A) (A) (A) (A) (A) (A) (A) (A) (A) (A) (A)
                 (A) (A) (A) (A) (A) (A) (A) (A) (A) (A) (A) (A)
                 (A) (A) (A) (A) (A) (A) (A) (A) (A) (A) (A) (A)
                 (A) (A) (A) (A) (A) (A) (A) (A) (A) (A) (A) (A)
                 (A) (A) (A) (A) (A) (A) (A) (A) (A) (A) (A) (A)
                 (A) (A) (A) (A) (A) (A) (A) (A) (A) (A) (A) (A)
                 (A) (A) (A) (A) (A) (A) (A) (A) (A) (A) (A) (A)
                 (A) (A) (A) (A) (A) (A) (A) (A) (A) (A) (A) (A)
                 (A) (A) (A) (A) (A) (A) (A) (A) (A) (A) (A) (A)
                 (A) (A) (A) (A) (A) (A) (A) (A) (A) (A) (A) (A)
                 (A) (A) (A) (A) (A) (A) (A) (A) (A) (A) (A) (A)
                 (A) (A) (A) (A) (A) (A) (A) (A) (A) (A) (A) (A)
                 (A) (A) (A) (A) (A) (A) (A) (A) (A) (A) (A) (A)
                 (A) (A) (A) (A) (A) (A) (A) (A) (A) (A) (A) (A)
                 (A) (A) (A) (A) (A) (A) (A) (A) (A) (A) (A) (A)
                 (A) (A) (A) (A) (A) (A) (A) (A) (A) (A) (A) (A)
                 (A) (A) (A) (A) (A) (A) (A) (A) (A) (A) (A) (A)
                 (A) (A) (A) (A) (A) (A) (A) (A) (A) (A) (A) (A)
                 (A) (A) (A) (A) (A) (A) (A) (A) (A) (A) (A) (A)
                 (A) (A) (A) (A) (A) (A) (A) (A) (A) (A) (A) (A)
                 (A) (A) (A) (A) (A) (A) (A) (A) (A) (A) (A) (A)
                 (A) (A) (A) (A) (A) (A) (A) (A) (A) (A) (A) (A)
                 (A) (A) (A) (A) (A) (A) (A) (A) (A) (A) (A) (A)
                 (A) (A) (A) (A) (A) (A) (A) (A) (A) (A) (A) (A)
                 (A) (A) (A) (A) (A) (A) (A) (A) (A) (A) (A) (A)
                 (A) (A) (A) (A) (A) (A) (A) (A) (A) (A) (A) (A)
                 (A) (A) (A) (A) (A) (A) (A) (A) (A) (A) (A) (A)
                 (A) (A) (A) (A) (A) (A) (A) (A) (A) (A) (A) (A)
                 (A) (A) (A) (A) (A) (A) (A) (A) (A) (A) (A) (A)
                 (A) (A) (A) (A) (A) (A) (A) (A) (A) (A) (A) (A)
                 (A) (A) (A) (A) (A) (A) (A) (A) (A) (A) (A) (A)
                 (A) (A) (A) (A) (A) (A) (A) (A) (A) (A) (A) (A)
                 (A) (A) (A) (A) (A) (A) (A) (A) (A) (A) (A) (A)
                 (A) (A) (A) (A) (A) (A) (A) (A) (A) (A) (A) (A)
                 (A) (A) (A) (A) (A) (A) (A) (A) (A) (A) (A) (A)
                 (A) (A) (A) (A) (A) (A) (A) (A) (A) (A) (A) (A)
                 (A) (A) (A) (A) (A) (A) (A) (A) (A) (A) (A) (A)
                 (A) (A) (A) (A) (A) (A) (A) (A) (A) (A) (A) (A)
                 (A) (A) (A) (A) (A) (A) (A) (A) (A) (A) (A) (A)
                 (A) (A) (A) (A) (A) (A) (A) (A) (A) (A) (A) (A)
                 (A) (A) (A) (A) (A) (A) (A) (A) (A) (A) (A) (A)
                 (A) (A) (A) (A) (A) (A) (A) (A) (A) (A) (A) (A)
 The electronic state is 1-A.
 Alpha  occ. eigenvalues --  -24.50068 -24.49888 -24.47525 -19.00524 -18.99729
 Alpha  occ. eigenvalues --  -18.98948 -14.20782 -14.20100 -14.20064 -14.18808
 Alpha  occ. eigenvalues --  -14.18424 -14.18324 -10.19632 -10.19077 -10.18806
 Alpha  occ. eigenvalues --  -10.17153 -10.17059 -10.16287 -10.15514 -10.15303
 Alpha  occ. eigenvalues --  -10.14725 -10.14628 -10.14448 -10.14108 -10.13819
 Alpha  occ. eigenvalues --  -10.13601 -10.13319 -10.13250 -10.13186 -10.12962
 Alpha  occ. eigenvalues --  -10.12804 -10.12597 -10.12453 -10.12434 -10.12216
 Alpha  occ. eigenvalues --  -10.12146 -10.11931 -10.11905 -10.11785 -10.11709
 Alpha  occ. eigenvalues --  -10.11704 -10.11627 -10.11262 -10.10704 -10.09970
 Alpha  occ. eigenvalues --   -1.36587  -1.35414  -1.30547  -1.18786  -1.17645
 Alpha  occ. eigenvalues --   -1.16938  -1.09286  -1.08481  -1.08291  -1.06935
 Alpha  occ. eigenvalues --   -1.05365  -1.04708  -0.97234  -0.96827  -0.93990
 Alpha  occ. eigenvalues --   -0.93286  -0.92976  -0.92452  -0.92294  -0.92004
 Alpha  occ. eigenvalues --   -0.91414  -0.88785  -0.87555  -0.86166  -0.83410
 Alpha  occ. eigenvalues --   -0.83122  -0.82677  -0.81053  -0.79220  -0.77556
 Alpha  occ. eigenvalues --   -0.77090  -0.76528  -0.76005  -0.74399  -0.73750
 Alpha  occ. eigenvalues --   -0.73039  -0.72798  -0.72456  -0.72145  -0.68278
 Alpha  occ. eigenvalues --   -0.67846  -0.66808  -0.65762  -0.65668  -0.65270
 Alpha  occ. eigenvalues --   -0.64889  -0.64406  -0.63435  -0.63145  -0.62992
 Alpha  occ. eigenvalues --   -0.62647  -0.62304  -0.62195  -0.61631  -0.60434
 Alpha  occ. eigenvalues --   -0.60023  -0.59577  -0.59221  -0.59099  -0.58960
 Alpha  occ. eigenvalues --   -0.58523  -0.58042  -0.57068  -0.56704  -0.55849
 Alpha  occ. eigenvalues --   -0.54970  -0.54835  -0.54709  -0.54242  -0.53775
 Alpha  occ. eigenvalues --   -0.53442  -0.52992  -0.52685  -0.52439  -0.52298
 Alpha  occ. eigenvalues --   -0.51867  -0.51796  -0.51576  -0.51093  -0.50920
 Alpha  occ. eigenvalues --   -0.50624  -0.50373  -0.50073  -0.49338  -0.48742
 Alpha  occ. eigenvalues --   -0.47802  -0.47576  -0.47196  -0.45901  -0.45677
 Alpha  occ. eigenvalues --   -0.45345  -0.45219  -0.44451  -0.43628  -0.41657
 Alpha  occ. eigenvalues --   -0.40917  -0.39780  -0.38878  -0.38433  -0.37900
 Alpha  occ. eigenvalues --   -0.37766  -0.37158  -0.37062  -0.36613  -0.35884
 Alpha  occ. eigenvalues --   -0.35271  -0.35115  -0.34831  -0.34262  -0.33204
 Alpha  occ. eigenvalues --   -0.32490  -0.31023
 Alpha virt. eigenvalues --    0.00314   0.02614   0.03799   0.04536   0.04936
 Alpha virt. eigenvalues --    0.05763   0.05880   0.06253   0.07885   0.08120
 Alpha virt. eigenvalues --    0.08543   0.09900   0.14164   0.14788   0.14812
 Alpha virt. eigenvalues --    0.15774   0.16767   0.17279   0.18066   0.18403
 Alpha virt. eigenvalues --    0.18601   0.18839   0.18954   0.19418   0.20189
 Alpha virt. eigenvalues --    0.20559   0.20877   0.20940   0.21173   0.21257
 Alpha virt. eigenvalues --    0.21345   0.21596   0.21951   0.22112   0.22407
 Alpha virt. eigenvalues --    0.22536   0.22870   0.23092   0.23280   0.23808
 Alpha virt. eigenvalues --    0.23904   0.24288   0.24623   0.25728   0.26118
 Alpha virt. eigenvalues --    0.26190   0.27004   0.29922   0.30699   0.31035
 Alpha virt. eigenvalues --    0.31619   0.32375   0.33258   0.33764   0.34158
 Alpha virt. eigenvalues --    0.34541   0.34812   0.35387   0.35582   0.36222
 Alpha virt. eigenvalues --    0.36751   0.37277   0.38790   0.39078   0.39927
[...]
     7 C(13)  Bbb    -0.0000    -0.000    -0.000    -0.000  0.9061 -0.3683  0.2081
              Bcc     0.0000     0.000     0.000     0.000  0.2009  0.8076  0.5545
 
              Baa    -0.0000    -0.000    -0.000    -0.000 -0.5568 -0.5144  0.6522
     8 C(13)  Bbb     0.0000     0.000     0.000     0.000  0.7397  0.0501  0.6710
              Bcc     0.0000     0.000     0.000     0.000 -0.3779  0.8561  0.3526
 
              Baa    -0.0000    -0.000    -0.000    -0.000  0.8281  0.1926 -0.5264
     9 N(14)  Bbb    -0.0000    -0.000    -0.000    -0.000  0.5294  0.0400  0.8474
              Bcc     0.0000     0.000     0.000     0.000 -0.1843  0.9805  0.0689
 
              Baa    -0.0000    -0.000    -0.000    -0.000  0.2860  0.3395  0.8961
    10 C(13)  Bbb    -0.0000    -0.000    -0.000    -0.000  0.9332 -0.3111 -0.1800
              Bcc     0.0000     0.000     0.000     0.000  0.2176  0.8877 -0.4058
 
              Baa    -0.0000    -0.000    -0.000    -0.000 -0.2285  0.7805 -0.5819
    11 C(13)  Bbb    -0.0000    -0.000    -0.000    -0.000  0.3549  0.6234  0.6968
              Bcc     0.0000     0.000     0.000     0.000  0.9065 -0.0473 -0.4195
 
              Baa    -0.0000    -0.000    -0.000    -0.000 -0.2122  0.8929 -0.3970
    12 C(13)  Bbb    -0.0000    -0.000    -0.000    -0.000  0.9766  0.2085 -0.0530
              Bcc     0.0000     0.000     0.000     0.000 -0.0354  0.3990  0.9163
 
              Baa    -0.0000    -0.000    -0.000    -0.000  0.9476 -0.1819  0.2628
    13 C(13)  Bbb    -0.0000    -0.000    -0.000    -0.000 -0.3178 -0.6222  0.7154
              Bcc     0.0000     0.000     0.000     0.000 -0.0334  0.7614  0.6474
 
              Baa    -0.0000     0.000     0.000     0.000 -0.1825  0.9779 -0.1024
    14 O(17)  Bbb     0.0000    -0.000    -0.000    -0.000 -0.0290  0.0987  0.9947
              Bcc     0.0000    -0.000    -0.000    -0.000  0.9828  0.1845  0.0104
 
              Baa    -0.0000    -0.000    -0.000    -0.000  0.4157  0.9070  0.0682
    15 C(13)  Bbb    -0.0000    -0.000    -0.000    -0.000  0.8661 -0.4176  0.2746
              Bcc     0.0000     0.000     0.000     0.000 -0.2776  0.0551  0.9591
 
              Baa    -0.0000    -0.000    -0.000    -0.000  0.8586  0.3874  0.3357
    16 C(13)  Bbb     0.0000     0.000     0.000     0.000 -0.4654  0.8636  0.1938
              Bcc     0.0000     0.000     0.000     0.000 -0.2148 -0.3226  0.9218
 
              Baa    -0.0000    -0.000    -0.000    -0.000  0.4443  0.8959  0.0036
    17 C(13)  Bbb     0.0000     0.000     0.000     0.000 -0.5233  0.2562  0.8127
              Bcc     0.0000     0.000     0.000     0.000  0.7272 -0.3630  0.5826
 
              Baa    -0.0000    -0.000    -0.000    -0.000  0.9927 -0.1203  0.0078
    18 C(13)  Bbb    -0.0000    -0.000    -0.000    -0.000  0.1179  0.9822  0.1465
              Bcc     0.0000     0.000     0.000     0.000 -0.0253 -0.1445  0.9892
 
              Baa    -0.0000    -0.000    -0.000    -0.000  0.3945 -0.2569  0.8823
    19 F(19)  Bbb    -0.0000    -0.000    -0.000    -0.000  0.8032 -0.3700 -0.4668
              Bcc     0.0000     0.000     0.000     0.000  0.4464  0.8928  0.0604
 
              Baa    -0.0000    -0.000    -0.000    -0.000  0.8662 -0.4964 -0.0583
    20 C(13)  Bbb     0.0000     0.000     0.000     0.000 -0.0798 -0.2526  0.9643
              Bcc     0.0000     0.000     0.000     0.000  0.4934  0.8306  0.2584
 
              Baa    -0.0000    -0.000    -0.000    -0.000 -0.0922  0.9352  0.3420
    21 N(14)  Bbb     0.0000     0.000     0.000     0.000 -0.0913 -0.3500  0.9323
              Bcc     0.0000     0.000     0.000     0.000  0.9915  0.0548  0.1177
 
              Baa    -0.0000    -0.000    -0.000    -0.000  0.5687 -0.2236  0.7916
    22 C(13)  Bbb    -0.0000    -0.000    -0.000    -0.000  0.7769 -0.1701 -0.6062
              Bcc     0.0000     0.000     0.000     0.000  0.2702  0.9597  0.0770
 
              Baa    -0.0000    -0.000    -0.000    -0.000 -0.0700 -0.6826  0.7274
    23 C(13)  Bbb    -0.0000    -0.000    -0.000    -0.000 -0.1353  0.7289  0.6711
              Bcc     0.0000     0.000     0.000     0.000  0.9883  0.0515  0.1433
 
              Baa    -0.0000    -0.000    -0.000    -0.000  0.1209  0.0536  0.9912
    24 N(14)  Bbb     0.0000     0.000     0.000     0.000  0.2237  0.9714 -0.0798
              Bcc     0.0000     0.000     0.000     0.000  0.9671 -0.2314 -0.1055
 
              Baa    -0.0000    -0.000    -0.000    -0.000  0.4140  0.0801  0.9068
    25 C(13)  Bbb     0.0000     0.000     0.000     0.000  0.7384  0.5530 -0.3860
              Bcc     0.0000     0.000     0.000     0.000 -0.5324  0.8293  0.1697
 
              Baa    -0.0000    -0.000    -0.000    -0.000 -0.6684  0.2989  0.6811
    26 C(13)  Bbb     0.0000     0.000     0.000     0.000  0.7430  0.3108  0.5928
              Bcc     0.0000     0.000     0.000     0.000 -0.0345  0.9023 -0.4298
 
              Baa    -0.0000    -0.000    -0.000    -0.000  0.8661  0.1758  0.4679
    27 C(13)  Bbb     0.0000     0.000     0.000     0.000 -0.4754  0.0008  0.8797
              Bcc     0.0000     0.000     0.000     0.000 -0.1542  0.9844 -0.0843
 
              Baa    -0.0000    -0.000    -0.000    -0.000  0.9503 -0.0844 -0.2997
    28 C(13)  Bbb    -0.0000    -0.000    -0.000    -0.000  0.0307  0.9833 -0.1793
              Bcc     0.0000     0.000     0.000     0.000  0.3099  0.1612  0.9370
 
              Baa    -0.0000     0.000     0.000     0.000 -0.0554 -0.1014  0.9933
    29 O(17)  Bbb     0.0000    -0.000    -0.000    -0.000  0.1094  0.9882  0.1070
              Bcc     0.0000    -0.000    -0.000    -0.000  0.9925 -0.1146  0.0436
 
              Baa    -0.0000    -0.000    -0.000    -0.000 -0.3731  0.0924  0.9232
    30 C(13)  Bbb     0.0000     0.000     0.000     0.000  0.9164 -0.1189  0.3823
              Bcc     0.0000     0.000     0.000     0.000  0.1450  0.9886 -0.0403
 
              Baa    -0.0000    -0.000    -0.000    -0.000  0.9837 -0.0706 -0.1652
    31 C(13)  Bbb     0.0000     0.000     0.000     0.000  0.1640  0.7288  0.6648
              Bcc     0.0000     0.000     0.000     0.000  0.0734 -0.6811  0.7285
 
              Baa    -0.0000    -0.000    -0.000    -0.000 -0.4297 -0.1782  0.8852
    32 C(13)  Bbb     0.0000     0.000     0.000     0.000  0.7607 -0.5996  0.2485
              Bcc     0.0000     0.000     0.000     0.000  0.4865  0.7802  0.3933
 
              Baa    -0.0000    -0.000    -0.000    -0.000 -0.0800  0.8309  0.5506
    33 C(13)  Bbb     0.0000     0.000     0.000     0.000 -0.0156 -0.5534  0.8328
              Bcc     0.0000     0.000     0.000     0.000  0.9967  0.0581  0.0572
 
              Baa    -0.0000    -0.000    -0.000    -0.000 -0.1897  0.8253  0.5318
    34 F(19)  Bbb    -0.0000    -0.000    -0.000    -0.000  0.3389 -0.4534  0.8244
              Bcc     0.0000     0.000     0.000     0.000  0.9215  0.3366 -0.1937
 
              Baa    -0.0000    -0.000    -0.000    -0.000  0.4346  0.8424  0.3187
    35 C(13)  Bbb     0.0000     0.000     0.000     0.000  0.0125 -0.3595  0.9331
              Bcc     0.0000     0.000     0.000     0.000  0.9005 -0.4015 -0.1668
 
              Baa    -0.0000    -0.000    -0.000    -0.000 -0.4380  0.7234  0.5337
    36 N(14)  Bbb     0.0000     0.000     0.000     0.000  0.3235 -0.4271  0.8444
              Bcc     0.0000     0.000     0.000     0.000  0.8387  0.5425 -0.0469
 
              Baa    -0.0000    -0.000    -0.000    -0.000  0.8494  0.3646  0.3816
    37 C(13)  Bbb    -0.0000    -0.000    -0.000    -0.000 -0.1543 -0.5200  0.8402
              Bcc     0.0000     0.000     0.000     0.000 -0.5047  0.7725  0.3854
 
              Baa    -0.0000    -0.000    -0.000    -0.000  0.9336  0.3581 -0.0131
    38 C(13)  Bbb    -0.0000    -0.000    -0.000    -0.000 -0.0706  0.2197  0.9730
              Bcc     0.0000     0.000     0.000     0.000 -0.3513  0.9075 -0.2304
 
              Baa    -0.0000    -0.000    -0.000    -0.000  0.3513  0.9360  0.0212
    39 N(14)  Bbb     0.0000     0.000     0.000     0.000 -0.1131  0.0199  0.9934
              Bcc     0.0000     0.000     0.000     0.000  0.9294 -0.3513  0.1129
 
              Baa    -0.0000    -0.000    -0.000    -0.000  0.2995  0.8263 -0.4770
    40 C(13)  Bbb     0.0000     0.000     0.000     0.000  0.9393 -0.3430 -0.0042
              Bcc     0.0000     0.000     0.000     0.000  0.1671  0.4468  0.8789
 
              Baa    -0.0000    -0.000    -0.000    -0.000  0.4357  0.3181  0.8420
    41 C(13)  Bbb    -0.0000    -0.000    -0.000    -0.000  0.8480 -0.4586 -0.2656
              Bcc     0.0000     0.000     0.000     0.000  0.3016  0.8298 -0.4696
 
              Baa    -0.0000    -0.000    -0.000    -0.000  0.0305  0.8698 -0.4925
    42 C(13)  Bbb     0.0000     0.000     0.000     0.000  0.9729  0.0872  0.2143
              Bcc     0.0000     0.000     0.000     0.000 -0.2293  0.4857  0.8435
 
              Baa    -0.0000    -0.000    -0.000    -0.000  0.5088 -0.3389  0.7914
    43 C(13)  Bbb    -0.0000    -0.000    -0.000    -0.000 -0.2763  0.8063  0.5230
              Bcc     0.0000     0.000     0.000     0.000  0.8153  0.4848 -0.3166
 
              Baa    -0.0000     0.000     0.000     0.000  0.1535  0.0498  0.9869
    44 O(17)  Bbb    -0.0000     0.000     0.000     0.000 -0.6805  0.7295  0.0690
              Bcc     0.0000    -0.000    -0.000    -0.000  0.7165  0.6822 -0.1458
 
              Baa    -0.0000    -0.000    -0.000    -0.000 -0.5370  0.7633  0.3592
    45 C(13)  Bbb    -0.0000    -0.000    -0.000    -0.000 -0.4252 -0.6127  0.6662
              Bcc     0.0000     0.000     0.000     0.000  0.7286  0.2050  0.6536
 
              Baa    -0.0000    -0.000    -0.000    -0.000  0.0155 -0.5910  0.8065
    46 H(1)   Bbb    -0.0000    -0.000    -0.000    -0.000  0.4061  0.7408  0.5350
              Bcc     0.0000     0.000     0.000     0.000  0.9137 -0.3192 -0.2515
 
              Baa    -0.0000    -0.000    -0.000    -0.000  0.4470 -0.5355  0.7165
    47 H(1)   Bbb     0.0000     0.000     0.000     0.000  0.8267  0.5533 -0.1023
              Bcc     0.0000     0.000     0.000     0.000 -0.3417  0.6381  0.6900
 
              Baa    -0.0000    -0.000    -0.000    -0.000  0.9412 -0.1422 -0.3065
    48 H(1)   Bbb    -0.0000    -0.000    -0.000    -0.000  0.2396 -0.3587  0.9022
              Bcc     0.0000     0.000     0.000     0.000  0.2383  0.9226  0.3035
 
              Baa    -0.0000    -0.000    -0.000    -0.000  0.5677  0.8150  0.1163
    49 H(1)   Bbb    -0.0000    -0.000    -0.000    -0.000  0.7039 -0.4073 -0.5819
              Bcc     0.0000     0.000     0.000     0.000  0.4268 -0.4122  0.8049
 
              Baa    -0.0000    -0.000    -0.000    -0.000  0.3891  0.7051 -0.5928
    50 H(1)   Bbb     0.0000     0.000     0.000     0.000  0.8428 -0.5323 -0.0799
              Bcc     0.0000     0.000     0.000     0.000  0.3719  0.4685  0.8014
 
              Baa    -0.0000    -0.000    -0.000    -0.000  0.2426 -0.1201  0.9627
    51 H(1)   Bbb     0.0000     0.000     0.000     0.000  0.2727  0.9607  0.0512
              Bcc     0.0000     0.000     0.000     0.000  0.9310 -0.2501 -0.2658
 
              Baa    -0.0000    -0.000    -0.000    -0.000 -0.4203  0.8416  0.3391
    52 H(1)   Bbb     0.0000     0.000     0.000     0.000  0.9074  0.3896  0.1579
              Bcc     0.0000     0.000     0.000     0.000 -0.0008 -0.3740  0.9274
 
              Baa    -0.0000    -0.000    -0.000    -0.000  0.4359  0.4684  0.7685
    53 H(1)   Bbb    -0.0000    -0.000    -0.000    -0.000  0.2978  0.7307 -0.6143
              Bcc     0.0000     0.000     0.000     0.000  0.8493 -0.4967 -0.1790
 
              Baa    -0.0000    -0.000    -0.000    -0.000 -0.4760 -0.1588  0.8650
    54 H(1)   Bbb    -0.0000    -0.000    -0.000    -0.000  0.8794 -0.1013  0.4653
              Bcc     0.0000     0.000     0.000     0.000  0.0137  0.9821  0.1879
 
              Baa    -0.0000    -0.000    -0.000    -0.000 -0.0008 -0.2129  0.9771
    55 H(1)   Bbb    -0.0000    -0.000    -0.000    -0.000  0.9936 -0.1109 -0.0234
              Bcc     0.0000     0.000     0.000     0.000  0.1133  0.9708  0.2116
 
              Baa    -0.0000    -0.000    -0.000    -0.000  0.6891  0.7232  0.0453
    56 H(1)   Bbb     0.0000     0.000     0.000     0.000  0.6473 -0.6424  0.4102
              Bcc     0.0000     0.000     0.000     0.000 -0.3258  0.2534  0.9109
 
              Baa    -0.0000    -0.000    -0.000    -0.000  0.4519  0.3777  0.8082
    57 H(1)   Bbb     0.0000     0.000     0.000     0.000  0.8594 -0.4271 -0.2810
              Bcc     0.0000     0.000     0.000     0.000  0.2391  0.8215 -0.5176
 
              Baa    -0.0000    -0.000    -0.000    -0.000  0.9958 -0.0913  0.0094
    58 H(1)   Bbb     0.0000     0.000     0.000     0.000  0.0846  0.8739 -0.4786
              Bcc     0.0000     0.000     0.000     0.000  0.0355  0.4774  0.8780
 
              Baa    -0.0000    -0.000    -0.000    -0.000 -0.6603 -0.1759  0.7301
    59 H(1)   Bbb    -0.0000    -0.000    -0.000    -0.000  0.7500 -0.2050  0.6288
              Bcc     0.0000     0.000     0.000     0.000  0.0390  0.9628  0.2673
 
              Baa    -0.0000    -0.000    -0.000    -0.000 -0.4177  0.8253  0.3801
    60 H(1)   Bbb     0.0000     0.000     0.000     0.000  0.8514  0.5016 -0.1533
              Bcc     0.0000     0.000     0.000     0.000  0.3172 -0.2596  0.9121
 
              Baa    -0.0000    -0.000    -0.000    -0.000  0.9581 -0.2856  0.0225
    61 H(1)   Bbb    -0.0000    -0.000    -0.000    -0.000 -0.1653 -0.4870  0.8576
              Bcc     0.0000     0.000     0.000     0.000  0.2339  0.8254  0.5138
 
              Baa    -0.0000    -0.000    -0.000    -0.000  0.8516 -0.4820 -0.2060
    62 H(1)   Bbb    -0.0000    -0.000    -0.000    -0.000  0.4554  0.8749 -0.1645
              Bcc     0.0000     0.000     0.000     0.000  0.2596  0.0463  0.9646
 
              Baa    -0.0000    -0.000    -0.000    -0.000  0.2786  0.8339 -0.4765
    63 H(1)   Bbb     0.0000     0.000     0.000     0.000  0.9595 -0.2201  0.1758
              Bcc     0.0000     0.000     0.000     0.000 -0.0417  0.5062  0.8614
 
              Baa    -0.0000    -0.000    -0.000    -0.000 -0.5098  0.8533  0.1090
    64 H(1)   Bbb    -0.0000    -0.000    -0.000    -0.000  0.2114  0.0015  0.9774
              Bcc     0.0000     0.000     0.000     0.000  0.8339  0.5214 -0.1812
 
              Baa    -0.0000    -0.000    -0.000    -0.000  0.2908  0.8397 -0.4586
    65 H(1)   Bbb     0.0000     0.000     0.000     0.000  0.8985 -0.4044 -0.1708
              Bcc     0.0000     0.000     0.000     0.000  0.3289  0.3624  0.8720
 
              Baa    -0.0000    -0.000    -0.000    -0.000 -0.5080  0.5182  0.6880
    66 H(1)   Bbb     0.0000     0.000     0.000     0.000  0.6653 -0.2712  0.6956
              Bcc     0.0000     0.000     0.000     0.000  0.5471  0.8111 -0.2070
 
              Baa    -0.0000    -0.000    -0.000    -0.000  0.0778  0.6565  0.7503
    67 H(1)   Bbb     0.0000     0.000     0.000     0.000 -0.4850  0.6824 -0.5469
              Bcc     0.0000     0.000     0.000     0.000  0.8710  0.3214 -0.3715
 
              Baa    -0.0000    -0.000    -0.000    -0.000  0.7938  0.2696 -0.5451
    68 H(1)   Bbb     0.0000     0.000     0.000     0.000  0.5462  0.0779  0.8340
              Bcc     0.0000     0.000     0.000     0.000 -0.2673  0.9598  0.0854
 

 ---------------------------------------------------------------------------------

 No NMR shielding tensors so no spin-rotation constants.
 Leave Link  601 at Fri Jul 24 16:57:43 2020, MaxMem=  4026531840 cpu:               8.2 elap:               1.1
 (Enter /opt/ohpc/pub/libs/gaussian/g16-A.03/sandybridge/g16/l9999.exe)

 Test job not archived.
 1\1\GINC-SKYLAKE054\FOpt\ULC-wPBE\CC-pVDZ\C33H23F3N6O3\RDU230\24-Jul-2
 020\0\\#P uLC-wPBE/cc-pVDZ iop(3/107=0348800000, 3/108=0348800000) opt
 \\H23 C33 N6 O3 F3\\0,1\C,-11.9203175654,-1.1922089056,-0.7890517538\C
 ,-11.4936444029,-0.4872878272,0.3293316912\C,-10.1381407694,-0.2455760
 717,0.4510589007\F,-9.6771424343,0.4110585544,1.5278022312\C,-9.242714
 5395,-0.6946550812,-0.5181653067\N,-9.662410217,-1.3774668548,-1.58289
 93302\C,-10.9668716533,-1.614803539,-1.7099109053\C,-7.7712687219,-0.4
 710480217,-0.3800631708\N,-7.0011226195,-1.5501790549,-0.3754360609\C,
 -5.6813411128,-1.395569584,-0.272878963\C,-5.0586163573,-0.153461079,-
 0.1728309936\C,-5.8696228672,0.9856532028,-0.1844418597\C,-7.245993805
 2,0.832721527,-0.2936022228\O,-8.1382762168,1.8469640069,-0.3536631854
 \C,-7.6500264844,3.1655948598,-0.227002011\C,-3.5848291664,-0.04250147
 69,-0.0580369923\C,-2.9860873106,0.8393938139,0.8413481564\C,-1.606972
 3655,0.8844845714,0.8922834629\F,-1.0089357022,1.7390927697,1.73690295
 33\C,-0.83261472,0.0676949682,0.071004378\N,-1.4060166875,-0.764486817
 5,-0.7974547351\C,-2.7334078713,-0.8143890891,-0.8555286801\C,0.659982
 7987,0.1236182538,0.0940308556\N,1.2646222775,0.4081675259,-1.05159081
 45\C,2.5958282527,0.4489206721,-1.079478281\C,3.3975918154,0.200444201
 4,0.0328208722\C,2.7606912412,-0.1067322044,1.239026977\C,1.3723360027
 ,-0.1492947018,1.2772237667\O,0.6346178191,-0.4661566804,2.3650925554\
 C,1.3141799677,-0.6927074718,3.582198424\C,4.8759158707,0.2617055059,-
 0.0573872046\C,5.5634415409,-0.2652733813,-1.1507793002\C,6.9408773901
 ,-0.1693884758,-1.1625330605\F,7.6223963227,-0.6520623761,-2.212685714
 4\C,7.6288039054,0.4292526245,-0.1085712537\N,6.9692867713,0.944484507
 8,0.9284055684\C,5.6426051467,0.8615495809,0.9465686919\C,9.1175351504
 ,0.5609928235,-0.1188088104\N,9.6050120804,1.7909058658,-0.0196245023\
 C,10.9302179517,1.9503296503,-0.0150316481\C,11.817446752,0.8889351779
 ,-0.1083080157\C,11.3160499166,-0.406587426,-0.2011723516\C,9.93608767
 75,-0.5817381024,-0.2012038603\O,9.3005396125,-1.7756355406,-0.2535459
 457\C,10.089381591,-2.9356033594,-0.4089483393\H,-12.9788819384,-1.414
 9797399,-0.9419569047\H,-12.1801192271,-0.1327732965,1.1015460124\H,-1
 1.2672739037,-2.176385342,-2.6015015502\H,-5.0874717431,-2.3157361605,
 -0.2478668022\H,-5.4126047409,1.9759760876,-0.138949317\H,-6.960660834
 6,3.424600697,-1.0496224285\H,-7.1394494733,3.3169716291,0.7401567137\
 H,-8.5282531474,3.8216843098,-0.2758316969\H,-3.5705240567,1.477833775
 9,1.5083521437\H,-3.156117847,-1.5015485535,-1.5971044853\H,3.04965122
 76,0.7153613258,-2.0404977711\H,3.35790425,-0.3373317105,2.1229029917\
 H,0.5381150974,-0.8962850798,4.3307755961\H,1.8932713657,0.1942057027,
 3.8931559996\H,1.9876848803,-1.5649702402,3.5152368882\H,5.0496414931,
 -0.7560199804,-1.9806674617\H,5.1473363811,1.3187386257,1.8111260479\H
 ,11.2928037855,2.9808112809,0.0641601513\H,12.8958542086,1.0655150201,
 -0.1050943527\H,11.9973681398,-1.2567425585,-0.2646684508\H,10.6830844
 366,-2.8998034792,-1.3391147879\H,10.7657055842,-3.0861961231,0.450911
 2387\H,9.3871797978,-3.7772527315,-0.463381986\\Version=EM64L-G16RevA.
 03\State=1-A\HF=-2123.6048881\S2=0.\S2-1=0.\S2A=0.\RMSD=5.640e-09\RMSF
 =3.560e-06\Dipole=0.2929925,-0.1145768,1.1993339\Quadrupole=37.8606708
 ,-16.7587246,-21.1019462,-38.8512853,-4.8036046,-1.8911918\PG=C01 [X(C
 33H23F3N6O3)]\\@


      HUMANKIND PERIODICALLY GOES THROUGH A SPEEDUP OF ITS AFFAIRS, 
      THEREBY EXPERIENCING THE RACE BETWEEN THE RENEWABLE VITALITY
      OF THE LIVING, AND THE BECKONING VITIATION OF DECADENCE.
      IN THIS PERIODIC RACE, ANY PAUSE BECOMES A LUXURY.
      ONLY THEN CAN ONE REFLECT THAT ALL IS PERMITTED;
      ALL IS POSSIBLE.

                              -- THE APOCRYPHA OF MUAD'DIB
                                 CHILDREN OF DUNE, BY FRANK HERBERT
 Job cpu time:       0 days 17 hours  0 minutes 14.8 seconds.
 Elapsed time:       0 days  2 hours 10 minutes 26.6 seconds.
 File lengths (MBytes):  RWF=    664 Int=      0 D2E=      0 Chk=     60 Scr=      8
 Normal termination of Gaussian 16 at Fri Jul 24 16:57:43 2020.
