 Entering Gaussian System, Link 0=g16
 Input=mols_65_5_15_c-cOC-COC_opt_0.gjf
 Output=mols_65_5_15_c-cOC-COC_opt_0.log
 Initial command:
 /opt/ohpc/pub/libs/gaussian/g16-A.03/sandybridge/g16/l1.exe "/mnt/gpfs2_4m/scratch/rdu230/ondemand/projects/dihedral_energies/7trial/wtuning/mols_65_5_15_c-cOC-COC/Gau-205392.inp" -scrdir="/mnt/gpfs2_4m/scratch/rdu230/ondemand/projects/dihedral_energies/7trial/wtuning/mols_65_5_15_c-cOC-COC/"
 Entering Link 1 = /opt/ohpc/pub/libs/gaussian/g16-A.03/sandybridge/g16/l1.exe PID=    205393.
  
 Copyright (c) 1988,1990,1992,1993,1995,1998,2003,2009,2016,
            Gaussian, Inc.  All Rights Reserved.
  
 This is part of the Gaussian(R) 16 program.  It is based on
 the Gaussian(R) 09 system (copyright 2009, Gaussian, Inc.),
 the Gaussian(R) 03 system (copyright 2003, Gaussian, Inc.),
 the Gaussian(R) 98 system (copyright 1998, Gaussian, Inc.),
 the Gaussian(R) 94 system (copyright 1995, Gaussian, Inc.),
 the Gaussian 92(TM) system (copyright 1992, Gaussian, Inc.),
 the Gaussian 90(TM) system (copyright 1990, Gaussian, Inc.),
 the Gaussian 88(TM) system (copyright 1988, Gaussian, Inc.),
 the Gaussian 86(TM) system (copyright 1986, Carnegie Mellon
 University), and the Gaussian 82(TM) system (copyright 1983,
 Carnegie Mellon University). Gaussian is a federally registered
 trademark of Gaussian, Inc.
  
 This software contains proprietary and confidential information,
 including trade secrets, belonging to Gaussian, Inc.
  
 This software is provided under written license and may be
 used, copied, transmitted, or stored only in accord with that
 written license.
  
 The following legend is applicable only to US Government
 contracts under FAR:
  
                    RESTRICTED RIGHTS LEGEND
  
 Use, reproduction and disclosure by the US Government is
 subject to restrictions as set forth in subparagraphs (a)
 and (c) of the Commercial Computer Software - Restricted
 Rights clause in FAR 52.227-19.
  
 Gaussian, Inc.
 340 Quinnipiac St., Bldg. 40, Wallingford CT 06492
  
  
 ---------------------------------------------------------------
 Warning -- This program may not be used in any manner that
 competes with the business of Gaussian, Inc. or will provide
 assistance to any competitor of Gaussian, Inc.  The licensee
 of this program is prohibited from giving any competitor of
 Gaussian, Inc. access to this program.  By using this program,
 the user acknowledges that Gaussian, Inc. is engaged in the
 business of creating and licensing software in the field of
 computational chemistry and represents and warrants to the
 licensee that it is not a competitor of Gaussian, Inc. and that
 it will not use this program in any manner prohibited above.
 ---------------------------------------------------------------
  

 Cite this work as:
 Gaussian 16, Revision A.03,
 M. J. Frisch, G. W. Trucks, H. B. Schlegel, G. E. Scuseria, 
 M. A. Robb, J. R. Cheeseman, G. Scalmani, V. Barone, 
 G. A. Petersson, H. Nakatsuji, X. Li, M. Caricato, A. V. Marenich, 
 J. Bloino, B. G. Janesko, R. Gomperts, B. Mennucci, H. P. Hratchian, 
 J. V. Ortiz, A. F. Izmaylov, J. L. Sonnenberg, D. Williams-Young, 
 F. Ding, F. Lipparini, F. Egidi, J. Goings, B. Peng, A. Petrone, 
 T. Henderson, D. Ranasinghe, V. G. Zakrzewski, J. Gao, N. Rega, 
 G. Zheng, W. Liang, M. Hada, M. Ehara, K. Toyota, R. Fukuda, 
 J. Hasegawa, M. Ishida, T. Nakajima, Y. Honda, O. Kitao, H. Nakai, 
 T. Vreven, K. Throssell, J. A. Montgomery, Jr., J. E. Peralta, 
 F. Ogliaro, M. J. Bearpark, J. J. Heyd, E. N. Brothers, K. N. Kudin, 
 V. N. Staroverov, T. A. Keith, R. Kobayashi, J. Normand, 
 K. Raghavachari, A. P. Rendell, J. C. Burant, S. S. Iyengar, 
 J. Tomasi, M. Cossi, J. M. Millam, M. Klene, C. Adamo, R. Cammi, 
 J. W. Ochterski, R. L. Martin, K. Morokuma, O. Farkas, 
 J. B. Foresman, and D. J. Fox, Gaussian, Inc., Wallingford CT, 2016.
 
 ******************************************
 Gaussian 16:  EM64L-G16RevA.03 25-Dec-2016
                23-Jul-2020 
 ******************************************
 %mem=30GB
 %nproc=8
 Will use up to    8 processors via shared memory.
 ---------------------------------------------------------------
 #P uLC-wPBE/cc-pVDZ iop(3/107=0384000000, 3/108=0384000000) opt
 ---------------------------------------------------------------
 1/18=20,19=15,26=3,38=1/1,3;
 2/9=110,12=2,17=6,18=5,40=1/2;
 3/5=16,11=2,25=1,30=1,71=1,74=-41,107=384000000,108=384000000,116=2/1,2,3;
 4//1;
 5/5=2,38=5/2;
 6/7=2,8=2,9=2,10=2,28=1/1;
 7//1,2,3,16;
 1/18=20,19=15,26=3/3(2);
 2/9=110/2;
 99//99;
 2/9=110/2;
 3/5=16,11=2,25=1,30=1,71=1,74=-41,107=384000000,108=384000000,116=2/1,2,3;
 4/5=5,16=3,69=1/1;
 5/5=2,38=5/2;
 7//1,2,3,16;
 1/18=20,19=15,26=3/3(-5);
 2/9=110/2;
 6/7=2,8=2,9=2,10=2,19=2,28=1/1;
 99/9=1/99;
 Leave Link    1 at Thu Jul 23 15:37:56 2020, MaxMem=  4026531840 cpu:               1.9 elap:               0.3
 (Enter /opt/ohpc/pub/libs/gaussian/g16-A.03/sandybridge/g16/l101.exe)
 --------------
 H52 C60 S5 O10
 --------------
 Symbolic Z-matrix:
 Charge =  0 Multiplicity = 1
 C                    -18.42923   2.75687  -0.42275 
 C                    -18.35629   1.67589  -1.16172 
 C                    -17.27117   0.81781  -1.06026 
 C                    -16.27568   1.03563  -0.05923 
 C                    -16.31312   2.18821   0.7117 
 O                    -15.38673   2.43971   1.68828 
 C                    -14.98234   3.79977   1.75477 
 C                    -17.47175   3.01111   0.58769 
 C                    -15.17437   0.11559  -0.01316 
 C                    -15.21062  -1.26823   0.31943 
 O                    -16.38171  -1.83265   0.61757 
 C                    -16.27839  -3.25444   0.95205 
 C                    -13.87411  -1.78865   0.32132 
 C                    -12.85488  -0.86301   0.03622 
 S                    -13.52291   0.58369  -0.36158 
 C                    -11.45629  -1.11055  -0.04191 
 C                    -10.84551  -2.0458   -0.79395 
 C                    -9.46173  -2.24255  -0.82787 
 C                    -8.57488  -1.50539  -0.03141 
 C                    -9.17905  -0.51934   0.75039 
 O                    -8.35557   0.22177   1.6466 
 C                    -8.4695    1.58655   1.40756 
 C                    -10.6162  -0.34294   0.84339 
 C                    -7.1428   -1.8393   -0.0233 
 C                    -6.50959  -2.95695   0.23427 
 O                    -7.20223  -4.03152   0.61619 
 C                    -6.43467  -5.21391   1.05842 
 C                    -5.0506   -2.80675   0.13617 
 C                    -4.68843  -1.50113  -0.22146 
 S                    -6.08689  -0.51159  -0.4993 
 C                    -3.34978  -1.01901  -0.33742 
 C                    -2.95675   0.13878   0.41063 
 C                    -1.66317   0.67465   0.16576 
 C                    -0.77199   0.11703  -0.76507 
 C                    -1.17083  -0.97195  -1.41871 
 O                    -0.26751  -1.5592   -2.3559 
 C                    -0.05301  -2.97537  -2.11915 
 C                    -2.48162  -1.52407  -1.23155 
 C                     0.52184   0.83278  -0.9294 
 C                     0.79472   2.10662  -1.24011 
 O                    -0.2821    2.92874  -1.56911 
 C                     0.15063   4.2495   -1.99471 
 C                     2.11435   2.40879  -1.24429 
 C                     2.91043   1.36778  -0.79101 
 S                     1.91496  -0.02488  -0.51461 
 C                     4.42886   1.33694  -0.59835 
 C                     5.23948   1.97999  -1.4622 
 C                     6.59872   2.06089  -1.23184 
 C                     7.16969   1.43764  -0.15035 
 C                     6.36018   0.6833    0.71206 
 O                     6.924     0.02089   1.8026 
 C                     6.72481  -1.3354    1.73312 
 C                     5.02408   0.65431   0.4328 
 C                     8.66047   1.51527   0.03002 
 C                     9.36409   2.61614   0.51346 
 O                     8.66043   3.75474   0.87956 
 C                     9.49953   4.79488   1.34906 
 C                     10.78828   2.42834   0.52868 
 C                     11.06942   1.1616    0.07466 
 S                     9.6909    0.30045  -0.36235 
 C                     12.41266   0.57852   0.0536 
 C                     13.45322   1.25776  -0.59841 
 C                     14.75133   0.79574  -0.71854 
 C                     15.07475  -0.51526  -0.10749 
 C                     13.99068  -1.17751   0.52183 
 O                     14.40556  -2.44824   1.06978 
 C                     13.35406  -3.32965   1.34891 
 C                     12.71499  -0.6812    0.64012 
 C                     16.42536  -0.96296  -0.24414 
 C                     17.48631  -0.56324   0.58646 
 O                     17.41425   0.34028   1.52395 
 C                     18.53241   0.62797   2.24515 
 C                     18.69316  -1.3127    0.19341 
 C                     18.42976  -2.12723  -0.90649 
 S                     16.85571  -2.16411  -1.41295 
 H                    -19.35192   3.41129  -0.44777 
 H                    -19.1615   1.37309  -1.87385 
 H                    -17.2285  -0.07123  -1.6529 
 H                    -14.00789   3.80754   2.33236 
 H                    -14.71505   4.22587   0.76907 
 H                    -15.65906   4.36324   2.24392 
 H                    -17.5406   3.93803   1.17933 
 H                    -17.23861  -3.62959   1.21414 
 H                    -15.65624  -3.36843   1.94045 
 H                    -15.87282  -3.86109   0.12997 
 H                    -13.6267  -2.88443   0.60595 
 H                    -11.49286  -2.65378  -1.45086 
 H                    -9.05982  -3.06542  -1.51117 
 H                    -8.46714   1.81872   0.41413 
 H                    -7.62485   2.05473   1.96723 
 H                    -9.46636   1.99881   1.91108 
 H                    -11.01146   0.4101    1.53525 
 H                    -5.83514  -4.9586    1.92509 
 H                    -5.82889  -5.517     0.20494 
 H                    -7.0725   -6.05366   1.29094 
 H                    -4.30441  -3.56723   0.40486 
 H                    -3.67627   0.58562   1.0479 
 H                    -1.45914   1.61072   0.78048 
 H                     0.83944  -3.23353  -2.78508 
 H                    -0.91119  -3.58524  -2.48114 
 H                     0.19967  -3.094    -1.1217 
 H                    -2.73655  -2.45093  -1.86198 
 H                    -0.79073   4.76762  -2.28428 
 H                     0.61498   4.72799  -1.24754 
 H                     0.75427   4.1967   -2.96092 
 H                     2.57529   3.32238  -1.47641 
 H                     4.86791   2.57655  -2.3401 
 H                     7.19852   2.66981  -1.9759 
 H                     7.29763  -1.81859   2.57974 
 H                     5.65042  -1.57093   1.96869 
 H                     7.00943  -1.77929   0.81924 
 H                     4.40871   0.10088   1.16686 
 H                     8.86141   5.70004   1.62805 
 H                     9.94712   4.51063   2.26575 
 H                     10.14794   5.16955   0.62912 
 H                     11.47127   3.16422   0.8731 
 H                     13.23716   2.24677  -1.15372 
 H                     15.51146   1.36729  -1.23345 
 H                     12.73765  -3.07635   2.12559 
 H                     13.83585  -4.28453   1.51456 
 H                     12.73029  -3.47668   0.46212 
 H                     11.98888  -1.2117    1.1176 
 H                     18.23165   1.34326   3.06481 
 H                     18.9089  -0.31308   2.79495 
 H                     19.32255   1.04114   1.62809 
 H                     19.73034  -1.14811   0.61014 
 H                     19.1346  -2.7989   -1.3778 
 
 ITRead=  0  0  0  0  0  0  0  0  0  0  0  0  0  0  0  0  0  0  0  0
 ITRead=  0  0  0  0  0  0  0  0  0  0  0  0  0  0  0  0  0  0  0  0
 ITRead=  0  0  0  0  0  0  0  0  0  0  0  0  0  0  0  0  0  0  0  0
 ITRead=  0  0  0  0  0  0  0  0  0  0  0  0  0  0  0  0  0  0  0  0
 ITRead=  0  0  0  0  0  0  0  0  0  0  0  0  0  0  0  0  0  0  0  0
 ITRead=  0  0  0  0  0  0  0  0  0  0  0  0  0  0  0  0  0  0  0  0
 ITRead=  0  0  0  0  0  0  0
 MicOpt= -1 -1 -1 -1 -1 -1 -1 -1 -1 -1 -1 -1 -1 -1 -1 -1 -1 -1 -1 -1
 MicOpt= -1 -1 -1 -1 -1 -1 -1 -1 -1 -1 -1 -1 -1 -1 -1 -1 -1 -1 -1 -1
 MicOpt= -1 -1 -1 -1 -1 -1 -1 -1 -1 -1 -1 -1 -1 -1 -1 -1 -1 -1 -1 -1
 MicOpt= -1 -1 -1 -1 -1 -1 -1 -1 -1 -1 -1 -1 -1 -1 -1 -1 -1 -1 -1 -1
 MicOpt= -1 -1 -1 -1 -1 -1 -1 -1 -1 -1 -1 -1 -1 -1 -1 -1 -1 -1 -1 -1
 MicOpt= -1 -1 -1 -1 -1 -1 -1 -1 -1 -1 -1 -1 -1 -1 -1 -1 -1 -1 -1 -1
 MicOpt= -1 -1 -1 -1 -1 -1 -1
 NAtoms=    127 NQM=      127 NQMF=       0 NMMI=      0 NMMIF=      0
                NMic=       0 NMicF=      0.
                    Isotopes and Nuclear Properties:
 (Nuclear quadrupole moments (NQMom) in fm**2, nuclear magnetic moments (NMagM)
  in nuclear magnetons)

  Atom         1           2           3           4           5           6           7           8           9          10
 IAtWgt=          12          12          12          12          12          16          12          12          12          12
 AtmWgt=  12.0000000  12.0000000  12.0000000  12.0000000  12.0000000  15.9949146  12.0000000  12.0000000  12.0000000  12.0000000
 NucSpn=           0           0           0           0           0           0           0           0           0           0
 AtZEff=  -0.0000000  -0.0000000  -0.0000000  -0.0000000  -0.0000000  -0.0000000  -0.0000000  -0.0000000  -0.0000000  -0.0000000
 NQMom=    0.0000000   0.0000000   0.0000000   0.0000000   0.0000000   0.0000000   0.0000000   0.0000000   0.0000000   0.0000000
 NMagM=    0.0000000   0.0000000   0.0000000   0.0000000   0.0000000   0.0000000   0.0000000   0.0000000   0.0000000   0.0000000
 AtZNuc=   6.0000000   6.0000000   6.0000000   6.0000000   6.0000000   8.0000000   6.0000000   6.0000000   6.0000000   6.0000000

  Atom        11          12          13          14          15          16          17          18          19          20
 IAtWgt=          16          12          12          12          32          12          12          12          12          12
 AtmWgt=  15.9949146  12.0000000  12.0000000  12.0000000  31.9720718  12.0000000  12.0000000  12.0000000  12.0000000  12.0000000
 NucSpn=           0           0           0           0           0           0           0           0           0           0
 AtZEff=  -0.0000000  -0.0000000  -0.0000000  -0.0000000  -0.0000000  -0.0000000  -0.0000000  -0.0000000  -0.0000000  -0.0000000
 NQMom=    0.0000000   0.0000000   0.0000000   0.0000000   0.0000000   0.0000000   0.0000000   0.0000000   0.0000000   0.0000000
 NMagM=    0.0000000   0.0000000   0.0000000   0.0000000   0.0000000   0.0000000   0.0000000   0.0000000   0.0000000   0.0000000
 AtZNuc=   8.0000000   6.0000000   6.0000000   6.0000000  16.0000000   6.0000000   6.0000000   6.0000000   6.0000000   6.0000000

  Atom        21          22          23          24          25          26          27          28          29          30
 IAtWgt=          16          12          12          12          12          16          12          12          12          32
 AtmWgt=  15.9949146  12.0000000  12.0000000  12.0000000  12.0000000  15.9949146  12.0000000  12.0000000  12.0000000  31.9720718
 NucSpn=           0           0           0           0           0           0           0           0           0           0
 AtZEff=  -0.0000000  -0.0000000  -0.0000000  -0.0000000  -0.0000000  -0.0000000  -0.0000000  -0.0000000  -0.0000000  -0.0000000
 NQMom=    0.0000000   0.0000000   0.0000000   0.0000000   0.0000000   0.0000000   0.0000000   0.0000000   0.0000000   0.0000000
 NMagM=    0.0000000   0.0000000   0.0000000   0.0000000   0.0000000   0.0000000   0.0000000   0.0000000   0.0000000   0.0000000
 AtZNuc=   8.0000000   6.0000000   6.0000000   6.0000000   6.0000000   8.0000000   6.0000000   6.0000000   6.0000000  16.0000000

  Atom        31          32          33          34          35          36          37          38          39          40
 IAtWgt=          12          12          12          12          12          16          12          12          12          12
 AtmWgt=  12.0000000  12.0000000  12.0000000  12.0000000  12.0000000  15.9949146  12.0000000  12.0000000  12.0000000  12.0000000
 NucSpn=           0           0           0           0           0           0           0           0           0           0
 AtZEff=  -0.0000000  -0.0000000  -0.0000000  -0.0000000  -0.0000000  -0.0000000  -0.0000000  -0.0000000  -0.0000000  -0.0000000
 NQMom=    0.0000000   0.0000000   0.0000000   0.0000000   0.0000000   0.0000000   0.0000000   0.0000000   0.0000000   0.0000000
 NMagM=    0.0000000   0.0000000   0.0000000   0.0000000   0.0000000   0.0000000   0.0000000   0.0000000   0.0000000   0.0000000
 AtZNuc=   6.0000000   6.0000000   6.0000000   6.0000000   6.0000000   8.0000000   6.0000000   6.0000000   6.0000000   6.0000000

  Atom        41          42          43          44          45          46          47          48          49          50
 IAtWgt=          16          12          12          12          32          12          12          12          12          12
 AtmWgt=  15.9949146  12.0000000  12.0000000  12.0000000  31.9720718  12.0000000  12.0000000  12.0000000  12.0000000  12.0000000
 NucSpn=           0           0           0           0           0           0           0           0           0           0
 AtZEff=  -0.0000000  -0.0000000  -0.0000000  -0.0000000  -0.0000000  -0.0000000  -0.0000000  -0.0000000  -0.0000000  -0.0000000
 NQMom=    0.0000000   0.0000000   0.0000000   0.0000000   0.0000000   0.0000000   0.0000000   0.0000000   0.0000000   0.0000000
 NMagM=    0.0000000   0.0000000   0.0000000   0.0000000   0.0000000   0.0000000   0.0000000   0.0000000   0.0000000   0.0000000
 AtZNuc=   8.0000000   6.0000000   6.0000000   6.0000000  16.0000000   6.0000000   6.0000000   6.0000000   6.0000000   6.0000000

  Atom        51          52          53          54          55          56          57          58          59          60
 IAtWgt=          16          12          12          12          12          16          12          12          12          32
 AtmWgt=  15.9949146  12.0000000  12.0000000  12.0000000  12.0000000  15.9949146  12.0000000  12.0000000  12.0000000  31.9720718
 NucSpn=           0           0           0           0           0           0           0           0           0           0
 AtZEff=  -0.0000000  -0.0000000  -0.0000000  -0.0000000  -0.0000000  -0.0000000  -0.0000000  -0.0000000  -0.0000000  -0.0000000
 NQMom=    0.0000000   0.0000000   0.0000000   0.0000000   0.0000000   0.0000000   0.0000000   0.0000000   0.0000000   0.0000000
 NMagM=    0.0000000   0.0000000   0.0000000   0.0000000   0.0000000   0.0000000   0.0000000   0.0000000   0.0000000   0.0000000
 AtZNuc=   8.0000000   6.0000000   6.0000000   6.0000000   6.0000000   8.0000000   6.0000000   6.0000000   6.0000000  16.0000000

  Atom        61          62          63          64          65          66          67          68          69          70
 IAtWgt=          12          12          12          12          12          16          12          12          12          12
 AtmWgt=  12.0000000  12.0000000  12.0000000  12.0000000  12.0000000  15.9949146  12.0000000  12.0000000  12.0000000  12.0000000
 NucSpn=           0           0           0           0           0           0           0           0           0           0
 AtZEff=  -0.0000000  -0.0000000  -0.0000000  -0.0000000  -0.0000000  -0.0000000  -0.0000000  -0.0000000  -0.0000000  -0.0000000
 NQMom=    0.0000000   0.0000000   0.0000000   0.0000000   0.0000000   0.0000000   0.0000000   0.0000000   0.0000000   0.0000000
 NMagM=    0.0000000   0.0000000   0.0000000   0.0000000   0.0000000   0.0000000   0.0000000   0.0000000   0.0000000   0.0000000
 AtZNuc=   6.0000000   6.0000000   6.0000000   6.0000000   6.0000000   8.0000000   6.0000000   6.0000000   6.0000000   6.0000000

  Atom        71          72          73          74          75          76          77          78          79          80
 IAtWgt=          16          12          12          12          32           1           1           1           1           1
 AtmWgt=  15.9949146  12.0000000  12.0000000  12.0000000  31.9720718   1.0078250   1.0078250   1.0078250   1.0078250   1.0078250
 NucSpn=           0           0           0           0           0           1           1           1           1           1
 AtZEff=  -0.0000000  -0.0000000  -0.0000000  -0.0000000  -0.0000000  -0.0000000  -0.0000000  -0.0000000  -0.0000000  -0.0000000
 NQMom=    0.0000000   0.0000000   0.0000000   0.0000000   0.0000000   0.0000000   0.0000000   0.0000000   0.0000000   0.0000000
 NMagM=    0.0000000   0.0000000   0.0000000   0.0000000   0.0000000   2.7928460   2.7928460   2.7928460   2.7928460   2.7928460
 AtZNuc=   8.0000000   6.0000000   6.0000000   6.0000000  16.0000000   1.0000000   1.0000000   1.0000000   1.0000000   1.0000000

  Atom        81          82          83          84          85          86          87          88          89          90
 IAtWgt=           1           1           1           1           1           1           1           1           1           1
 AtmWgt=   1.0078250   1.0078250   1.0078250   1.0078250   1.0078250   1.0078250   1.0078250   1.0078250   1.0078250   1.0078250
 NucSpn=           1           1           1           1           1           1           1           1           1           1
 AtZEff=  -0.0000000  -0.0000000  -0.0000000  -0.0000000  -0.0000000  -0.0000000  -0.0000000  -0.0000000  -0.0000000  -0.0000000
 NQMom=    0.0000000   0.0000000   0.0000000   0.0000000   0.0000000   0.0000000   0.0000000   0.0000000   0.0000000   0.0000000
 NMagM=    2.7928460   2.7928460   2.7928460   2.7928460   2.7928460   2.7928460   2.7928460   2.7928460   2.7928460   2.7928460
 AtZNuc=   1.0000000   1.0000000   1.0000000   1.0000000   1.0000000   1.0000000   1.0000000   1.0000000   1.0000000   1.0000000

  Atom        91          92          93          94          95          96          97          98          99         100
 IAtWgt=           1           1           1           1           1           1           1           1           1           1
 AtmWgt=   1.0078250   1.0078250   1.0078250   1.0078250   1.0078250   1.0078250   1.0078250   1.0078250   1.0078250   1.0078250
 NucSpn=           1           1           1           1           1           1           1           1           1           1
 AtZEff=  -0.0000000  -0.0000000  -0.0000000  -0.0000000  -0.0000000  -0.0000000  -0.0000000  -0.0000000  -0.0000000  -0.0000000
 NQMom=    0.0000000   0.0000000   0.0000000   0.0000000   0.0000000   0.0000000   0.0000000   0.0000000   0.0000000   0.0000000
 NMagM=    2.7928460   2.7928460   2.7928460   2.7928460   2.7928460   2.7928460   2.7928460   2.7928460   2.7928460   2.7928460
 AtZNuc=   1.0000000   1.0000000   1.0000000   1.0000000   1.0000000   1.0000000   1.0000000   1.0000000   1.0000000   1.0000000

  Atom       101         102         103         104         105         106         107         108         109         110
 IAtWgt=           1           1           1           1           1           1           1           1           1           1
 AtmWgt=   1.0078250   1.0078250   1.0078250   1.0078250   1.0078250   1.0078250   1.0078250   1.0078250   1.0078250   1.0078250
 NucSpn=           1           1           1           1           1           1           1           1           1           1
 AtZEff=  -0.0000000  -0.0000000  -0.0000000  -0.0000000  -0.0000000  -0.0000000  -0.0000000  -0.0000000  -0.0000000  -0.0000000
 NQMom=    0.0000000   0.0000000   0.0000000   0.0000000   0.0000000   0.0000000   0.0000000   0.0000000   0.0000000   0.0000000
 NMagM=    2.7928460   2.7928460   2.7928460   2.7928460   2.7928460   2.7928460   2.7928460   2.7928460   2.7928460   2.7928460
 AtZNuc=   1.0000000   1.0000000   1.0000000   1.0000000   1.0000000   1.0000000   1.0000000   1.0000000   1.0000000   1.0000000

  Atom       111         112         113         114         115         116         117         118         119         120
 IAtWgt=           1           1           1           1           1           1           1           1           1           1
 AtmWgt=   1.0078250   1.0078250   1.0078250   1.0078250   1.0078250   1.0078250   1.0078250   1.0078250   1.0078250   1.0078250
 NucSpn=           1           1           1           1           1           1           1           1           1           1
 AtZEff=  -0.0000000  -0.0000000  -0.0000000  -0.0000000  -0.0000000  -0.0000000  -0.0000000  -0.0000000  -0.0000000  -0.0000000
 NQMom=    0.0000000   0.0000000   0.0000000   0.0000000   0.0000000   0.0000000   0.0000000   0.0000000   0.0000000   0.0000000
 NMagM=    2.7928460   2.7928460   2.7928460   2.7928460   2.7928460   2.7928460   2.7928460   2.7928460   2.7928460   2.7928460
 AtZNuc=   1.0000000   1.0000000   1.0000000   1.0000000   1.0000000   1.0000000   1.0000000   1.0000000   1.0000000   1.0000000

  Atom       121         122         123         124         125         126         127
 IAtWgt=           1           1           1           1           1           1           1
 AtmWgt=   1.0078250   1.0078250   1.0078250   1.0078250   1.0078250   1.0078250   1.0078250
 NucSpn=           1           1           1           1           1           1           1
 AtZEff=  -0.0000000  -0.0000000  -0.0000000  -0.0000000  -0.0000000  -0.0000000  -0.0000000
 NQMom=    0.0000000   0.0000000   0.0000000   0.0000000   0.0000000   0.0000000   0.0000000
 NMagM=    2.7928460   2.7928460   2.7928460   2.7928460   2.7928460   2.7928460   2.7928460
 AtZNuc=   1.0000000   1.0000000   1.0000000   1.0000000   1.0000000   1.0000000   1.0000000
 Leave Link  101 at Thu Jul 23 15:37:56 2020, MaxMem=  4026531840 cpu:               3.2 elap:               0.4
 (Enter /opt/ohpc/pub/libs/gaussian/g16-A.03/sandybridge/g16/l103.exe)

 GradGradGradGradGradGradGradGradGradGradGradGradGradGradGradGradGradGrad
 Berny optimization.
 Initialization pass.
                           ----------------------------
                           !    Initial Parameters    !
                           ! (Angstroms and Degrees)  !
 --------------------------                            --------------------------
 ! Name  Definition              Value          Derivative Info.                !
 --------------------------------------------------------------------------------
 ! R1    R(1,2)                  1.3115         estimate D2E/DX2                !
 ! R2    R(1,8)                  1.4151         estimate D2E/DX2                !
 ! R3    R(1,76)                 1.1315         estimate D2E/DX2                !
 ! R4    R(2,3)                  1.3871         estimate D2E/DX2                !
 ! R5    R(2,77)                 1.1168         estimate D2E/DX2                !
 ! R6    R(3,4)                  1.4285         estimate D2E/DX2                !
 ! R7    R(3,78)                 1.0693         estimate D2E/DX2                !
 ! R8    R(4,5)                  1.3871         estimate D2E/DX2                !
 ! R9    R(4,9)                  1.4358         estimate D2E/DX2                !
 ! R10   R(5,6)                  1.3694         estimate D2E/DX2                !
 ! R11   R(5,8)                  1.4265         estimate D2E/DX2                !
 ! R12   R(6,7)                  1.4205         estimate D2E/DX2                !
 ! R13   R(7,79)                 1.1328         estimate D2E/DX2                !
 ! R14   R(7,80)                 1.1066         estimate D2E/DX2                !
 ! R15   R(7,81)                 1.0073         estimate D2E/DX2                !
 ! R16   R(8,82)                 1.1018         estimate D2E/DX2                !
 ! R17   R(9,10)                 1.4237         estimate D2E/DX2                !
 ! R18   R(9,15)                 1.7515         estimate D2E/DX2                !
 ! R19   R(10,11)                1.3338         estimate D2E/DX2                !
 ! R20   R(10,13)                1.4343         estimate D2E/DX2                !
 ! R21   R(11,12)                1.4643         estimate D2E/DX2                !
 ! R22   R(12,83)                1.0637         estimate D2E/DX2                !
 ! R23   R(12,84)                1.1735         estimate D2E/DX2                !
 ! R24   R(12,85)                1.0992         estimate D2E/DX2                !
 ! R25   R(13,14)                1.406          estimate D2E/DX2                !
 ! R26   R(13,86)                1.1589         estimate D2E/DX2                !
 ! R27   R(14,15)                1.6424         estimate D2E/DX2                !
 ! R28   R(14,16)                1.4225         estimate D2E/DX2                !
 ! R29   R(16,17)                1.3466         estimate D2E/DX2                !
 ! R30   R(16,23)                1.4418         estimate D2E/DX2                !
 ! R31   R(17,18)                1.3981         estimate D2E/DX2                !
 ! R32   R(17,87)                1.1046         estimate D2E/DX2                !
 ! R33   R(18,19)                1.4015         estimate D2E/DX2                !
 ! R34   R(18,88)                1.1426         estimate D2E/DX2                !
 ! R35   R(19,20)                1.3959         estimate D2E/DX2                !
 ! R36   R(19,24)                1.4705         estimate D2E/DX2                !
 ! R37   R(20,21)                1.425          estimate D2E/DX2                !
 ! R38   R(20,23)                1.4509         estimate D2E/DX2                !
 ! R39   R(21,22)                1.3902         estimate D2E/DX2                !
 ! R40   R(22,89)                1.0202         estimate D2E/DX2                !
 ! R41   R(22,90)                1.1162         estimate D2E/DX2                !
 ! R42   R(22,91)                1.1905         estimate D2E/DX2                !
 ! R43   R(23,92)                1.0963         estimate D2E/DX2                !
 ! R44   R(24,25)                1.3101         estimate D2E/DX2                !
 ! R45   R(24,30)                1.7619         estimate D2E/DX2                !
 ! R46   R(25,26)                1.3343         estimate D2E/DX2                !
 ! R47   R(25,28)                1.47           estimate D2E/DX2                !
 ! R48   R(26,27)                1.4774         estimate D2E/DX2                !
 ! R49   R(27,93)                1.0843         estimate D2E/DX2                !
 ! R50   R(27,94)                1.0896         estimate D2E/DX2                !
 ! R51   R(27,95)                1.0798         estimate D2E/DX2                !
 ! R52   R(28,29)                1.4013         estimate D2E/DX2                !
 ! R53   R(28,96)                1.0988         estimate D2E/DX2                !
 ! R54   R(29,30)                1.7355         estimate D2E/DX2                !
 ! R55   R(29,31)                1.4275         estimate D2E/DX2                !
 ! R56   R(31,32)                1.4334         estimate D2E/DX2                !
 ! R57   R(31,38)                1.3447         estimate D2E/DX2                !
 ! R58   R(32,33)                1.4214         estimate D2E/DX2                !
 ! R59   R(32,97)                1.0599         estimate D2E/DX2                !
 ! R60   R(33,34)                1.4041         estimate D2E/DX2                !
 ! R61   R(33,98)                1.1383         estimate D2E/DX2                !
 ! R62   R(34,35)                1.3312         estimate D2E/DX2                !
 ! R63   R(34,39)                1.4877         estimate D2E/DX2                !
 ! R64   R(35,36)                1.428          estimate D2E/DX2                !
 ! R65   R(35,38)                1.4346         estimate D2E/DX2                !
 ! R66   R(36,37)                1.4518         estimate D2E/DX2                !
 ! R67   R(37,99)                1.1431         estimate D2E/DX2                !
 ! R68   R(37,100)               1.1133         estimate D2E/DX2                !
 ! R69   R(37,101)               1.0358         estimate D2E/DX2                !
 ! R70   R(38,102)               1.1496         estimate D2E/DX2                !
 ! R71   R(39,40)                1.3393         estimate D2E/DX2                !
 ! R72   R(39,45)                1.6877         estimate D2E/DX2                !
 ! R73   R(40,41)                1.3942         estimate D2E/DX2                !
 ! R74   R(40,43)                1.3538         estimate D2E/DX2                !
 ! R75   R(41,42)                1.4535         estimate D2E/DX2                !
 ! R76   R(42,103)               1.1129         estimate D2E/DX2                !
 ! R77   R(42,104)               1.0014         estimate D2E/DX2                !
 ! R78   R(42,105)               1.1405         estimate D2E/DX2                !
 ! R79   R(43,44)                1.3867         estimate D2E/DX2                !
 ! R80   R(43,106)               1.0493         estimate D2E/DX2                !
 ! R81   R(44,45)                1.734          estimate D2E/DX2                !
 ! R82   R(44,46)                1.5309         estimate D2E/DX2                !
 ! R83   R(46,47)                1.3479         estimate D2E/DX2                !
 ! R84   R(46,53)                1.3724         estimate D2E/DX2                !
 ! R85   R(47,48)                1.381          estimate D2E/DX2                !
 ! R86   R(47,107)               1.1246         estimate D2E/DX2                !
 ! R87   R(48,49)                1.3726         estimate D2E/DX2                !
 ! R88   R(48,108)               1.1332         estimate D2E/DX2                !
 ! R89   R(49,50)                1.4029         estimate D2E/DX2                !
 ! R90   R(49,54)                1.5037         estimate D2E/DX2                !
 ! R91   R(50,51)                1.395          estimate D2E/DX2                !
 ! R92   R(50,53)                1.3653         estimate D2E/DX2                !
 ! R93   R(51,52)                1.3726         estimate D2E/DX2                !
 ! R94   R(52,109)               1.1306         estimate D2E/DX2                !
 ! R95   R(52,110)               1.1248         estimate D2E/DX2                !
 ! R96   R(52,111)               1.0551         estimate D2E/DX2                !
 ! R97   R(53,112)               1.1063         estimate D2E/DX2                !
 ! R98   R(54,55)                1.3931         estimate D2E/DX2                !
 ! R99   R(54,60)                1.6406         estimate D2E/DX2                !
 ! R100  R(55,56)                1.3877         estimate D2E/DX2                !
 ! R101  R(55,58)                1.4366         estimate D2E/DX2                !
 ! R102  R(56,57)                1.4165         estimate D2E/DX2                !
 ! R103  R(57,113)               1.1421         estimate D2E/DX2                !
 ! R104  R(57,114)               1.059          estimate D2E/DX2                !
 ! R105  R(57,115)               1.0388         estimate D2E/DX2                !
 ! R106  R(58,59)                1.3747         estimate D2E/DX2                !
 ! R107  R(58,116)               1.0614         estimate D2E/DX2                !
 ! R108  R(59,60)                1.6831         estimate D2E/DX2                !
 ! R109  R(59,61)                1.4645         estimate D2E/DX2                !
 ! R110  R(61,62)                1.4033         estimate D2E/DX2                !
 ! R111  R(61,68)                1.4221         estimate D2E/DX2                !
 ! R112  R(62,63)                1.3831         estimate D2E/DX2                !
 ! R113  R(62,117)               1.1546         estimate D2E/DX2                !
 ! R114  R(63,64)                1.4821         estimate D2E/DX2                !
 ! R115  R(63,118)               1.0815         estimate D2E/DX2                !
 ! R116  R(64,65)                1.4177         estimate D2E/DX2                !
 ! R117  R(64,69)                1.4294         estimate D2E/DX2                !
 ! R118  R(65,66)                1.4447         estimate D2E/DX2                !
 ! R119  R(65,68)                1.3739         estimate D2E/DX2                !
 ! R120  R(66,67)                1.4002         estimate D2E/DX2                !
 ! R121  R(67,119)               1.0234         estimate D2E/DX2                !
 ! R122  R(67,120)               1.0823         estimate D2E/DX2                !
 ! R123  R(67,121)               1.0941         estimate D2E/DX2                !
 ! R124  R(68,122)               1.0182         estimate D2E/DX2                !
 ! R125  R(69,70)                1.4055         estimate D2E/DX2                !
 ! R126  R(69,75)                1.7303         estimate D2E/DX2                !
 ! R127  R(70,71)                1.304          estimate D2E/DX2                !
 ! R128  R(70,73)                1.474          estimate D2E/DX2                !
 ! R129  R(71,72)                1.3613         estimate D2E/DX2                !
 ! R130  R(72,123)               1.1287         estimate D2E/DX2                !
 ! R131  R(72,124)               1.1531         estimate D2E/DX2                !
 ! R132  R(72,125)               1.0843         estimate D2E/DX2                !
 ! R133  R(73,74)                1.3938         estimate D2E/DX2                !
 ! R134  R(73,126)               1.1298         estimate D2E/DX2                !
 ! R135  R(74,75)                1.6539         estimate D2E/DX2                !
 ! R136  R(74,127)               1.0817         estimate D2E/DX2                !
 ! A1    A(2,1,8)              120.8513         estimate D2E/DX2                !
 ! A2    A(2,1,76)             120.6389         estimate D2E/DX2                !
 ! A3    A(8,1,76)             117.6233         estimate D2E/DX2                !
 ! A4    A(1,2,3)              120.8097         estimate D2E/DX2                !
 ! A5    A(1,2,77)             122.8668         estimate D2E/DX2                !
 ! A6    A(3,2,77)             116.2931         estimate D2E/DX2                !
 ! A7    A(2,3,4)              120.1393         estimate D2E/DX2                !
 ! A8    A(2,3,78)             120.331          estimate D2E/DX2                !
 ! A9    A(4,3,78)             119.1667         estimate D2E/DX2                !
 ! A10   A(3,4,5)              119.8253         estimate D2E/DX2                !
 ! A11   A(3,4,9)              117.3438         estimate D2E/DX2                !
 ! A12   A(5,4,9)              122.3642         estimate D2E/DX2                !
 ! A13   A(4,5,6)              122.0527         estimate D2E/DX2                !
 ! A14   A(4,5,8)              116.9308         estimate D2E/DX2                !
 ! A15   A(6,5,8)              120.3658         estimate D2E/DX2                !
 ! A16   A(5,6,7)              113.6927         estimate D2E/DX2                !
 ! A17   A(6,7,79)             105.9815         estimate D2E/DX2                !
 ! A18   A(6,7,80)             113.3119         estimate D2E/DX2                !
 ! A19   A(6,7,81)             111.5343         estimate D2E/DX2                !
 ! A20   A(79,7,80)            104.1087         estimate D2E/DX2                !
 ! A21   A(79,7,81)            109.0541         estimate D2E/DX2                !
 ! A22   A(80,7,81)            112.297          estimate D2E/DX2                !
 ! A23   A(1,8,5)              120.531          estimate D2E/DX2                !
 ! A24   A(1,8,82)             119.4923         estimate D2E/DX2                !
 ! A25   A(5,8,82)             119.2988         estimate D2E/DX2                !
 ! A26   A(4,9,10)             127.6478         estimate D2E/DX2                !
 ! A27   A(4,9,15)             123.0651         estimate D2E/DX2                !
 ! A28   A(10,9,15)            109.2839         estimate D2E/DX2                !
 ! A29   A(9,10,11)            119.0722         estimate D2E/DX2                !
 ! A30   A(9,10,13)            109.2243         estimate D2E/DX2                !
 ! A31   A(11,10,13)           131.6324         estimate D2E/DX2                !
 ! A32   A(10,11,12)           113.5796         estimate D2E/DX2                !
 ! A33   A(11,12,83)           109.5754         estimate D2E/DX2                !
 ! A34   A(11,12,84)           108.9129         estimate D2E/DX2                !
 ! A35   A(11,12,85)           113.0214         estimate D2E/DX2                !
 ! A36   A(83,12,84)           103.6982         estimate D2E/DX2                !
 ! A37   A(83,12,85)           108.8267         estimate D2E/DX2                !
 ! A38   A(84,12,85)           112.3768         estimate D2E/DX2                !
 ! A39   A(10,13,14)           115.8715         estimate D2E/DX2                !
 ! A40   A(10,13,86)           122.845          estimate D2E/DX2                !
 ! A41   A(14,13,86)           121.167          estimate D2E/DX2                !
 ! A42   A(13,14,15)           109.5214         estimate D2E/DX2                !
 ! A43   A(13,14,16)           127.5388         estimate D2E/DX2                !
 ! A44   A(15,14,16)           122.6767         estimate D2E/DX2                !
 ! A45   A(9,15,14)             95.7341         estimate D2E/DX2                !
 ! A46   A(14,16,17)           126.6909         estimate D2E/DX2                !
 ! A47   A(14,16,23)           116.5202         estimate D2E/DX2                !
 ! A48   A(17,16,23)           116.6417         estimate D2E/DX2                !
 ! A49   A(16,17,18)           124.0705         estimate D2E/DX2                !
 ! A50   A(16,17,87)           116.6519         estimate D2E/DX2                !
 ! A51   A(18,17,87)           119.2185         estimate D2E/DX2                !
 ! A52   A(17,18,19)           122.5807         estimate D2E/DX2                !
 ! A53   A(17,18,88)           117.6457         estimate D2E/DX2                !
 ! A54   A(19,18,88)           119.7392         estimate D2E/DX2                !
 ! A55   A(18,19,20)           114.5789         estimate D2E/DX2                !
 ! A56   A(18,19,24)           119.996          estimate D2E/DX2                !
 ! A57   A(20,19,24)           125.3673         estimate D2E/DX2                !
 ! A58   A(19,20,21)           118.0021         estimate D2E/DX2                !
 ! A59   A(19,20,23)           123.4007         estimate D2E/DX2                !
 ! A60   A(21,20,23)           117.9607         estimate D2E/DX2                !
 ! A61   A(20,21,22)           110.7974         estimate D2E/DX2                !
 ! A62   A(21,22,89)           112.9944         estimate D2E/DX2                !
 ! A63   A(21,22,90)           105.2805         estimate D2E/DX2                !
 ! A64   A(21,22,91)           109.6247         estimate D2E/DX2                !
 ! A65   A(89,22,90)           113.0201         estimate D2E/DX2                !
 ! A66   A(89,22,91)           109.5717         estimate D2E/DX2                !
 ! A67   A(90,22,91)           106.0415         estimate D2E/DX2                !
 ! A68   A(16,23,20)           118.233          estimate D2E/DX2                !
 ! A69   A(16,23,92)           122.8959         estimate D2E/DX2                !
 ! A70   A(20,23,92)           118.7547         estimate D2E/DX2                !
 ! A71   A(19,24,25)           131.7194         estimate D2E/DX2                !
 ! A72   A(19,24,30)           114.2698         estimate D2E/DX2                !
 ! A73   A(25,24,30)           113.9731         estimate D2E/DX2                !
 ! A74   A(24,25,26)           119.4989         estimate D2E/DX2                !
 ! A75   A(24,25,28)           112.2976         estimate D2E/DX2                !
 ! A76   A(26,25,28)           128.0702         estimate D2E/DX2                !
 ! A77   A(25,26,27)           117.4207         estimate D2E/DX2                !
 ! A78   A(26,27,93)           109.7581         estimate D2E/DX2                !
 ! A79   A(26,27,94)           106.0809         estimate D2E/DX2                !
 ! A80   A(26,27,95)           112.3309         estimate D2E/DX2                !
 ! A81   A(93,27,94)           112.5921         estimate D2E/DX2                !
 ! A82   A(93,27,95)           109.7296         estimate D2E/DX2                !
 ! A83   A(94,27,95)           106.3042         estimate D2E/DX2                !
 ! A84   A(25,28,29)           111.6388         estimate D2E/DX2                !
 ! A85   A(25,28,96)           125.9434         estimate D2E/DX2                !
 ! A86   A(29,28,96)           122.1229         estimate D2E/DX2                !
 ! A87   A(28,29,30)           111.3354         estimate D2E/DX2                !
 ! A88   A(28,29,31)           125.2926         estimate D2E/DX2                !
 ! A89   A(30,29,31)           123.3698         estimate D2E/DX2                !
 ! A90   A(24,30,29)            90.573          estimate D2E/DX2                !
 ! A91   A(29,31,32)           119.1785         estimate D2E/DX2                !
 ! A92   A(29,31,38)           122.1796         estimate D2E/DX2                !
 ! A93   A(32,31,38)           118.253          estimate D2E/DX2                !
 ! A94   A(31,32,33)           117.655          estimate D2E/DX2                !
 ! A95   A(31,32,97)           117.9148         estimate D2E/DX2                !
 ! A96   A(33,32,97)           124.2229         estimate D2E/DX2                !
 ! A97   A(32,33,34)           122.8256         estimate D2E/DX2                !
 ! A98   A(32,33,98)           112.3403         estimate D2E/DX2                !
 ! A99   A(34,33,98)           124.8066         estimate D2E/DX2                !
 ! A100  A(33,34,35)           117.4001         estimate D2E/DX2                !
 ! A101  A(33,34,39)           115.7303         estimate D2E/DX2                !
 ! A102  A(35,34,39)           126.8609         estimate D2E/DX2                !
 ! A103  A(34,35,36)           117.9777         estimate D2E/DX2                !
 ! A104  A(34,35,38)           121.6359         estimate D2E/DX2                !
 ! A105  A(36,35,38)           120.3536         estimate D2E/DX2                !
 ! A106  A(35,36,37)           112.8053         estimate D2E/DX2                !
 ! A107  A(36,37,99)           103.926          estimate D2E/DX2                !
 ! A108  A(36,37,100)          111.5584         estimate D2E/DX2                !
 ! A109  A(36,37,101)          107.7471         estimate D2E/DX2                !
 ! A110  A(99,37,100)          106.7798         estimate D2E/DX2                !
 ! A111  A(99,37,101)          110.1634         estimate D2E/DX2                !
 ! A112  A(100,37,101)         116.0032         estimate D2E/DX2                !
 ! A113  A(31,38,35)           122.147          estimate D2E/DX2                !
 ! A114  A(31,38,102)          121.6212         estimate D2E/DX2                !
 ! A115  A(35,38,102)          116.1924         estimate D2E/DX2                !
 ! A116  A(34,39,40)           131.3315         estimate D2E/DX2                !
 ! A117  A(34,39,45)           116.5024         estimate D2E/DX2                !
 ! A118  A(40,39,45)           111.8504         estimate D2E/DX2                !
 ! A119  A(39,40,41)           117.2748         estimate D2E/DX2                !
 ! A120  A(39,40,43)           114.3066         estimate D2E/DX2                !
 ! A121  A(41,40,43)           128.3557         estimate D2E/DX2                !
 ! A122  A(40,41,42)           112.0227         estimate D2E/DX2                !
 ! A123  A(41,42,103)          104.3239         estimate D2E/DX2                !
 ! A124  A(41,42,104)          110.7164         estimate D2E/DX2                !
 ! A125  A(41,42,105)          111.319          estimate D2E/DX2                !
 ! A126  A(103,42,104)         111.3404         estimate D2E/DX2                !
 ! A127  A(103,42,105)         104.4087         estimate D2E/DX2                !
 ! A128  A(104,42,105)         114.1291         estimate D2E/DX2                !
 ! A129  A(40,43,44)           113.0183         estimate D2E/DX2                !
 ! A130  A(40,43,106)          128.5522         estimate D2E/DX2                !
 ! A131  A(44,43,106)          118.2786         estimate D2E/DX2                !
 ! A132  A(43,44,45)           108.9935         estimate D2E/DX2                !
 ! A133  A(43,44,46)           128.7307         estimate D2E/DX2                !
 ! A134  A(45,44,46)           122.2193         estimate D2E/DX2                !
 ! A135  A(39,45,44)            91.522          estimate D2E/DX2                !
 ! A136  A(44,46,47)           120.4129         estimate D2E/DX2                !
 ! A137  A(44,46,53)           122.326          estimate D2E/DX2                !
 ! A138  A(47,46,53)           117.2571         estimate D2E/DX2                !
 ! A139  A(46,47,48)           120.8619         estimate D2E/DX2                !
 ! A140  A(46,47,107)          123.6882         estimate D2E/DX2                !
 ! A141  A(48,47,107)          115.1093         estimate D2E/DX2                !
 ! A142  A(47,48,49)           120.9467         estimate D2E/DX2                !
 ! A143  A(47,48,108)          116.2898         estimate D2E/DX2                !
 ! A144  A(49,48,108)          122.7621         estimate D2E/DX2                !
 ! A145  A(48,49,50)           119.241          estimate D2E/DX2                !
 ! A146  A(48,49,54)           118.9127         estimate D2E/DX2                !
 ! A147  A(50,49,54)           121.743          estimate D2E/DX2                !
 ! A148  A(49,50,51)           120.1778         estimate D2E/DX2                !
 ! A149  A(49,50,53)           116.7675         estimate D2E/DX2                !
 ! A150  A(51,50,53)           123.05           estimate D2E/DX2                !
 ! A151  A(50,51,52)           111.7765         estimate D2E/DX2                !
 ! A152  A(51,52,109)          108.1109         estimate D2E/DX2                !
 ! A153  A(51,52,110)          109.5672         estimate D2E/DX2                !
 ! A154  A(51,52,111)          114.8598         estimate D2E/DX2                !
 ! A155  A(109,52,110)         103.7454         estimate D2E/DX2                !
 ! A156  A(109,52,111)         109.3972         estimate D2E/DX2                !
 ! A157  A(110,52,111)         110.5462         estimate D2E/DX2                !
 ! A158  A(46,53,50)           124.5798         estimate D2E/DX2                !
 ! A159  A(46,53,112)          120.4068         estimate D2E/DX2                !
 ! A160  A(50,53,112)          114.7879         estimate D2E/DX2                !
 ! A161  A(49,54,55)           125.6743         estimate D2E/DX2                !
 ! A162  A(49,54,60)           123.7653         estimate D2E/DX2                !
 ! A163  A(55,54,60)           110.5431         estimate D2E/DX2                !
 ! A164  A(54,55,56)           118.9363         estimate D2E/DX2                !
 ! A165  A(54,55,58)           113.6464         estimate D2E/DX2                !
 ! A166  A(56,55,58)           127.3856         estimate D2E/DX2                !
 ! A167  A(55,56,57)           112.928          estimate D2E/DX2                !
 ! A168  A(56,57,113)          109.388          estimate D2E/DX2                !
 ! A169  A(56,57,114)          109.8886         estimate D2E/DX2                !
 ! A170  A(56,57,115)          113.8844         estimate D2E/DX2                !
 ! A171  A(113,57,114)         103.7346         estimate D2E/DX2                !
 ! A172  A(113,57,115)         103.4271         estimate D2E/DX2                !
 ! A173  A(114,57,115)         115.6524         estimate D2E/DX2                !
 ! A174  A(55,58,59)           108.6448         estimate D2E/DX2                !
 ! A175  A(55,58,116)          123.4161         estimate D2E/DX2                !
 ! A176  A(59,58,116)          127.91           estimate D2E/DX2                !
 ! A177  A(58,59,60)           112.9364         estimate D2E/DX2                !
 ! A178  A(58,59,61)           124.0004         estimate D2E/DX2                !
 ! A179  A(60,59,61)           122.9419         estimate D2E/DX2                !
 ! A180  A(54,60,59)            94.2134         estimate D2E/DX2                !
 ! A181  A(59,61,62)           119.6097         estimate D2E/DX2                !
 ! A182  A(59,61,68)           122.803          estimate D2E/DX2                !
 ! A183  A(62,61,68)           117.5651         estimate D2E/DX2                !
 ! A184  A(61,62,63)           125.0726         estimate D2E/DX2                !
 ! A185  A(61,62,117)          119.9535         estimate D2E/DX2                !
 ! A186  A(63,62,117)          114.8332         estimate D2E/DX2                !
 ! A187  A(62,63,64)           117.6759         estimate D2E/DX2                !
 ! A188  A(62,63,118)          121.6332         estimate D2E/DX2                !
 ! A189  A(64,63,118)          120.6899         estimate D2E/DX2                !
 ! A190  A(63,64,65)           115.4261         estimate D2E/DX2                !
 ! A191  A(63,64,69)           116.3475         estimate D2E/DX2                !
 ! A192  A(65,64,69)           128.217          estimate D2E/DX2                !
 ! A193  A(64,65,66)           111.0789         estimate D2E/DX2                !
 ! A194  A(64,65,68)           125.4137         estimate D2E/DX2                !
 ! A195  A(66,65,68)           123.4851         estimate D2E/DX2                !
 ! A196  A(65,66,67)           114.4342         estimate D2E/DX2                !
 ! A197  A(66,67,119)          116.6041         estimate D2E/DX2                !
 ! A198  A(66,67,120)          104.5722         estimate D2E/DX2                !
 ! A199  A(66,67,121)          110.5583         estimate D2E/DX2                !
 ! A200  A(119,67,120)         111.7364         estimate D2E/DX2                !
 ! A201  A(119,67,121)         107.7573         estimate D2E/DX2                !
 ! A202  A(120,67,121)         105.0268         estimate D2E/DX2                !
 ! A203  A(61,68,65)           118.8078         estimate D2E/DX2                !
 ! A204  A(61,68,122)          120.2227         estimate D2E/DX2                !
 ! A205  A(65,68,122)          120.9519         estimate D2E/DX2                !
 ! A206  A(64,69,70)           124.5893         estimate D2E/DX2                !
 ! A207  A(64,69,75)           121.1302         estimate D2E/DX2                !
 ! A208  A(70,69,75)           114.1343         estimate D2E/DX2                !
 ! A209  A(69,70,71)           125.4656         estimate D2E/DX2                !
 ! A210  A(69,70,73)           108.4135         estimate D2E/DX2                !
 ! A211  A(71,70,73)           126.1044         estimate D2E/DX2                !
 ! A212  A(70,71,72)           118.81           estimate D2E/DX2                !
 ! A213  A(71,72,123)          107.4444         estimate D2E/DX2                !
 ! A214  A(71,72,124)          110.3847         estimate D2E/DX2                !
 ! A215  A(71,72,125)          112.1835         estimate D2E/DX2                !
 ! A216  A(123,72,124)         104.9479         estimate D2E/DX2                !
 ! A217  A(123,72,125)         111.4668         estimate D2E/DX2                !
 ! A218  A(124,72,125)         110.144          estimate D2E/DX2                !
 ! A219  A(70,73,74)           110.6615         estimate D2E/DX2                !
 ! A220  A(70,73,126)          125.394          estimate D2E/DX2                !
 ! A221  A(74,73,126)          123.3463         estimate D2E/DX2                !
 ! A222  A(73,74,75)           115.7557         estimate D2E/DX2                !
 ! A223  A(73,74,127)          125.7031         estimate D2E/DX2                !
 ! A224  A(75,74,127)          118.2201         estimate D2E/DX2                !
 ! A225  A(69,75,74)            90.8235         estimate D2E/DX2                !
 ! D1    D(8,1,2,3)             -6.1724         estimate D2E/DX2                !
 ! D2    D(8,1,2,77)           171.747          estimate D2E/DX2                !
 ! D3    D(76,1,2,3)          -175.1394         estimate D2E/DX2                !
 ! D4    D(76,1,2,77)            2.78           estimate D2E/DX2                !
 ! D5    D(2,1,8,5)              8.0542         estimate D2E/DX2                !
 ! D6    D(2,1,8,82)           178.5537         estimate D2E/DX2                !
 ! D7    D(76,1,8,5)           177.3441         estimate D2E/DX2                !
 ! D8    D(76,1,8,82)          -12.1565         estimate D2E/DX2                !
 ! D9    D(1,2,3,4)              5.7943         estimate D2E/DX2                !
 ! D10   D(1,2,3,78)           178.8206         estimate D2E/DX2                !
 ! D11   D(77,2,3,4)          -172.2565         estimate D2E/DX2                !
 ! D12   D(77,2,3,78)            0.7697         estimate D2E/DX2                !
 ! D13   D(2,3,4,5)             -7.2951         estimate D2E/DX2                !
 ! D14   D(2,3,4,9)           -179.6425         estimate D2E/DX2                !
 ! D15   D(78,3,4,5)           179.5977         estimate D2E/DX2                !
 ! D16   D(78,3,4,9)             7.2503         estimate D2E/DX2                !
 ! D17   D(3,4,5,6)            179.6341         estimate D2E/DX2                !
 ! D18   D(3,4,5,8)              8.8556         estimate D2E/DX2                !
 ! D19   D(9,4,5,6)             -8.4161         estimate D2E/DX2                !
 ! D20   D(9,4,5,8)           -179.1946         estimate D2E/DX2                !
 ! D21   D(3,4,9,10)           -66.2898         estimate D2E/DX2                !
 ! D22   D(3,4,9,15)           114.4255         estimate D2E/DX2                !
 ! D23   D(5,4,9,10)           121.5714         estimate D2E/DX2                !
 ! D24   D(5,4,9,15)           -57.7133         estimate D2E/DX2                !
 ! D25   D(4,5,6,7)            140.7063         estimate D2E/DX2                !
 ! D26   D(8,5,6,7)            -48.8252         estimate D2E/DX2                !
 ! D27   D(4,5,8,1)             -9.2505         estimate D2E/DX2                !
 ! D28   D(4,5,8,82)          -179.7681         estimate D2E/DX2                !
 ! D29   D(6,5,8,1)            179.8067         estimate D2E/DX2                !
 ! D30   D(6,5,8,82)             9.289          estimate D2E/DX2                !
 ! D31   D(5,6,7,79)          -161.783          estimate D2E/DX2                !
 ! D32   D(5,6,7,80)           -48.2351         estimate D2E/DX2                !
 ! D33   D(5,6,7,81)            79.6569         estimate D2E/DX2                !
 ! D34   D(4,9,10,11)            0.8211         estimate D2E/DX2                !
 ! D35   D(4,9,10,13)         -176.4635         estimate D2E/DX2                !
 ! D36   D(15,9,10,11)        -179.814          estimate D2E/DX2                !
 ! D37   D(15,9,10,13)           2.9014         estimate D2E/DX2                !
 ! D38   D(4,9,15,14)          174.267          estimate D2E/DX2                !
 ! D39   D(10,9,15,14)          -5.133          estimate D2E/DX2                !
 ! D40   D(9,10,11,12)        -179.4849         estimate D2E/DX2                !
 ! D41   D(13,10,11,12)         -2.9161         estimate D2E/DX2                !
 ! D42   D(9,10,13,14)           1.2359         estimate D2E/DX2                !
 ! D43   D(9,10,13,86)         177.3489         estimate D2E/DX2                !
 ! D44   D(11,10,13,14)       -175.5884         estimate D2E/DX2                !
 ! D45   D(11,10,13,86)          0.5246         estimate D2E/DX2                !
 ! D46   D(10,11,12,83)        177.8461         estimate D2E/DX2                !
 ! D47   D(10,11,12,84)         65.0461         estimate D2E/DX2                !
 ! D48   D(10,11,12,85)        -60.604          estimate D2E/DX2                !
 ! D49   D(10,13,14,15)         -5.0464         estimate D2E/DX2                !
 ! D50   D(10,13,14,16)       -179.2208         estimate D2E/DX2                !
 ! D51   D(86,13,14,15)        178.7699         estimate D2E/DX2                !
 ! D52   D(86,13,14,16)          4.5956         estimate D2E/DX2                !
 ! D53   D(13,14,15,9)           5.7077         estimate D2E/DX2                !
 ! D54   D(16,14,15,9)        -179.7792         estimate D2E/DX2                !
 ! D55   D(13,14,16,17)         53.383          estimate D2E/DX2                !
 ! D56   D(13,14,16,23)       -122.0326         estimate D2E/DX2                !
 ! D57   D(15,14,16,17)       -120.091          estimate D2E/DX2                !
 ! D58   D(15,14,16,23)         64.4935         estimate D2E/DX2                !
 ! D59   D(14,16,17,18)       -179.942          estimate D2E/DX2                !
 ! D60   D(14,16,17,87)          2.8829         estimate D2E/DX2                !
 ! D61   D(23,16,17,18)         -4.5313         estimate D2E/DX2                !
 ! D62   D(23,16,17,87)        178.2936         estimate D2E/DX2                !
 ! D63   D(14,16,23,20)       -177.1176         estimate D2E/DX2                !
 ! D64   D(14,16,23,92)         -1.0933         estimate D2E/DX2                !
 ! D65   D(17,16,23,20)          6.9943         estimate D2E/DX2                !
 ! D66   D(17,16,23,92)       -176.9814         estimate D2E/DX2                !
 ! D67   D(16,17,18,19)          2.4933         estimate D2E/DX2                !
 ! D68   D(16,17,18,88)       -179.6503         estimate D2E/DX2                !
 ! D69   D(87,17,18,19)        179.6004         estimate D2E/DX2                !
 ! D70   D(87,17,18,88)         -2.5432         estimate D2E/DX2                !
 ! D71   D(17,18,19,20)         -2.8158         estimate D2E/DX2                !
 ! D72   D(17,18,19,24)        174.5653         estimate D2E/DX2                !
 ! D73   D(88,18,19,20)        179.3711         estimate D2E/DX2                !
 ! D74   D(88,18,19,24)         -3.2478         estimate D2E/DX2                !
 ! D75   D(18,19,20,21)        176.4072         estimate D2E/DX2                !
 ! D76   D(18,19,20,23)          5.7522         estimate D2E/DX2                !
 ! D77   D(24,19,20,21)         -0.8113         estimate D2E/DX2                !
 ! D78   D(24,19,20,23)       -171.4663         estimate D2E/DX2                !
 ! D79   D(18,19,24,25)        -55.7477         estimate D2E/DX2                !
 ! D80   D(18,19,24,30)        121.8438         estimate D2E/DX2                !
 ! D81   D(20,19,24,25)        121.3315         estimate D2E/DX2                !
 ! D82   D(20,19,24,30)        -61.077          estimate D2E/DX2                !
 ! D83   D(19,20,21,22)        124.3669         estimate D2E/DX2                !
 ! D84   D(23,20,21,22)        -64.4615         estimate D2E/DX2                !
 ! D85   D(19,20,23,16)         -8.0847         estimate D2E/DX2                !
 ! D86   D(19,20,23,92)        175.7228         estimate D2E/DX2                !
 ! D87   D(21,20,23,16)       -178.7433         estimate D2E/DX2                !
 ! D88   D(21,20,23,92)          5.0642         estimate D2E/DX2                !
 ! D89   D(20,21,22,89)        -42.7979         estimate D2E/DX2                !
 ! D90   D(20,21,22,90)       -166.5992         estimate D2E/DX2                !
 ! D91   D(20,21,22,91)         79.7262         estimate D2E/DX2                !
 ! D92   D(19,24,25,26)         -2.9656         estimate D2E/DX2                !
 ! D93   D(19,24,25,28)       -179.1033         estimate D2E/DX2                !
 ! D94   D(30,24,25,26)        179.4373         estimate D2E/DX2                !
 ! D95   D(30,24,25,28)          3.2997         estimate D2E/DX2                !
 ! D96   D(19,24,30,29)        177.8968         estimate D2E/DX2                !
 ! D97   D(25,24,30,29)         -4.0705         estimate D2E/DX2                !
 ! D98   D(24,25,26,27)       -172.468          estimate D2E/DX2                !
 ! D99   D(28,25,26,27)          2.9914         estimate D2E/DX2                !
 ! D100  D(24,25,28,29)         -0.4873         estimate D2E/DX2                !
 ! D101  D(24,25,28,96)        173.3481         estimate D2E/DX2                !
 ! D102  D(26,25,28,29)       -176.2165         estimate D2E/DX2                !
 ! D103  D(26,25,28,96)         -2.3811         estimate D2E/DX2                !
 ! D104  D(25,26,27,93)         61.1145         estimate D2E/DX2                !
 ! D105  D(25,26,27,94)        -60.7808         estimate D2E/DX2                !
 ! D106  D(25,26,27,95)       -176.5196         estimate D2E/DX2                !
 ! D107  D(25,28,29,30)         -2.5361         estimate D2E/DX2                !
 ! D108  D(25,28,29,31)        176.9323         estimate D2E/DX2                !
 ! D109  D(96,28,29,30)       -176.6441         estimate D2E/DX2                !
 ! D110  D(96,28,29,31)          2.8243         estimate D2E/DX2                !
 ! D111  D(28,29,30,24)          3.6117         estimate D2E/DX2                !
 ! D112  D(31,29,30,24)       -175.8687         estimate D2E/DX2                !
 ! D113  D(28,29,31,32)       -124.9832         estimate D2E/DX2                !
 ! D114  D(28,29,31,38)         62.304          estimate D2E/DX2                !
 ! D115  D(30,29,31,32)         54.4238         estimate D2E/DX2                !
 ! D116  D(30,29,31,38)       -118.2889         estimate D2E/DX2                !
 ! D117  D(29,31,32,33)       -173.5177         estimate D2E/DX2                !
 ! D118  D(29,31,32,97)          1.4732         estimate D2E/DX2                !
 ! D119  D(38,31,32,33)         -0.5183         estimate D2E/DX2                !
 ! D120  D(38,31,32,97)        174.4727         estimate D2E/DX2                !
 ! D121  D(29,31,38,35)        175.1072         estimate D2E/DX2                !
 ! D122  D(29,31,38,102)        -7.2651         estimate D2E/DX2                !
 ! D123  D(32,31,38,35)          2.3299         estimate D2E/DX2                !
 ! D124  D(32,31,38,102)       179.9576         estimate D2E/DX2                !
 ! D125  D(31,32,33,34)         -0.1369         estimate D2E/DX2                !
 ! D126  D(31,32,33,98)        178.0374         estimate D2E/DX2                !
 ! D127  D(97,32,33,34)       -174.7829         estimate D2E/DX2                !
 ! D128  D(97,32,33,98)          3.3914         estimate D2E/DX2                !
 ! D129  D(32,33,34,35)         -1.0571         estimate D2E/DX2                !
 ! D130  D(32,33,34,39)        177.9446         estimate D2E/DX2                !
 ! D131  D(98,33,34,35)       -179.0003         estimate D2E/DX2                !
 ! D132  D(98,33,34,39)          0.0013         estimate D2E/DX2                !
 ! D133  D(33,34,35,36)       -179.2181         estimate D2E/DX2                !
 ! D134  D(33,34,35,38)          2.8582         estimate D2E/DX2                !
 ! D135  D(39,34,35,36)          1.9059         estimate D2E/DX2                !
 ! D136  D(39,34,35,38)       -176.0177         estimate D2E/DX2                !
 ! D137  D(33,34,39,40)        -55.6867         estimate D2E/DX2                !
 ! D138  D(33,34,39,45)        117.2438         estimate D2E/DX2                !
 ! D139  D(35,34,39,40)        123.2055         estimate D2E/DX2                !
 ! D140  D(35,34,39,45)        -63.8641         estimate D2E/DX2                !
 ! D141  D(34,35,36,37)        127.1642         estimate D2E/DX2                !
 ! D142  D(38,35,36,37)        -54.8844         estimate D2E/DX2                !
 ! D143  D(34,35,38,31)         -3.6766         estimate D2E/DX2                !
 ! D144  D(34,35,38,102)       178.5746         estimate D2E/DX2                !
 ! D145  D(36,35,38,31)        178.4484         estimate D2E/DX2                !
 ! D146  D(36,35,38,102)         0.6995         estimate D2E/DX2                !
 ! D147  D(35,36,37,99)       -168.2036         estimate D2E/DX2                !
 ! D148  D(35,36,37,100)        77.1022         estimate D2E/DX2                !
 ! D149  D(35,36,37,101)       -51.3162         estimate D2E/DX2                !
 ! D150  D(34,39,40,41)         -5.2705         estimate D2E/DX2                !
 ! D151  D(34,39,40,43)        177.3724         estimate D2E/DX2                !
 ! D152  D(45,39,40,41)       -178.4554         estimate D2E/DX2                !
 ! D153  D(45,39,40,43)          4.1875         estimate D2E/DX2                !
 ! D154  D(34,39,45,44)       -175.1595         estimate D2E/DX2                !
 ! D155  D(40,39,45,44)         -0.8739         estimate D2E/DX2                !
 ! D156  D(39,40,41,42)       -175.1354         estimate D2E/DX2                !
 ! D157  D(43,40,41,42)          1.7926         estimate D2E/DX2                !
 ! D158  D(39,40,43,44)         -6.2184         estimate D2E/DX2                !
 ! D159  D(39,40,43,106)       178.3798         estimate D2E/DX2                !
 ! D160  D(41,40,43,44)        176.7775         estimate D2E/DX2                !
 ! D161  D(41,40,43,106)         1.3758         estimate D2E/DX2                !
 ! D162  D(40,41,42,103)       176.4921         estimate D2E/DX2                !
 ! D163  D(40,41,42,104)       -63.6324         estimate D2E/DX2                !
 ! D164  D(40,41,42,105)        64.447          estimate D2E/DX2                !
 ! D165  D(40,43,44,45)          5.2547         estimate D2E/DX2                !
 ! D166  D(40,43,44,46)       -177.4697         estimate D2E/DX2                !
 ! D167  D(106,43,44,45)      -178.8277         estimate D2E/DX2                !
 ! D168  D(106,43,44,46)        -1.5521         estimate D2E/DX2                !
 ! D169  D(43,44,45,39)         -2.4588         estimate D2E/DX2                !
 ! D170  D(46,44,45,39)       -179.9469         estimate D2E/DX2                !
 ! D171  D(43,44,46,47)        -36.7409         estimate D2E/DX2                !
 ! D172  D(43,44,46,53)        144.0164         estimate D2E/DX2                !
 ! D173  D(45,44,46,47)        140.2139         estimate D2E/DX2                !
 ! D174  D(45,44,46,53)        -39.0288         estimate D2E/DX2                !
 ! D175  D(44,46,47,48)        174.0893         estimate D2E/DX2                !
 ! D176  D(44,46,47,107)         1.1233         estimate D2E/DX2                !
 ! D177  D(53,46,47,48)         -6.6306         estimate D2E/DX2                !
 ! D178  D(53,46,47,107)      -179.5965         estimate D2E/DX2                !
 ! D179  D(44,46,53,50)       -174.4459         estimate D2E/DX2                !
 ! D180  D(44,46,53,112)        -0.193          estimate D2E/DX2                !
 ! D181  D(47,46,53,50)          6.2888         estimate D2E/DX2                !
 ! D182  D(47,46,53,112)      -179.4584         estimate D2E/DX2                !
 ! D183  D(46,47,48,49)          2.9956         estimate D2E/DX2                !
 ! D184  D(46,47,48,108)      -176.5971         estimate D2E/DX2                !
 ! D185  D(107,47,48,49)       176.5345         estimate D2E/DX2                !
 ! D186  D(107,47,48,108)       -3.0582         estimate D2E/DX2                !
 ! D187  D(47,48,49,50)          1.5031         estimate D2E/DX2                !
 ! D188  D(47,48,49,54)        177.8727         estimate D2E/DX2                !
 ! D189  D(108,48,49,50)      -178.9311         estimate D2E/DX2                !
 ! D190  D(108,48,49,54)        -2.5615         estimate D2E/DX2                !
 ! D191  D(48,49,50,51)        178.7806         estimate D2E/DX2                !
 ! D192  D(48,49,50,53)         -1.9876         estimate D2E/DX2                !
 ! D193  D(54,49,50,51)          2.5177         estimate D2E/DX2                !
 ! D194  D(54,49,50,53)       -178.2506         estimate D2E/DX2                !
 ! D195  D(48,49,54,55)         77.2245         estimate D2E/DX2                !
 ! D196  D(48,49,54,60)       -101.1192         estimate D2E/DX2                !
 ! D197  D(50,49,54,55)       -106.5006         estimate D2E/DX2                !
 ! D198  D(50,49,54,60)         75.1556         estimate D2E/DX2                !
 ! D199  D(49,50,51,52)       -119.6763         estimate D2E/DX2                !
 ! D200  D(53,50,51,52)         61.142          estimate D2E/DX2                !
 ! D201  D(49,50,53,46)         -1.9597         estimate D2E/DX2                !
 ! D202  D(49,50,53,112)      -176.5009         estimate D2E/DX2                !
 ! D203  D(51,50,53,46)        177.248          estimate D2E/DX2                !
 ! D204  D(51,50,53,112)         2.7068         estimate D2E/DX2                !
 ! D205  D(50,51,52,109)       173.9765         estimate D2E/DX2                !
 ! D206  D(50,51,52,110)       -73.5928         estimate D2E/DX2                !
 ! D207  D(50,51,52,111)        51.5207         estimate D2E/DX2                !
 ! D208  D(49,54,55,56)          0.5007         estimate D2E/DX2                !
 ! D209  D(49,54,55,58)       -177.6023         estimate D2E/DX2                !
 ! D210  D(60,54,55,56)        179.0303         estimate D2E/DX2                !
 ! D211  D(60,54,55,58)          0.9274         estimate D2E/DX2                !
 ! D212  D(49,54,60,59)        178.3779         estimate D2E/DX2                !
 ! D213  D(55,54,60,59)         -0.1853         estimate D2E/DX2                !
 ! D214  D(54,55,56,57)       -179.8535         estimate D2E/DX2                !
 ! D215  D(58,55,56,57)         -2.0407         estimate D2E/DX2                !
 ! D216  D(54,55,58,59)         -1.3569         estimate D2E/DX2                !
 ! D217  D(54,55,58,116)      -179.5316         estimate D2E/DX2                !
 ! D218  D(56,55,58,59)       -179.2673         estimate D2E/DX2                !
 ! D219  D(56,55,58,116)         2.5579         estimate D2E/DX2                !
 ! D220  D(55,56,57,113)       179.7584         estimate D2E/DX2                !
 ! D221  D(55,56,57,114)       -66.9771         estimate D2E/DX2                !
 ! D222  D(55,56,57,115)        64.6041         estimate D2E/DX2                !
 ! D223  D(55,58,59,60)          1.1991         estimate D2E/DX2                !
 ! D224  D(55,58,59,61)       -174.8934         estimate D2E/DX2                !
 ! D225  D(116,58,59,60)       179.268          estimate D2E/DX2                !
 ! D226  D(116,58,59,61)         3.1756         estimate D2E/DX2                !
 ! D227  D(58,59,60,54)         -0.6265         estimate D2E/DX2                !
 ! D228  D(61,59,60,54)        175.5135         estimate D2E/DX2                !
 ! D229  D(58,59,61,62)        -54.6307         estimate D2E/DX2                !
 ! D230  D(58,59,61,68)        127.1257         estimate D2E/DX2                !
 ! D231  D(60,59,61,62)        129.658          estimate D2E/DX2                !
 ! D232  D(60,59,61,68)        -48.5856         estimate D2E/DX2                !
 ! D233  D(59,61,62,63)       -178.1596         estimate D2E/DX2                !
 ! D234  D(59,61,62,117)        -2.7027         estimate D2E/DX2                !
 ! D235  D(68,61,62,63)          0.1751         estimate D2E/DX2                !
 ! D236  D(68,61,62,117)       175.632          estimate D2E/DX2                !
 ! D237  D(59,61,68,65)        177.1885         estimate D2E/DX2                !
 ! D238  D(59,61,68,122)        -1.2986         estimate D2E/DX2                !
 ! D239  D(62,61,68,65)         -1.089          estimate D2E/DX2                !
 ! D240  D(62,61,68,122)      -179.5761         estimate D2E/DX2                !
 ! D241  D(61,62,63,64)         -0.2928         estimate D2E/DX2                !
 ! D242  D(61,62,63,118)      -179.9312         estimate D2E/DX2                !
 ! D243  D(117,62,63,64)      -175.9559         estimate D2E/DX2                !
 ! D244  D(117,62,63,118)        4.4057         estimate D2E/DX2                !
 ! D245  D(62,63,64,65)          1.2546         estimate D2E/DX2                !
 ! D246  D(62,63,64,69)       -179.7691         estimate D2E/DX2                !
 ! D247  D(118,63,64,65)      -179.1034         estimate D2E/DX2                !
 ! D248  D(118,63,64,69)        -0.1271         estimate D2E/DX2                !
 ! D249  D(63,64,65,66)        179.3306         estimate D2E/DX2                !
 ! D250  D(63,64,65,68)         -2.3459         estimate D2E/DX2                !
 ! D251  D(69,64,65,66)          0.4982         estimate D2E/DX2                !
 ! D252  D(69,64,65,68)        178.8217         estimate D2E/DX2                !
 ! D253  D(63,64,69,70)         82.5902         estimate D2E/DX2                !
 ! D254  D(63,64,69,75)       -102.0665         estimate D2E/DX2                !
 ! D255  D(65,64,69,70)        -98.5865         estimate D2E/DX2                !
 ! D256  D(65,64,69,75)         76.7568         estimate D2E/DX2                !
 ! D257  D(64,65,66,67)       -162.0251         estimate D2E/DX2                !
 ! D258  D(68,65,66,67)         19.6131         estimate D2E/DX2                !
 ! D259  D(64,65,68,61)          2.2998         estimate D2E/DX2                !
 ! D260  D(64,65,68,122)      -179.2245         estimate D2E/DX2                !
 ! D261  D(66,65,68,61)       -179.5759         estimate D2E/DX2                !
 ! D262  D(66,65,68,122)        -1.1002         estimate D2E/DX2                !
 ! D263  D(65,66,67,119)       -69.2756         estimate D2E/DX2                !
 ! D264  D(65,66,67,120)       166.7957         estimate D2E/DX2                !
 ! D265  D(65,66,67,121)        54.2384         estimate D2E/DX2                !
 ! D266  D(64,69,70,71)         -5.5628         estimate D2E/DX2                !
 ! D267  D(64,69,70,73)        175.8435         estimate D2E/DX2                !
 ! D268  D(75,69,70,71)        178.8045         estimate D2E/DX2                !
 ! D269  D(75,69,70,73)          0.2108         estimate D2E/DX2                !
 ! D270  D(64,69,75,74)       -178.3198         estimate D2E/DX2                !
 ! D271  D(70,69,75,74)         -2.5197         estimate D2E/DX2                !
 ! D272  D(69,70,71,72)       -179.6341         estimate D2E/DX2                !
 ! D273  D(73,70,71,72)         -1.2856         estimate D2E/DX2                !
 ! D274  D(69,70,73,74)          2.8274         estimate D2E/DX2                !
 ! D275  D(69,70,73,126)       174.1692         estimate D2E/DX2                !
 ! D276  D(71,70,73,74)       -175.755          estimate D2E/DX2                !
 ! D277  D(71,70,73,126)        -4.4132         estimate D2E/DX2                !
 ! D278  D(70,71,72,123)      -174.0725         estimate D2E/DX2                !
 ! D279  D(70,71,72,124)       -60.1685         estimate D2E/DX2                !
 ! D280  D(70,71,72,125)        63.0803         estimate D2E/DX2                !
 ! D281  D(70,73,74,75)         -4.9794         estimate D2E/DX2                !
 ! D282  D(70,73,74,127)      -178.3235         estimate D2E/DX2                !
 ! D283  D(126,73,74,75)      -176.5318         estimate D2E/DX2                !
 ! D284  D(126,73,74,127)       10.1241         estimate D2E/DX2                !
 ! D285  D(73,74,75,69)          4.3432         estimate D2E/DX2                !
 ! D286  D(127,74,75,69)       178.2112         estimate D2E/DX2                !
 --------------------------------------------------------------------------------
 Trust Radius=3.00D-01 FncErr=1.00D-07 GrdErr=1.00D-06 EigMax=2.50D+02 EigMin=1.00D-04
 Number of steps in this run=    657 maximum allowed number of steps=    762.
[...]
  Beta virt. eigenvalues --    1.87039   1.87299   1.87492   1.87545   1.87937
  Beta virt. eigenvalues --    1.88549   1.88878   1.89098   1.89177   1.89635
  Beta virt. eigenvalues --    1.89894   1.90014   1.90328   1.90414   1.90810
  Beta virt. eigenvalues --    1.91160   1.91322   1.91642   1.91719   1.92011
  Beta virt. eigenvalues --    1.92511   1.93153   1.93410   1.93910   1.94455
  Beta virt. eigenvalues --    1.94604   1.95061   1.95186   1.95612   1.95997
  Beta virt. eigenvalues --    1.96144   1.96682   1.97015   1.97384   1.97836
  Beta virt. eigenvalues --    1.98264   1.98397   1.98512   1.98857   1.99347
  Beta virt. eigenvalues --    1.99424   1.99700   2.00066   2.00375   2.00719
  Beta virt. eigenvalues --    2.00876   2.01324   2.01441   2.01699   2.01794
  Beta virt. eigenvalues --    2.01952   2.02125   2.02335   2.02533   2.02880
  Beta virt. eigenvalues --    2.02977   2.03288   2.03461   2.03592   2.03638
  Beta virt. eigenvalues --    2.03878   2.04275   2.04498   2.04884   2.05227
  Beta virt. eigenvalues --    2.05365   2.05644   2.06314   2.06581   2.06649
  Beta virt. eigenvalues --    2.07142   2.07286   2.07632   2.08007   2.08386
  Beta virt. eigenvalues --    2.08473   2.08795   2.09624   2.09990   2.10856
  Beta virt. eigenvalues --    2.11055   2.11270   2.11380   2.11567   2.12732
  Beta virt. eigenvalues --    2.12978   2.13017   2.13826   2.14852   2.15007
  Beta virt. eigenvalues --    2.15209   2.15692   2.15893   2.16261   2.16379
  Beta virt. eigenvalues --    2.16448   2.16864   2.17008   2.17112   2.17214
  Beta virt. eigenvalues --    2.17567   2.17942   2.18006   2.18214   2.18338
  Beta virt. eigenvalues --    2.18788   2.18935   2.19102   2.19197   2.19286
  Beta virt. eigenvalues --    2.19795   2.19887   2.20008   2.20270   2.21077
  Beta virt. eigenvalues --    2.21144   2.21184   2.21791   2.21989   2.22101
  Beta virt. eigenvalues --    2.22993   2.23478   2.24464   2.24613   2.24762
  Beta virt. eigenvalues --    2.24904   2.25067   2.25428   2.25743   2.26169
  Beta virt. eigenvalues --    2.26530   2.26584   2.26789   2.27093   2.27287
  Beta virt. eigenvalues --    2.27623   2.27766   2.28148   2.32119   2.32469
  Beta virt. eigenvalues --    2.32809   2.32847   2.33418   2.33817   2.33990
  Beta virt. eigenvalues --    2.34174   2.34233   2.34626   2.35167   2.35761
  Beta virt. eigenvalues --    2.36355   2.36526   2.37240   2.37348   2.37912
  Beta virt. eigenvalues --    2.38272   2.38419   2.38773   2.38925   2.39352
  Beta virt. eigenvalues --    2.39465   2.39492   2.41955   2.42418   2.42486
  Beta virt. eigenvalues --    2.43137   2.43396   2.43885   2.44053   2.45024
  Beta virt. eigenvalues --    2.45068   2.45482   2.48579   2.50177   2.50247
  Beta virt. eigenvalues --    2.50334   2.50519   2.50541   2.50655   2.50729
  Beta virt. eigenvalues --    2.50780   2.50865   2.50888   2.51074   2.51131
  Beta virt. eigenvalues --    2.51328   2.51541   2.51658   2.52647   2.53276
  Beta virt. eigenvalues --    2.53505   2.54052   2.54127   2.55453   2.55550
  Beta virt. eigenvalues --    2.55650   2.55723   2.56042   2.56107   2.56883
  Beta virt. eigenvalues --    2.57284   2.57353   2.57518   2.57781   2.57827
  Beta virt. eigenvalues --    2.58073   2.58179   2.58603   2.59262   2.59369
  Beta virt. eigenvalues --    2.59913   2.60166   2.60634   2.60709   2.61718
  Beta virt. eigenvalues --    2.61987   2.62165   2.62308   2.62530   2.63293
  Beta virt. eigenvalues --    2.63995   2.64159   2.64358   2.64443   2.66798
  Beta virt. eigenvalues --    2.66919   2.67984   2.68081   2.68802   2.77558
  Beta virt. eigenvalues --    2.78007   2.78898   2.79355   2.79886   2.80123
  Beta virt. eigenvalues --    2.81685   2.81742   2.82060   2.82305   2.83391
  Beta virt. eigenvalues --    2.84192   2.84838   2.85860   2.86520   2.89474
  Beta virt. eigenvalues --    2.89818   2.89912   2.90201   2.90580   2.95041
  Beta virt. eigenvalues --    2.96218   2.96642   2.97306   2.97877   2.98535
  Beta virt. eigenvalues --    2.98684   2.98947   2.99237   2.99701   3.00877
  Beta virt. eigenvalues --    3.01061   3.01102   3.01281   3.01709   3.07545
  Beta virt. eigenvalues --    3.08493   3.08928   3.10389   3.11553   3.13166
  Beta virt. eigenvalues --    3.13252   3.13349   3.13415   3.13547   3.13976
  Beta virt. eigenvalues --    3.14109   3.14124   3.14189   3.14289   3.16509
  Beta virt. eigenvalues --    3.16915   3.16961   3.17087   3.17136   3.17176
  Beta virt. eigenvalues --    3.17249   3.17278   3.17395   3.17425   3.37369
  Beta virt. eigenvalues --    3.37711   3.38089   3.38263   3.40902   3.47768
  Beta virt. eigenvalues --    3.48218   3.48266   3.48404   3.48438   3.52627
  Beta virt. eigenvalues --    3.52759   3.52802   3.52913   3.53016   3.55988
  Beta virt. eigenvalues --    3.56065   3.56278   3.56474   3.56556   3.68916
  Beta virt. eigenvalues --    3.69301   3.69931   3.70315   3.74918
          Condensed to atoms (all electrons):
          Atomic-Atomic Spin Densities.
 Mulliken charges and spin densities:
               1          2
     1  C    0.008243  -0.000000
     2  C    0.006929   0.000000
     3  C    0.013151  -0.000000
     4  C   -0.008881  -0.000000
     5  C    0.108771  -0.000000
     6  O   -0.257807   0.000000
     7  C    0.049015   0.000000
     8  C   -0.049949   0.000000
     9  C   -0.182834  -0.000000
    10  C    0.156929   0.000000
    11  O   -0.261480   0.000000
    12  C    0.047189   0.000000
    13  C   -0.013395  -0.000000
    14  C   -0.159606   0.000000
    15  S    0.180194   0.000000
    16  C    0.046243  -0.000000
    17  C   -0.011547  -0.000000
    18  C    0.023757   0.000000
    19  C    0.006819   0.000000
    20  C    0.117240  -0.000000
    21  O   -0.259921   0.000000
    22  C    0.049181   0.000000
    23  C   -0.049935   0.000000
    24  C   -0.185111   0.000000
    25  C    0.152475  -0.000000
    26  O   -0.263250   0.000000
    27  C    0.048467  -0.000000
    28  C   -0.013417  -0.000000
    29  C   -0.160161  -0.000000
    30  S    0.190632   0.000000
    31  C    0.039359   0.000000
    32  C   -0.005939  -0.000000
    33  C    0.022547   0.000000
    34  C    0.004190  -0.000000
    35  C    0.119938   0.000000
    36  O   -0.259018  -0.000000
    37  C    0.050985  -0.000000
    38  C   -0.050285  -0.000000
    39  C   -0.183551   0.000000
    40  C    0.156340  -0.000000
    41  O   -0.262504   0.000000
    42  C    0.047373   0.000000
    43  C   -0.011443  -0.000000
    44  C   -0.159504   0.000000
    45  S    0.175361   0.000000
    46  C    0.045981  -0.000000
    47  C   -0.011646  -0.000000
    48  C    0.024204  -0.000000
    49  C    0.007382  -0.000000
    50  C    0.116796   0.000000
    51  O   -0.260421   0.000000
    52  C    0.049736   0.000000
    53  C   -0.048958  -0.000000
    54  C   -0.184317   0.000000
    55  C    0.153362   0.000000
    56  O   -0.263255   0.000000
    57  C    0.047586  -0.000000
    58  C   -0.010623  -0.000000
    59  C   -0.159517  -0.000000
    60  S    0.180694  -0.000000
    61  C    0.045053   0.000000
    62  C   -0.012168  -0.000000
    63  C    0.026382  -0.000000
    64  C    0.008759  -0.000000
    65  C    0.119038   0.000000
    66  O   -0.259537   0.000000
    67  C    0.048816   0.000000
    68  C   -0.050815  -0.000000
    69  C   -0.192465   0.000000
    70  C    0.138153   0.000000
    71  O   -0.261339  -0.000000
    72  C    0.045438  -0.000000
    73  C   -0.001948  -0.000000
    74  C   -0.138057   0.000000
    75  S    0.182101   0.000000
    76  H   -0.001160   0.000000
    77  H   -0.005042   0.000000
    78  H    0.000271   0.000000
    79  H    0.058529   0.000000
    80  H    0.049479  -0.000000
    81  H    0.049713   0.000000
    82  H    0.001535   0.000000
    83  H    0.058248  -0.000000
    84  H    0.049587  -0.000000
    85  H    0.046578  -0.000000
    86  H    0.004731  -0.000000
    87  H   -0.014530   0.000000
    88  H   -0.000572   0.000000
    89  H    0.051888  -0.000000
    90  H    0.060720  -0.000000
    91  H    0.052394   0.000000
    92  H    0.003888  -0.000000
    93  H    0.050049   0.000000
    94  H    0.044888   0.000000
    95  H    0.058234   0.000000
    96  H    0.001109   0.000000
    97  H   -0.004706  -0.000000
    98  H    0.000556   0.000000
    99  H    0.062721   0.000000
   100  H    0.053343  -0.000000
   101  H    0.045474   0.000000
   102  H   -0.006012  -0.000000
   103  H    0.059158  -0.000000
   104  H    0.048873  -0.000000
   105  H    0.048471   0.000000
   106  H    0.004922   0.000000
   107  H   -0.014142   0.000000
   108  H    0.000233  -0.000000
   109  H    0.058145  -0.000000
   110  H    0.053790   0.000000
   111  H    0.051934  -0.000000
   112  H    0.004992  -0.000000
   113  H    0.058197  -0.000000
   114  H    0.050427  -0.000000
   115  H    0.047487   0.000000
   116  H    0.005093  -0.000000
   117  H   -0.014091  -0.000000
   118  H    0.000400   0.000000
   119  H    0.052690   0.000000
   120  H    0.061022  -0.000000
   121  H    0.051558  -0.000000
   122  H    0.004145  -0.000000
   123  H    0.058467  -0.000000
   124  H    0.048553  -0.000000
   125  H    0.047644   0.000000
   126  H    0.007621   0.000000
   127  H    0.036290   0.000000
 Sum of Mulliken charges =  -0.00000  -0.00000
 Mulliken charges and spin densities with hydrogens summed into heavy atoms:
               1          2
     1  C    0.007083   0.000000
     2  C    0.001888   0.000000
     3  C    0.013422  -0.000000
     4  C   -0.008881  -0.000000
     5  C    0.108771  -0.000000
     6  O   -0.257807   0.000000
     7  C    0.206736   0.000000
     8  C   -0.048414   0.000000
     9  C   -0.182834  -0.000000
    10  C    0.156929   0.000000
    11  O   -0.261480   0.000000
    12  C    0.201600   0.000000
    13  C   -0.008664  -0.000000
    14  C   -0.159606   0.000000
    15  S    0.180194   0.000000
    16  C    0.046243  -0.000000
    17  C   -0.026077  -0.000000
    18  C    0.023184   0.000000
    19  C    0.006819   0.000000
    20  C    0.117240  -0.000000
    21  O   -0.259921   0.000000
    22  C    0.214183   0.000000
    23  C   -0.046047  -0.000000
    24  C   -0.185111   0.000000
    25  C    0.152475  -0.000000
    26  O   -0.263250   0.000000
    27  C    0.201639   0.000000
    28  C   -0.012307  -0.000000
    29  C   -0.160161  -0.000000
    30  S    0.190632   0.000000
    31  C    0.039359   0.000000
    32  C   -0.010645  -0.000000
    33  C    0.023103   0.000000
    34  C    0.004190  -0.000000
    35  C    0.119938   0.000000
    36  O   -0.259018  -0.000000
    37  C    0.212524  -0.000000
    38  C   -0.056296  -0.000000
    39  C   -0.183551   0.000000
    40  C    0.156340  -0.000000
    41  O   -0.262504   0.000000
    42  C    0.203876  -0.000000
    43  C   -0.006521  -0.000000
    44  C   -0.159504   0.000000
    45  S    0.175361   0.000000
    46  C    0.045981  -0.000000
    47  C   -0.025788   0.000000
    48  C    0.024438  -0.000000
    49  C    0.007382  -0.000000
    50  C    0.116796   0.000000
    51  O   -0.260421   0.000000
    52  C    0.213605   0.000000
    53  C   -0.043965  -0.000000
    54  C   -0.184317   0.000000
    55  C    0.153362   0.000000
    56  O   -0.263255   0.000000
    57  C    0.203697  -0.000000
    58  C   -0.005531  -0.000000
    59  C   -0.159517  -0.000000
    60  S    0.180694  -0.000000
    61  C    0.045053   0.000000
    62  C   -0.026259  -0.000000
    63  C    0.026782  -0.000000
    64  C    0.008759  -0.000000
    65  C    0.119038   0.000000
    66  O   -0.259537   0.000000
    67  C    0.214087   0.000000
    68  C   -0.046670  -0.000000
    69  C   -0.192465   0.000000
    70  C    0.138153   0.000000
    71  O   -0.261339  -0.000000
    72  C    0.200102  -0.000000
    73  C    0.005673  -0.000000
    74  C   -0.101767   0.000000
    75  S    0.182101   0.000000
 Electronic spatial extent (au):  <R**2>=         276987.6164
 Charge=             -0.0000 electrons
 Dipole moment (field-independent basis, Debye):
    X=              3.4532    Y=              0.1337    Z=              2.1930  Tot=              4.0929
 Quadrupole moment (field-independent basis, Debye-Ang):
   XX=           -385.9637   YY=           -375.4657   ZZ=           -469.2217
   XY=             12.8616   XZ=            -10.2487   YZ=              2.0213
 Traceless Quadrupole moment (field-independent basis, Debye-Ang):
   XX=             24.2533   YY=             34.7513   ZZ=            -59.0047
   XY=             12.8616   XZ=            -10.2487   YZ=              2.0213
 Octapole moment (field-independent basis, Debye-Ang**2):
  XXX=           1927.9709  YYY=             50.4527  ZZZ=             35.0560  XYY=           -154.7045
  XXY=            376.9415  XXZ=            209.4859  XZZ=             17.1144  YZZ=            -11.6976
  YYZ=             26.2242  XYZ=           -198.1391
 Hexadecapole moment (field-independent basis, Debye-Ang**3):
 XXXX=        -301591.8948 YYYY=         -12065.1720 ZZZZ=          -1816.4683 XXXY=           1553.4967
 XXXZ=          -3473.0809 YYYX=           1029.1927 YYYZ=            -56.9706 ZZZX=            -21.5828
 ZZZY=              3.2071 XXYY=         -51951.1458 XXZZ=         -61548.4039 YYZZ=          -2639.3188
 XXYZ=            379.5971 YYXZ=           -219.4060 ZZXY=           -113.4851
 N-N= 1.105967163000D+04 E-N=-3.399859673726D+04  KE= 5.033400776702D+03
 Leave Link  601 at Fri Jul 24 00:36:37 2020, MaxMem=  4026531840 cpu:              10.6 elap:               1.5
 (Enter /opt/ohpc/pub/libs/gaussian/g16-A.03/sandybridge/g16/l9999.exe)

 Test job not archived.
 1\1\GINC-SKYLAKE026\FOpt\ULC-wPBE\CC-pVDZ\C60H52O10S5\RDU230\24-Jul-20
 20\0\\#P uLC-wPBE/cc-pVDZ iop(3/107=0384000000, 3/108=0384000000) opt\
 \H52 C60 S5 O10\\0,1\C,-18.9537133784,1.724702689,-0.8622730812\C,-18.
 7976190774,0.4222705943,-1.3059892126\C,-17.5891792411,-0.2329895351,-
 1.0973307015\C,-16.5205574954,0.3814931258,-0.4437424577\C,-16.6984235
 866,1.7105068407,-0.0073001785\O,-15.6328455915,2.2824359521,0.6092653
 436\C,-15.739891793,3.6164018934,1.0423879537\C,-17.9050559443,2.37127
 16599,-0.2154384679\C,-15.259311158,-0.353275581,-0.2311753043\C,-15.1
 041934085,-1.714019046,-0.071401482\O,-16.1812438353,-2.5394288179,-0.
 0133007506\C,-15.9357000996,-3.8908139175,0.2991230534\C,-13.745559989
 2,-2.1304630963,0.0207754145\C,-12.8698977923,-1.0841835392,-0.0761537
 703\S,-13.7025995886,0.4045560517,-0.2652324361\C,-11.3997422271,-1.14
 05982265,-0.0141174282\C,-10.7109780342,-2.2464647741,-0.5043553391\C,
 -9.3260564217,-2.2971238385,-0.431725985\C,-8.5719534385,-1.26163249,0
 .121891169\C,-9.2787792053,-0.1385614195,0.5997330746\O,-8.5250319035,
 0.8617049265,1.1190086031\C,-9.1665193146,2.0288324951,1.5749255637\C,
 -10.665361466,-0.0859236667,0.536341283\C,-7.1031992922,-1.3565210088,
 0.1874924689\C,-6.3429843465,-2.5062965758,0.2516647349\O,-6.927102648
 6,-3.7296249797,0.3427780508\C,-6.0768672653,-4.8299944358,0.565963830
 5\C,-4.9398603189,-2.2700804093,0.2138851357\C,-4.6360403629,-0.939425
 3139,0.1167096281\S,-6.0567766289,0.0203725549,0.0843786577\C,-3.29889
 6484,-0.3242230225,0.066690284\C,-3.0445953294,0.9174165669,0.64128947
 44\C,-1.7714163742,1.4676974408,0.5834165765\C,-0.7081554602,0.8162664
 923,-0.0417283516\C,-0.9749927565,-0.4451933535,-0.6139112769\O,0.0769
 060377,-1.0608000459,-1.208804788\C,-0.1184963617,-2.3229571632,-1.798
 9250449\C,-2.2478160044,-0.9983880765,-0.563386374\C,0.6264914785,1.43
 83544789,-0.0915807203\C,0.9189905158,2.7865017282,-0.0836358476\O,-0.
 0687325714,3.7180873565,-0.087300426\C,0.320044558,5.0634426705,-0.243
 0215024\C,2.3134900304,3.0723848164,-0.0545321615\C,3.0792828107,1.939
 5393729,-0.0307036782\S,2.1019504515,0.5295340264,-0.0809289409\C,4.54
 90239342,1.8523915383,-0.0023196769\C,5.3327324399,2.8220280182,-0.621
 1459865\C,6.7170162607,2.7361875278,-0.5757010349\C,7.3766917624,1.693
 6571411,0.076790295\C,6.5728881305,0.7081405291,0.6863684053\O,7.23447
 74254,-0.30321465,1.301812984\C,6.4881037257,-1.335842873,1.9003563708
 \C,5.1868991617,0.7931299549,0.6500155404\C,8.8486530203,1.643438328,0
 .108522405\C,9.72223774,2.7090337262,0.0353693117\O,9.2669412794,3.988
 1427856,0.0044118585\C,10.2309032154,5.0131843326,0.0765043816\C,11.09
 31235678,2.3273031327,-0.000556218\C,11.2594963545,0.9702600815,0.0395
 407938\S,9.7484659676,0.1628934821,0.1346141435\C,12.5298203498,0.2254
 325209,0.0286431076\C,13.6309427368,0.7123839863,-0.6698365158\C,14.82
 8108563,0.010150705,-0.6656469931\C,14.9805975614,-1.1939143193,0.0219
 27354\C,13.8542968297,-1.686866499,0.7122197227\O,14.0228931867,-2.866
 0488691,1.3596900554\C,12.9256249664,-3.4313675758,2.0365706625\C,12.6
 557118555,-0.9846679859,0.7175664747\C,16.2717346798,-1.9053805774,0.0
 083350954\C,17.5266901632,-1.348819983,-0.1271389785\O,17.693437041,-0
 .0023542526,-0.197567917\C,19.0169100376,0.479465155,-0.178720678\C,18
 .577666816,-2.3118955359,-0.1900497682\C,18.0993371805,-3.5843615526,-
 0.1092332091\S,16.4061940526,-3.6318318848,0.0660512989\H,-19.89515623
 54,2.2555080449,-1.0186093027\H,-19.6117423691,-0.0903880969,-1.821114
 9061\H,-17.4624400887,-1.2571564504,-1.4448612791\H,-14.7722621045,3.8
 695441117,1.4916295591\H,-15.9383153336,4.3030849506,0.2026592877\H,-1
 6.5303558797,3.7348540291,1.80199325\H,-18.0380092237,3.396931006,0.12
 68683345\H,-16.9166683468,-4.3779651614,0.3530218564\H,-15.4286399882,
 -3.9967465909,1.2724081963\H,-15.3329048295,-4.387426115,-0.4796371528
 \H,-13.420829299,-3.1556192525,0.1867817282\H,-11.257466873,-3.0656298
 135,-0.9739986406\H,-8.8024900607,-3.1675796397,-0.8229314645\H,-9.733
 3239752,2.5221407572,0.7681817713\H,-8.3694756492,2.6991520588,1.91734
 02731\H,-9.844687213,1.8157418481,2.4175910412\H,-11.199055994,0.77485
 76292,0.9380773835\H,-5.4890871959,-4.7075634125,1.4906746459\H,-5.390
 148104,-4.9944789587,-0.281375754\H,-6.7274043827,-5.7066366087,0.6701
 220163\H,-4.1793448481,-3.044289251,0.2939318878\H,-3.841179888,1.4527
 273202,1.1610254859\H,-1.5877805043,2.4378504737,1.0416421735\H,0.8552
 671068,-2.6234398474,-2.2030790655\H,-0.8509244364,-2.276760532,-2.621
 6029497\H,-0.4495996374,-3.0711080694,-1.0594412923\H,-2.4489533106,-1
 .9558282416,-1.0418322929\H,-0.6063572305,5.6474519025,-0.299090584\H,
 0.9146740201,5.4188205234,0.6150713913\H,0.895955155,5.2136336786,-1.1
 710056795\H,2.7402852175,4.0727281296,-0.0217746957\H,4.860079166,3.63
 82873909,-1.1693450576\H,7.3158617106,3.5003977274,-1.0678493289\H,7.2
 201268328,-2.0439329889,2.3061336557\H,5.8593190232,-0.9575111169,2.72
 30182495\H,5.8507589473,-1.8551685482,1.1658220923\H,4.5789254151,0.04
 14045618,1.1525976137\H,9.6751490337,5.9583503548,0.0925005953\H,10.83
 57716373,4.9370241828,0.995046391\H,10.8998739295,5.0070747335,-0.8002
 389153\H,11.9301858792,3.0221471559,-0.0200844168\H,13.5472740013,1.63
 44826973,-1.2468805068\H,15.6797057656,0.4022726213,-1.2189920631\H,12
 .5791206757,-2.7837805686,2.8587387486\H,13.2826530263,-4.3800644249,2
 .4541287629\H,12.0846841483,-3.6303369064,1.3519086326\H,11.8028052659
 ,-1.3618431117,1.2810194326\H,18.947004538,1.5738439036,-0.1765093947\
 H,19.5547181334,0.1527809068,0.7266755178\H,19.5811249922,0.1601842201
 ,-1.0710444574\H,19.6350044785,-2.0741513333,-0.287382344\H,18.6768252
 095,-4.5067756667,-0.1204873071\\Version=EM64L-G16RevA.03\State=1-A\HF
 =-5058.1867047\S2=0.\S2-1=0.\S2A=0.\RMSD=6.390e-09\RMSF=1.138e-06\Dipo
 le=1.3530746,0.0663294,0.8704629\Quadrupole=18.2627131,25.7422314,-44.
 0049445,9.4107025,-7.4428828,-0.2241873\PG=C01 [X(C60H52O10S5)]\\@


 ON A CLEAR DISK YOU CAN SEEK FOREVER.
 Job cpu time:       2 days 21 hours 39 minutes 14.6 seconds.
 Elapsed time:       0 days  8 hours 58 minutes 36.3 seconds.
 File lengths (MBytes):  RWF=   1984 Int=      0 D2E=      0 Chk=    180 Scr=      8
 Normal termination of Gaussian 16 at Fri Jul 24 00:36:37 2020.
