 Entering Gaussian System, Link 0=g16
 Input=mols_65_1_08_c-cF-C_opt_0.gjf
 Output=mols_65_1_08_c-cF-C_opt_0.log
 Initial command:
 /opt/ohpc/pub/libs/gaussian/g16-A.03/sandybridge/g16/l1.exe "/mnt/gpfs2_4m/scratch/rdu230/ondemand/projects/dihedral_energies/7trial/wtuning/mols_65_1_08_c-cF-C/Gau-306010.inp" -scrdir="/mnt/gpfs2_4m/scratch/rdu230/ondemand/projects/dihedral_energies/7trial/wtuning/mols_65_1_08_c-cF-C/"
 Entering Link 1 = /opt/ohpc/pub/libs/gaussian/g16-A.03/sandybridge/g16/l1.exe PID=    306011.
  
 Copyright (c) 1988,1990,1992,1993,1995,1998,2003,2009,2016,
            Gaussian, Inc.  All Rights Reserved.
  
 This is part of the Gaussian(R) 16 program.  It is based on
 the Gaussian(R) 09 system (copyright 2009, Gaussian, Inc.),
 the Gaussian(R) 03 system (copyright 2003, Gaussian, Inc.),
 the Gaussian(R) 98 system (copyright 1998, Gaussian, Inc.),
 the Gaussian(R) 94 system (copyright 1995, Gaussian, Inc.),
 the Gaussian 92(TM) system (copyright 1992, Gaussian, Inc.),
 the Gaussian 90(TM) system (copyright 1990, Gaussian, Inc.),
 the Gaussian 88(TM) system (copyright 1988, Gaussian, Inc.),
 the Gaussian 86(TM) system (copyright 1986, Carnegie Mellon
 University), and the Gaussian 82(TM) system (copyright 1983,
 Carnegie Mellon University). Gaussian is a federally registered
 trademark of Gaussian, Inc.
  
 This software contains proprietary and confidential information,
 including trade secrets, belonging to Gaussian, Inc.
  
 This software is provided under written license and may be
 used, copied, transmitted, or stored only in accord with that
 written license.
  
 The following legend is applicable only to US Government
 contracts under FAR:
  
                    RESTRICTED RIGHTS LEGEND
  
 Use, reproduction and disclosure by the US Government is
 subject to restrictions as set forth in subparagraphs (a)
 and (c) of the Commercial Computer Software - Restricted
 Rights clause in FAR 52.227-19.
  
 Gaussian, Inc.
 340 Quinnipiac St., Bldg. 40, Wallingford CT 06492
  
  
 ---------------------------------------------------------------
 Warning -- This program may not be used in any manner that
 competes with the business of Gaussian, Inc. or will provide
 assistance to any competitor of Gaussian, Inc.  The licensee
 of this program is prohibited from giving any competitor of
 Gaussian, Inc. access to this program.  By using this program,
 the user acknowledges that Gaussian, Inc. is engaged in the
 business of creating and licensing software in the field of
 computational chemistry and represents and warrants to the
 licensee that it is not a competitor of Gaussian, Inc. and that
 it will not use this program in any manner prohibited above.
 ---------------------------------------------------------------
  

 Cite this work as:
 Gaussian 16, Revision A.03,
 M. J. Frisch, G. W. Trucks, H. B. Schlegel, G. E. Scuseria, 
 M. A. Robb, J. R. Cheeseman, G. Scalmani, V. Barone, 
 G. A. Petersson, H. Nakatsuji, X. Li, M. Caricato, A. V. Marenich, 
 J. Bloino, B. G. Janesko, R. Gomperts, B. Mennucci, H. P. Hratchian, 
 J. V. Ortiz, A. F. Izmaylov, J. L. Sonnenberg, D. Williams-Young, 
 F. Ding, F. Lipparini, F. Egidi, J. Goings, B. Peng, A. Petrone, 
 T. Henderson, D. Ranasinghe, V. G. Zakrzewski, J. Gao, N. Rega, 
 G. Zheng, W. Liang, M. Hada, M. Ehara, K. Toyota, R. Fukuda, 
 J. Hasegawa, M. Ishida, T. Nakajima, Y. Honda, O. Kitao, H. Nakai, 
 T. Vreven, K. Throssell, J. A. Montgomery, Jr., J. E. Peralta, 
 F. Ogliaro, M. J. Bearpark, J. J. Heyd, E. N. Brothers, K. N. Kudin, 
 V. N. Staroverov, T. A. Keith, R. Kobayashi, J. Normand, 
 K. Raghavachari, A. P. Rendell, J. C. Burant, S. S. Iyengar, 
 J. Tomasi, M. Cossi, J. M. Millam, M. Klene, C. Adamo, R. Cammi, 
 J. W. Ochterski, R. L. Martin, K. Morokuma, O. Farkas, 
 J. B. Foresman, and D. J. Fox, Gaussian, Inc., Wallingford CT, 2016.
 
 ******************************************
 Gaussian 16:  EM64L-G16RevA.03 25-Dec-2016
                24-Jul-2020 
 ******************************************
 %mem=30GB
 %nproc=8
 Will use up to    8 processors via shared memory.
 ---------------------------------------------------------------
 #P uLC-wPBE/cc-pVDZ iop(3/107=0123800000, 3/108=0123800000) opt
 ---------------------------------------------------------------
 1/18=20,19=15,26=3,38=1/1,3;
 2/9=110,12=2,17=6,18=5,40=1/2;
 3/5=16,11=2,25=1,30=1,71=1,74=-41,107=123800000,108=123800000,116=2/1,2,3;
 4//1;
 5/5=2,38=5/2;
 6/7=2,8=2,9=2,10=2,28=1/1;
 7//1,2,3,16;
 1/18=20,19=15,26=3/3(2);
 2/9=110/2;
 99//99;
 2/9=110/2;
 3/5=16,11=2,25=1,30=1,71=1,74=-41,107=123800000,108=123800000,116=2/1,2,3;
 4/5=5,16=3,69=1/1;
 5/5=2,38=5/2;
 7//1,2,3,16;
 1/18=20,19=15,26=3/3(-5);
 2/9=110/2;
 6/7=2,8=2,9=2,10=2,19=2,28=1/1;
 99/9=1/99;
 Leave Link    1 at Fri Jul 24 18:03:46 2020, MaxMem=  4026531840 cpu:               1.2 elap:               0.2
 (Enter /opt/ohpc/pub/libs/gaussian/g16-A.03/sandybridge/g16/l101.exe)
 ------------
 H7 C10 S1 F1
 ------------
 Symbolic Z-matrix:
 Charge =  0 Multiplicity = 1
 C                    -3.51015   0.31181  -0.0026 
 C                    -2.78118   1.48459  -0.04749 
 C                    -1.40563   1.47552  -0.02169 
 C                    -0.65182   0.30827   0.0363 
 C                    -1.30636  -0.90101   0.00238 
 F                    -0.76563  -2.04409  -0.00927 
 C                    -2.77034  -0.9392    0.02933 
 C                     0.89564   0.40885  -0.02803 
 C                     1.73089   1.48675   0.02096 
 C                     3.12458   1.20471   0.02543 
 C                     3.35001  -0.17413   0.01915 
 S                     1.86066  -1.08053  -0.02844 
 H                    -4.52118   0.27932   0.03994 
 H                    -3.28549   2.43703  -0.04138 
 H                    -0.84594   2.43126   0.00454 
 H                    -3.3184   -1.83248   0.01354 
 H                     1.36261   2.53434   0.01417 
 H                     3.85406   1.90922   0.03571 
 H                     4.27841  -0.62547   0.01855 
 
 ITRead=  0  0  0  0  0  0  0  0  0  0  0  0  0  0  0  0  0  0  0
 MicOpt= -1 -1 -1 -1 -1 -1 -1 -1 -1 -1 -1 -1 -1 -1 -1 -1 -1 -1 -1
 NAtoms=     19 NQM=       19 NQMF=       0 NMMI=      0 NMMIF=      0
                NMic=       0 NMicF=      0.
                    Isotopes and Nuclear Properties:
 (Nuclear quadrupole moments (NQMom) in fm**2, nuclear magnetic moments (NMagM)
  in nuclear magnetons)

  Atom         1           2           3           4           5           6           7           8           9          10
 IAtWgt=          12          12          12          12          12          19          12          12          12          12
 AtmWgt=  12.0000000  12.0000000  12.0000000  12.0000000  12.0000000  18.9984033  12.0000000  12.0000000  12.0000000  12.0000000
 NucSpn=           0           0           0           0           0           1           0           0           0           0
 AtZEff=  -0.0000000  -0.0000000  -0.0000000  -0.0000000  -0.0000000  -0.0000000  -0.0000000  -0.0000000  -0.0000000  -0.0000000
 NQMom=    0.0000000   0.0000000   0.0000000   0.0000000   0.0000000   0.0000000   0.0000000   0.0000000   0.0000000   0.0000000
 NMagM=    0.0000000   0.0000000   0.0000000   0.0000000   0.0000000   2.6288670   0.0000000   0.0000000   0.0000000   0.0000000
 AtZNuc=   6.0000000   6.0000000   6.0000000   6.0000000   6.0000000   9.0000000   6.0000000   6.0000000   6.0000000   6.0000000

  Atom        11          12          13          14          15          16          17          18          19
 IAtWgt=          12          32           1           1           1           1           1           1           1
 AtmWgt=  12.0000000  31.9720718   1.0078250   1.0078250   1.0078250   1.0078250   1.0078250   1.0078250   1.0078250
 NucSpn=           0           0           1           1           1           1           1           1           1
 AtZEff=  -0.0000000  -0.0000000  -0.0000000  -0.0000000  -0.0000000  -0.0000000  -0.0000000  -0.0000000  -0.0000000
 NQMom=    0.0000000   0.0000000   0.0000000   0.0000000   0.0000000   0.0000000   0.0000000   0.0000000   0.0000000
 NMagM=    0.0000000   0.0000000   2.7928460   2.7928460   2.7928460   2.7928460   2.7928460   2.7928460   2.7928460
 AtZNuc=   6.0000000  16.0000000   1.0000000   1.0000000   1.0000000   1.0000000   1.0000000   1.0000000   1.0000000
 Leave Link  101 at Fri Jul 24 18:03:46 2020, MaxMem=  4026531840 cpu:               3.1 elap:               0.4
 (Enter /opt/ohpc/pub/libs/gaussian/g16-A.03/sandybridge/g16/l103.exe)

 GradGradGradGradGradGradGradGradGradGradGradGradGradGradGradGradGradGrad
 Berny optimization.
 Initialization pass.
                           ----------------------------
                           !    Initial Parameters    !
                           ! (Angstroms and Degrees)  !
 --------------------------                            --------------------------
 ! Name  Definition              Value          Derivative Info.                !
 --------------------------------------------------------------------------------
 ! R1    R(1,2)                  1.3816         estimate D2E/DX2                !
 ! R2    R(1,7)                  1.4537         estimate D2E/DX2                !
 ! R3    R(1,13)                 1.0124         estimate D2E/DX2                !
 ! R4    R(2,3)                  1.3758         estimate D2E/DX2                !
 ! R5    R(2,14)                 1.0777         estimate D2E/DX2                !
 ! R6    R(3,4)                  1.3907         estimate D2E/DX2                !
 ! R7    R(3,15)                 1.1079         estimate D2E/DX2                !
 ! R8    R(4,5)                  1.3755         estimate D2E/DX2                !
 ! R9    R(4,8)                  1.5521         estimate D2E/DX2                !
 ! R10   R(5,6)                  1.2646         estimate D2E/DX2                !
 ! R11   R(5,7)                  1.4647         estimate D2E/DX2                !
 ! R12   R(7,16)                 1.0481         estimate D2E/DX2                !
 ! R13   R(8,9)                  1.3645         estimate D2E/DX2                !
 ! R14   R(8,12)                 1.7747         estimate D2E/DX2                !
 ! R15   R(9,10)                 1.422          estimate D2E/DX2                !
 ! R16   R(9,17)                 1.1105         estimate D2E/DX2                !
 ! R17   R(10,11)                1.3972         estimate D2E/DX2                !
 ! R18   R(10,18)                1.0142         estimate D2E/DX2                !
 ! R19   R(11,12)                1.7441         estimate D2E/DX2                !
 ! R20   R(11,19)                1.0323         estimate D2E/DX2                !
 ! A1    A(2,1,7)              117.5604         estimate D2E/DX2                !
 ! A2    A(2,1,13)             123.7446         estimate D2E/DX2                !
 ! A3    A(7,1,13)             118.6626         estimate D2E/DX2                !
 ! A4    A(1,2,3)              121.4205         estimate D2E/DX2                !
 ! A5    A(1,2,14)             120.205          estimate D2E/DX2                !
 ! A6    A(3,2,14)             118.2656         estimate D2E/DX2                !
 ! A7    A(2,3,4)              123.2464         estimate D2E/DX2                !
 ! A8    A(2,3,15)             119.9901         estimate D2E/DX2                !
 ! A9    A(4,3,15)             116.6955         estimate D2E/DX2                !
 ! A10   A(3,4,5)              118.6166         estimate D2E/DX2                !
 ! A11   A(3,4,8)              118.9672         estimate D2E/DX2                !
 ! A12   A(5,4,8)              122.033          estimate D2E/DX2                !
 ! A13   A(4,5,6)              126.2602         estimate D2E/DX2                !
 ! A14   A(4,5,7)              119.8737         estimate D2E/DX2                !
 ! A15   A(6,5,7)              113.8273         estimate D2E/DX2                !
 ! A16   A(1,7,5)              119.0651         estimate D2E/DX2                !
 ! A17   A(1,7,16)             117.8384         estimate D2E/DX2                !
 ! A18   A(5,7,16)             122.9953         estimate D2E/DX2                !
 ! A19   A(4,8,9)              131.3005         estimate D2E/DX2                !
 ! A20   A(4,8,12)             119.1951         estimate D2E/DX2                !
 ! A21   A(9,8,12)             109.2754         estimate D2E/DX2                !
 ! A22   A(8,9,10)             116.3197         estimate D2E/DX2                !
 ! A23   A(8,9,17)             122.8201         estimate D2E/DX2                !
 ! A24   A(10,9,17)            120.81           estimate D2E/DX2                !
 ! A25   A(9,10,11)            110.7244         estimate D2E/DX2                !
 ! A26   A(9,10,18)            124.5567         estimate D2E/DX2                !
 ! A27   A(11,10,18)           124.7185         estimate D2E/DX2                !
 ! A28   A(10,11,12)           112.0377         estimate D2E/DX2                !
 ! A29   A(10,11,19)           125.211          estimate D2E/DX2                !
 ! A30   A(12,11,19)           122.735          estimate D2E/DX2                !
 ! A31   A(8,12,11)             91.6157         estimate D2E/DX2                !
 ! D1    D(7,1,2,3)             -1.951          estimate D2E/DX2                !
 ! D2    D(7,1,2,14)          -178.0917         estimate D2E/DX2                !
 ! D3    D(13,1,2,3)           175.9489         estimate D2E/DX2                !
 ! D4    D(13,1,2,14)           -0.1918         estimate D2E/DX2                !
 ! D5    D(2,1,7,5)             -0.4618         estimate D2E/DX2                !
 ! D6    D(2,1,7,16)          -176.9149         estimate D2E/DX2                !
 ! D7    D(13,1,7,5)          -178.4718         estimate D2E/DX2                !
 ! D8    D(13,1,7,16)            5.0752         estimate D2E/DX2                !
 ! D9    D(1,2,3,4)              0.6873         estimate D2E/DX2                !
 ! D10   D(1,2,3,15)          -176.2139         estimate D2E/DX2                !
 ! D11   D(14,2,3,4)           176.9005         estimate D2E/DX2                !
 ! D12   D(14,2,3,15)           -0.0007         estimate D2E/DX2                !
 ! D13   D(2,3,4,5)              3.1975         estimate D2E/DX2                !
 ! D14   D(2,3,4,8)            176.2378         estimate D2E/DX2                !
 ! D15   D(15,3,4,5)          -179.8065         estimate D2E/DX2                !
 ! D16   D(15,3,4,8)            -6.7662         estimate D2E/DX2                !
 ! D17   D(3,4,5,6)            176.8866         estimate D2E/DX2                !
 ! D18   D(3,4,5,7)             -5.5231         estimate D2E/DX2                !
 ! D19   D(8,4,5,6)              4.0704         estimate D2E/DX2                !
 ! D20   D(8,4,5,7)           -178.3393         estimate D2E/DX2                !
 ! D21   D(3,4,8,9)              8.8854         estimate D2E/DX2                !
 ! D22   D(3,4,8,12)          -177.2613         estimate D2E/DX2                !
 ! D23   D(5,4,8,9)           -178.3227         estimate D2E/DX2                !
 ! D24   D(5,4,8,12)            -4.4693         estimate D2E/DX2                !
 ! D25   D(4,5,7,1)              4.2615         estimate D2E/DX2                !
 ! D26   D(4,5,7,16)          -179.4784         estimate D2E/DX2                !
 ! D27   D(6,5,7,1)           -177.8625         estimate D2E/DX2                !
 ! D28   D(6,5,7,16)            -1.6024         estimate D2E/DX2                !
 ! D29   D(4,8,9,10)           175.8397         estimate D2E/DX2                !
 ! D30   D(4,8,9,17)            -6.7214         estimate D2E/DX2                !
 ! D31   D(12,8,9,10)            1.5226         estimate D2E/DX2                !
 ! D32   D(12,8,9,17)          178.9615         estimate D2E/DX2                !
 ! D33   D(4,8,12,11)         -175.7219         estimate D2E/DX2                !
 ! D34   D(9,8,12,11)           -0.6104         estimate D2E/DX2                !
 ! D35   D(8,9,10,11)           -1.8625         estimate D2E/DX2                !
 ! D36   D(8,9,10,18)          178.3748         estimate D2E/DX2                !
 ! D37   D(17,9,10,11)        -179.3565         estimate D2E/DX2                !
 ! D38   D(17,9,10,18)           0.8808         estimate D2E/DX2                !
 ! D39   D(9,10,11,12)           1.2922         estimate D2E/DX2                !
 ! D40   D(9,10,11,19)         179.8508         estimate D2E/DX2                !
 ! D41   D(18,10,11,12)       -178.9456         estimate D2E/DX2                !
 ! D42   D(18,10,11,19)         -0.387          estimate D2E/DX2                !
 ! D43   D(10,11,12,8)          -0.4124         estimate D2E/DX2                !
 ! D44   D(19,11,12,8)        -179.0123         estimate D2E/DX2                !
 --------------------------------------------------------------------------------
 Trust Radius=3.00D-01 FncErr=1.00D-07 GrdErr=1.00D-06 EigMax=2.50D+02 EigMin=1.00D-04
 Number of steps in this run=    105 maximum allowed number of steps=    114.
 GradGradGradGradGradGradGradGradGradGradGradGradGradGradGradGradGradGrad

 Leave Link  103 at Fri Jul 24 18:03:47 2020, MaxMem=  4026531840 cpu:               0.1 elap:               0.0
 (Enter /opt/ohpc/pub/libs/gaussian/g16-A.03/sandybridge/g16/l202.exe)
                          Input orientation:                          
 ---------------------------------------------------------------------
 Center     Atomic      Atomic             Coordinates (Angstroms)
 Number     Number       Type             X           Y           Z
 ---------------------------------------------------------------------
      1          6           0       -3.510148    0.311807   -0.002598
      2          6           0       -2.781181    1.484587   -0.047493
      3          6           0       -1.405628    1.475517   -0.021685
      4          6           0       -0.651819    0.308266    0.036297
      5          6           0       -1.306358   -0.901010    0.002383
      6          9           0       -0.765630   -2.044091   -0.009265
      7          6           0       -2.770343   -0.939196    0.029325
      8          6           0        0.895643    0.408845   -0.028026
      9          6           0        1.730888    1.486748    0.020956
     10          6           0        3.124579    1.204706    0.025429
     11          6           0        3.350005   -0.174134    0.019149
     12         16           0        1.860664   -1.080526   -0.028435
     13          1           0       -4.521176    0.279318    0.039939
     14          1           0       -3.285489    2.437031   -0.041384
     15          1           0       -0.845936    2.431262    0.004544
     16          1           0       -3.318403   -1.832477    0.013536
     17          1           0        1.362609    2.534338    0.014174
     18          1           0        3.854055    1.909223    0.035706
     19          1           0        4.278414   -0.625468    0.018548
 ---------------------------------------------------------------------
                    Distance matrix (angstroms):
                    1          2          3          4          5
     1  C    0.000000
     2  C    1.381601   0.000000
     3  C    2.404910   1.375825   0.000000
     4  C    2.858596   2.434119   1.390707   0.000000
     5  C    2.515480   2.805114   2.378721   1.375471   0.000000
     6  F    3.616999   4.063924   3.577344   2.355549   1.264578
     7  C    1.453733   2.425024   2.774146   2.458527   1.464731
     8  C    4.406933   3.831010   2.536470   1.552061   2.562314
     9  C    5.371173   4.512589   3.136826   2.658260   3.863495
    10  C    6.694599   5.912838   4.538539   3.881353   4.905892
    11  C    6.877377   6.351948   5.033792   4.030831   4.712785
    12  S    5.548412   5.303479   4.147537   2.871499   3.172255
    13  H    1.012444   2.118467   3.337863   3.869467   3.424856
    14  H    2.137417   1.077735   2.111581   3.387313   3.880901
    15  H    3.404433   2.155012   1.107877   2.132089   3.363931
    16  H    2.152900   3.360840   3.821357   3.419645   2.217224
    17  H    5.355715   4.275135   2.964038   3.002300   4.350303
    18  H    7.535562   6.649330   5.277846   4.781837   5.876086
    19  H    7.844784   7.368485   6.060040   5.017905   5.591589
                    6          7          8          9         10
     6  F    0.000000
     7  C    2.289357   0.000000
     8  C    2.962613   3.906399   0.000000
     9  C    4.324389   5.113351   1.364518   0.000000
    10  C    5.068492   6.272674   2.367363   1.421950   0.000000
    11  C    4.520619   6.167989   2.523090   2.319498   1.397160
    12  S    2.797543   4.633523   1.774681   2.571026   2.612024
    13  H    4.416421   2.133144   5.418794   6.367617   7.701566
    14  H    5.141126   3.416033   4.647105   5.105973   6.527791
    15  H    4.476095   3.881230   2.669144   2.744521   4.155703
    16  H    2.561630   1.048127   4.773200   6.042570   7.122966
    17  H    5.048957   5.398792   2.176593   1.110459   2.207394
    18  H    6.080477   7.210838   3.317740   2.164842   1.014192
    19  H    5.239813   7.055744   3.537670   3.309283   2.163543
                   11         12         13         14         15
    11  C    0.000000
    12  S    1.744118   0.000000
    13  H    7.884259   6.525468   0.000000
    14  H    7.131033   6.233479   2.487823   0.000000
    15  H    4.939051   4.433895   4.259050   2.439992   0.000000
    16  H    6.871521   5.233539   2.430440   4.269988   4.928757
    17  H    3.359403   3.649262   6.301167   4.649448   2.210970
    18  H    2.143529   3.593928   8.532356   7.159442   4.728997
    19  H    1.032301   2.460650   8.846009   8.160583   5.966805
                   16         17         18         19
    16  H    0.000000
    17  H    6.401636   0.000000
    18  H    8.089806   2.568761   0.000000
    19  H    7.692108   4.299571   2.570026   0.000000
 Stoichiometry    C10H7FS
 Framework group  C1[X(C10H7FS)]
 Deg. of freedom    51
 Full point group                 C1      NOp   1
 Largest Abelian subgroup         C1      NOp   1
 Largest concise Abelian subgroup C1      NOp   1
                         Standard orientation:                         
 ---------------------------------------------------------------------
 Center     Atomic      Atomic             Coordinates (Angstroms)
 Number     Number       Type             X           Y           Z
 ---------------------------------------------------------------------
      1          6           0        3.515854    0.309640   -0.004627
      2          6           0        2.789691    1.484052    0.042952
      3          6           0        1.414086    1.478228    0.019067
      4          6           0        0.657472    0.312822   -0.039504
      5          6           0        1.309233   -0.898024   -0.008221
      6          9           0        0.765854   -2.039856    0.002572
      7          6           0        2.773085   -0.939587   -0.037277
      8          6           0       -0.889659    0.416920    0.027139
      9          6           0       -1.722452    1.496837   -0.019143
     10          6           0       -3.116803    1.218054   -0.022053
     11          6           0       -3.345439   -0.160263   -0.017405
     12         16           0       -1.858153   -1.070194    0.026801
     13          1           0        4.526742    0.274852   -0.048633
     14          1           0        3.296213    2.435325    0.037479
     15          1           0        0.856591    2.435313   -0.005023
     16          1           0        3.319080   -1.834166   -0.023523
     17          1           0       -1.351719    2.543555   -0.011398
     18          1           0       -3.844646    1.924285   -0.030307
     19          1           0       -4.274898   -0.609431   -0.016135
 ---------------------------------------------------------------------
 Rotational constants (GHZ):           1.9165359           0.5743156           0.4419841
 Leave Link  202 at Fri Jul 24 18:03:47 2020, MaxMem=  4026531840 cpu:               0.1 elap:               0.0
 (Enter /opt/ohpc/pub/libs/gaussian/g16-A.03/sandybridge/g16/l301.exe)
 Standard basis: CC-pVDZ (5D, 7F)
 Ernie: Thresh=  0.10000D-02 Tol=  0.10000D-05 Strict=F.
 Ernie:  32 primitive shells out of 327 were deleted.
 There are   219 symmetry adapted cartesian basis functions of A   symmetry.
 There are   207 symmetry adapted basis functions of A   symmetry.
   207 basis functions,   483 primitive gaussians,   219 cartesian basis functions
    46 alpha electrons       46 beta electrons
       nuclear repulsion energy       726.2941633567 Hartrees.
 IExCor=32609 DFT=T Ex+Corr=LC-wPBE ExCW=0 ScaHFX=  1.000000
 ScaDFX=  1.000000  0.000000  1.000000  1.000000 ScalE2=  1.000000  1.000000
 IRadAn=      5 IRanWt=     -1 IRanGd=            0 ICorTp=0 IEmpDi=  4
 HFx  wShort=  0.000000 wLong=  0.123800 cFull=  0.000000 cShort=  0.000000 cLong=  1.000000
 DFx  wShort=  0.000000 wLong=  0.123800 cFull=  0.000000 cShort=  0.000000 cLong=  1.000000
 NAtoms=   19 NActive=   19 NUniq=   19 SFac= 1.00D+00 NAtFMM=   60 NAOKFM=F Big=F
 Integral buffers will be    131072 words long.
 Raffenetti 2 integral format.
 Two-electron integral symmetry is turned on.
 Leave Link  301 at Fri Jul 24 18:03:47 2020, MaxMem=  4026531840 cpu:               0.4 elap:               0.1
 (Enter /opt/ohpc/pub/libs/gaussian/g16-A.03/sandybridge/g16/l302.exe)
 NPDir=0 NMtPBC=     1 NCelOv=     1 NCel=       1 NClECP=     1 NCelD=      1
         NCelK=      1 NCelE2=     1 NClLst=     1 CellRange=     0.0.
 One-electron integrals computed using PRISM.
 One-electron integral symmetry used in STVInt
 NBasis=   207 RedAO= T EigKep=  3.79D-04  NBF=   207
 NBsUse=   207 1.00D-06 EigRej= -1.00D+00 NBFU=   207
 Precomputing XC quadrature grid using
 IXCGrd= 4 IRadAn=           5 IRanWt=          -1 IRanGd=           0 AccXCQ= 0.00D+00.
 Generated NRdTot=       0 NPtTot=           0 NUsed=           0 NTot=          32
 NSgBfM=   219   219   219   219   219 MxSgAt=    19 MxSgA2=    19.
 Leave Link  302 at Fri Jul 24 18:03:47 2020, MaxMem=  4026531840 cpu:               1.8 elap:               0.3
 (Enter /opt/ohpc/pub/libs/gaussian/g16-A.03/sandybridge/g16/l303.exe)
 DipDrv:  MaxL=1.
 Leave Link  303 at Fri Jul 24 18:03:47 2020, MaxMem=  4026531840 cpu:               0.4 elap:               0.1
 (Enter /opt/ohpc/pub/libs/gaussian/g16-A.03/sandybridge/g16/l401.exe)
 ExpMin= 1.22D-01 ExpMax= 1.11D+05 ExpMxC= 1.07D+03 IAcc=3 IRadAn=         5 AccDes= 0.00D+00
 Harris functional with IExCor=32609 and IRadAn=       5 diagonalized for initial guess.
 HarFok:  IExCor=32609 AccDes= 0.00D+00 IRadAn=         5 IDoV= 1 UseB2=F ITyADJ=14
 ICtDFT=  3500011 ScaDFX=  1.000000  1.000000  1.000000  1.000000
 FoFCou: FMM=F IPFlag=           0 FMFlag=      100000 FMFlg1=           0
         NFxFlg=           0 DoJE=T BraDBF=F KetDBF=T FulRan=T
         wScrn=  0.000000 ICntrl=       500 IOpCl=  0 I1Cent=   200000004 NGrid=           0
         NMat0=    1 NMatS0=      1 NMatT0=    0 NMatD0=    1 NMtDS0=    0 NMtDT0=    0
 Petite list used in FoFCou.
 Harris En= -882.748557871847    
 JPrj=0 DoOrth=F DoCkMO=F.
 Initial guess <Sx>= 0.0000 <Sy>= 0.0000 <Sz>= 0.0000 <S**2>=-0.0000 S=-0.0000
 Leave Link  401 at Fri Jul 24 18:03:48 2020, MaxMem=  4026531840 cpu:               8.7 elap:               1.1
 (Enter /opt/ohpc/pub/libs/gaussian/g16-A.03/sandybridge/g16/l502.exe)
 Integral symmetry usage will be decided dynamically.
 UHF open shell SCF:
 Using DIIS extrapolation, IDIIS=  1040.
 NGot=  4026531840 LenX=  4026431827 LenY=  4026383425
 Requested convergence on RMS density matrix=1.00D-08 within 128 cycles.
 Requested convergence on MAX density matrix=1.00D-06.
 Requested convergence on             energy=1.00D-06.
 No special actions if energy rises.
 Fock matrices will be formed incrementally for  20 cycles.
 Integral accuracy reduced to 1.0D-05 until final iterations.

 Cycle   1  Pass 0  IDiag  1:
 FoFJK:  IHMeth= 1 ICntrl=       0 DoSepK=T KAlg= 0 I1Cent=           0 FoldK=F
 IRaf=         1 NMat=       1 IRICut=       1 DoRegI=T DoRafI=F ISym2E= 0 IDoP0=0 IntGTp=1.
 FoFCou: FMM=F IPFlag=           0 FMFlag=      100000 FMFlg1=           0
         NFxFlg=           0 DoJE=T BraDBF=F KetDBF=F FulRan=T
         wScrn=  0.000000 ICntrl=       500 IOpCl=  0 I1Cent=           0 NGrid=           0
         NMat0=    1 NMatS0=      1 NMatT0=    0 NMatD0=    1 NMtDS0=    0 NMtDT0=    0
 Symmetry not used in FoFCou.
 E= -882.370773386351    
 DIIS: error= 3.02D-02 at cycle   1 NSaved=   1.
 NSaved= 1 IEnMin= 1 EnMin= -882.370773386351     IErMin= 1 ErrMin= 3.02D-02
 ErrMax= 3.02D-02  0.00D+00 EMaxC= 1.00D-01 BMatC= 1.04D+00 BMatP= 1.04D+00
 IDIUse=3 WtCom= 6.98D-01 WtEn= 3.02D-01
 Coeff-Com:  0.100D+01
 Coeff-En:   0.100D+01
 Coeff:      0.100D+01
 Gap=     0.352 Goal=   None    Shift=    0.000
 Gap=     0.352 Goal=   None    Shift=    0.000
 GapD=    0.352 DampG=1.000 DampE=0.500 DampFc=0.5000 IDamp=-1.
 Damping current iteration by 5.00D-01
 RMSDP=6.11D-03 MaxDP=1.89D-01              OVMax= 2.57D-01

 Cycle   2  Pass 0  IDiag  1:
 RMSU=  3.03D-03    CP:  9.85D-01
 E= -882.471212726604     Delta-E=       -0.100439340254 Rises=F Damp=T
 DIIS: error= 1.03D-02 at cycle   2 NSaved=   2.
 NSaved= 2 IEnMin= 2 EnMin= -882.471212726604     IErMin= 2 ErrMin= 1.03D-02
 ErrMax= 1.03D-02  0.00D+00 EMaxC= 1.00D-01 BMatC= 1.06D-01 BMatP= 1.04D+00
 IDIUse=3 WtCom= 8.97D-01 WtEn= 1.03D-01
 Coeff-Com:  0.186D+00 0.814D+00
 Coeff-En:   0.303D+00 0.697D+00
 Coeff:      0.198D+00 0.802D+00
 Gap=     0.319 Goal=   None    Shift=    0.000
 Gap=     0.319 Goal=   None    Shift=    0.000
 RMSDP=1.85D-03 MaxDP=4.27D-02 DE=-1.00D-01 OVMax= 2.53D-01

 Cycle   3  Pass 0  IDiag  1:
 RMSU=  1.68D-03    CP:  9.82D-01  7.51D-01
 E= -882.667023896415     Delta-E=       -0.195811169811 Rises=F Damp=F
 DIIS: error= 5.78D-03 at cycle   3 NSaved=   3.
 NSaved= 3 IEnMin= 3 EnMin= -882.667023896415     IErMin= 3 ErrMin= 5.78D-03
 ErrMax= 5.78D-03  0.00D+00 EMaxC= 1.00D-01 BMatC= 4.18D-02 BMatP= 1.06D-01
 IDIUse=3 WtCom= 9.42D-01 WtEn= 5.78D-02
 Coeff-Com:  0.655D-01 0.390D+00 0.544D+00
 Coeff-En:   0.000D+00 0.000D+00 0.100D+01
 Coeff:      0.617D-01 0.368D+00 0.571D+00
 Gap=     0.248 Goal=   None    Shift=    0.000
 Gap=     0.248 Goal=   None    Shift=    0.000
 RMSDP=6.91D-04 MaxDP=1.86D-02 DE=-1.96D-01 OVMax= 3.95D-02

 Cycle   4  Pass 0  IDiag  1:
 RMSU=  4.70D-04    CP:  9.84D-01  8.02D-01  7.14D-01
 E= -882.677168534320     Delta-E=       -0.010144637905 Rises=F Damp=F
 DIIS: error= 2.20D-03 at cycle   4 NSaved=   4.
 NSaved= 4 IEnMin= 4 EnMin= -882.677168534320     IErMin= 4 ErrMin= 2.20D-03
 ErrMax= 2.20D-03  0.00D+00 EMaxC= 1.00D-01 BMatC= 4.61D-03 BMatP= 4.18D-02
 IDIUse=3 WtCom= 9.78D-01 WtEn= 2.20D-02
 Coeff-Com:  0.160D-01 0.701D-01 0.262D+00 0.652D+00
 Coeff-En:   0.000D+00 0.000D+00 0.230D-01 0.977D+00
 Coeff:      0.157D-01 0.686D-01 0.257D+00 0.659D+00
 Gap=     0.245 Goal=   None    Shift=    0.000
 Gap=     0.245 Goal=   None    Shift=    0.000
 RMSDP=1.97D-04 MaxDP=7.60D-03 DE=-1.01D-02 OVMax= 1.13D-02

 Cycle   5  Pass 0  IDiag  1:
 RMSU=  1.44D-04    CP:  9.83D-01  7.93D-01  7.58D-01  7.67D-01
 E= -882.678244060684     Delta-E=       -0.001075526364 Rises=F Damp=F
 DIIS: error= 8.72D-04 at cycle   5 NSaved=   5.
 NSaved= 5 IEnMin= 5 EnMin= -882.678244060684     IErMin= 5 ErrMin= 8.72D-04
 ErrMax= 8.72D-04  0.00D+00 EMaxC= 1.00D-01 BMatC= 6.43D-04 BMatP= 4.61D-03
 IDIUse=3 WtCom= 9.91D-01 WtEn= 8.72D-03
 EnCoef did     3 forward-backward iterations
 Coeff-Com:  0.457D-02-0.106D-02 0.878D-01 0.355D+00 0.553D+00
 Coeff-En:   0.000D+00 0.000D+00 0.000D+00 0.461D-03 0.100D+01
 Coeff:      0.453D-02-0.105D-02 0.871D-01 0.352D+00 0.557D+00
 Gap=     0.246 Goal=   None    Shift=    0.000
 Gap=     0.246 Goal=   None    Shift=    0.000
 RMSDP=7.77D-05 MaxDP=2.88D-03 DE=-1.08D-03 OVMax= 4.23D-03

 Cycle   6  Pass 0  IDiag  1:
 RMSU=  5.31D-05    CP:  9.83D-01  7.88D-01  7.72D-01  8.29D-01  7.20D-01
 E= -882.678396170524     Delta-E=       -0.000152109840 Rises=F Damp=F
 DIIS: error= 2.27D-04 at cycle   6 NSaved=   6.
 NSaved= 6 IEnMin= 6 EnMin= -882.678396170524     IErMin= 6 ErrMin= 2.27D-04
 ErrMax= 2.27D-04  0.00D+00 EMaxC= 1.00D-01 BMatC= 7.73D-05 BMatP= 6.43D-04
 IDIUse=3 WtCom= 9.98D-01 WtEn= 2.27D-03
 Coeff-Com:  0.933D-03-0.138D-01 0.659D-02 0.896D-01 0.289D+00 0.628D+00
 Coeff-En:   0.000D+00 0.000D+00 0.000D+00 0.000D+00 0.000D+00 0.100D+01
 Coeff:      0.931D-03-0.138D-01 0.658D-02 0.894D-01 0.288D+00 0.628D+00
 Gap=     0.246 Goal=   None    Shift=    0.000
 Gap=     0.246 Goal=   None    Shift=    0.000
 RMSDP=2.72D-05 MaxDP=8.99D-04 DE=-1.52D-04 OVMax= 1.76D-03

 Cycle   7  Pass 0  IDiag  1:
 RMSU=  2.06D-05    CP:  9.83D-01  7.86D-01  7.75D-01  8.34D-01  8.10D-01
                    CP:  8.21D-01
 E= -882.678414924199     Delta-E=       -0.000018753675 Rises=F Damp=F
 DIIS: error= 1.21D-04 at cycle   7 NSaved=   7.
 NSaved= 7 IEnMin= 7 EnMin= -882.678414924199     IErMin= 7 ErrMin= 1.21D-04
 ErrMax= 1.21D-04  0.00D+00 EMaxC= 1.00D-01 BMatC= 1.15D-05 BMatP= 7.73D-05
 IDIUse=3 WtCom= 9.99D-01 WtEn= 1.21D-03
 Coeff-Com:  0.362D-03-0.762D-02-0.297D-02 0.174D-01 0.992D-01 0.345D+00
 Coeff-Com:  0.549D+00
 Coeff-En:   0.000D+00 0.000D+00 0.000D+00 0.000D+00 0.000D+00 0.000D+00
 Coeff-En:   0.100D+01
 Coeff:      0.362D-03-0.761D-02-0.296D-02 0.174D-01 0.991D-01 0.344D+00
 Coeff:      0.549D+00
 Gap=     0.246 Goal=   None    Shift=    0.000
 Gap=     0.246 Goal=   None    Shift=    0.000
 RMSDP=1.07D-05 MaxDP=4.75D-04 DE=-1.88D-05 OVMax= 6.25D-04

 Cycle   8  Pass 0  IDiag  1:
 RMSU=  7.24D-06    CP:  9.83D-01  7.86D-01  7.76D-01  8.42D-01  8.14D-01
                    CP:  9.16D-01  7.99D-01
 E= -882.678418012861     Delta-E=       -0.000003088662 Rises=F Damp=F
 DIIS: error= 2.73D-05 at cycle   8 NSaved=   8.
 NSaved= 8 IEnMin= 8 EnMin= -882.678418012861     IErMin= 8 ErrMin= 2.73D-05
 ErrMax= 2.73D-05  0.00D+00 EMaxC= 1.00D-01 BMatC= 1.21D-06 BMatP= 1.15D-05
 IDIUse=1 WtCom= 1.00D+00 WtEn= 0.00D+00
 Coeff-Com:  0.877D-04-0.119D-02-0.238D-02-0.108D-01-0.188D-01 0.208D-01
 Coeff-Com:  0.244D+00 0.769D+00
 Coeff:      0.877D-04-0.119D-02-0.238D-02-0.108D-01-0.188D-01 0.208D-01
 Coeff:      0.244D+00 0.769D+00
 Gap=     0.246 Goal=   None    Shift=    0.000
 Gap=     0.246 Goal=   None    Shift=    0.000
 RMSDP=4.32D-06 MaxDP=1.36D-04 DE=-3.09D-06 OVMax= 3.68D-04

 Initial convergence to 1.0D-05 achieved.  Increase integral accuracy.
 Cycle   9  Pass 1  IDiag  1:
 E= -882.678248947968     Delta-E=        0.000169064893 Rises=F Damp=F
 DIIS: error= 4.25D-05 at cycle   1 NSaved=   1.
 NSaved= 1 IEnMin= 1 EnMin= -882.678248947968     IErMin= 1 ErrMin= 4.25D-05
 ErrMax= 4.25D-05  0.00D+00 EMaxC= 1.00D-01 BMatC= 1.19D-06 BMatP= 1.19D-06
 IDIUse=1 WtCom= 1.00D+00 WtEn= 0.00D+00
 Coeff-Com:  0.100D+01
 Coeff:      0.100D+01
 Gap=     0.246 Goal=   None    Shift=    0.000
 Gap=     0.246 Goal=   None    Shift=    0.000
 RMSDP=4.32D-06 MaxDP=1.36D-04 DE= 1.69D-04 OVMax= 1.17D-04

 Cycle  10  Pass 1  IDiag  1:
 RMSU=  3.61D-05    CP:  1.00D+00
 E= -882.678249153359     Delta-E=       -0.000000205391 Rises=F Damp=F
 DIIS: error= 1.27D-05 at cycle   2 NSaved=   2.
 NSaved= 2 IEnMin= 2 EnMin= -882.678249153359     IErMin= 2 ErrMin= 1.27D-05
 ErrMax= 1.27D-05  0.00D+00 EMaxC= 1.00D-01 BMatC= 2.33D-07 BMatP= 1.19D-06
 IDIUse=1 WtCom= 1.00D+00 WtEn= 0.00D+00
 Coeff-Com:  0.213D+00 0.787D+00
 Coeff:      0.213D+00 0.787D+00
 Gap=     0.246 Goal=   None    Shift=    0.000
 Gap=     0.246 Goal=   None    Shift=    0.000
 RMSDP=2.73D-06 MaxDP=8.77D-05 DE=-2.05D-07 OVMax= 1.55D-04

 Cycle  11  Pass 1  IDiag  1:
 RMSU=  2.35D-06    CP:  1.00D+00  1.04D+00
 E= -882.678249107076     Delta-E=        0.000000046283 Rises=F Damp=F
 DIIS: error= 1.25D-05 at cycle   3 NSaved=   3.
 NSaved= 3 IEnMin= 2 EnMin= -882.678249153359     IErMin= 3 ErrMin= 1.25D-05
 ErrMax= 1.25D-05  0.00D+00 EMaxC= 1.00D-01 BMatC= 2.57D-07 BMatP= 2.33D-07
 IDIUse=1 WtCom= 1.00D+00 WtEn= 0.00D+00
 Coeff-Com: -0.127D-01 0.516D+00 0.497D+00
 Coeff:     -0.127D-01 0.516D+00 0.497D+00
 Gap=     0.246 Goal=   None    Shift=    0.000
 Gap=     0.246 Goal=   None    Shift=    0.000
 RMSDP=1.26D-06 MaxDP=5.02D-05 DE= 4.63D-08 OVMax= 8.40D-05

 Cycle  12  Pass 1  IDiag  1:
 RMSU=  4.93D-07    CP:  1.00D+00  1.05D+00  5.51D-01
 E= -882.678249207527     Delta-E=       -0.000000100451 Rises=F Damp=F
 DIIS: error= 1.73D-06 at cycle   4 NSaved=   4.
 NSaved= 4 IEnMin= 4 EnMin= -882.678249207527     IErMin= 4 ErrMin= 1.73D-06
 ErrMax= 1.73D-06  0.00D+00 EMaxC= 1.00D-01 BMatC= 4.25D-09 BMatP= 2.33D-07
 IDIUse=1 WtCom= 1.00D+00 WtEn= 0.00D+00
 Coeff-Com: -0.112D-01 0.266D+00 0.266D+00 0.479D+00
 Coeff:     -0.112D-01 0.266D+00 0.266D+00 0.479D+00
 Gap=     0.246 Goal=   None    Shift=    0.000
 Gap=     0.246 Goal=   None    Shift=    0.000
 RMSDP=1.85D-07 MaxDP=4.99D-06 DE=-1.00D-07 OVMax= 9.70D-06

 Cycle  13  Pass 1  IDiag  1:
 RMSU=  1.60D-07    CP:  1.00D+00  1.05D+00  5.55D-01  8.27D-01
 E= -882.678249208640     Delta-E=       -0.000000001112 Rises=F Damp=F
 DIIS: error= 4.98D-07 at cycle   5 NSaved=   5.
 NSaved= 5 IEnMin= 5 EnMin= -882.678249208640     IErMin= 5 ErrMin= 4.98D-07
 ErrMax= 4.98D-07  0.00D+00 EMaxC= 1.00D-01 BMatC= 2.53D-10 BMatP= 4.25D-09
 IDIUse=1 WtCom= 1.00D+00 WtEn= 0.00D+00
 Coeff-Com: -0.397D-02 0.737D-01 0.708D-01 0.207D+00 0.653D+00
 Coeff:     -0.397D-02 0.737D-01 0.708D-01 0.207D+00 0.653D+00
 Gap=     0.246 Goal=   None    Shift=    0.000
 Gap=     0.246 Goal=   None    Shift=    0.000
 RMSDP=7.21D-08 MaxDP=1.59D-06 DE=-1.11D-09 OVMax= 4.10D-06

 Cycle  14  Pass 1  IDiag  1:
 RMSU=  5.52D-08    CP:  1.00D+00  1.05D+00  5.53D-01  9.10D-01  1.00D+00
 E= -882.678249208718     Delta-E=       -0.000000000078 Rises=F Damp=F
 DIIS: error= 2.80D-07 at cycle   6 NSaved=   6.
 NSaved= 6 IEnMin= 6 EnMin= -882.678249208718     IErMin= 6 ErrMin= 2.80D-07
 ErrMax= 2.80D-07  0.00D+00 EMaxC= 1.00D-01 BMatC= 7.72D-11 BMatP= 2.53D-10
 IDIUse=1 WtCom= 1.00D+00 WtEn= 0.00D+00
 Coeff-Com:  0.121D-02-0.402D-01-0.441D-01-0.333D-01 0.378D+00 0.739D+00
 Coeff:      0.121D-02-0.402D-01-0.441D-01-0.333D-01 0.378D+00 0.739D+00
 Gap=     0.246 Goal=   None    Shift=    0.000
 Gap=     0.246 Goal=   None    Shift=    0.000
 RMSDP=4.22D-08 MaxDP=1.16D-06 DE=-7.84D-11 OVMax= 3.69D-06

 Cycle  15  Pass 1  IDiag  1:
 RMSU=  2.86D-08    CP:  1.00D+00  1.05D+00  5.52D-01  9.44D-01  1.15D+00
                    CP:  9.52D-01
 E= -882.678249208755     Delta-E=       -0.000000000037 Rises=F Damp=F
 DIIS: error= 9.80D-08 at cycle   7 NSaved=   7.
 NSaved= 7 IEnMin= 7 EnMin= -882.678249208755     IErMin= 7 ErrMin= 9.80D-08
 ErrMax= 9.80D-08  0.00D+00 EMaxC= 1.00D-01 BMatC= 1.03D-11 BMatP= 7.72D-11
 IDIUse=1 WtCom= 1.00D+00 WtEn= 0.00D+00
 Coeff-Com:  0.961D-03-0.263D-01-0.284D-01-0.363D-01 0.122D+00 0.380D+00
 Coeff-Com:  0.588D+00
 Coeff:      0.961D-03-0.263D-01-0.284D-01-0.363D-01 0.122D+00 0.380D+00
 Coeff:      0.588D+00
 Gap=     0.246 Goal=   None    Shift=    0.000
 Gap=     0.246 Goal=   None    Shift=    0.000
 RMSDP=1.21D-08 MaxDP=3.45D-07 DE=-3.66D-11 OVMax= 1.21D-06

 Cycle  16  Pass 1  IDiag  1:
 RMSU=  1.00D-08    CP:  1.00D+00  1.05D+00  5.53D-01  9.52D-01  1.17D+00
                    CP:  1.04D+00  9.97D-01
 E= -882.678249208747     Delta-E=        0.000000000007 Rises=F Damp=F
 DIIS: error= 3.91D-08 at cycle   8 NSaved=   8.
 NSaved= 8 IEnMin= 7 EnMin= -882.678249208755     IErMin= 8 ErrMin= 3.91D-08
 ErrMax= 3.91D-08  0.00D+00 EMaxC= 1.00D-01 BMatC= 1.34D-12 BMatP= 1.03D-11
 IDIUse=1 WtCom= 1.00D+00 WtEn= 0.00D+00
 Coeff-Com:  0.213D-03-0.445D-02-0.477D-02-0.109D-01-0.246D-01 0.251D-01
 Coeff-Com:  0.279D+00 0.740D+00
 Coeff:      0.213D-03-0.445D-02-0.477D-02-0.109D-01-0.246D-01 0.251D-01
 Coeff:      0.279D+00 0.740D+00
 Gap=     0.246 Goal=   None    Shift=    0.000
 Gap=     0.246 Goal=   None    Shift=    0.000
 RMSDP=5.95D-09 MaxDP=1.45D-07 DE= 7.28D-12 OVMax= 4.89D-07

 SCF Done:  E(ULC-wPBE) =  -882.678249209     A.U. after   16 cycles
            NFock= 16  Conv=0.59D-08     -V/T= 2.0040
 <Sx>= 0.0000 <Sy>= 0.0000 <Sz>= 0.0000 <S**2>=-0.0000 S=-0.0000
 <L.S>= 0.000000000000E+00
 KE= 8.791633617884D+02 PE=-3.529739963981D+03 EE= 1.041604189627D+03
 Annihilation of the first spin contaminant:
 S**2 before annihilation    -0.0000,   after     0.0000
 Leave Link  502 at Fri Jul 24 18:04:38 2020, MaxMem=  4026531840 cpu:             400.5 elap:              50.3
 (Enter /opt/ohpc/pub/libs/gaussian/g16-A.03/sandybridge/g16/l601.exe)
 Copying SCF densities to generalized density rwf, IOpCl= 1 IROHF=0.

 **********************************************************************

            Population analysis using the SCF density.

 **********************************************************************

 Orbital symmetries:
 Alpha Orbitals:
       Occupied  (A) (A) (A) (A) (A) (A) (A) (A) (A) (A) (A) (A)
                 (A) (A) (A) (A) (A) (A) (A) (A) (A) (A) (A) (A)
                 (A) (A) (A) (A) (A) (A) (A) (A) (A) (A) (A) (A)
                 (A) (A) (A) (A) (A) (A) (A) (A) (A) (A)
       Virtual   (A) (A) (A) (A) (A) (A) (A) (A) (A) (A) (A) (A)
                 (A) (A) (A) (A) (A) (A) (A) (A) (A) (A) (A) (A)
                 (A) (A) (A) (A) (A) (A) (A) (A) (A) (A) (A) (A)
                 (A) (A) (A) (A) (A) (A) (A) (A) (A) (A) (A) (A)
                 (A) (A) (A) (A) (A) (A) (A) (A) (A) (A) (A) (A)
                 (A) (A) (A) (A) (A) (A) (A) (A) (A) (A) (A) (A)
                 (A) (A) (A) (A) (A) (A) (A) (A) (A) (A) (A) (A)
                 (A) (A) (A) (A) (A) (A) (A) (A) (A) (A) (A) (A)
                 (A) (A) (A) (A) (A) (A) (A) (A) (A) (A) (A) (A)
                 (A) (A) (A) (A) (A) (A) (A) (A) (A) (A) (A) (A)
                 (A) (A) (A) (A) (A) (A) (A) (A) (A) (A) (A) (A)
                 (A) (A) (A) (A) (A) (A) (A) (A) (A) (A) (A) (A)
                 (A) (A) (A) (A) (A) (A) (A) (A) (A) (A) (A) (A)
                 (A) (A) (A) (A) (A)
 Beta  Orbitals:
       Occupied  (A) (A) (A) (A) (A) (A) (A) (A) (A) (A) (A) (A)
                 (A) (A) (A) (A) (A) (A) (A) (A) (A) (A) (A) (A)
                 (A) (A) (A) (A) (A) (A) (A) (A) (A) (A) (A) (A)
                 (A) (A) (A) (A) (A) (A) (A) (A) (A) (A)
       Virtual   (A) (A) (A) (A) (A) (A) (A) (A) (A) (A) (A) (A)
                 (A) (A) (A) (A) (A) (A) (A) (A) (A) (A) (A) (A)
                 (A) (A) (A) (A) (A) (A) (A) (A) (A) (A) (A) (A)
                 (A) (A) (A) (A) (A) (A) (A) (A) (A) (A) (A) (A)
                 (A) (A) (A) (A) (A) (A) (A) (A) (A) (A) (A) (A)
                 (A) (A) (A) (A) (A) (A) (A) (A) (A) (A) (A) (A)
                 (A) (A) (A) (A) (A) (A) (A) (A) (A) (A) (A) (A)
                 (A) (A) (A) (A) (A) (A) (A) (A) (A) (A) (A) (A)
                 (A) (A) (A) (A) (A) (A) (A) (A) (A) (A) (A) (A)
                 (A) (A) (A) (A) (A) (A) (A) (A) (A) (A) (A) (A)
                 (A) (A) (A) (A) (A) (A) (A) (A) (A) (A) (A) (A)
                 (A) (A) (A) (A) (A) (A) (A) (A) (A) (A) (A) (A)
                 (A) (A) (A) (A) (A) (A) (A) (A) (A) (A) (A) (A)
                 (A) (A) (A) (A) (A)
 The electronic state is 1-A.
 Alpha  occ. eigenvalues --  -88.16882 -24.38314 -10.05960 -10.00963  -9.99750
 Alpha  occ. eigenvalues --   -9.99045  -9.98006  -9.97860  -9.97479  -9.97413
 Alpha  occ. eigenvalues --   -9.96989  -9.96845  -7.77096  -5.79174  -5.78718
 Alpha  occ. eigenvalues --   -5.78354  -1.24962  -0.87531  -0.85319  -0.77491
 Alpha  occ. eigenvalues --   -0.74725  -0.73713  -0.71695  -0.64301  -0.63641
 Alpha  occ. eigenvalues --   -0.59309  -0.57000  -0.55540  -0.53226  -0.51992
 Alpha  occ. eigenvalues --   -0.51055  -0.50059  -0.46344  -0.44298  -0.43100
 Alpha  occ. eigenvalues --   -0.41583  -0.41409  -0.40775  -0.38915  -0.38463
 Alpha  occ. eigenvalues --   -0.36965  -0.35945  -0.31824  -0.28826  -0.28120
 Alpha  occ. eigenvalues --   -0.25487
 Alpha virt. eigenvalues --   -0.00860   0.01867   0.04751   0.06801   0.09427
 Alpha virt. eigenvalues --    0.10161   0.12045   0.12948   0.14725   0.15534
 Alpha virt. eigenvalues --    0.17586   0.18279   0.18342   0.18542   0.23134
 Alpha virt. eigenvalues --    0.25443   0.27287   0.30574   0.31092   0.33000
 Alpha virt. eigenvalues --    0.34336   0.38096   0.42444   0.43646   0.46198
 Alpha virt. eigenvalues --    0.46297   0.47281   0.47745   0.48167   0.50138
 Alpha virt. eigenvalues --    0.50255   0.50616   0.51329   0.52206   0.52441
 Alpha virt. eigenvalues --    0.52555   0.53403   0.54114   0.54911   0.55576
 Alpha virt. eigenvalues --    0.56450   0.57833   0.58375   0.58974   0.59675
 Alpha virt. eigenvalues --    0.62858   0.64108   0.65104   0.67529   0.67876
 Alpha virt. eigenvalues --    0.68348   0.70042   0.70768   0.70912   0.71951
 Alpha virt. eigenvalues --    0.74728   0.75184   0.76425   0.78174   0.80897
 Alpha virt. eigenvalues --    0.83431   0.84597   0.88180   0.89248   0.89654
 Alpha virt. eigenvalues --    0.90456   0.94104   0.94225   0.94872   0.97870
 Alpha virt. eigenvalues --    0.98210   1.00895   1.01005   1.02185   1.02458
 Alpha virt. eigenvalues --    1.04357   1.05615   1.06293   1.09119   1.09539
 Alpha virt. eigenvalues --    1.11254   1.12576   1.15700   1.18336   1.22739
 Alpha virt. eigenvalues --    1.26701   1.28242   1.28935   1.30951   1.31870
 Alpha virt. eigenvalues --    1.33294   1.39520   1.41071   1.43934   1.46122
 Alpha virt. eigenvalues --    1.48702   1.49198   1.49872   1.50859   1.51929
 Alpha virt. eigenvalues --    1.53829   1.55844   1.60029   1.60448   1.60709
 Alpha virt. eigenvalues --    1.61820   1.63291   1.63628   1.66062   1.67140
 Alpha virt. eigenvalues --    1.69176   1.69649   1.70698   1.71629   1.74894
 Alpha virt. eigenvalues --    1.75579   1.76324   1.79726   1.80463   1.82157
 Alpha virt. eigenvalues --    1.82879   1.83328   1.85672   1.89222   1.89949
 Alpha virt. eigenvalues --    1.91561   1.92408   1.95543   1.98566   1.99310
 Alpha virt. eigenvalues --    1.99909   2.02602   2.04251   2.08300   2.09075
 Alpha virt. eigenvalues --    2.15292   2.17095   2.23081   2.26968   2.29105
 Alpha virt. eigenvalues --    2.33587   2.39897   2.42552   2.47047   2.48843
 Alpha virt. eigenvalues --    2.51756   2.53154   2.59645   2.62721   2.68063
 Alpha virt. eigenvalues --    2.71094   2.78373   2.83257   2.85906   3.20067
 Alpha virt. eigenvalues --    3.44782   3.51798   3.58881   3.77751   4.01818
 Alpha virt. eigenvalues --    4.19575
  Beta  occ. eigenvalues --  -88.16882 -24.38314 -10.05960 -10.00963  -9.99750
  Beta  occ. eigenvalues --   -9.99045  -9.98006  -9.97860  -9.97479  -9.97413
  Beta  occ. eigenvalues --   -9.96989  -9.96845  -7.77096  -5.79174  -5.78718
  Beta  occ. eigenvalues --   -5.78354  -1.24962  -0.87531  -0.85319  -0.77491
  Beta  occ. eigenvalues --   -0.74725  -0.73713  -0.71695  -0.64301  -0.63641
  Beta  occ. eigenvalues --   -0.59309  -0.57000  -0.55540  -0.53226  -0.51992
  Beta  occ. eigenvalues --   -0.51055  -0.50059  -0.46344  -0.44298  -0.43100
  Beta  occ. eigenvalues --   -0.41583  -0.41409  -0.40775  -0.38915  -0.38463
  Beta  occ. eigenvalues --   -0.36965  -0.35945  -0.31824  -0.28826  -0.28120
  Beta  occ. eigenvalues --   -0.25487
  Beta virt. eigenvalues --   -0.00860   0.01867   0.04751   0.06801   0.09427
  Beta virt. eigenvalues --    0.10161   0.12045   0.12948   0.14725   0.15534
  Beta virt. eigenvalues --    0.17586   0.18279   0.18342   0.18542   0.23134
  Beta virt. eigenvalues --    0.25443   0.27287   0.30574   0.31092   0.33000
  Beta virt. eigenvalues --    0.34336   0.38096   0.42444   0.43646   0.46198
  Beta virt. eigenvalues --    0.46297   0.47281   0.47745   0.48167   0.50138
  Beta virt. eigenvalues --    0.50255   0.50616   0.51329   0.52206   0.52441
  Beta virt. eigenvalues --    0.52555   0.53403   0.54114   0.54911   0.55576
  Beta virt. eigenvalues --    0.56450   0.57833   0.58375   0.58974   0.59675
  Beta virt. eigenvalues --    0.62858   0.64108   0.65104   0.67529   0.67876
  Beta virt. eigenvalues --    0.68348   0.70042   0.70768   0.70912   0.71951
  Beta virt. eigenvalues --    0.74728   0.75184   0.76425   0.78174   0.80897
  Beta virt. eigenvalues --    0.83431   0.84597   0.88180   0.89248   0.89654
  Beta virt. eigenvalues --    0.90456   0.94104   0.94225   0.94872   0.97870
  Beta virt. eigenvalues --    0.98210   1.00895   1.01005   1.02185   1.02458
  Beta virt. eigenvalues --    1.04357   1.05615   1.06293   1.09119   1.09539
  Beta virt. eigenvalues --    1.11254   1.12576   1.15700   1.18336   1.22739
  Beta virt. eigenvalues --    1.26701   1.28242   1.28935   1.30951   1.31870
  Beta virt. eigenvalues --    1.33294   1.39520   1.41071   1.43934   1.46122
  Beta virt. eigenvalues --    1.48702   1.49198   1.49872   1.50859   1.51929
  Beta virt. eigenvalues --    1.53829   1.55844   1.60029   1.60448   1.60709
  Beta virt. eigenvalues --    1.61820   1.63291   1.63628   1.66062   1.67140
  Beta virt. eigenvalues --    1.69176   1.69649   1.70698   1.71629   1.74894
  Beta virt. eigenvalues --    1.75579   1.76324   1.79726   1.80463   1.82157
  Beta virt. eigenvalues --    1.82879   1.83328   1.85672   1.89222   1.89949
  Beta virt. eigenvalues --    1.91561   1.92408   1.95543   1.98566   1.99310
  Beta virt. eigenvalues --    1.99909   2.02602   2.04251   2.08300   2.09075
  Beta virt. eigenvalues --    2.15292   2.17095   2.23081   2.26968   2.29105
  Beta virt. eigenvalues --    2.33587   2.39897   2.42552   2.47047   2.48843
  Beta virt. eigenvalues --    2.51756   2.53154   2.59645   2.62721   2.68063
  Beta virt. eigenvalues --    2.71094   2.78373   2.83257   2.85906   3.20067
  Beta virt. eigenvalues --    3.44782   3.51798   3.58881   3.77751   4.01818
  Beta virt. eigenvalues --    4.19575
          Condensed to atoms (all electrons):
               1          2          3          4          5          6
     1  C    4.744487   0.456775   0.013101  -0.068357   0.014936   0.003975
     2  C    0.456775   4.753701   0.471929   0.027727  -0.086447  -0.000189
     3  C    0.013101   0.471929   4.879147   0.445556  -0.007245   0.003840
     4  C   -0.068357   0.027727   0.445556   5.250906   0.214235  -0.055519
     5  C    0.014936  -0.086447  -0.007245   0.214235   5.033638   0.427335
     6  F    0.003975  -0.000189   0.003840  -0.055519   0.427335   8.706063
     7  C    0.442038   0.019741  -0.083411  -0.013787   0.434575  -0.056765
     8  C   -0.000182   0.013009  -0.064945   0.276784  -0.086890  -0.003621
     9  C    0.000024   0.000107  -0.014649  -0.040277   0.008845   0.000149
    10  C    0.000001  -0.000025  -0.000065   0.008736  -0.000018  -0.000023
    11  C   -0.000001   0.000005  -0.000166   0.001532   0.000028   0.000349
    12  S   -0.000059  -0.000063   0.006001  -0.054931  -0.011768   0.012889
    13  H    0.395144  -0.057513   0.013123  -0.001453   0.011293  -0.000065
    14  H   -0.065486   0.388327  -0.041116   0.013504  -0.000150   0.000003
    15  H    0.011906  -0.057778   0.381527  -0.033325   0.013198  -0.000052
    16  H   -0.037835   0.010049   0.000451   0.012851  -0.042455   0.002058
    17  H   -0.000013   0.000740   0.005037  -0.020228  -0.000424   0.000001
    18  H    0.000000  -0.000000   0.000026  -0.000285   0.000002  -0.000000
    19  H   -0.000000  -0.000000   0.000003  -0.000230   0.000004   0.000001
               7          8          9         10         11         12
     1  C    0.442038  -0.000182   0.000024   0.000001  -0.000001  -0.000059
     2  C    0.019741   0.013009   0.000107  -0.000025   0.000005  -0.000063
     3  C   -0.083411  -0.064945  -0.014649  -0.000065  -0.000166   0.006001
     4  C   -0.013787   0.276784  -0.040277   0.008736   0.001532  -0.054931
     5  C    0.434575  -0.086890   0.008845  -0.000018   0.000028  -0.011768
     6  F   -0.056765  -0.003621   0.000149  -0.000023   0.000349   0.012889
     7  C    4.931995   0.006793  -0.000246   0.000000   0.000009   0.000604
     8  C    0.006793   5.333257   0.510583  -0.018091  -0.096408   0.338751
     9  C   -0.000246   0.510583   4.820432   0.483392  -0.009964  -0.112215
    10  C    0.000000  -0.018091   0.483392   4.624409   0.517705  -0.076994
    11  C    0.000009  -0.096408  -0.009964   0.517705   5.015676   0.325959
    12  S    0.000604   0.338751  -0.112215  -0.076994   0.325959  15.460177
    13  H   -0.047327   0.000011   0.000000  -0.000000   0.000000   0.000001
    14  H    0.010721  -0.000272   0.000012  -0.000000  -0.000000   0.000005
    15  H   -0.001083  -0.031503   0.007197   0.000546  -0.000080   0.000134
    16  H    0.371785  -0.000404   0.000001   0.000000  -0.000000  -0.000003
    17  H   -0.000001  -0.046290   0.390303  -0.050716   0.010488   0.009159
    18  H   -0.000000   0.012184  -0.044168   0.403664  -0.064688   0.009184
    19  H    0.000000   0.001705   0.010466  -0.022835   0.394017  -0.044346
              13         14         15         16         17         18
     1  C    0.395144  -0.065486   0.011906  -0.037835  -0.000013   0.000000
     2  C   -0.057513   0.388327  -0.057778   0.010049   0.000740  -0.000000
     3  C    0.013123  -0.041116   0.381527   0.000451   0.005037   0.000026
     4  C   -0.001453   0.013504  -0.033325   0.012851  -0.020228  -0.000285
     5  C    0.011293  -0.000150   0.013198  -0.042455  -0.000424   0.000002
     6  F   -0.000065   0.000003  -0.000052   0.002058   0.000001  -0.000000
     7  C   -0.047327   0.010721  -0.001083   0.371785  -0.000001  -0.000000
     8  C    0.000011  -0.000272  -0.031503  -0.000404  -0.046290   0.012184
     9  C    0.000000   0.000012   0.007197   0.000001   0.390303  -0.044168
    10  C   -0.000000  -0.000000   0.000546   0.000000  -0.050716   0.403664
    11  C    0.000000  -0.000000  -0.000080  -0.000000   0.010488  -0.064688
    12  S    0.000001   0.000005   0.000134  -0.000003   0.009159   0.009184
    13  H    0.778666  -0.016969  -0.000296  -0.017184  -0.000000  -0.000000
    14  H   -0.016969   0.762986  -0.019340  -0.000319   0.000050  -0.000000
    15  H   -0.000296  -0.019340   0.747937   0.000052   0.000158   0.000056
    16  H   -0.017184  -0.000319   0.000052   0.727469  -0.000000   0.000000
    17  H   -0.000000   0.000050   0.000158  -0.000000   0.725378  -0.010596
    18  H   -0.000000  -0.000000   0.000056   0.000000  -0.010596   0.763532
    19  H   -0.000000   0.000000  -0.000001  -0.000000  -0.000269  -0.010883
              19
     1  C   -0.000000
     2  C   -0.000000
     3  C    0.000003
     4  C   -0.000230
     5  C    0.000004
     6  F    0.000001
     7  C    0.000000
     8  C    0.001705
     9  C    0.010466
    10  C   -0.022835
    11  C    0.394017
    12  S   -0.044346
    13  H   -0.000000
    14  H    0.000000
    15  H   -0.000001
    16  H   -0.000000
    17  H   -0.000269
    18  H   -0.010883
    19  H    0.684421
          Atomic-Atomic Spin Densities.
               1          2          3          4          5          6
     1  C   -0.000000   0.000000  -0.000000   0.000000  -0.000000  -0.000000
     2  C    0.000000  -0.000000   0.000000  -0.000000   0.000000   0.000000
     3  C   -0.000000   0.000000  -0.000000   0.000000  -0.000000  -0.000000
     4  C    0.000000  -0.000000   0.000000  -0.000000   0.000000   0.000000
     5  C   -0.000000   0.000000  -0.000000   0.000000  -0.000000  -0.000000
     6  F   -0.000000   0.000000  -0.000000   0.000000  -0.000000   0.000000
     7  C    0.000000  -0.000000   0.000000  -0.000000   0.000000   0.000000
     8  C    0.000000  -0.000000   0.000000  -0.000000  -0.000000  -0.000000
     9  C   -0.000000  -0.000000   0.000000   0.000000  -0.000000  -0.000000
    10  C   -0.000000  -0.000000  -0.000000  -0.000000   0.000000   0.000000
    11  C    0.000000  -0.000000   0.000000   0.000000  -0.000000  -0.000000
    12  S   -0.000000   0.000000   0.000000  -0.000000  -0.000000   0.000000
    13  H   -0.000000   0.000000  -0.000000   0.000000  -0.000000  -0.000000
    14  H    0.000000  -0.000000   0.000000  -0.000000   0.000000   0.000000
    15  H   -0.000000   0.000000  -0.000000   0.000000  -0.000000  -0.000000
    16  H    0.000000  -0.000000   0.000000  -0.000000   0.000000   0.000000
    17  H   -0.000000   0.000000   0.000000   0.000000  -0.000000  -0.000000
    18  H    0.000000  -0.000000  -0.000000   0.000000   0.000000   0.000000
    19  H   -0.000000   0.000000   0.000000   0.000000  -0.000000  -0.000000
               7          8          9         10         11         12
     1  C    0.000000   0.000000  -0.000000  -0.000000   0.000000  -0.000000
     2  C   -0.000000  -0.000000  -0.000000  -0.000000  -0.000000   0.000000
     3  C    0.000000   0.000000   0.000000  -0.000000   0.000000   0.000000
     4  C   -0.000000  -0.000000   0.000000  -0.000000   0.000000  -0.000000
     5  C    0.000000  -0.000000  -0.000000   0.000000  -0.000000  -0.000000
     6  F    0.000000  -0.000000  -0.000000   0.000000  -0.000000   0.000000
     7  C   -0.000000  -0.000000  -0.000000   0.000000  -0.000000   0.000000
     8  C   -0.000000   0.000000  -0.000000  -0.000000   0.000000   0.000000
     9  C   -0.000000  -0.000000   0.000000   0.000000   0.000000  -0.000000
    10  C    0.000000  -0.000000   0.000000  -0.000000   0.000000   0.000000
    11  C   -0.000000   0.000000   0.000000   0.000000  -0.000000  -0.000000
    12  S    0.000000   0.000000  -0.000000   0.000000  -0.000000   0.000000
    13  H    0.000000   0.000000   0.000000   0.000000   0.000000  -0.000000
    14  H   -0.000000  -0.000000  -0.000000   0.000000  -0.000000   0.000000
    15  H    0.000000   0.000000   0.000000  -0.000000  -0.000000  -0.000000
    16  H   -0.000000   0.000000   0.000000  -0.000000   0.000000  -0.000000
    17  H    0.000000   0.000000  -0.000000   0.000000  -0.000000  -0.000000
    18  H    0.000000   0.000000  -0.000000   0.000000  -0.000000   0.000000
    19  H   -0.000000   0.000000   0.000000  -0.000000   0.000000  -0.000000
              13         14         15         16         17         18
     1  C   -0.000000   0.000000  -0.000000   0.000000  -0.000000   0.000000
     2  C    0.000000  -0.000000   0.000000  -0.000000   0.000000  -0.000000
     3  C   -0.000000   0.000000  -0.000000   0.000000   0.000000  -0.000000
     4  C    0.000000  -0.000000   0.000000  -0.000000   0.000000   0.000000
     5  C   -0.000000   0.000000  -0.000000   0.000000  -0.000000   0.000000
     6  F   -0.000000   0.000000  -0.000000   0.000000  -0.000000   0.000000
     7  C    0.000000  -0.000000   0.000000  -0.000000   0.000000   0.000000
     8  C    0.000000  -0.000000   0.000000   0.000000   0.000000   0.000000
     9  C    0.000000  -0.000000   0.000000   0.000000  -0.000000  -0.000000
    10  C    0.000000   0.000000  -0.000000  -0.000000   0.000000   0.000000
    11  C    0.000000  -0.000000  -0.000000   0.000000  -0.000000  -0.000000
    12  S   -0.000000   0.000000  -0.000000  -0.000000  -0.000000   0.000000
    13  H   -0.000000   0.000000  -0.000000   0.000000   0.000000   0.000000
    14  H    0.000000  -0.000000   0.000000  -0.000000  -0.000000  -0.000000
    15  H   -0.000000   0.000000  -0.000000   0.000000  -0.000000   0.000000
    16  H    0.000000  -0.000000   0.000000  -0.000000   0.000000  -0.000000
    17  H    0.000000  -0.000000  -0.000000   0.000000  -0.000000   0.000000
    18  H    0.000000  -0.000000   0.000000  -0.000000   0.000000   0.000000
    19  H   -0.000000  -0.000000   0.000000   0.000000  -0.000000  -0.000000
              19
     1  C   -0.000000
     2  C    0.000000
     3  C    0.000000
     4  C    0.000000
     5  C   -0.000000
     6  F   -0.000000
     7  C   -0.000000
     8  C    0.000000
     9  C    0.000000
    10  C   -0.000000
    11  C    0.000000
    12  S   -0.000000
    13  H   -0.000000
    14  H   -0.000000
    15  H    0.000000
    16  H    0.000000
    17  H   -0.000000
    18  H   -0.000000
    19  H    0.000000
 Mulliken charges and spin densities:
               1          2
     1  C    0.089545   0.000000
     2  C    0.059906   0.000000
     3  C   -0.008144  -0.000000
     4  C    0.036560   0.000000
     5  C    0.077307  -0.000000
     6  F   -0.040428   0.000000
     7  C   -0.015640  -0.000000
     8  C   -0.144472  -0.000000
     9  C   -0.009992   0.000000
    10  C    0.130313  -0.000000
    11  C   -0.094459  -0.000000
    12  S    0.137518   0.000000
    13  H   -0.057433  -0.000000
    14  H   -0.031955  -0.000000
    15  H   -0.019252  -0.000000
    16  H   -0.026516  -0.000000
    17  H   -0.012776   0.000000
    18  H   -0.058027   0.000000
    19  H   -0.012054   0.000000
 Sum of Mulliken charges =  -0.00000  -0.00000
 Mulliken charges and spin densities with hydrogens summed into heavy atoms:
               1          2
     1  C    0.032112   0.000000
     2  C    0.027951   0.000000
     3  C   -0.027396  -0.000000
     4  C    0.036560   0.000000
     5  C    0.077307  -0.000000
     6  F   -0.040428   0.000000
     7  C   -0.042157  -0.000000
     8  C   -0.144472  -0.000000
     9  C   -0.022768   0.000000
    10  C    0.072286  -0.000000
    11  C   -0.106513   0.000000
    12  S    0.137518   0.000000
 Electronic spatial extent (au):  <R**2>=           2376.6720
 Charge=             -0.0000 electrons
 Dipole moment (field-independent basis, Debye):
    X=              0.3417    Y=              0.9081    Z=             -0.0331  Tot=              0.9708
 Quadrupole moment (field-independent basis, Debye-Ang):
   XX=            -63.2998   YY=            -69.6657   ZZ=            -79.8770
   XY=             -0.8926   XZ=             -0.0658   YZ=             -0.0455
 Traceless Quadrupole moment (field-independent basis, Debye-Ang):
   XX=              7.6477   YY=              1.2818   ZZ=             -8.9295
   XY=             -0.8926   XZ=             -0.0658   YZ=             -0.0455
 Octapole moment (field-independent basis, Debye-Ang**2):
  XXX=             -0.7440  YYY=             -5.9355  ZZZ=              0.1404  XYY=              1.3812
  XXY=             -6.8588  XXZ=             -0.7950  XZZ=              0.8856  YZZ=             -9.6431
  YYZ=             -0.0745  XYZ=              0.0612
 Hexadecapole moment (field-independent basis, Debye-Ang**3):
 XXXX=          -2136.0986 YYYY=           -669.8705 ZZZZ=            -87.5991 XXXY=             -9.1936
 XXXZ=             -2.1312 YYYX=            -14.6433 YYYZ=             -0.2872 ZZZX=             -0.3273
 ZZZY=             -0.2814 XXYY=           -473.5784 XXZZ=           -460.5309 YYZZ=           -139.5622
 XXYZ=             -0.3080 YYXZ=              0.2249 ZZXY=             -2.5194
 N-N= 7.262941633567D+02 E-N=-3.529739957243D+03  KE= 8.791633617884D+02
                          Isotropic Fermi Contact Couplings
        Atom                 a.u.       MegaHertz       Gauss      10(-4) cm-1
     1  C(13)              0.00000       0.00000       0.00000       0.00000
     2  C(13)             -0.00000      -0.00000      -0.00000      -0.00000
     3  C(13)             -0.00000      -0.00000      -0.00000      -0.00000
     4  C(13)              0.00000       0.00000       0.00000       0.00000
     5  C(13)             -0.00000      -0.00000      -0.00000      -0.00000
     6  F(19)             -0.00000      -0.00000      -0.00000      -0.00000
     7  C(13)             -0.00000      -0.00000      -0.00000      -0.00000
     8  C(13)             -0.00000      -0.00000      -0.00000      -0.00000
     9  C(13)              0.00000       0.00000       0.00000       0.00000
    10  C(13)             -0.00000      -0.00000      -0.00000      -0.00000
    11  C(13)             -0.00000      -0.00000      -0.00000      -0.00000
    12  S(33)              0.00000       0.00000       0.00000       0.00000
    13  H(1)              -0.00000      -0.00000      -0.00000      -0.00000
    14  H(1)              -0.00000      -0.00000      -0.00000      -0.00000
    15  H(1)              -0.00000      -0.00000      -0.00000      -0.00000
    16  H(1)              -0.00000      -0.00000      -0.00000      -0.00000
    17  H(1)               0.00000       0.00000       0.00000       0.00000
    18  H(1)              -0.00000      -0.00000      -0.00000      -0.00000
    19  H(1)               0.00000       0.00000       0.00000       0.00000
 --------------------------------------------------------
       Center         ----  Spin Dipole Couplings  ----
                      3XX-RR        3YY-RR        3ZZ-RR
 --------------------------------------------------------
     1   Atom       -0.000000      0.000000      0.000000
     2   Atom       -0.000000     -0.000000      0.000000
     3   Atom        0.000000     -0.000000      0.000000
     4   Atom        0.000000     -0.000000      0.000000
     5   Atom       -0.000000     -0.000000      0.000000
     6   Atom       -0.000000      0.000000     -0.000000
     7   Atom       -0.000000     -0.000000      0.000000
     8   Atom        0.000000      0.000000     -0.000000
     9   Atom        0.000000      0.000000     -0.000000
    10   Atom        0.000000     -0.000000     -0.000000
    11   Atom       -0.000000      0.000000      0.000000
    12   Atom        0.000000      0.000000     -0.000000
    13   Atom       -0.000000      0.000000      0.000000
    14   Atom        0.000000     -0.000000      0.000000
    15   Atom        0.000000     -0.000000      0.000000
    16   Atom        0.000000     -0.000000      0.000000
    17   Atom       -0.000000      0.000000     -0.000000
    18   Atom        0.000000      0.000000     -0.000000
    19   Atom        0.000000      0.000000     -0.000000
 --------------------------------------------------------
                        XY            XZ            YZ
 --------------------------------------------------------
     1   Atom        0.000000      0.000000      0.000000
     2   Atom       -0.000000     -0.000000     -0.000000
     3   Atom        0.000000      0.000000     -0.000000
     4   Atom       -0.000000     -0.000000      0.000000
     5   Atom        0.000000      0.000000      0.000000
     6   Atom       -0.000000      0.000000     -0.000000
     7   Atom        0.000000      0.000000     -0.000000
     8   Atom       -0.000000     -0.000000     -0.000000
     9   Atom       -0.000000      0.000000     -0.000000
    10   Atom       -0.000000      0.000000      0.000000
    11   Atom        0.000000     -0.000000     -0.000000
    12   Atom        0.000000      0.000000      0.000000
    13   Atom       -0.000000      0.000000     -0.000000
    14   Atom       -0.000000      0.000000      0.000000
    15   Atom        0.000000     -0.000000      0.000000
    16   Atom        0.000000     -0.000000      0.000000
    17   Atom        0.000000      0.000000     -0.000000
    18   Atom       -0.000000      0.000000     -0.000000
    19   Atom        0.000000     -0.000000     -0.000000
 --------------------------------------------------------


 ---------------------------------------------------------------------------------
              Anisotropic Spin Dipole Couplings in Principal Axis System
 ---------------------------------------------------------------------------------

       Atom             a.u.   MegaHertz   Gauss  10(-4) cm-1        Axes

              Baa    -0.0000    -0.000    -0.000    -0.000  0.9641 -0.2638 -0.0295
     1 C(13)  Bbb     0.0000     0.000     0.000     0.000 -0.0161 -0.1691  0.9855
              Bcc     0.0000     0.000     0.000     0.000  0.2649  0.9497  0.1673
 
              Baa    -0.0000    -0.000    -0.000    -0.000  0.8527  0.5218  0.0253
     2 C(13)  Bbb     0.0000     0.000     0.000     0.000 -0.5224  0.8518  0.0391
              Bcc     0.0000     0.000     0.000     0.000 -0.0011 -0.0465  0.9989
 
              Baa    -0.0000    -0.000    -0.000    -0.000 -0.5342  0.8450  0.0233
     3 C(13)  Bbb     0.0000     0.000     0.000     0.000  0.0669  0.0148  0.9976
              Bcc     0.0000     0.000     0.000     0.000  0.8427  0.5345 -0.0645
 
              Baa    -0.0000    -0.000    -0.000    -0.000  0.1951  0.9742 -0.1130
     4 C(13)  Bbb     0.0000     0.000     0.000     0.000  0.2096  0.0711  0.9752
              Bcc     0.0000     0.000     0.000     0.000  0.9581 -0.2140 -0.1903
 
              Baa    -0.0000    -0.000    -0.000    -0.000  0.9827 -0.1825 -0.0328
     5 C(13)  Bbb    -0.0000    -0.000    -0.000    -0.000  0.1795  0.9807 -0.0774
              Bcc     0.0000     0.000     0.000     0.000  0.0463  0.0702  0.9965
 
              Baa    -0.0000    -0.000    -0.000    -0.000 -0.2627 -0.0620  0.9629
     6 F(19)  Bbb    -0.0000    -0.000    -0.000    -0.000  0.9169  0.2946  0.2692
              Bcc     0.0000     0.000     0.000     0.000 -0.3004  0.9536 -0.0206
 
              Baa    -0.0000    -0.000    -0.000    -0.000  0.8063 -0.5868 -0.0749
     7 C(13)  Bbb     0.0000     0.000     0.000     0.000  0.5909  0.8049  0.0547
              Bcc     0.0000     0.000     0.000     0.000  0.0282 -0.0883  0.9957
 
              Baa    -0.0000    -0.000    -0.000    -0.000  0.0352  0.1495  0.9881
     8 C(13)  Bbb     0.0000     0.000     0.000     0.000  0.2654  0.9519 -0.1534
              Bcc     0.0000     0.000     0.000     0.000  0.9635 -0.2676  0.0061
 
              Baa    -0.0000    -0.000    -0.000    -0.000 -0.0018  0.0153  0.9999
     9 C(13)  Bbb    -0.0000    -0.000    -0.000    -0.000  0.6453  0.7638 -0.0106
              Bcc     0.0000     0.000     0.000     0.000  0.7639 -0.6452  0.0112
 
              Baa    -0.0000    -0.000    -0.000    -0.000  0.3436  0.9072 -0.2427
    10 C(13)  Bbb    -0.0000    -0.000    -0.000    -0.000  0.0588  0.2371  0.9697
              Bcc     0.0000     0.000     0.000     0.000  0.9373 -0.3474  0.0281
 
              Baa    -0.0000    -0.000    -0.000    -0.000  0.9806 -0.1949  0.0187
    11 C(13)  Bbb     0.0000     0.000     0.000     0.000  0.1052  0.6050  0.7893
              Bcc     0.0000     0.000     0.000     0.000  0.1651  0.7720 -0.6138
 
              Baa    -0.0000    -0.000    -0.000    -0.000 -0.6883  0.7232  0.0575
    12 S(33)  Bbb    -0.0000    -0.000    -0.000    -0.000  0.0164 -0.0637  0.9978
              Bcc     0.0000     0.000     0.000     0.000  0.7252  0.6877  0.0319
 
              Baa    -0.0000    -0.000    -0.000    -0.000  0.9911  0.1123 -0.0713
    13 H(1)   Bbb     0.0000     0.000     0.000     0.000 -0.0750  0.9144  0.3978
              Bcc     0.0000     0.000     0.000     0.000  0.1099 -0.3889  0.9147
 
              Baa    -0.0000    -0.000    -0.000    -0.000  0.1044  0.9933 -0.0492
    14 H(1)   Bbb     0.0000     0.000     0.000     0.000  0.9701 -0.1127 -0.2149
              Bcc     0.0000     0.000     0.000     0.000  0.2190  0.0253  0.9754
 
              Baa    -0.0000    -0.000    -0.000    -0.000 -0.4472  0.8935 -0.0401
    15 H(1)   Bbb     0.0000     0.000     0.000     0.000  0.8944  0.4463 -0.0296
              Bcc     0.0000     0.000     0.000     0.000  0.0085  0.0491  0.9988
 
              Baa    -0.0000    -0.000    -0.000    -0.000 -0.2233  0.9710 -0.0850
    16 H(1)   Bbb     0.0000     0.000     0.000     0.000  0.9735  0.2266  0.0314
              Bcc     0.0000     0.000     0.000     0.000 -0.0498  0.0757  0.9959
 
              Baa    -0.0000    -0.000    -0.000    -0.000  0.8145 -0.5802 -0.0043
    17 H(1)   Bbb    -0.0000    -0.000    -0.000    -0.000  0.0029 -0.0034  1.0000
              Bcc     0.0000     0.000     0.000     0.000  0.5802  0.8145  0.0011
 
              Baa    -0.0000    -0.000    -0.000    -0.000 -0.0000  0.0016  1.0000
    18 H(1)   Bbb    -0.0000    -0.000    -0.000    -0.000  0.7124  0.7018 -0.0011
              Bcc     0.0000     0.000     0.000     0.000 -0.7018  0.7124 -0.0012
 
              Baa    -0.0000    -0.000    -0.000    -0.000  0.2118 -0.0787  0.9742
    19 H(1)   Bbb    -0.0000    -0.000    -0.000    -0.000  0.7256 -0.6550 -0.2106
              Bcc     0.0000     0.000     0.000     0.000  0.6547  0.7515 -0.0816
 

 ---------------------------------------------------------------------------------

 No NMR shielding tensors so no spin-rotation constants.
 Leave Link  601 at Fri Jul 24 18:04:39 2020, MaxMem=  4026531840 cpu:               2.2 elap:               0.3
 (Enter /opt/ohpc/pub/libs/gaussian/g16-A.03/sandybridge/g16/l701.exe)
 ... and contract with generalized density number  0.
 Compute integral first derivatives.
 Leave Link  701 at Fri Jul 24 18:04:39 2020, MaxMem=  4026531840 cpu:               1.4 elap:               0.2
 (Enter /opt/ohpc/pub/libs/gaussian/g16-A.03/sandybridge/g16/l702.exe)
 L702 exits ... SP integral derivatives will be done elsewhere.
 Leave Link  702 at Fri Jul 24 18:04:39 2020, MaxMem=  4026531840 cpu:               0.2 elap:               0.0
 (Enter /opt/ohpc/pub/libs/gaussian/g16-A.03/sandybridge/g16/l703.exe)
 Integral derivatives from FoFJK, PRISM(SPDF).
 Compute integral first derivatives, UseDBF=F ICtDFT=           0.
 Calling FoFJK, ICntrl=      2127 FMM=F ISym2X=0 I1Cent= 0 IOpClX= 1 NMat=1 NMatS=1 NMatT=0.
 FoFJK:  IHMeth= 1 ICntrl=    2127 DoSepK=T KAlg= 0 I1Cent=           0 FoldK=F
 IRaf=         1 NMat=       1 IRICut=       1 DoRegI=T DoRafI=F ISym2E= 0 IDoP0=0 IntGTp=1.
 FoFCou: FMM=F IPFlag=           0 FMFlag=      100000 FMFlg1=         800
         NFxFlg=           0 DoJE=F BraDBF=F KetDBF=F FulRan=T
         wScrn=  0.000000 ICntrl=      2527 IOpCl=  0 I1Cent=           0 NGrid=           0
         NMat0=    1 NMatS0=      1 NMatT0=    0 NMatD0=    1 NMtDS0=    0 NMtDT0=    0
 Symmetry not used in FoFCou.
 Leave Link  703 at Fri Jul 24 18:04:51 2020, MaxMem=  4026531840 cpu:              89.9 elap:              11.3
 (Enter /opt/ohpc/pub/libs/gaussian/g16-A.03/sandybridge/g16/l716.exe)
 Dipole        = 1.34436588D-01 3.57261469D-01-1.30218315D-02
 ***** Axes restored to original set *****
 -------------------------------------------------------------------
 Center     Atomic                   Forces (Hartrees/Bohr)
 Number     Number              X              Y              Z
 -------------------------------------------------------------------
      1        6           0.091525454   -0.051568380    0.000192857
      2        6          -0.005348885    0.008719751    0.004094361
      3        6           0.014140877    0.020417110    0.004370114
      4        6           0.066560157    0.010493194   -0.013173810
      5        6          -0.114084150    0.043110492    0.006130751
      6        9           0.052390430   -0.073135934   -0.001232687
      7        6           0.028294564    0.078567051   -0.005334996
      8        6          -0.036749732   -0.031169806    0.008647624
      9        6          -0.000913897    0.033077752   -0.003673272
     10        6          -0.052910813   -0.071595458    0.000317084
     11        6          -0.047107826    0.038263953   -0.001661475
     12       16           0.007673132    0.008913635    0.001023384
     13        1          -0.072677304   -0.000093955    0.000877474
     14        1          -0.008150948    0.013441751   -0.001601164
     15        1          -0.005007391   -0.003759717   -0.002071014
     16        1          -0.012623312   -0.036773645    0.001098273
     17        1           0.000589616   -0.007185067    0.001263088
     18        1           0.050387766    0.047700187    0.001093144
     19        1           0.044012263   -0.027422912   -0.000359739
 -------------------------------------------------------------------
 Cartesian Forces:  Max     0.114084150 RMS     0.036615379
 Leave Link  716 at Fri Jul 24 18:04:51 2020, MaxMem=  4026531840 cpu:               0.2 elap:               0.0
 (Enter /opt/ohpc/pub/libs/gaussian/g16-A.03/sandybridge/g16/l103.exe)

 GradGradGradGradGradGradGradGradGradGradGradGradGradGradGradGradGradGrad
 Berny optimization.
 FormGI is forming the generalized inverse of G from B-inverse, IUseBI=4.
 GSVD:  received Info=                   1 from GESDD.
 Internal  Forces:  Max     0.088522685 RMS     0.017882873
 Search for a local minimum.
 Step number   1 out of a maximum of  105
 All quantities printed in internal units (Hartrees-Bohrs-Radians)
 RMS Force = .17883D-01 SwitMx=.10000D-02 MixMth= 1
 Mixed Optimization -- RFO/linear search
 Second derivative matrix not updated -- first step.
 ITU=  0
     Eigenvalues ---    0.00230   0.01280   0.01305   0.01464   0.01500
     Eigenvalues ---    0.01672   0.01760   0.01850   0.01950   0.01969
     Eigenvalues ---    0.02069   0.02208   0.02251   0.02308   0.02332
     Eigenvalues ---    0.02376   0.15960   0.15968   0.15982   0.15985
     Eigenvalues ---    0.15991   0.15995   0.16000   0.22001   0.22132
     Eigenvalues ---    0.22460   0.23740   0.24421   0.24800   0.24878
     Eigenvalues ---    0.24981   0.27477   0.27818   0.30413   0.32551
     Eigenvalues ---    0.32826   0.35179   0.36269   0.36811   0.40137
     Eigenvalues ---    0.40898   0.42432   0.44077   0.45278   0.45334
     Eigenvalues ---    0.45566   0.46285   0.49070   0.49555   0.50287
     Eigenvalues ---    0.78075
 RFO step:  Lambda=-5.95340992D-02 EMin= 2.30000000D-03
 Linear search not attempted -- first point.
 Maximum step size (   0.300) exceeded in Quadratic search.
    -- Step size scaled by   0.848
 Iteration  1 RMS(Cart)=  0.02843779 RMS(Int)=  0.00046039
 Iteration  2 RMS(Cart)=  0.00065532 RMS(Int)=  0.00012822
 Iteration  3 RMS(Cart)=  0.00000039 RMS(Int)=  0.00012822
 ITry= 1 IFail=0 DXMaxC= 8.31D-02 DCOld= 1.00D+10 DXMaxT= 3.00D-01 DXLimC= 3.00D+00 Rises=F
 Variable       Old X    -DE/DX   Delta X   Delta X   Delta X     New X
                                 (Linear)    (Quad)   (Total)
    R1        2.61085   0.01994   0.00000   0.03068   0.03073   2.64158
    R2        2.74716  -0.03543   0.00000  -0.07269  -0.07276   2.67439
    R3        1.91324   0.07262   0.00000   0.11953   0.11953   2.03277
    R4        2.59993   0.01499   0.00000   0.02556   0.02568   2.62561
    R5        2.03662   0.01568   0.00000   0.03150   0.03150   2.06812
    R6        2.62805   0.01666   0.00000   0.02989   0.02996   2.65801
    R7        2.09358  -0.00582   0.00000  -0.01273  -0.01273   2.08085
    R8        2.59926   0.02734   0.00000   0.04189   0.04184   2.64111
    R9        2.93297  -0.03580   0.00000  -0.09082  -0.09082   2.84215
   R10        2.38971   0.08852   0.00000   0.08934   0.08934   2.47904
   R11        2.76794  -0.03638   0.00000  -0.07649  -0.07662   2.69132
   R12        1.98067   0.03793   0.00000   0.06978   0.06978   2.05045
   R13        2.57856   0.01278   0.00000   0.02023   0.02026   2.59883
   R14        3.35366  -0.00466   0.00000  -0.01016  -0.01017   3.34349
   R15        2.68710   0.00318   0.00000   0.00606   0.00609   2.69319
   R16        2.09846  -0.00698   0.00000  -0.01538  -0.01538   2.08309
   R17        2.64025  -0.01285   0.00000  -0.02238  -0.02238   2.61787
   R18        1.91654   0.06939   0.00000   0.11486   0.11486   2.03140
   R19        3.29591  -0.00726   0.00000  -0.01871  -0.01875   3.27716
   R20        1.95077   0.05157   0.00000   0.09039   0.09039   2.04115
    A1        2.05182   0.00991   0.00000   0.02318   0.02316   2.07498
    A2        2.15975  -0.00715   0.00000  -0.02001  -0.02001   2.13974
    A3        2.07105  -0.00273   0.00000  -0.00294  -0.00294   2.06811
    A4        2.11919  -0.00759   0.00000  -0.01798  -0.01786   2.10132
    A5        2.09797   0.00295   0.00000   0.00597   0.00583   2.10380
    A6        2.06412   0.00476   0.00000   0.01311   0.01298   2.07710
    A7        2.15106  -0.01102   0.00000  -0.02178  -0.02161   2.12945
[...]
    17  H   -0.000000   0.000052  -0.001853  -0.000000   0.722666  -0.008525
    18  H   -0.000000  -0.000000   0.000040   0.000000  -0.008525   0.720189
    19  H   -0.000000   0.000000  -0.000001  -0.000000  -0.000181  -0.008786
              19
     1  C   -0.000000
     2  C   -0.000000
     3  C    0.000003
     4  C   -0.000272
     5  C    0.000001
     6  F    0.000001
     7  C    0.000000
     8  C    0.001215
     9  C    0.009539
    10  C   -0.025386
    11  C    0.391300
    12  S   -0.042140
    13  H   -0.000000
    14  H    0.000000
    15  H   -0.000001
    16  H   -0.000000
    17  H   -0.000181
    18  H   -0.008786
    19  H    0.655466
          Atomic-Atomic Spin Densities.
               1          2          3          4          5          6
     1  C    0.000000  -0.000000   0.000000  -0.000000   0.000000   0.000000
     2  C   -0.000000   0.000000  -0.000000   0.000000  -0.000000  -0.000000
     3  C    0.000000  -0.000000   0.000000  -0.000000   0.000000  -0.000000
     4  C   -0.000000   0.000000  -0.000000   0.000000  -0.000000  -0.000000
     5  C    0.000000  -0.000000   0.000000  -0.000000   0.000000   0.000000
     6  F    0.000000  -0.000000  -0.000000  -0.000000   0.000000  -0.000000
     7  C   -0.000000   0.000000  -0.000000   0.000000  -0.000000  -0.000000
     8  C   -0.000000   0.000000  -0.000000   0.000000  -0.000000  -0.000000
     9  C    0.000000  -0.000000   0.000000   0.000000   0.000000  -0.000000
    10  C    0.000000  -0.000000   0.000000   0.000000   0.000000   0.000000
    11  C   -0.000000   0.000000  -0.000000  -0.000000  -0.000000  -0.000000
    12  S    0.000000  -0.000000   0.000000   0.000000  -0.000000  -0.000000
    13  H    0.000000  -0.000000   0.000000  -0.000000   0.000000   0.000000
    14  H   -0.000000   0.000000  -0.000000   0.000000  -0.000000  -0.000000
    15  H    0.000000  -0.000000   0.000000  -0.000000   0.000000   0.000000
    16  H   -0.000000   0.000000  -0.000000   0.000000  -0.000000  -0.000000
    17  H   -0.000000   0.000000   0.000000  -0.000000  -0.000000  -0.000000
    18  H    0.000000  -0.000000   0.000000   0.000000  -0.000000   0.000000
    19  H    0.000000  -0.000000  -0.000000   0.000000  -0.000000  -0.000000
               7          8          9         10         11         12
     1  C   -0.000000  -0.000000   0.000000   0.000000  -0.000000   0.000000
     2  C    0.000000   0.000000  -0.000000  -0.000000   0.000000  -0.000000
     3  C   -0.000000  -0.000000   0.000000   0.000000  -0.000000   0.000000
     4  C    0.000000   0.000000   0.000000   0.000000  -0.000000   0.000000
     5  C   -0.000000  -0.000000   0.000000   0.000000  -0.000000  -0.000000
     6  F   -0.000000  -0.000000  -0.000000   0.000000  -0.000000  -0.000000
     7  C    0.000000   0.000000   0.000000  -0.000000   0.000000  -0.000000
     8  C    0.000000   0.000000   0.000000   0.000000   0.000000  -0.000000
     9  C    0.000000   0.000000  -0.000000  -0.000000  -0.000000   0.000000
    10  C   -0.000000   0.000000  -0.000000   0.000000  -0.000000  -0.000000
    11  C    0.000000   0.000000  -0.000000  -0.000000   0.000000  -0.000000
    12  S   -0.000000  -0.000000   0.000000  -0.000000  -0.000000   0.000000
    13  H   -0.000000  -0.000000   0.000000   0.000000  -0.000000   0.000000
    14  H    0.000000   0.000000   0.000000  -0.000000   0.000000  -0.000000
    15  H   -0.000000  -0.000000   0.000000   0.000000  -0.000000   0.000000
    16  H    0.000000   0.000000  -0.000000  -0.000000   0.000000   0.000000
    17  H    0.000000   0.000000  -0.000000  -0.000000   0.000000   0.000000
    18  H   -0.000000   0.000000   0.000000   0.000000   0.000000  -0.000000
    19  H    0.000000   0.000000  -0.000000   0.000000  -0.000000  -0.000000
              13         14         15         16         17         18
     1  C    0.000000  -0.000000   0.000000  -0.000000  -0.000000   0.000000
     2  C   -0.000000   0.000000  -0.000000   0.000000   0.000000  -0.000000
     3  C    0.000000  -0.000000   0.000000  -0.000000   0.000000   0.000000
     4  C   -0.000000   0.000000  -0.000000   0.000000  -0.000000   0.000000
     5  C    0.000000  -0.000000   0.000000  -0.000000  -0.000000  -0.000000
     6  F    0.000000  -0.000000   0.000000  -0.000000  -0.000000   0.000000
     7  C   -0.000000   0.000000  -0.000000   0.000000   0.000000  -0.000000
     8  C   -0.000000   0.000000  -0.000000   0.000000   0.000000   0.000000
     9  C    0.000000   0.000000   0.000000  -0.000000  -0.000000   0.000000
    10  C    0.000000  -0.000000   0.000000  -0.000000  -0.000000   0.000000
    11  C   -0.000000   0.000000  -0.000000   0.000000   0.000000   0.000000
    12  S    0.000000  -0.000000   0.000000   0.000000   0.000000  -0.000000
    13  H    0.000000  -0.000000   0.000000  -0.000000  -0.000000   0.000000
    14  H   -0.000000   0.000000  -0.000000   0.000000   0.000000  -0.000000
    15  H    0.000000  -0.000000   0.000000  -0.000000  -0.000000   0.000000
    16  H   -0.000000   0.000000  -0.000000   0.000000   0.000000   0.000000
    17  H   -0.000000   0.000000  -0.000000   0.000000   0.000000  -0.000000
    18  H    0.000000  -0.000000   0.000000   0.000000  -0.000000   0.000000
    19  H    0.000000  -0.000000  -0.000000   0.000000  -0.000000   0.000000
              19
     1  C    0.000000
     2  C   -0.000000
     3  C   -0.000000
     4  C    0.000000
     5  C   -0.000000
     6  F   -0.000000
     7  C    0.000000
     8  C    0.000000
     9  C   -0.000000
    10  C    0.000000
    11  C   -0.000000
    12  S   -0.000000
    13  H    0.000000
    14  H   -0.000000
    15  H   -0.000000
    16  H    0.000000
    17  H   -0.000000
    18  H    0.000000
    19  H   -0.000000
 Mulliken charges and spin densities:
               1          2
     1  C    0.033337   0.000000
     2  C    0.041731   0.000000
     3  C   -0.017573  -0.000000
     4  C    0.065562  -0.000000
     5  C    0.062994   0.000000
     6  F   -0.127240  -0.000000
     7  C    0.034598  -0.000000
     8  C   -0.139925   0.000000
     9  C    0.011872  -0.000000
    10  C    0.074224   0.000000
    11  C   -0.125627  -0.000000
    12  S    0.155607   0.000000
    13  H   -0.013657   0.000000
    14  H   -0.017910  -0.000000
    15  H   -0.019954   0.000000
    16  H   -0.004448  -0.000000
    17  H   -0.016232  -0.000000
    18  H   -0.016602   0.000000
    19  H    0.019241  -0.000000
 Sum of Mulliken charges =  -0.00000  -0.00000
 Mulliken charges and spin densities with hydrogens summed into heavy atoms:
               1          2
     1  C    0.019680   0.000000
     2  C    0.023820   0.000000
     3  C   -0.037527  -0.000000
     4  C    0.065562  -0.000000
     5  C    0.062994   0.000000
     6  F   -0.127240  -0.000000
     7  C    0.030151  -0.000000
     8  C   -0.139925   0.000000
     9  C   -0.004359  -0.000000
    10  C    0.057622   0.000000
    11  C   -0.106385  -0.000000
    12  S    0.155607   0.000000
 Electronic spatial extent (au):  <R**2>=           2350.4861
 Charge=             -0.0000 electrons
 Dipole moment (field-independent basis, Debye):
    X=              0.4632    Y=              1.2168    Z=             -0.0220  Tot=              1.3022
 Quadrupole moment (field-independent basis, Debye-Ang):
   XX=            -62.6211   YY=            -70.4413   ZZ=            -79.8103
   XY=             -0.3309   XZ=             -0.1359   YZ=              0.4584
 Traceless Quadrupole moment (field-independent basis, Debye-Ang):
   XX=              8.3365   YY=              0.5163   ZZ=             -8.8527
   XY=             -0.3309   XZ=             -0.1359   YZ=              0.4584
 Octapole moment (field-independent basis, Debye-Ang**2):
  XXX=             -0.3917  YYY=             -4.2105  ZZZ=              1.1796  XYY=              2.1381
  XXY=             -8.5717  XXZ=             -0.2353  XZZ=              0.2650  YZZ=             -9.4385
  YYZ=              0.7006  XYZ=             -3.6806
 Hexadecapole moment (field-independent basis, Debye-Ang**3):
 XXXX=          -2100.9655 YYYY=           -673.6816 ZZZZ=            -97.9449 XXXY=              0.1187
 XXXZ=              2.8095 YYYX=             -9.8373 YYYZ=             -0.6234 ZZZX=              3.4373
 ZZZY=             -3.2292 XXYY=           -466.3122 XXZZ=           -454.7854 YYZZ=           -140.4581
 XXYZ=              1.9601 YYXZ=             -4.1438 ZZXY=             -2.1406
 N-N= 7.266565451517D+02 E-N=-3.530360820670D+03  KE= 8.786848544308D+02
                          Isotropic Fermi Contact Couplings
        Atom                 a.u.       MegaHertz       Gauss      10(-4) cm-1
     1  C(13)              0.00000       0.00000       0.00000       0.00000
     2  C(13)              0.00000       0.00000       0.00000       0.00000
     3  C(13)              0.00000       0.00000       0.00000       0.00000
     4  C(13)              0.00000       0.00000       0.00000       0.00000
     5  C(13)             -0.00000      -0.00000      -0.00000      -0.00000
     6  F(19)             -0.00000      -0.00000      -0.00000      -0.00000
     7  C(13)             -0.00000      -0.00000      -0.00000      -0.00000
     8  C(13)             -0.00000      -0.00000      -0.00000      -0.00000
     9  C(13)             -0.00000      -0.00000      -0.00000      -0.00000
    10  C(13)              0.00000       0.00000       0.00000       0.00000
    11  C(13)              0.00000       0.00000       0.00000       0.00000
    12  S(33)             -0.00000      -0.00000      -0.00000      -0.00000
    13  H(1)               0.00000       0.00000       0.00000       0.00000
    14  H(1)               0.00000       0.00000       0.00000       0.00000
    15  H(1)              -0.00000      -0.00000      -0.00000      -0.00000
    16  H(1)               0.00000       0.00000       0.00000       0.00000
    17  H(1)              -0.00000      -0.00000      -0.00000      -0.00000
    18  H(1)               0.00000       0.00000       0.00000       0.00000
    19  H(1)               0.00000       0.00000       0.00000       0.00000
 --------------------------------------------------------
       Center         ----  Spin Dipole Couplings  ----
                      3XX-RR        3YY-RR        3ZZ-RR
 --------------------------------------------------------
     1   Atom        0.000000     -0.000000     -0.000000
     2   Atom        0.000000      0.000000     -0.000000
     3   Atom       -0.000000      0.000000     -0.000000
     4   Atom        0.000000      0.000000     -0.000000
     5   Atom       -0.000000      0.000000     -0.000000
     6   Atom        0.000000      0.000000     -0.000000
     7   Atom       -0.000000     -0.000000      0.000000
     8   Atom       -0.000000      0.000000      0.000000
     9   Atom       -0.000000     -0.000000      0.000000
    10   Atom       -0.000000      0.000000     -0.000000
    11   Atom       -0.000000     -0.000000      0.000000
    12   Atom        0.000000     -0.000000     -0.000000
    13   Atom        0.000000     -0.000000     -0.000000
    14   Atom        0.000000      0.000000     -0.000000
    15   Atom       -0.000000      0.000000     -0.000000
    16   Atom       -0.000000      0.000000      0.000000
    17   Atom        0.000000     -0.000000      0.000000
    18   Atom        0.000000     -0.000000      0.000000
    19   Atom        0.000000     -0.000000      0.000000
 --------------------------------------------------------
                        XY            XZ            YZ
 --------------------------------------------------------
     1   Atom       -0.000000     -0.000000     -0.000000
     2   Atom        0.000000     -0.000000     -0.000000
     3   Atom       -0.000000      0.000000     -0.000000
     4   Atom        0.000000     -0.000000     -0.000000
     5   Atom       -0.000000     -0.000000     -0.000000
     6   Atom       -0.000000      0.000000     -0.000000
     7   Atom        0.000000      0.000000     -0.000000
     8   Atom        0.000000     -0.000000     -0.000000
     9   Atom        0.000000     -0.000000     -0.000000
    10   Atom       -0.000000     -0.000000      0.000000
    11   Atom       -0.000000     -0.000000      0.000000
    12   Atom       -0.000000     -0.000000     -0.000000
    13   Atom        0.000000     -0.000000     -0.000000
    14   Atom        0.000000     -0.000000     -0.000000
    15   Atom       -0.000000      0.000000     -0.000000
    16   Atom        0.000000     -0.000000      0.000000
    17   Atom       -0.000000     -0.000000     -0.000000
    18   Atom        0.000000      0.000000     -0.000000
    19   Atom       -0.000000     -0.000000     -0.000000
 --------------------------------------------------------


 ---------------------------------------------------------------------------------
              Anisotropic Spin Dipole Couplings in Principal Axis System
 ---------------------------------------------------------------------------------

       Atom             a.u.   MegaHertz   Gauss  10(-4) cm-1        Axes

              Baa    -0.0000    -0.000    -0.000    -0.000  0.0458  0.1165  0.9921
     1 C(13)  Bbb    -0.0000    -0.000    -0.000    -0.000  0.1406  0.9825 -0.1218
              Bcc     0.0000     0.000     0.000     0.000  0.9890 -0.1450 -0.0286
 
              Baa    -0.0000    -0.000    -0.000    -0.000  0.0390  0.0690  0.9969
     2 C(13)  Bbb    -0.0000    -0.000    -0.000    -0.000  0.8161 -0.5779  0.0081
              Bcc     0.0000     0.000     0.000     0.000  0.5766  0.8132 -0.0789
 
              Baa    -0.0000    -0.000    -0.000    -0.000  0.8484  0.5284  0.0311
     3 C(13)  Bbb    -0.0000    -0.000    -0.000    -0.000 -0.0602  0.0379  0.9975
              Bcc     0.0000     0.000     0.000     0.000 -0.5259  0.8481 -0.0639
 
              Baa    -0.0000    -0.000    -0.000    -0.000 -0.0208  0.0875  0.9959
     4 C(13)  Bbb    -0.0000    -0.000    -0.000    -0.000 -0.5436  0.8351 -0.0847
              Bcc     0.0000     0.000     0.000     0.000  0.8391  0.5431 -0.0302
 
              Baa    -0.0000    -0.000    -0.000    -0.000  0.0174  0.0229  0.9996
     5 C(13)  Bbb    -0.0000    -0.000    -0.000    -0.000  0.9997  0.0194 -0.0178
              Bcc     0.0000     0.000     0.000     0.000 -0.0198  0.9995 -0.0226
 
              Baa    -0.0000    -0.000    -0.000    -0.000 -0.0134  0.0254  0.9996
     6 F(19)  Bbb    -0.0000    -0.000    -0.000    -0.000  0.2302  0.9729 -0.0216
              Bcc     0.0000     0.000     0.000     0.000  0.9731 -0.2298  0.0189
 
              Baa    -0.0000    -0.000    -0.000    -0.000 -0.5695  0.8209  0.0422
     7 C(13)  Bbb     0.0000     0.000     0.000     0.000  0.7640  0.5475 -0.3414
              Bcc     0.0000     0.000     0.000     0.000  0.3033  0.1622  0.9390
 
              Baa    -0.0000    -0.000    -0.000    -0.000  0.9115 -0.4057  0.0675
     8 C(13)  Bbb     0.0000     0.000     0.000     0.000 -0.0079  0.1468  0.9891
              Bcc     0.0000     0.000     0.000     0.000  0.4112  0.9021 -0.1306
 
              Baa    -0.0000    -0.000    -0.000    -0.000  0.8628 -0.5052 -0.0150
     9 C(13)  Bbb    -0.0000    -0.000    -0.000    -0.000  0.5002  0.8492  0.1693
              Bcc     0.0000     0.000     0.000     0.000 -0.0728 -0.1536  0.9855
 
              Baa    -0.0000    -0.000    -0.000    -0.000  0.7724  0.6335 -0.0466
    10 C(13)  Bbb    -0.0000    -0.000    -0.000    -0.000  0.1197 -0.0731  0.9901
              Bcc     0.0000     0.000     0.000     0.000 -0.6238  0.7703  0.1323
 
              Baa    -0.0000    -0.000    -0.000    -0.000  0.6999  0.7052  0.1133
    11 C(13)  Bbb     0.0000     0.000     0.000     0.000  0.1326 -0.2842  0.9496
              Bcc     0.0000     0.000     0.000     0.000  0.7019 -0.6495 -0.2924
 
              Baa    -0.0000    -0.000    -0.000    -0.000  0.2552  0.3618  0.8966
    12 S(33)  Bbb    -0.0000    -0.000    -0.000    -0.000  0.4008  0.8043 -0.4387
              Bcc     0.0000     0.000     0.000     0.000  0.8799 -0.4713 -0.0603
 
              Baa    -0.0000    -0.000    -0.000    -0.000  0.0059  0.1274  0.9918
    13 H(1)   Bbb    -0.0000    -0.000    -0.000    -0.000 -0.0232  0.9916 -0.1272
              Bcc     0.0000     0.000     0.000     0.000  0.9997  0.0222 -0.0088
 
              Baa    -0.0000    -0.000    -0.000    -0.000  0.0132  0.1486  0.9888
    14 H(1)   Bbb    -0.0000    -0.000    -0.000    -0.000 -0.6858  0.7210 -0.0992
              Bcc     0.0000     0.000     0.000     0.000  0.7277  0.6768 -0.1114
 
              Baa    -0.0000    -0.000    -0.000    -0.000  0.1246  0.1584  0.9795
    15 H(1)   Bbb    -0.0000    -0.000    -0.000    -0.000  0.9004  0.3967 -0.1787
              Bcc     0.0000     0.000     0.000     0.000 -0.4169  0.9042 -0.0932
 
              Baa    -0.0000    -0.000    -0.000    -0.000  0.9104 -0.3899  0.1382
    16 H(1)   Bbb     0.0000     0.000     0.000     0.000 -0.1447  0.0128  0.9894
              Bcc     0.0000     0.000     0.000     0.000  0.3875  0.9208  0.0448
 
              Baa    -0.0000    -0.000    -0.000    -0.000  0.3842  0.8932  0.2336
    17 H(1)   Bbb     0.0000     0.000     0.000     0.000  0.0097 -0.2569  0.9664
              Bcc     0.0000     0.000     0.000     0.000  0.9232 -0.3690 -0.1074
 
              Baa    -0.0000    -0.000    -0.000    -0.000 -0.3608  0.9239  0.1271
    18 H(1)   Bbb     0.0000     0.000     0.000     0.000 -0.0205 -0.1441  0.9894
              Bcc     0.0000     0.000     0.000     0.000  0.9324  0.3544  0.0709
 
              Baa    -0.0000    -0.000    -0.000    -0.000  0.5194  0.8346  0.1834
    19 H(1)   Bbb     0.0000     0.000     0.000     0.000 -0.0093 -0.2091  0.9779
              Bcc     0.0000     0.000     0.000     0.000  0.8545 -0.5096 -0.1009
 

 ---------------------------------------------------------------------------------

 No NMR shielding tensors so no spin-rotation constants.
 Leave Link  601 at Fri Jul 24 18:18:23 2020, MaxMem=  4026531840 cpu:               1.9 elap:               0.3
 (Enter /opt/ohpc/pub/libs/gaussian/g16-A.03/sandybridge/g16/l9999.exe)

 Test job not archived.
 1\1\GINC-SKYLAKE015\FOpt\ULC-wPBE\CC-pVDZ\C10H7F1S1\RDU230\24-Jul-2020
 \0\\#P uLC-wPBE/cc-pVDZ iop(3/107=0123800000, 3/108=0123800000) opt\\H
 7 C10 S1 F1\\0,1\C,-3.4598001656,0.3026307898,-0.0041215762\C,-2.75536
 61479,1.5111244054,0.1051290656\C,-1.3578491008,1.5123624884,0.1237063
 002\C,-0.605617728,0.316677805,0.0257244429\C,-1.3561012285,-0.8729183
 519,-0.0735524164\F,-0.6986453679,-2.0626501588,-0.1545666185\C,-2.750
 6951843,-0.9008167745,-0.0909141812\C,0.8650220732,0.3504878175,0.0157
 659025\C,1.6761809114,1.464642124,-0.165809005\C,3.0684388984,1.181639
 9099,-0.0805964095\C,3.3209179701,-0.1511558268,0.1681372827\S,1.86075
 52729,-1.0717748503,0.2875075607\H,-4.5582774788,0.2931502493,-0.01474
 34474\H,-3.2988043631,2.4625184508,0.1854358929\H,-0.8221384928,2.4647
 423865,0.2320149053\H,-3.254943281,-1.8725802849,-0.1731683382\H,1.277
 5590711,2.4649311246,-0.3735487241\H,3.8556941253,1.9350566744,-0.2053
 38714\H,4.2884162161,-0.6533219785,0.2740380776\\Version=EM64L-G16RevA
 .03\State=1-A\HF=-882.7177551\S2=0.\S2-1=0.\S2A=0.\RMSD=7.811e-09\RMSF
 =6.697e-06\Dipole=-0.1763695,0.4809897,0.0009457\Quadrupole=6.2026081,
 0.3719053,-6.5745134,0.1809512,0.1349441,-0.3993654\PG=C01 [X(C10H7F1S
 1)]\\@


 BETTER TO HUNT IN FIELDS, FOR HEALTH UNBOUGHT
 THAN FEE THE DOCTOR FOR A NAUSEOUS DRAUGHT.
 THE WISE, FOR CURE, ON EXERCISE DEPEND;
 GOD NEVER MADE HIS WORK FOR MAN TO MEND.
     -- JOHN DRYDEN (1631-1700)
 Job cpu time:       0 days  1 hours 55 minutes 19.7 seconds.
 Elapsed time:       0 days  0 hours 14 minutes 35.6 seconds.
 File lengths (MBytes):  RWF=    104 Int=      0 D2E=      0 Chk=     12 Scr=      8
 Normal termination of Gaussian 16 at Fri Jul 24 18:18:23 2020.
