 Entering Gaussian System, Link 0=g16
 Input=mols_55_5_08_N-COC_opt_0.gjf
 Output=mols_55_5_08_N-COC_opt_0.log
 Initial command:
 /opt/ohpc/pub/libs/gaussian/g16-A.03/sandybridge/g16/l1.exe "/mnt/gpfs2_4m/scratch/rdu230/ondemand/projects/dihedral_energies/7trial/wtuning/mols_55_5_08_N-COC/Gau-335549.inp" -scrdir="/mnt/gpfs2_4m/scratch/rdu230/ondemand/projects/dihedral_energies/7trial/wtuning/mols_55_5_08_N-COC/"
 Entering Link 1 = /opt/ohpc/pub/libs/gaussian/g16-A.03/sandybridge/g16/l1.exe PID=    335551.
  
 Copyright (c) 1988,1990,1992,1993,1995,1998,2003,2009,2016,
            Gaussian, Inc.  All Rights Reserved.
  
 This is part of the Gaussian(R) 16 program.  It is based on
 the Gaussian(R) 09 system (copyright 2009, Gaussian, Inc.),
 the Gaussian(R) 03 system (copyright 2003, Gaussian, Inc.),
 the Gaussian(R) 98 system (copyright 1998, Gaussian, Inc.),
 the Gaussian(R) 94 system (copyright 1995, Gaussian, Inc.),
 the Gaussian 92(TM) system (copyright 1992, Gaussian, Inc.),
 the Gaussian 90(TM) system (copyright 1990, Gaussian, Inc.),
 the Gaussian 88(TM) system (copyright 1988, Gaussian, Inc.),
 the Gaussian 86(TM) system (copyright 1986, Carnegie Mellon
 University), and the Gaussian 82(TM) system (copyright 1983,
 Carnegie Mellon University). Gaussian is a federally registered
 trademark of Gaussian, Inc.
  
 This software contains proprietary and confidential information,
 including trade secrets, belonging to Gaussian, Inc.
  
 This software is provided under written license and may be
 used, copied, transmitted, or stored only in accord with that
 written license.
  
 The following legend is applicable only to US Government
 contracts under FAR:
  
                    RESTRICTED RIGHTS LEGEND
  
 Use, reproduction and disclosure by the US Government is
 subject to restrictions as set forth in subparagraphs (a)
 and (c) of the Commercial Computer Software - Restricted
 Rights clause in FAR 52.227-19.
  
 Gaussian, Inc.
 340 Quinnipiac St., Bldg. 40, Wallingford CT 06492
  
  
 ---------------------------------------------------------------
 Warning -- This program may not be used in any manner that
 competes with the business of Gaussian, Inc. or will provide
 assistance to any competitor of Gaussian, Inc.  The licensee
 of this program is prohibited from giving any competitor of
 Gaussian, Inc. access to this program.  By using this program,
 the user acknowledges that Gaussian, Inc. is engaged in the
 business of creating and licensing software in the field of
 computational chemistry and represents and warrants to the
 licensee that it is not a competitor of Gaussian, Inc. and that
 it will not use this program in any manner prohibited above.
 ---------------------------------------------------------------
  

 Cite this work as:
 Gaussian 16, Revision A.03,
 M. J. Frisch, G. W. Trucks, H. B. Schlegel, G. E. Scuseria, 
 M. A. Robb, J. R. Cheeseman, G. Scalmani, V. Barone, 
 G. A. Petersson, H. Nakatsuji, X. Li, M. Caricato, A. V. Marenich, 
 J. Bloino, B. G. Janesko, R. Gomperts, B. Mennucci, H. P. Hratchian, 
 J. V. Ortiz, A. F. Izmaylov, J. L. Sonnenberg, D. Williams-Young, 
 F. Ding, F. Lipparini, F. Egidi, J. Goings, B. Peng, A. Petrone, 
 T. Henderson, D. Ranasinghe, V. G. Zakrzewski, J. Gao, N. Rega, 
 G. Zheng, W. Liang, M. Hada, M. Ehara, K. Toyota, R. Fukuda, 
 J. Hasegawa, M. Ishida, T. Nakajima, Y. Honda, O. Kitao, H. Nakai, 
 T. Vreven, K. Throssell, J. A. Montgomery, Jr., J. E. Peralta, 
 F. Ogliaro, M. J. Bearpark, J. J. Heyd, E. N. Brothers, K. N. Kudin, 
 V. N. Staroverov, T. A. Keith, R. Kobayashi, J. Normand, 
 K. Raghavachari, A. P. Rendell, J. C. Burant, S. S. Iyengar, 
 J. Tomasi, M. Cossi, J. M. Millam, M. Klene, C. Adamo, R. Cammi, 
 J. W. Ochterski, R. L. Martin, K. Morokuma, O. Farkas, 
 J. B. Foresman, and D. J. Fox, Gaussian, Inc., Wallingford CT, 2016.
 
 ******************************************
 Gaussian 16:  EM64L-G16RevA.03 25-Dec-2016
                23-Jul-2020 
 ******************************************
 %mem=30GB
 %nproc=8
 Will use up to    8 processors via shared memory.
 ---------------------------------------------------------------
 #P uLC-wPBE/cc-pVDZ iop(3/107=0206300000, 3/108=0206300000) opt
 ---------------------------------------------------------------
 1/18=20,19=15,26=3,38=1/1,3;
 2/9=110,12=2,17=6,18=5,40=1/2;
 3/5=16,11=2,25=1,30=1,71=1,74=-41,107=206300000,108=206300000,116=2/1,2,3;
 4//1;
 5/5=2,38=5/2;
 6/7=2,8=2,9=2,10=2,28=1/1;
 7//1,2,3,16;
 1/18=20,19=15,26=3/3(2);
 2/9=110/2;
 99//99;
 2/9=110/2;
 3/5=16,11=2,25=1,30=1,71=1,74=-41,107=206300000,108=206300000,116=2/1,2,3;
 4/5=5,16=3,69=1/1;
 5/5=2,38=5/2;
 7//1,2,3,16;
 1/18=20,19=15,26=3/3(-5);
 2/9=110/2;
 6/7=2,8=2,9=2,10=2,19=2,28=1/1;
 99/9=1/99;
 Leave Link    1 at Thu Jul 23 15:37:56 2020, MaxMem=  4026531840 cpu:               3.6 elap:               0.5
 (Enter /opt/ohpc/pub/libs/gaussian/g16-A.03/sandybridge/g16/l101.exe)
 -----------------
 H27 C40 S10 N5 O5
 -----------------
 Symbolic Z-matrix:
 Charge =  0 Multiplicity = 1
 C                    -17.96087  -2.45853   0.47221 
 C                    -16.9433  -3.1948    1.11416 
 N                    -15.71434  -2.56748   1.17994 
 C                    -15.72143  -1.42992   0.54449 
 S                    -17.23967  -1.01638  -0.17204 
 C                    -14.49235  -0.69897   0.41934 
 C                    -14.37595   0.73539   0.14983 
 O                    -15.49506   1.45622   0.08344 
 C                    -15.16223   2.8548   -0.28511 
 C                    -13.02111   1.11078   0.10833 
 C                    -12.07332  -0.00332   0.24407 
 S                    -12.96331  -1.47742   0.47692 
 C                    -10.67043   0.07332   0.26546 
 C                    -9.79133  -0.98629   0.37384 
 N                    -8.43419  -0.59508   0.30973 
 C                    -8.28772   0.68039   0.03451 
 S                    -9.76491   1.5407   -0.07548 
 C                    -6.94491   1.23363  -0.08514 
 C                    -6.59574   2.63043  -0.28364 
 O                    -7.56767   3.60794  -0.37247 
 C                    -7.09675   4.82765  -0.61085 
 C                    -5.16921   2.7496   -0.33479 
 C                    -4.53913   1.60095  -0.25435 
 S                    -5.5684    0.30707  -0.02841 
 C                    -3.04018   1.47139  -0.29438 
 C                    -2.11624   2.36672  -0.44793 
 N                    -0.7416    2.01871  -0.48205 
 C                    -0.74076   0.67302  -0.37758 
 S                    -2.20541  -0.08381  -0.11724 
 C                     0.516     0.01077  -0.35637 
 C                     0.85026  -1.40116  -0.41738 
 O                    -0.19195  -2.30049  -0.42275 
 C                     0.18653  -3.62343  -0.38782 
 C                     2.23025  -1.66556  -0.32808 
 C                     3.02575  -0.45968  -0.32934 
 S                     1.99649   0.9465   -0.24229 
 C                     4.4683   -0.33691  -0.2282 
 C                     5.25683   0.70183  -0.16316 
 N                     6.65836   0.53798  -0.14683 
 C                     6.90209  -0.78889  -0.23989 
 S                     5.46649  -1.72421  -0.28753 
 C                     8.20028  -1.25048  -0.20485 
 C                     8.69222  -2.52934  -0.32147 
 O                     7.87338  -3.64343  -0.42581 
 C                     8.51056  -4.92359  -0.49767 
 C                     10.16608  -2.62617  -0.26948 
 C                     10.71345  -1.2997   -0.14992 
 S                     9.52131  -0.14539  -0.05322 
 C                     12.1815  -1.05679  -0.1496 
 C                     13.17111  -1.87396  -0.45681 
 N                     14.47247  -1.3859   -0.30562 
 C                     14.4395  -0.13608   0.1854 
 S                     12.81499   0.49268   0.43443 
 C                     15.5979   0.64045   0.42982 
 C                     15.80178   2.04846   0.53316 
 O                     14.6696   2.85991   0.30587 
 C                     14.89828   4.26573   0.54939 
 C                     17.08785   2.39727   0.793 
 C                     17.91042   1.38749   0.88894 
 S                     17.0693  -0.12306   0.62802 
 H                    -18.95536  -2.73421   0.31443 
 H                    -17.19145  -4.14688   1.67054 
 H                    -16.15248   3.30308  -0.42278 
 H                    -14.65855   3.38948   0.44924 
 H                    -14.65761   2.89668  -1.27017 
 H                    -12.61704   2.10241  -0.10529 
 H                    -10.03695  -2.03081   0.67072 
 H                    -6.48373   5.27926   0.16412 
 H                    -6.53315   4.87557  -1.57597 
 H                    -7.99896   5.56581  -0.72524 
 H                    -4.76074   3.69578  -0.51134 
 H                    -2.32119   3.48344  -0.50725 
 H                     0.74791  -3.90724   0.51933 
 H                     0.81365  -3.91927  -1.22738 
 H                    -0.68983  -4.29959  -0.40544 
 H                     2.63325  -2.63547  -0.42057 
 H                     4.84103   1.7533   -0.10758 
 H                     9.16809  -4.92046  -1.42211 
 H                     7.76842  -5.62685  -0.58379 
 H                     9.10242  -5.09908   0.34992 
 H                     10.80838  -3.49645  -0.34762 
 H                     13.13471  -2.83979  -0.81934 
 H                     15.32636   4.50183   1.57939 
 H                     15.67857   4.6241   -0.17198 
 H                     14.01874   4.85571   0.41371 
 H                     17.51569   3.46205   0.88774 
 H                     19.04464   1.35206   1.043 
 
 ITRead=  0  0  0  0  0  0  0  0  0  0  0  0  0  0  0  0  0  0  0  0
 ITRead=  0  0  0  0  0  0  0  0  0  0  0  0  0  0  0  0  0  0  0  0
 ITRead=  0  0  0  0  0  0  0  0  0  0  0  0  0  0  0  0  0  0  0  0
 ITRead=  0  0  0  0  0  0  0  0  0  0  0  0  0  0  0  0  0  0  0  0
 ITRead=  0  0  0  0  0  0  0
 MicOpt= -1 -1 -1 -1 -1 -1 -1 -1 -1 -1 -1 -1 -1 -1 -1 -1 -1 -1 -1 -1
 MicOpt= -1 -1 -1 -1 -1 -1 -1 -1 -1 -1 -1 -1 -1 -1 -1 -1 -1 -1 -1 -1
 MicOpt= -1 -1 -1 -1 -1 -1 -1 -1 -1 -1 -1 -1 -1 -1 -1 -1 -1 -1 -1 -1
 MicOpt= -1 -1 -1 -1 -1 -1 -1 -1 -1 -1 -1 -1 -1 -1 -1 -1 -1 -1 -1 -1
 MicOpt= -1 -1 -1 -1 -1 -1 -1
 NAtoms=     87 NQM=       87 NQMF=       0 NMMI=      0 NMMIF=      0
                NMic=       0 NMicF=      0.
                    Isotopes and Nuclear Properties:
 (Nuclear quadrupole moments (NQMom) in fm**2, nuclear magnetic moments (NMagM)
  in nuclear magnetons)

  Atom         1           2           3           4           5           6           7           8           9          10
 IAtWgt=          12          12          14          12          32          12          12          16          12          12
 AtmWgt=  12.0000000  12.0000000  14.0030740  12.0000000  31.9720718  12.0000000  12.0000000  15.9949146  12.0000000  12.0000000
 NucSpn=           0           0           2           0           0           0           0           0           0           0
 AtZEff=  -0.0000000  -0.0000000  -0.0000000  -0.0000000  -0.0000000  -0.0000000  -0.0000000  -0.0000000  -0.0000000  -0.0000000
 NQMom=    0.0000000   0.0000000   2.0440000   0.0000000   0.0000000   0.0000000   0.0000000   0.0000000   0.0000000   0.0000000
 NMagM=    0.0000000   0.0000000   0.4037610   0.0000000   0.0000000   0.0000000   0.0000000   0.0000000   0.0000000   0.0000000
 AtZNuc=   6.0000000   6.0000000   7.0000000   6.0000000  16.0000000   6.0000000   6.0000000   8.0000000   6.0000000   6.0000000

  Atom        11          12          13          14          15          16          17          18          19          20
 IAtWgt=          12          32          12          12          14          12          32          12          12          16
 AtmWgt=  12.0000000  31.9720718  12.0000000  12.0000000  14.0030740  12.0000000  31.9720718  12.0000000  12.0000000  15.9949146
 NucSpn=           0           0           0           0           2           0           0           0           0           0
 AtZEff=  -0.0000000  -0.0000000  -0.0000000  -0.0000000  -0.0000000  -0.0000000  -0.0000000  -0.0000000  -0.0000000  -0.0000000
 NQMom=    0.0000000   0.0000000   0.0000000   0.0000000   2.0440000   0.0000000   0.0000000   0.0000000   0.0000000   0.0000000
 NMagM=    0.0000000   0.0000000   0.0000000   0.0000000   0.4037610   0.0000000   0.0000000   0.0000000   0.0000000   0.0000000
 AtZNuc=   6.0000000  16.0000000   6.0000000   6.0000000   7.0000000   6.0000000  16.0000000   6.0000000   6.0000000   8.0000000

  Atom        21          22          23          24          25          26          27          28          29          30
 IAtWgt=          12          12          12          32          12          12          14          12          32          12
 AtmWgt=  12.0000000  12.0000000  12.0000000  31.9720718  12.0000000  12.0000000  14.0030740  12.0000000  31.9720718  12.0000000
 NucSpn=           0           0           0           0           0           0           2           0           0           0
 AtZEff=  -0.0000000  -0.0000000  -0.0000000  -0.0000000  -0.0000000  -0.0000000  -0.0000000  -0.0000000  -0.0000000  -0.0000000
 NQMom=    0.0000000   0.0000000   0.0000000   0.0000000   0.0000000   0.0000000   2.0440000   0.0000000   0.0000000   0.0000000
 NMagM=    0.0000000   0.0000000   0.0000000   0.0000000   0.0000000   0.0000000   0.4037610   0.0000000   0.0000000   0.0000000
 AtZNuc=   6.0000000   6.0000000   6.0000000  16.0000000   6.0000000   6.0000000   7.0000000   6.0000000  16.0000000   6.0000000

  Atom        31          32          33          34          35          36          37          38          39          40
 IAtWgt=          12          16          12          12          12          32          12          12          14          12
 AtmWgt=  12.0000000  15.9949146  12.0000000  12.0000000  12.0000000  31.9720718  12.0000000  12.0000000  14.0030740  12.0000000
 NucSpn=           0           0           0           0           0           0           0           0           2           0
 AtZEff=  -0.0000000  -0.0000000  -0.0000000  -0.0000000  -0.0000000  -0.0000000  -0.0000000  -0.0000000  -0.0000000  -0.0000000
 NQMom=    0.0000000   0.0000000   0.0000000   0.0000000   0.0000000   0.0000000   0.0000000   0.0000000   2.0440000   0.0000000
 NMagM=    0.0000000   0.0000000   0.0000000   0.0000000   0.0000000   0.0000000   0.0000000   0.0000000   0.4037610   0.0000000
 AtZNuc=   6.0000000   8.0000000   6.0000000   6.0000000   6.0000000  16.0000000   6.0000000   6.0000000   7.0000000   6.0000000

  Atom        41          42          43          44          45          46          47          48          49          50
 IAtWgt=          32          12          12          16          12          12          12          32          12          12
 AtmWgt=  31.9720718  12.0000000  12.0000000  15.9949146  12.0000000  12.0000000  12.0000000  31.9720718  12.0000000  12.0000000
 NucSpn=           0           0           0           0           0           0           0           0           0           0
 AtZEff=  -0.0000000  -0.0000000  -0.0000000  -0.0000000  -0.0000000  -0.0000000  -0.0000000  -0.0000000  -0.0000000  -0.0000000
 NQMom=    0.0000000   0.0000000   0.0000000   0.0000000   0.0000000   0.0000000   0.0000000   0.0000000   0.0000000   0.0000000
 NMagM=    0.0000000   0.0000000   0.0000000   0.0000000   0.0000000   0.0000000   0.0000000   0.0000000   0.0000000   0.0000000
 AtZNuc=  16.0000000   6.0000000   6.0000000   8.0000000   6.0000000   6.0000000   6.0000000  16.0000000   6.0000000   6.0000000

  Atom        51          52          53          54          55          56          57          58          59          60
 IAtWgt=          14          12          32          12          12          16          12          12          12          32
 AtmWgt=  14.0030740  12.0000000  31.9720718  12.0000000  12.0000000  15.9949146  12.0000000  12.0000000  12.0000000  31.9720718
 NucSpn=           2           0           0           0           0           0           0           0           0           0
 AtZEff=  -0.0000000  -0.0000000  -0.0000000  -0.0000000  -0.0000000  -0.0000000  -0.0000000  -0.0000000  -0.0000000  -0.0000000
 NQMom=    2.0440000   0.0000000   0.0000000   0.0000000   0.0000000   0.0000000   0.0000000   0.0000000   0.0000000   0.0000000
 NMagM=    0.4037610   0.0000000   0.0000000   0.0000000   0.0000000   0.0000000   0.0000000   0.0000000   0.0000000   0.0000000
 AtZNuc=   7.0000000   6.0000000  16.0000000   6.0000000   6.0000000   8.0000000   6.0000000   6.0000000   6.0000000  16.0000000

  Atom        61          62          63          64          65          66          67          68          69          70
 IAtWgt=           1           1           1           1           1           1           1           1           1           1
 AtmWgt=   1.0078250   1.0078250   1.0078250   1.0078250   1.0078250   1.0078250   1.0078250   1.0078250   1.0078250   1.0078250
 NucSpn=           1           1           1           1           1           1           1           1           1           1
 AtZEff=  -0.0000000  -0.0000000  -0.0000000  -0.0000000  -0.0000000  -0.0000000  -0.0000000  -0.0000000  -0.0000000  -0.0000000
 NQMom=    0.0000000   0.0000000   0.0000000   0.0000000   0.0000000   0.0000000   0.0000000   0.0000000   0.0000000   0.0000000
 NMagM=    2.7928460   2.7928460   2.7928460   2.7928460   2.7928460   2.7928460   2.7928460   2.7928460   2.7928460   2.7928460
 AtZNuc=   1.0000000   1.0000000   1.0000000   1.0000000   1.0000000   1.0000000   1.0000000   1.0000000   1.0000000   1.0000000

  Atom        71          72          73          74          75          76          77          78          79          80
 IAtWgt=           1           1           1           1           1           1           1           1           1           1
 AtmWgt=   1.0078250   1.0078250   1.0078250   1.0078250   1.0078250   1.0078250   1.0078250   1.0078250   1.0078250   1.0078250
 NucSpn=           1           1           1           1           1           1           1           1           1           1
 AtZEff=  -0.0000000  -0.0000000  -0.0000000  -0.0000000  -0.0000000  -0.0000000  -0.0000000  -0.0000000  -0.0000000  -0.0000000
 NQMom=    0.0000000   0.0000000   0.0000000   0.0000000   0.0000000   0.0000000   0.0000000   0.0000000   0.0000000   0.0000000
 NMagM=    2.7928460   2.7928460   2.7928460   2.7928460   2.7928460   2.7928460   2.7928460   2.7928460   2.7928460   2.7928460
 AtZNuc=   1.0000000   1.0000000   1.0000000   1.0000000   1.0000000   1.0000000   1.0000000   1.0000000   1.0000000   1.0000000

  Atom        81          82          83          84          85          86          87
 IAtWgt=           1           1           1           1           1           1           1
 AtmWgt=   1.0078250   1.0078250   1.0078250   1.0078250   1.0078250   1.0078250   1.0078250
 NucSpn=           1           1           1           1           1           1           1
 AtZEff=  -0.0000000  -0.0000000  -0.0000000  -0.0000000  -0.0000000  -0.0000000  -0.0000000
 NQMom=    0.0000000   0.0000000   0.0000000   0.0000000   0.0000000   0.0000000   0.0000000
 NMagM=    2.7928460   2.7928460   2.7928460   2.7928460   2.7928460   2.7928460   2.7928460
 AtZNuc=   1.0000000   1.0000000   1.0000000   1.0000000   1.0000000   1.0000000   1.0000000
 Leave Link  101 at Thu Jul 23 15:37:56 2020, MaxMem=  4026531840 cpu:               3.0 elap:               0.4
 (Enter /opt/ohpc/pub/libs/gaussian/g16-A.03/sandybridge/g16/l103.exe)

 GradGradGradGradGradGradGradGradGradGradGradGradGradGradGradGradGradGrad
 Berny optimization.
 Initialization pass.
                           ----------------------------
                           !    Initial Parameters    !
                           ! (Angstroms and Degrees)  !
 --------------------------                            --------------------------
 ! Name  Definition              Value          Derivative Info.                !
 --------------------------------------------------------------------------------
 ! R1    R(1,2)                  1.4105         estimate D2E/DX2                !
 ! R2    R(1,5)                  1.7364         estimate D2E/DX2                !
 ! R3    R(1,61)                 1.044          estimate D2E/DX2                !
 ! R4    R(2,3)                  1.3814         estimate D2E/DX2                !
 ! R5    R(2,62)                 1.1303         estimate D2E/DX2                !
 ! R6    R(3,4)                  1.303          estimate D2E/DX2                !
 ! R7    R(4,5)                  1.729          estimate D2E/DX2                !
 ! R8    R(4,6)                  1.4355         estimate D2E/DX2                !
 ! R9    R(6,7)                  1.4641         estimate D2E/DX2                !
 ! R10   R(6,12)                 1.7168         estimate D2E/DX2                !
 ! R11   R(7,8)                  1.3328         estimate D2E/DX2                !
 ! R12   R(7,10)                 1.4065         estimate D2E/DX2                !
 ! R13   R(8,9)                  1.4841         estimate D2E/DX2                !
 ! R14   R(9,63)                 1.0957         estimate D2E/DX2                !
 ! R15   R(9,64)                 1.0387         estimate D2E/DX2                !
 ! R16   R(9,65)                 1.1076         estimate D2E/DX2                !
 ! R17   R(10,11)                1.469          estimate D2E/DX2                !
 ! R18   R(10,66)                1.0919         estimate D2E/DX2                !
 ! R19   R(11,12)                1.7376         estimate D2E/DX2                !
 ! R20   R(11,13)                1.4051         estimate D2E/DX2                !
 ! R21   R(13,14)                1.3811         estimate D2E/DX2                !
 ! R22   R(13,17)                1.7577         estimate D2E/DX2                !
 ! R23   R(14,15)                1.4139         estimate D2E/DX2                !
 ! R24   R(14,67)                1.1133         estimate D2E/DX2                !
 ! R25   R(15,16)                1.313          estimate D2E/DX2                !
 ! R26   R(16,17)                1.713          estimate D2E/DX2                !
 ! R27   R(16,18)                1.4572         estimate D2E/DX2                !
 ! R28   R(18,19)                1.4534         estimate D2E/DX2                !
 ! R29   R(18,24)                1.6603         estimate D2E/DX2                !
 ! R30   R(19,20)                1.3813         estimate D2E/DX2                !
 ! R31   R(19,22)                1.4324         estimate D2E/DX2                !
 ! R32   R(20,21)                1.329          estimate D2E/DX2                !
 ! R33   R(21,68)                1.0864         estimate D2E/DX2                !
 ! R34   R(21,69)                1.1187         estimate D2E/DX2                !
 ! R35   R(21,70)                1.1713         estimate D2E/DX2                !
 ! R36   R(22,23)                1.3126         estimate D2E/DX2                !
 ! R37   R(22,71)                1.0456         estimate D2E/DX2                !
 ! R38   R(23,24)                1.6687         estimate D2E/DX2                !
 ! R39   R(23,25)                1.5051         estimate D2E/DX2                !
 ! R40   R(25,26)                1.2957         estimate D2E/DX2                !
 ! R41   R(25,29)                1.7739         estimate D2E/DX2                !
 ! R42   R(26,27)                1.4184         estimate D2E/DX2                !
 ! R43   R(26,72)                1.1369         estimate D2E/DX2                !
 ! R44   R(27,28)                1.3497         estimate D2E/DX2                !
 ! R45   R(28,29)                1.6691         estimate D2E/DX2                !
 ! R46   R(28,30)                1.4207         estimate D2E/DX2                !
 ! R47   R(30,31)                1.4522         estimate D2E/DX2                !
 ! R48   R(30,36)                1.7551         estimate D2E/DX2                !
 ! R49   R(31,32)                1.3766         estimate D2E/DX2                !
 ! R50   R(31,34)                1.4079         estimate D2E/DX2                !
 ! R51   R(32,33)                1.3765         estimate D2E/DX2                !
 ! R52   R(33,73)                1.1039         estimate D2E/DX2                !
 ! R53   R(33,74)                1.0889         estimate D2E/DX2                !
 ! R54   R(33,75)                1.107          estimate D2E/DX2                !
 ! R55   R(34,35)                1.4446         estimate D2E/DX2                !
 ! R56   R(34,76)                1.0544         estimate D2E/DX2                !
 ! R57   R(35,36)                1.7448         estimate D2E/DX2                !
 ! R58   R(35,37)                1.4513         estimate D2E/DX2                !
 ! R59   R(37,38)                1.3058         estimate D2E/DX2                !
 ! R60   R(37,41)                1.7101         estimate D2E/DX2                !
 ! R61   R(38,39)                1.4112         estimate D2E/DX2                !
 ! R62   R(38,77)                1.1321         estimate D2E/DX2                !
 ! R63   R(39,40)                1.3523         estimate D2E/DX2                !
 ! R64   R(40,41)                1.7141         estimate D2E/DX2                !
 ! R65   R(40,42)                1.3783         estimate D2E/DX2                !
 ! R66   R(42,43)                1.3752         estimate D2E/DX2                !
 ! R67   R(42,48)                1.729          estimate D2E/DX2                !
 ! R68   R(43,44)                1.3866         estimate D2E/DX2                !
 ! R69   R(43,46)                1.4779         estimate D2E/DX2                !
 ! R70   R(44,45)                1.4318         estimate D2E/DX2                !
 ! R71   R(45,78)                1.1344         estimate D2E/DX2                !
 ! R72   R(45,79)                1.026          estimate D2E/DX2                !
 ! R73   R(45,80)                1.0486         estimate D2E/DX2                !
 ! R74   R(46,47)                1.4399         estimate D2E/DX2                !
 ! R75   R(46,81)                1.0845         estimate D2E/DX2                !
 ! R76   R(47,48)                1.6622         estimate D2E/DX2                !
 ! R77   R(47,49)                1.488          estimate D2E/DX2                !
 ! R78   R(49,50)                1.3197         estimate D2E/DX2                !
 ! R79   R(49,53)                1.7729         estimate D2E/DX2                !
 ! R80   R(50,51)                1.3981         estimate D2E/DX2                !
 ! R81   R(50,82)                1.0323         estimate D2E/DX2                !
 ! R82   R(51,52)                1.3432         estimate D2E/DX2                !
 ! R83   R(52,53)                1.7596         estimate D2E/DX2                !
 ! R84   R(52,54)                1.4159         estimate D2E/DX2                !
 ! R85   R(54,55)                1.4264         estimate D2E/DX2                !
 ! R86   R(54,60)                1.6695         estimate D2E/DX2                !
 ! R87   R(55,56)                1.4114         estimate D2E/DX2                !
 ! R88   R(55,58)                1.3576         estimate D2E/DX2                !
 ! R89   R(56,57)                1.445          estimate D2E/DX2                !
 ! R90   R(57,83)                1.1401         estimate D2E/DX2                !
 ! R91   R(57,84)                1.1215         estimate D2E/DX2                !
 ! R92   R(57,85)                1.0677         estimate D2E/DX2                !
 ! R93   R(58,59)                1.3059         estimate D2E/DX2                !
 ! R94   R(58,86)                1.1514         estimate D2E/DX2                !
 ! R95   R(59,60)                1.7485         estimate D2E/DX2                !
 ! R96   R(59,87)                1.1452         estimate D2E/DX2                !
 ! A1    A(2,1,5)              107.6234         estimate D2E/DX2                !
 ! A2    A(2,1,61)             128.1804         estimate D2E/DX2                !
 ! A3    A(5,1,61)             123.9802         estimate D2E/DX2                !
 ! A4    A(1,2,3)              115.2413         estimate D2E/DX2                !
 ! A5    A(1,2,62)             120.3524         estimate D2E/DX2                !
 ! A6    A(3,2,62)             123.6693         estimate D2E/DX2                !
 ! A7    A(2,3,4)              111.6167         estimate D2E/DX2                !
 ! A8    A(3,4,5)              114.5622         estimate D2E/DX2                !
 ! A9    A(3,4,6)              118.8423         estimate D2E/DX2                !
 ! A10   A(5,4,6)              126.4358         estimate D2E/DX2                !
 ! A11   A(1,5,4)               90.7049         estimate D2E/DX2                !
 ! A12   A(4,6,7)              125.6606         estimate D2E/DX2                !
 ! A13   A(4,6,12)             121.923          estimate D2E/DX2                !
 ! A14   A(7,6,12)             112.3086         estimate D2E/DX2                !
 ! A15   A(6,7,8)              118.1814         estimate D2E/DX2                !
 ! A16   A(6,7,10)             110.0897         estimate D2E/DX2                !
 ! A17   A(8,7,10)             131.529          estimate D2E/DX2                !
 ! A18   A(7,8,9)              109.4954         estimate D2E/DX2                !
 ! A19   A(8,9,63)             102.3609         estimate D2E/DX2                !
 ! A20   A(8,9,64)             114.7266         estimate D2E/DX2                !
 ! A21   A(8,9,65)             111.0177         estimate D2E/DX2                !
 ! A22   A(63,9,64)            108.4513         estimate D2E/DX2                !
 ! A23   A(63,9,65)            106.5319         estimate D2E/DX2                !
 ! A24   A(64,9,65)            112.8543         estimate D2E/DX2                !
 ! A25   A(7,10,11)            114.6046         estimate D2E/DX2                !
 ! A26   A(7,10,66)            127.2026         estimate D2E/DX2                !
 ! A27   A(11,10,66)           117.9098         estimate D2E/DX2                !
 ! A28   A(10,11,12)           108.9851         estimate D2E/DX2                !
 ! A29   A(10,11,13)           127.1713         estimate D2E/DX2                !
 ! A30   A(12,11,13)           123.7519         estimate D2E/DX2                !
 ! A31   A(6,12,11)             93.8424         estimate D2E/DX2                !
 ! A32   A(11,13,14)           126.503          estimate D2E/DX2                !
 ! A33   A(11,13,17)           123.8445         estimate D2E/DX2                !
 ! A34   A(14,13,17)           109.1359         estimate D2E/DX2                !
 ! A35   A(13,14,15)           113.2756         estimate D2E/DX2                !
 ! A36   A(13,14,67)           126.8928         estimate D2E/DX2                !
 ! A37   A(15,14,67)           118.9115         estimate D2E/DX2                !
 ! A38   A(14,15,16)           112.6667         estimate D2E/DX2                !
 ! A39   A(15,16,17)           113.8988         estimate D2E/DX2                !
 ! A40   A(15,16,18)           119.2619         estimate D2E/DX2                !
 ! A41   A(17,16,18)           126.7763         estimate D2E/DX2                !
 ! A42   A(13,17,16)            90.7182         estimate D2E/DX2                !
 ! A43   A(16,18,19)           126.6882         estimate D2E/DX2                !
 ! A44   A(16,18,24)           123.3194         estimate D2E/DX2                !
 ! A45   A(19,18,24)           109.9882         estimate D2E/DX2                !
 ! A46   A(18,19,20)           121.3219         estimate D2E/DX2                !
 ! A47   A(18,19,22)           108.9105         estimate D2E/DX2                !
 ! A48   A(20,19,22)           129.7588         estimate D2E/DX2                !
 ! A49   A(19,20,21)           114.3101         estimate D2E/DX2                !
 ! A50   A(20,21,68)           116.9681         estimate D2E/DX2                !
 ! A51   A(20,21,69)           111.8751         estimate D2E/DX2                !
 ! A52   A(20,21,70)           108.8418         estimate D2E/DX2                !
 ! A53   A(68,21,69)           108.2599         estimate D2E/DX2                !
 ! A54   A(68,21,70)           104.0236         estimate D2E/DX2                !
 ! A55   A(69,21,70)           106.0697         estimate D2E/DX2                !
 ! A56   A(19,22,23)           113.7701         estimate D2E/DX2                !
 ! A57   A(19,22,71)           118.058          estimate D2E/DX2                !
 ! A58   A(23,22,71)           127.9317         estimate D2E/DX2                !
 ! A59   A(22,23,24)           113.0012         estimate D2E/DX2                !
 ! A60   A(22,23,25)           123.4898         estimate D2E/DX2                !
 ! A61   A(24,23,25)           123.4458         estimate D2E/DX2                !
 ! A62   A(18,24,23)            94.246          estimate D2E/DX2                !
 ! A63   A(23,25,26)           130.8316         estimate D2E/DX2                !
 ! A64   A(23,25,29)           122.7844         estimate D2E/DX2                !
 ! A65   A(26,25,29)           106.3839         estimate D2E/DX2                !
 ! A66   A(25,26,27)           121.6267         estimate D2E/DX2                !
 ! A67   A(25,26,72)           123.805          estimate D2E/DX2                !
 ! A68   A(27,26,72)           114.4834         estimate D2E/DX2                !
 ! A69   A(26,27,28)           104.0844         estimate D2E/DX2                !
 ! A70   A(27,28,29)           117.6203         estimate D2E/DX2                !
 ! A71   A(27,28,30)           117.8035         estimate D2E/DX2                !
 ! A72   A(29,28,30)           124.233          estimate D2E/DX2                !
 ! A73   A(25,29,28)            89.9908         estimate D2E/DX2                !
 ! A74   A(28,30,31)           131.0084         estimate D2E/DX2                !
 ! A75   A(28,30,36)           119.9094         estimate D2E/DX2                !
 ! A76   A(31,30,36)           109.082          estimate D2E/DX2                !
 ! A77   A(30,31,32)           117.4563         estimate D2E/DX2                !
 ! A78   A(30,31,34)           113.9233         estimate D2E/DX2                !
 ! A79   A(32,31,34)           128.2894         estimate D2E/DX2                !
 ! A80   A(31,32,33)           114.8108         estimate D2E/DX2                !
 ! A81   A(32,33,73)           114.0657         estimate D2E/DX2                !
 ! A82   A(32,33,74)           113.573          estimate D2E/DX2                !
 ! A83   A(32,33,75)           111.6516         estimate D2E/DX2                !
 ! A84   A(73,33,74)           105.7165         estimate D2E/DX2                !
 ! A85   A(73,33,75)           104.9886         estimate D2E/DX2                !
 ! A86   A(74,33,75)           106.1234         estimate D2E/DX2                !
 ! A87   A(31,34,35)           112.5149         estimate D2E/DX2                !
 ! A88   A(31,34,76)           122.8072         estimate D2E/DX2                !
 ! A89   A(35,34,76)           123.871          estimate D2E/DX2                !
 ! A90   A(34,35,36)           110.356          estimate D2E/DX2                !
 ! A91   A(34,35,37)           128.1623         estimate D2E/DX2                !
 ! A92   A(36,35,37)           120.9775         estimate D2E/DX2                !
 ! A93   A(30,36,35)            93.7089         estimate D2E/DX2                !
 ! A94   A(35,37,38)           132.1459         estimate D2E/DX2                !
 ! A95   A(35,37,41)           120.6066         estimate D2E/DX2                !
 ! A96   A(38,37,41)           107.1319         estimate D2E/DX2                !
 ! A97   A(37,38,39)           120.5297         estimate D2E/DX2                !
 ! A98   A(37,38,77)           121.2992         estimate D2E/DX2                !
 ! A99   A(39,38,77)           118.1681         estimate D2E/DX2                !
 ! A100  A(38,39,40)           106.9854         estimate D2E/DX2                !
 ! A101  A(39,40,41)           112.7294         estimate D2E/DX2                !
 ! A102  A(39,40,42)           119.777          estimate D2E/DX2                !
 ! A103  A(41,40,42)           127.3618         estimate D2E/DX2                !
 ! A104  A(37,41,40)            92.5932         estimate D2E/DX2                !
 ! A105  A(40,42,43)           130.2589         estimate D2E/DX2                !
 ! A106  A(40,42,48)           120.5203         estimate D2E/DX2                !
 ! A107  A(43,42,48)           109.1783         estimate D2E/DX2                !
 ! A108  A(42,43,44)           122.8427         estimate D2E/DX2                !
 ! A109  A(42,43,46)           114.4993         estimate D2E/DX2                !
 ! A110  A(44,43,46)           122.6106         estimate D2E/DX2                !
 ! A111  A(43,44,45)           117.3462         estimate D2E/DX2                !
 ! A112  A(44,45,78)           107.2399         estimate D2E/DX2                !
 ! A113  A(44,45,79)           107.1669         estimate D2E/DX2                !
 ! A114  A(44,45,80)           111.1166         estimate D2E/DX2                !
 ! A115  A(78,45,79)           110.6538         estimate D2E/DX2                !
 ! A116  A(78,45,80)           109.3903         estimate D2E/DX2                !
 ! A117  A(79,45,80)           111.1864         estimate D2E/DX2                !
 ! A118  A(43,46,47)           108.7628         estimate D2E/DX2                !
 ! A119  A(43,46,81)           129.8425         estimate D2E/DX2                !
 ! A120  A(47,46,81)           121.3392         estimate D2E/DX2                !
 ! A121  A(46,47,48)           111.8339         estimate D2E/DX2                !
 ! A122  A(46,47,49)           121.6976         estimate D2E/DX2                !
 ! A123  A(48,47,49)           126.4553         estimate D2E/DX2                !
 ! A124  A(42,48,47)            95.6826         estimate D2E/DX2                !
 ! A125  A(47,49,50)           129.695          estimate D2E/DX2                !
 ! A126  A(47,49,53)           119.6874         estimate D2E/DX2                !
 ! A127  A(50,49,53)           110.4827         estimate D2E/DX2                !
 ! A128  A(49,50,51)           117.1728         estimate D2E/DX2                !
 ! A129  A(49,50,82)           129.3975         estimate D2E/DX2                !
 ! A130  A(51,50,82)           113.4177         estimate D2E/DX2                !
 ! A131  A(50,51,52)           109.9689         estimate D2E/DX2                !
 ! A132  A(51,52,53)           114.0083         estimate D2E/DX2                !
 ! A133  A(51,52,54)           123.5963         estimate D2E/DX2                !
 ! A134  A(53,52,54)           122.3391         estimate D2E/DX2                !
 ! A135  A(49,53,52)            88.3365         estimate D2E/DX2                !
 ! A136  A(52,54,55)           132.1295         estimate D2E/DX2                !
 ! A137  A(52,54,60)           119.3906         estimate D2E/DX2                !
 ! A138  A(55,54,60)           108.4723         estimate D2E/DX2                !
 ! A139  A(54,55,56)           116.1798         estimate D2E/DX2                !
 ! A140  A(54,55,58)           113.7574         estimate D2E/DX2                !
 ! A141  A(56,55,58)           130.0167         estimate D2E/DX2                !
 ! A142  A(55,56,57)           113.9081         estimate D2E/DX2                !
 ! A143  A(56,57,83)           114.4022         estimate D2E/DX2                !
 ! A144  A(56,57,84)           108.2172         estimate D2E/DX2                !
 ! A145  A(56,57,85)           112.6935         estimate D2E/DX2                !
 ! A146  A(83,57,84)           104.6957         estimate D2E/DX2                !
 ! A147  A(83,57,85)           108.0391         estimate D2E/DX2                !
 ! A148  A(84,57,85)           108.3505         estimate D2E/DX2                !
 ! A149  A(55,58,59)           114.3346         estimate D2E/DX2                !
 ! A150  A(55,58,86)           127.2527         estimate D2E/DX2                !
 ! A151  A(59,58,86)           118.3559         estimate D2E/DX2                !
 ! A152  A(58,59,60)           110.7339         estimate D2E/DX2                !
 ! A153  A(58,59,87)           131.1204         estimate D2E/DX2                !
 ! A154  A(60,59,87)           118.0205         estimate D2E/DX2                !
 ! A155  A(54,60,59)            92.6709         estimate D2E/DX2                !
 ! D1    D(5,1,2,3)              5.4757         estimate D2E/DX2                !
 ! D2    D(5,1,2,62)           175.9955         estimate D2E/DX2                !
 ! D3    D(61,1,2,3)          -179.7567         estimate D2E/DX2                !
 ! D4    D(61,1,2,62)           -9.2369         estimate D2E/DX2                !
 ! D5    D(2,1,5,4)             -4.0352         estimate D2E/DX2                !
 ! D6    D(61,1,5,4)          -179.0758         estimate D2E/DX2                !
 ! D7    D(1,2,3,4)             -4.1928         estimate D2E/DX2                !
 ! D8    D(62,2,3,4)          -174.3597         estimate D2E/DX2                !
 ! D9    D(2,3,4,5)              0.7986         estimate D2E/DX2                !
 ! D10   D(2,3,4,6)           -174.9029         estimate D2E/DX2                !
 ! D11   D(3,4,5,1)              2.015          estimate D2E/DX2                !
 ! D12   D(6,4,5,1)            177.334          estimate D2E/DX2                !
 ! D13   D(3,4,6,7)           -158.7679         estimate D2E/DX2                !
 ! D14   D(3,4,6,12)            25.3035         estimate D2E/DX2                !
 ! D15   D(5,4,6,7)             26.0928         estimate D2E/DX2                !
 ! D16   D(5,4,6,12)          -149.8358         estimate D2E/DX2                !
 ! D17   D(4,6,7,8)              3.8998         estimate D2E/DX2                !
 ! D18   D(4,6,7,10)           179.351          estimate D2E/DX2                !
 ! D19   D(12,6,7,8)          -179.8349         estimate D2E/DX2                !
 ! D20   D(12,6,7,10)           -4.3837         estimate D2E/DX2                !
 ! D21   D(4,6,12,11)          179.2513         estimate D2E/DX2                !
 ! D22   D(7,6,12,11)            2.8262         estimate D2E/DX2                !
 ! D23   D(6,7,8,9)           -176.2613         estimate D2E/DX2                !
 ! D24   D(10,7,8,9)             9.4487         estimate D2E/DX2                !
 ! D25   D(6,7,10,11)            4.0634         estimate D2E/DX2                !
 ! D26   D(6,7,10,66)          177.7738         estimate D2E/DX2                !
 ! D27   D(8,7,10,11)          178.7053         estimate D2E/DX2                !
 ! D28   D(8,7,10,66)           -7.5844         estimate D2E/DX2                !
 ! D29   D(7,8,9,63)           173.5316         estimate D2E/DX2                !
 ! D30   D(7,8,9,64)           -69.2337         estimate D2E/DX2                !
 ! D31   D(7,8,9,65)            60.1867         estimate D2E/DX2                !
 ! D32   D(7,10,11,12)          -2.0318         estimate D2E/DX2                !
 ! D33   D(7,10,11,13)        -178.6276         estimate D2E/DX2                !
 ! D34   D(66,10,11,12)       -176.3648         estimate D2E/DX2                !
 ! D35   D(66,10,11,13)          7.0394         estimate D2E/DX2                !
 ! D36   D(10,11,12,6)          -0.5211         estimate D2E/DX2                !
 ! D37   D(13,11,12,6)         176.2166         estimate D2E/DX2                !
 ! D38   D(10,11,13,14)       -178.9605         estimate D2E/DX2                !
 ! D39   D(10,11,13,17)         -8.1149         estimate D2E/DX2                !
 ! D40   D(12,11,13,14)          4.9117         estimate D2E/DX2                !
 ! D41   D(12,11,13,17)        175.7573         estimate D2E/DX2                !
 ! D42   D(11,13,14,15)        177.4675         estimate D2E/DX2                !
 ! D43   D(11,13,14,67)        -13.7336         estimate D2E/DX2                !
 ! D44   D(17,13,14,15)          5.5076         estimate D2E/DX2                !
 ! D45   D(17,13,14,67)        174.3064         estimate D2E/DX2                !
 ! D46   D(11,13,17,16)       -175.195          estimate D2E/DX2                !
 ! D47   D(14,13,17,16)         -2.9747         estimate D2E/DX2                !
 ! D48   D(13,14,15,16)         -6.0007         estimate D2E/DX2                !
 ! D49   D(67,14,15,16)       -175.778          estimate D2E/DX2                !
 ! D50   D(14,15,16,17)          3.5781         estimate D2E/DX2                !
 ! D51   D(14,15,16,18)       -179.1167         estimate D2E/DX2                !
 ! D52   D(15,16,17,13)         -0.3529         estimate D2E/DX2                !
 ! D53   D(18,16,17,13)       -177.4176         estimate D2E/DX2                !
 ! D54   D(15,16,18,19)       -175.0471         estimate D2E/DX2                !
 ! D55   D(15,16,18,24)          5.7785         estimate D2E/DX2                !
 ! D56   D(17,16,18,19)          1.8766         estimate D2E/DX2                !
 ! D57   D(17,16,18,24)       -177.2977         estimate D2E/DX2                !
 ! D58   D(16,18,19,20)          0.4167         estimate D2E/DX2                !
 ! D59   D(16,18,19,22)        179.4407         estimate D2E/DX2                !
 ! D60   D(24,18,19,20)        179.6825         estimate D2E/DX2                !
 ! D61   D(24,18,19,22)         -1.2934         estimate D2E/DX2                !
 ! D62   D(16,18,24,23)        178.9827         estimate D2E/DX2                !
 ! D63   D(19,18,24,23)         -0.3128         estimate D2E/DX2                !
 ! D64   D(18,19,20,21)       -177.2714         estimate D2E/DX2                !
 ! D65   D(22,19,20,21)          3.9296         estimate D2E/DX2                !
 ! D66   D(18,19,22,23)          2.8517         estimate D2E/DX2                !
 ! D67   D(18,19,22,71)        177.6696         estimate D2E/DX2                !
 ! D68   D(20,19,22,23)       -178.2328         estimate D2E/DX2                !
 ! D69   D(20,19,22,71)         -3.4149         estimate D2E/DX2                !
 ! D70   D(19,20,21,68)        -65.6093         estimate D2E/DX2                !
 ! D71   D(19,20,21,69)         60.0611         estimate D2E/DX2                !
 ! D72   D(19,20,21,70)        176.9447         estimate D2E/DX2                !
 ! D73   D(19,22,23,24)         -3.1756         estimate D2E/DX2                !
 ! D74   D(19,22,23,25)        179.6303         estimate D2E/DX2                !
 ! D75   D(71,22,23,24)       -177.3758         estimate D2E/DX2                !
 ! D76   D(71,22,23,25)          5.4302         estimate D2E/DX2                !
 ! D77   D(22,23,24,18)          2.0374         estimate D2E/DX2                !
 ! D78   D(25,23,24,18)        179.2328         estimate D2E/DX2                !
 ! D79   D(22,23,25,26)         -2.4554         estimate D2E/DX2                !
 ! D80   D(22,23,25,29)        177.4136         estimate D2E/DX2                !
 ! D81   D(24,23,25,26)       -179.3597         estimate D2E/DX2                !
 ! D82   D(24,23,25,29)          0.5093         estimate D2E/DX2                !
 ! D83   D(23,25,26,27)       -178.6979         estimate D2E/DX2                !
 ! D84   D(23,25,26,72)          4.8392         estimate D2E/DX2                !
 ! D85   D(29,25,26,27)          1.4169         estimate D2E/DX2                !
 ! D86   D(29,25,26,72)       -175.046          estimate D2E/DX2                !
 ! D87   D(23,25,29,28)        176.5153         estimate D2E/DX2                !
 ! D88   D(26,25,29,28)         -3.588          estimate D2E/DX2                !
 ! D89   D(25,26,27,28)          2.2205         estimate D2E/DX2                !
 ! D90   D(72,26,27,28)        178.9913         estimate D2E/DX2                !
 ! D91   D(26,27,28,29)         -5.2716         estimate D2E/DX2                !
 ! D92   D(26,27,28,30)       -178.8336         estimate D2E/DX2                !
 ! D93   D(27,28,29,25)          5.468          estimate D2E/DX2                !
 ! D94   D(30,28,29,25)        178.5777         estimate D2E/DX2                !
 ! D95   D(27,28,30,31)       -171.495          estimate D2E/DX2                !
 ! D96   D(27,28,30,36)          8.3752         estimate D2E/DX2                !
 ! D97   D(29,28,30,31)         15.4068         estimate D2E/DX2                !
 ! D98   D(29,28,30,36)       -164.7229         estimate D2E/DX2                !
 ! D99   D(28,30,31,32)         -4.231          estimate D2E/DX2                !
 ! D100  D(28,30,31,34)       -178.1767         estimate D2E/DX2                !
 ! D101  D(36,30,31,32)        175.8879         estimate D2E/DX2                !
 ! D102  D(36,30,31,34)          1.9423         estimate D2E/DX2                !
 ! D103  D(28,30,36,35)       -178.0441         estimate D2E/DX2                !
 ! D104  D(31,30,36,35)          1.8523         estimate D2E/DX2                !
 ! D105  D(30,31,32,33)       -175.6968         estimate D2E/DX2                !
 ! D106  D(34,31,32,33)         -2.7525         estimate D2E/DX2                !
 ! D107  D(30,31,34,35)         -5.8216         estimate D2E/DX2                !
 ! D108  D(30,31,34,76)       -175.8892         estimate D2E/DX2                !
 ! D109  D(32,31,34,35)       -178.9732         estimate D2E/DX2                !
 ! D110  D(32,31,34,76)         10.9592         estimate D2E/DX2                !
 ! D111  D(31,32,33,73)         61.8221         estimate D2E/DX2                !
 ! D112  D(31,32,33,74)        -59.4123         estimate D2E/DX2                !
 ! D113  D(31,32,33,75)       -179.3595         estimate D2E/DX2                !
 ! D114  D(31,34,35,36)          7.0264         estimate D2E/DX2                !
 ! D115  D(31,34,35,37)        178.8333         estimate D2E/DX2                !
 ! D116  D(76,34,35,36)        176.9706         estimate D2E/DX2                !
 ! D117  D(76,34,35,37)        -11.2224         estimate D2E/DX2                !
 ! D118  D(34,35,36,30)         -5.0402         estimate D2E/DX2                !
 ! D119  D(37,35,36,30)       -177.5307         estimate D2E/DX2                !
 ! D120  D(34,35,37,38)       -176.5534         estimate D2E/DX2                !
 ! D121  D(34,35,37,41)          7.8989         estimate D2E/DX2                !
 ! D122  D(36,35,37,38)         -5.5186         estimate D2E/DX2                !
 ! D123  D(36,35,37,41)        178.9336         estimate D2E/DX2                !
 ! D124  D(35,37,38,39)       -176.2782         estimate D2E/DX2                !
 ! D125  D(35,37,38,77)          4.3664         estimate D2E/DX2                !
 ! D126  D(41,37,38,39)         -0.2873         estimate D2E/DX2                !
 ! D127  D(41,37,38,77)       -179.6427         estimate D2E/DX2                !
 ! D128  D(35,37,41,40)        175.8564         estimate D2E/DX2                !
 ! D129  D(38,37,41,40)         -0.6906         estimate D2E/DX2                !
 ! D130  D(37,38,39,40)          1.406          estimate D2E/DX2                !
 ! D131  D(77,38,39,40)       -179.2187         estimate D2E/DX2                !
 ! D132  D(38,39,40,41)         -1.8277         estimate D2E/DX2                !
 ! D133  D(38,39,40,42)       -177.9555         estimate D2E/DX2                !
 ! D134  D(39,40,41,37)          1.5486         estimate D2E/DX2                !
 ! D135  D(42,40,41,37)        177.3194         estimate D2E/DX2                !
 ! D136  D(39,40,42,43)       -177.7606         estimate D2E/DX2                !
 ! D137  D(39,40,42,48)         -0.4039         estimate D2E/DX2                !
 ! D138  D(41,40,42,43)          6.7341         estimate D2E/DX2                !
 ! D139  D(41,40,42,48)       -175.9092         estimate D2E/DX2                !
 ! D140  D(40,42,43,44)         -4.0534         estimate D2E/DX2                !
 ! D141  D(40,42,43,46)        178.3928         estimate D2E/DX2                !
 ! D142  D(48,42,43,44)        178.3573         estimate D2E/DX2                !
 ! D143  D(48,42,43,46)          0.8035         estimate D2E/DX2                !
 ! D144  D(40,42,48,47)       -177.4085         estimate D2E/DX2                !
 ! D145  D(43,42,48,47)          0.456          estimate D2E/DX2                !
 ! D146  D(42,43,44,45)       -178.0006         estimate D2E/DX2                !
 ! D147  D(46,43,44,45)         -0.6433         estimate D2E/DX2                !
 ! D148  D(42,43,46,47)         -1.9277         estimate D2E/DX2                !
 ! D149  D(42,43,46,81)       -179.1936         estimate D2E/DX2                !
 ! D150  D(44,43,46,47)       -179.4879         estimate D2E/DX2                !
 ! D151  D(44,43,46,81)          3.2462         estimate D2E/DX2                !
 ! D152  D(43,44,45,78)        -60.377          estimate D2E/DX2                !
 ! D153  D(43,44,45,79)       -179.219          estimate D2E/DX2                !
 ! D154  D(43,44,45,80)         59.1272         estimate D2E/DX2                !
 ! D155  D(43,46,47,48)          2.2051         estimate D2E/DX2                !
 ! D156  D(43,46,47,49)       -176.5514         estimate D2E/DX2                !
 ! D157  D(81,46,47,48)        179.7475         estimate D2E/DX2                !
 ! D158  D(81,46,47,49)          0.9909         estimate D2E/DX2                !
 ! D159  D(46,47,48,42)         -1.6            estimate D2E/DX2                !
 ! D160  D(49,47,48,42)        177.0847         estimate D2E/DX2                !
 ! D161  D(46,47,49,50)         12.0291         estimate D2E/DX2                !
 ! D162  D(46,47,49,53)       -163.3171         estimate D2E/DX2                !
 ! D163  D(48,47,49,50)       -166.5358         estimate D2E/DX2                !
 ! D164  D(48,47,49,53)         18.118          estimate D2E/DX2                !
 ! D165  D(47,49,50,51)       -177.1265         estimate D2E/DX2                !
 ! D166  D(47,49,50,82)          4.2289         estimate D2E/DX2                !
 ! D167  D(53,49,50,51)         -1.4416         estimate D2E/DX2                !
 ! D168  D(53,49,50,82)        179.9137         estimate D2E/DX2                !
 ! D169  D(47,49,53,52)        176.5804         estimate D2E/DX2                !
 ! D170  D(50,49,53,52)          0.4016         estimate D2E/DX2                !
 ! D171  D(49,50,51,52)          1.9856         estimate D2E/DX2                !
 ! D172  D(82,50,51,52)       -179.1558         estimate D2E/DX2                !
 ! D173  D(50,51,52,53)         -1.5796         estimate D2E/DX2                !
 ! D174  D(50,51,52,54)       -178.9027         estimate D2E/DX2                !
 ! D175  D(51,52,53,49)          0.7185         estimate D2E/DX2                !
 ! D176  D(54,52,53,49)        178.0794         estimate D2E/DX2                !
 ! D177  D(51,52,54,55)        157.3818         estimate D2E/DX2                !
 ! D178  D(51,52,54,60)        -21.4854         estimate D2E/DX2                !
 ! D179  D(53,52,54,55)        -19.7238         estimate D2E/DX2                !
 ! D180  D(53,52,54,60)        161.409          estimate D2E/DX2                !
 ! D181  D(52,54,55,56)         -2.7993         estimate D2E/DX2                !
 ! D182  D(52,54,55,58)        179.4184         estimate D2E/DX2                !
 ! D183  D(60,54,55,56)        176.1602         estimate D2E/DX2                !
 ! D184  D(60,54,55,58)         -1.6222         estimate D2E/DX2                !
 ! D185  D(52,54,60,59)       -179.267          estimate D2E/DX2                !
 ! D186  D(55,54,60,59)          1.6186         estimate D2E/DX2                !
 ! D187  D(54,55,56,57)        174.3061         estimate D2E/DX2                !
 ! D188  D(58,55,56,57)         -8.3444         estimate D2E/DX2                !
 ! D189  D(54,55,58,59)          0.6432         estimate D2E/DX2                !
 ! D190  D(54,55,58,86)        177.8346         estimate D2E/DX2                !
 ! D191  D(56,55,58,59)       -176.758          estimate D2E/DX2                !
 ! D192  D(56,55,58,86)          0.4334         estimate D2E/DX2                !
 ! D193  D(55,56,57,83)        -53.5128         estimate D2E/DX2                !
 ! D194  D(55,56,57,84)         62.7557         estimate D2E/DX2                !
 ! D195  D(55,56,57,85)       -177.4503         estimate D2E/DX2                !
 ! D196  D(55,58,59,60)          0.6158         estimate D2E/DX2                !
 ! D197  D(55,58,59,87)        176.3771         estimate D2E/DX2                !
 ! D198  D(86,58,59,60)       -176.844          estimate D2E/DX2                !
 ! D199  D(86,58,59,87)         -1.0827         estimate D2E/DX2                !
 ! D200  D(58,59,60,54)         -1.3523         estimate D2E/DX2                !
 ! D201  D(87,59,60,54)       -177.7361         estimate D2E/DX2                !
 --------------------------------------------------------------------------------
 Trust Radius=3.00D-01 FncErr=1.00D-07 GrdErr=1.00D-06 EigMax=2.50D+02 EigMin=1.00D-04
 Number of steps in this run=    462 maximum allowed number of steps=    522.
 GradGradGradGradGradGradGradGradGradGradGradGradGradGradGradGradGradGrad

 Leave Link  103 at Thu Jul 23 15:37:57 2020, MaxMem=  4026531840 cpu:               0.1 elap:               0.0
 (Enter /opt/ohpc/pub/libs/gaussian/g16-A.03/sandybridge/g16/l202.exe)
 Stoichiometry    C40H27N5O5S10
 Framework group  C1[X(C40H27N5O5S10)]
 Deg. of freedom   255
 Full point group                 C1      NOp   1
 Largest Abelian subgroup         C1      NOp   1
 Largest concise Abelian subgroup C1      NOp   1
                         Standard orientation:                         
 ---------------------------------------------------------------------
 Center     Atomic      Atomic             Coordinates (Angstroms)
 Number     Number       Type             X           Y           Z
 ---------------------------------------------------------------------
      1          6           0      -17.954980   -2.474717    0.465102
      2          6           0      -16.936949   -3.210643    1.106711
      3          7           0      -15.708472   -2.582439    1.173079
      4          6           0      -15.716331   -1.444466    0.538383
      5         16           0      -17.234785   -1.031596   -0.178086
      6          6           0      -14.487792   -0.712505    0.413894
      7          6           0      -14.372441    0.722126    0.145350
      8          8           0      -15.492081    1.442151    0.079270
      9          6           0      -15.160261    2.841227   -0.288299
     10          6           0      -13.017876    1.098570    0.104288
     11          6           0      -12.069267   -0.014901    0.239425
     12         16           0      -12.958165   -1.489832    0.471172
     13          6           0      -10.666440    0.062786    0.261059
     14          6           0       -9.786549   -0.996233    0.368864
     15          7           0       -8.429700   -0.603957    0.305204
     16          6           0       -8.284149    0.671805    0.030847
     17         16           0       -9.761976    1.531071   -0.078779
     18          6           0       -6.941740    1.226143   -0.088240
     19          6           0       -6.593601    2.623334   -0.285768
     20          8           0       -7.566260    3.600173   -0.374091
     21          6           0       -7.096230    4.820392   -0.611593
     22          6           0       -5.167156    2.743619   -0.336638
     23          6           0       -4.536217    1.595401   -0.256872
     24         16           0       -5.564537    0.300590   -0.031930
     25          6           0       -3.037164    1.466993   -0.296773
     26          6           0       -2.113887    2.363126   -0.449599
     27          7           0       -0.738977    2.016187   -0.483759
     28          6           0       -0.737132    0.670420   -0.380178
     29         16           0       -2.201239   -0.087683   -0.120541
     30          6           0        0.520126    0.009111   -0.359230
     31          6           0        0.855460   -1.402525   -0.421128
     32          8           0       -0.186065   -2.302637   -0.427238
     33          6           0        0.193415   -3.625318   -0.393123
     34          6           0        2.235646   -1.665934   -0.331808
     35          6           0        3.030231   -0.459454   -0.332152
     36         16           0        1.999892    0.945882   -0.244324
     37          6           0        4.472666   -0.335662   -0.230726
     38          6           0        5.260409    0.703628   -0.164887
     39          7           0        6.662060    0.540836   -0.148471
     40          6           0        6.906803   -0.785795   -0.242377
     41         16           0        5.471918   -1.722163   -0.290832
     42          6           0        8.205339   -1.246418   -0.207455
     43          6           0        8.698266   -2.524835   -0.324849
     44          8           0        7.880283   -3.639467   -0.430043
     45          6           0        8.518440   -4.919100   -0.502657
     46          6           0       10.172186   -2.620578   -0.272720
     47          6           0       10.718532   -1.293778   -0.152207
     48         16           0        9.525507   -0.140433   -0.054905
     49          6           0       12.186403   -1.049751   -0.151510
     50          6           0       13.176673   -1.865975   -0.459120
     51          7           0       14.477639   -1.377022   -0.307424
     52          6           0       14.443653   -0.127554    0.184413
     53         16           0       12.818638    0.499808    0.433625
     54          6           0       15.601438    0.649686    0.429514
     55          6           0       15.804235    2.057786    0.533814
     56          8           0       14.671472    2.868528    0.306902
     57          6           0       14.899052    4.274354    0.551379
     58          6           0       17.090003    2.407398    0.794062
     59          6           0       17.913324    1.398175    0.889448
     60         16           0       17.073386   -0.112833    0.627411
     61          1           0      -18.949246   -2.751048    0.307007
     62          1           0      -17.184457   -4.163285    1.662426
     63          1           0      -16.150834    3.288843   -0.425815
     64          1           0      -14.657085    3.375804    0.446466
     65          1           0      -14.655530    2.884138   -1.273261
     66          1           0      -12.614524    2.090647   -0.108621
     67          1           0      -10.031421   -2.041133    0.665017
     68          1           0       -6.483667    5.271955    0.163752
     69          1           0       -6.532535    4.869383   -1.576607
     70          1           0       -7.998984    5.557944   -0.725630
     71          1           0       -4.759382    3.690226   -0.512506
     72          1           0       -2.319666    3.479729   -0.508210
     73          1           0        0.754875   -3.909297    0.513918
     74          1           0        0.820876   -3.920126   -1.232792
     75          1           0       -0.682434   -4.302130   -0.411316
     76          1           0        2.639386   -2.635484   -0.424880
     77          1           0        4.843799    1.754746   -0.108669
     78          1           0        9.176096   -4.914863   -1.427000
     79          1           0        7.776844   -5.622866   -0.589353
     80          1           0        9.110316   -5.094706    0.344901
     81          1           0       10.815156   -3.490320   -0.351342
     82          1           0       13.141059   -2.831583   -0.822299
     83          1           0       15.326813    4.510096    1.581600
     84          1           0       15.679176    4.633800   -0.169638
     85          1           0       14.019087    4.863759    0.415961
     86          1           0       17.517025    3.472435    0.889572
     87          1           0       19.047553    1.363498    1.043652
 ---------------------------------------------------------------------
 Rotational constants (GHZ):           0.1308179           0.0043895           0.0042593
 Leave Link  202 at Thu Jul 23 15:37:57 2020, MaxMem=  4026531840 cpu:               0.3 elap:               0.1
 (Enter /opt/ohpc/pub/libs/gaussian/g16-A.03/sandybridge/g16/l301.exe)
 Standard basis: CC-pVDZ (5D, 7F)
 Ernie: Thresh=  0.10000D-02 Tol=  0.10000D-05 Strict=F.
 Ernie:  200 primitive shells out of 1735 were deleted.
 There are  1075 symmetry adapted cartesian basis functions of A   symmetry.
 There are  1015 symmetry adapted basis functions of A   symmetry.
  1015 basis functions,  2549 primitive gaussians,  1075 cartesian basis functions
   251 alpha electrons      251 beta electrons
       nuclear repulsion energy      8943.7770808556 Hartrees.
 IExCor=32609 DFT=T Ex+Corr=LC-wPBE ExCW=0 ScaHFX=  1.000000
 ScaDFX=  1.000000  0.000000  1.000000  1.000000 ScalE2=  1.000000  1.000000
 IRadAn=      5 IRanWt=     -1 IRanGd=            0 ICorTp=0 IEmpDi=  4
 HFx  wShort=  0.000000 wLong=  0.206300 cFull=  0.000000 cShort=  0.000000 cLong=  1.000000
 DFx  wShort=  0.000000 wLong=  0.206300 cFull=  0.000000 cShort=  0.000000 cLong=  1.000000
 NAtoms=   87 NActive=   87 NUniq=   87 SFac= 1.00D+00 NAtFMM=   60 NAOKFM=T Big=T
 Integral buffers will be    131072 words long.
 Raffenetti 2 integral format.
 Two-electron integral symmetry is turned on.
 Leave Link  301 at Thu Jul 23 15:37:57 2020, MaxMem=  4026531840 cpu:               0.4 elap:               0.1
 (Enter /opt/ohpc/pub/libs/gaussian/g16-A.03/sandybridge/g16/l302.exe)
 NPDir=0 NMtPBC=     1 NCelOv=     1 NCel=       1 NClECP=     1 NCelD=      1
         NCelK=      1 NCelE2=     1 NClLst=     1 CellRange=     0.0.
 One-electron integrals computed using PRISM.
 One-electron integral symmetry used in STVInt
 NBasis=  1015 RedAO= T EigKep=  2.93D-04  NBF=  1015
 NBsUse=  1015 1.00D-06 EigRej= -1.00D+00 NBFU=  1015
 Precomputing XC quadrature grid using
 IXCGrd= 4 IRadAn=           5 IRanWt=          -1 IRanGd=           0 AccXCQ= 0.00D+00.
 Generated NRdTot=       0 NPtTot=           0 NUsed=           0 NTot=          32
 NSgBfM=   674   674   674   674   674 MxSgAt=    87 MxSgA2=    83.
 Leave Link  302 at Thu Jul 23 15:38:00 2020, MaxMem=  4026531840 cpu:              25.7 elap:               3.3
 (Enter /opt/ohpc/pub/libs/gaussian/g16-A.03/sandybridge/g16/l303.exe)
 DipDrv:  MaxL=1.
 Leave Link  303 at Thu Jul 23 15:38:00 2020, MaxMem=  4026531840 cpu:               1.7 elap:               0.2
 (Enter /opt/ohpc/pub/libs/gaussian/g16-A.03/sandybridge/g16/l401.exe)
 ExpMin= 1.22D-01 ExpMax= 1.11D+05 ExpMxC= 1.07D+03 IAcc=3 IRadAn=         5 AccDes= 0.00D+00
 Harris functional with IExCor=32609 and IRadAn=       5 diagonalized for initial guess.
 HarFok:  IExCor=32609 AccDes= 0.00D+00 IRadAn=         5 IDoV= 1 UseB2=F ITyADJ=14
 ICtDFT=  3500011 ScaDFX=  1.000000  1.000000  1.000000  1.000000
 FoFCou: FMM=F IPFlag=           0 FMFlag=      100000 FMFlg1=        2001
         NFxFlg=           0 DoJE=T BraDBF=F KetDBF=T FulRan=T
         wScrn=  0.000000 ICntrl=       500 IOpCl=  0 I1Cent=   200000004 NGrid=           0
         NMat0=    1 NMatS0=      1 NMatT0=    0 NMatD0=    1 NMtDS0=    0 NMtDT0=    0
 Petite list used in FoFCou.
 Harris En= -6168.58545782248    
 JPrj=0 DoOrth=F DoCkMO=F.
 Initial guess <Sx>= 0.0000 <Sy>= 0.0000 <Sz>= 0.0000 <S**2>=-0.0000 S=-0.0000
 Leave Link  401 at Thu Jul 23 15:38:11 2020, MaxMem=  4026531840 cpu:              85.6 elap:              10.8
 (Enter /opt/ohpc/pub/libs/gaussian/g16-A.03/sandybridge/g16/l502.exe)
 Integral symmetry usage will be decided dynamically.
 UHF open shell SCF:
 Using DIIS extrapolation, IDIIS=  1040.
 NGot=  4026531840 LenX=  4024201195 LenY=  4023044495
 Requested convergence on RMS density matrix=1.00D-08 within 128 cycles.
 Requested convergence on MAX density matrix=1.00D-06.
 Requested convergence on             energy=1.00D-06.
 No special actions if energy rises.
 Fock matrices will be formed incrementally for  20 cycles.
 Integral accuracy reduced to 1.0D-05 until final iterations.

 Cycle   1  Pass 0  IDiag  1:
 FoFJK:  IHMeth= 1 ICntrl=       0 DoSepK=T KAlg= 0 I1Cent=           0 FoldK=F
 IRaf=         1 NMat=       1 IRICut=       1 DoRegI=T DoRafI=F ISym2E= 0 IDoP0=0 IntGTp=1.
 FoFCou: FMM=T IPFlag=           0 FMFlag=      100000 FMFlg1=        2001
         NFxFlg=           0 DoJE=T BraDBF=F KetDBF=F FulRan=T
         wScrn=  0.000000 ICntrl=       500 IOpCl=  0 I1Cent=           0 NGrid=           0
         NMat0=    1 NMatS0=      1 NMatT0=    0 NMatD0=    1 NMtDS0=    0 NMtDT0=    0
 Symmetry not used in FoFCou.
 FMM levels:  10  Number of levels for PrismC:   9
 E= -6167.69083452982    
 DIIS: error= 1.51D-02 at cycle   1 NSaved=   1.
 NSaved= 1 IEnMin= 1 EnMin= -6167.69083452982     IErMin= 1 ErrMin= 1.51D-02
 ErrMax= 1.51D-02  0.00D+00 EMaxC= 1.00D-01 BMatC= 4.57D+00 BMatP= 4.57D+00
 IDIUse=3 WtCom= 8.49D-01 WtEn= 1.51D-01
 Coeff-Com:  0.100D+01
 Coeff-En:   0.100D+01
 Coeff:      0.100D+01
 Gap=     0.143 Goal=   None    Shift=    0.000
 Gap=     0.143 Goal=   None    Shift=    0.000
 GapD=    0.143 DampG=1.000 DampE=0.500 DampFc=0.5000 IDamp=-1.
 Damping current iteration by 5.00D-01
 RMSDP=2.53D-03 MaxDP=1.45D-01              OVMax= 2.70D-01

 Cycle   2  Pass 0  IDiag  1:
 RMSU=  1.26D-03    CP:  9.92D-01
 E= -6168.27443796817     Delta-E=       -0.583603438348 Rises=F Damp=T
 DIIS: error= 3.11D-03 at cycle   2 NSaved=   2.
 NSaved= 2 IEnMin= 2 EnMin= -6168.27443796817     IErMin= 2 ErrMin= 3.11D-03
 ErrMax= 3.11D-03  0.00D+00 EMaxC= 1.00D-01 BMatC= 2.05D-01 BMatP= 4.57D+00
 IDIUse=3 WtCom= 9.69D-01 WtEn= 3.11D-02
 Coeff-Com:  0.754D-01 0.925D+00
 Coeff-En:   0.109D+00 0.891D+00
 Coeff:      0.764D-01 0.924D+00
 Gap=     0.192 Goal=   None    Shift=    0.000
 Gap=     0.192 Goal=   None    Shift=    0.000
 RMSDP=5.62D-04 MaxDP=2.63D-02 DE=-5.84D-01 OVMax= 1.46D-01

 Cycle   3  Pass 0  IDiag  1:
 RMSU=  5.51D-04    CP:  9.89D-01  9.14D-01
 E= -6168.96246628589     Delta-E=       -0.688028317723 Rises=F Damp=F
 DIIS: error= 3.34D-03 at cycle   3 NSaved=   3.
 NSaved= 3 IEnMin= 3 EnMin= -6168.96246628589     IErMin= 2 ErrMin= 3.11D-03
 ErrMax= 3.34D-03  0.00D+00 EMaxC= 1.00D-01 BMatC= 1.33D-01 BMatP= 2.05D-01
 IDIUse=3 WtCom= 9.67D-01 WtEn= 3.34D-02
 Coeff-Com:  0.211D-01 0.431D+00 0.547D+00
 Coeff-En:   0.000D+00 0.000D+00 0.100D+01
 Coeff:      0.204D-01 0.417D+00 0.563D+00
 Gap=     0.196 Goal=   None    Shift=    0.000
 Gap=     0.196 Goal=   None    Shift=    0.000
 RMSDP=2.26D-04 MaxDP=2.62D-02 DE=-6.88D-01 OVMax= 3.49D-02

 Cycle   4  Pass 0  IDiag  1:
 RMSU=  1.90D-04    CP:  9.90D-01  9.51D-01  7.94D-01
 E= -6168.98910653156     Delta-E=       -0.026640245669 Rises=F Damp=F
 DIIS: error= 1.40D-03 at cycle   4 NSaved=   4.
 NSaved= 4 IEnMin= 4 EnMin= -6168.98910653156     IErMin= 4 ErrMin= 1.40D-03
 ErrMax= 1.40D-03  0.00D+00 EMaxC= 1.00D-01 BMatC= 2.50D-02 BMatP= 1.33D-01
 IDIUse=3 WtCom= 9.86D-01 WtEn= 1.40D-02
 Coeff-Com:  0.673D-02 0.477D-01 0.297D+00 0.649D+00
 Coeff-En:   0.000D+00 0.000D+00 0.128D+00 0.872D+00
 Coeff:      0.664D-02 0.471D-01 0.295D+00 0.652D+00
 Gap=     0.198 Goal=   None    Shift=    0.000
 Gap=     0.198 Goal=   None    Shift=    0.000
 RMSDP=9.53D-05 MaxDP=9.48D-03 DE=-2.66D-02 OVMax= 1.28D-02

 Cycle   5  Pass 0  IDiag  1:
 RMSU=  6.77D-05    CP:  9.89D-01  9.39D-01  8.80D-01  7.63D-01
 E= -6168.99520749467     Delta-E=       -0.006100963108 Rises=F Damp=F
 DIIS: error= 4.20D-04 at cycle   5 NSaved=   5.
 NSaved= 5 IEnMin= 5 EnMin= -6168.99520749467     IErMin= 5 ErrMin= 4.20D-04
 ErrMax= 4.20D-04  0.00D+00 EMaxC= 1.00D-01 BMatC= 1.52D-03 BMatP= 2.50D-02
 IDIUse=3 WtCom= 9.96D-01 WtEn= 4.20D-03
 Coeff-Com:  0.456D-02-0.269D-01 0.557D-01 0.244D+00 0.722D+00
 Coeff-En:   0.000D+00 0.000D+00 0.000D+00 0.000D+00 0.100D+01
 Coeff:      0.454D-02-0.268D-01 0.555D-01 0.243D+00 0.724D+00
 Gap=     0.199 Goal=   None    Shift=    0.000
 Gap=     0.199 Goal=   None    Shift=    0.000
 RMSDP=3.16D-05 MaxDP=2.47D-03 DE=-6.10D-03 OVMax= 4.06D-03

 Cycle   6  Pass 0  IDiag  1:
 RMSU=  2.37D-05    CP:  9.89D-01  9.33D-01  9.00D-01  8.45D-01  1.02D+00
 E= -6168.99571025502     Delta-E=       -0.000502760353 Rises=F Damp=F
 DIIS: error= 1.63D-04 at cycle   6 NSaved=   6.
 NSaved= 6 IEnMin= 6 EnMin= -6168.99571025502     IErMin= 6 ErrMin= 1.63D-04
 ErrMax= 1.63D-04  0.00D+00 EMaxC= 1.00D-01 BMatC= 2.79D-04 BMatP= 1.52D-03
 IDIUse=3 WtCom= 9.98D-01 WtEn= 1.63D-03
 Coeff-Com:  0.226D-02-0.225D-01-0.165D-01 0.215D-01 0.321D+00 0.695D+00
 Coeff-En:   0.000D+00 0.000D+00 0.000D+00 0.000D+00 0.000D+00 0.100D+01
 Coeff:      0.225D-02-0.225D-01-0.164D-01 0.215D-01 0.320D+00 0.695D+00
 Gap=     0.199 Goal=   None    Shift=    0.000
 Gap=     0.199 Goal=   None    Shift=    0.000
 RMSDP=1.63D-05 MaxDP=1.06D-03 DE=-5.03D-04 OVMax= 2.90D-03

 Cycle   7  Pass 0  IDiag  1:
 RMSU=  1.19D-05    CP:  9.89D-01  9.30D-01  9.09D-01  8.62D-01  1.15D+00
                    CP:  1.03D+00
 E= -6168.99582730113     Delta-E=       -0.000117046106 Rises=F Damp=F
 DIIS: error= 5.54D-05 at cycle   7 NSaved=   7.
 NSaved= 7 IEnMin= 7 EnMin= -6168.99582730113     IErMin= 7 ErrMin= 5.54D-05
 ErrMax= 5.54D-05  0.00D+00 EMaxC= 1.00D-01 BMatC= 4.32D-05 BMatP= 2.79D-04
 IDIUse=1 WtCom= 1.00D+00 WtEn= 0.00D+00
 Coeff-Com:  0.401D-03-0.503D-02-0.130D-01-0.290D-01-0.145D-01 0.262D+00
 Coeff-Com:  0.800D+00
 Coeff:      0.401D-03-0.503D-02-0.130D-01-0.290D-01-0.145D-01 0.262D+00
 Coeff:      0.800D+00
 Gap=     0.199 Goal=   None    Shift=    0.000
 Gap=     0.199 Goal=   None    Shift=    0.000
 RMSDP=1.16D-05 MaxDP=4.71D-04 DE=-1.17D-04 OVMax= 1.37D-03

 Cycle   8  Pass 0  IDiag  1:
 RMSU=  9.08D-06    CP:  9.89D-01  9.30D-01  9.12D-01  8.75D-01  1.19D+00
                    CP:  1.25D+00  1.21D+00
 E= -6168.99584918601     Delta-E=       -0.000021884887 Rises=F Damp=F
 DIIS: error= 2.88D-05 at cycle   8 NSaved=   8.
 NSaved= 8 IEnMin= 8 EnMin= -6168.99584918601     IErMin= 8 ErrMin= 2.88D-05
 ErrMax= 2.88D-05  0.00D+00 EMaxC= 1.00D-01 BMatC= 1.32D-05 BMatP= 4.32D-05
 IDIUse=1 WtCom= 1.00D+00 WtEn= 0.00D+00
 Coeff-Com: -0.127D-03 0.121D-02-0.337D-02-0.187D-01-0.691D-01 0.146D-01
 Coeff-Com:  0.420D+00 0.655D+00
 Coeff:     -0.127D-03 0.121D-02-0.337D-02-0.187D-01-0.691D-01 0.146D-01
 Coeff:      0.420D+00 0.655D+00
 Gap=     0.199 Goal=   None    Shift=    0.000
 Gap=     0.199 Goal=   None    Shift=    0.000
 RMSDP=8.98D-06 MaxDP=2.94D-04 DE=-2.19D-05 OVMax= 6.73D-04

 Initial convergence to 1.0D-05 achieved.  Increase integral accuracy.
 Cycle   9  Pass 1  IDiag  1:
 E= -6168.99518967831     Delta-E=        0.000659507701 Rises=F Damp=F
 DIIS: error= 1.81D-04 at cycle   1 NSaved=   1.
 NSaved= 1 IEnMin= 1 EnMin= -6168.99518967831     IErMin= 1 ErrMin= 1.81D-04
 ErrMax= 1.81D-04  0.00D+00 EMaxC= 1.00D-01 BMatC= 1.20D-04 BMatP= 1.20D-04
 IDIUse=3 WtCom= 9.98D-01 WtEn= 1.81D-03
 Coeff-Com:  0.100D+01
 Coeff-En:   0.100D+01
 Coeff:      0.100D+01
 Gap=     0.199 Goal=   None    Shift=    0.000
 Gap=     0.199 Goal=   None    Shift=    0.000
 RMSDP=8.98D-06 MaxDP=2.94D-04 DE= 6.60D-04 OVMax= 4.43D-04

 Cycle  10  Pass 1  IDiag  1:
 RMSU=  8.89D-05    CP:  1.00D+00
 E= -6168.99521277385     Delta-E=       -0.000023095534 Rises=F Damp=F
 DIIS: error= 1.39D-05 at cycle   2 NSaved=   2.
 NSaved= 2 IEnMin= 2 EnMin= -6168.99521277385     IErMin= 2 ErrMin= 1.39D-05
 ErrMax= 1.39D-05  0.00D+00 EMaxC= 1.00D-01 BMatC= 3.62D-06 BMatP= 1.20D-04
 IDIUse=1 WtCom= 1.00D+00 WtEn= 0.00D+00
 Coeff-Com:  0.125D-01 0.988D+00
 Coeff:      0.125D-01 0.988D+00
 Gap=     0.199 Goal=   None    Shift=    0.000
 Gap=     0.199 Goal=   None    Shift=    0.000
 RMSDP=4.84D-06 MaxDP=2.14D-04 DE=-2.31D-05 OVMax= 4.17D-04

 Cycle  11  Pass 1  IDiag  1:
 RMSU=  2.89D-06    CP:  1.00D+00  1.04D+00
 E= -6168.99521125400     Delta-E=        0.000001519842 Rises=F Damp=F
 DIIS: error= 2.72D-05 at cycle   3 NSaved=   3.
 NSaved= 3 IEnMin= 2 EnMin= -6168.99521277385     IErMin= 2 ErrMin= 1.39D-05
 ErrMax= 2.72D-05  0.00D+00 EMaxC= 1.00D-01 BMatC= 1.00D-05 BMatP= 3.62D-06
 IDIUse=1 WtCom= 1.00D+00 WtEn= 0.00D+00
 Coeff-Com: -0.222D-01 0.640D+00 0.382D+00
 Coeff:     -0.222D-01 0.640D+00 0.382D+00
 Gap=     0.199 Goal=   None    Shift=    0.000
 Gap=     0.199 Goal=   None    Shift=    0.000
 RMSDP=1.63D-06 MaxDP=1.40D-04 DE= 1.52D-06 OVMax= 2.44D-04

 Cycle  12  Pass 1  IDiag  1:
 RMSU=  9.50D-07    CP:  1.00D+00  1.05D+00  5.58D-01
 E= -6168.99521391743     Delta-E=       -0.000002663428 Rises=F Damp=F
 DIIS: error= 2.02D-06 at cycle   4 NSaved=   4.
 NSaved= 4 IEnMin= 4 EnMin= -6168.99521391743     IErMin= 4 ErrMin= 2.02D-06
 ErrMax= 2.02D-06  0.00D+00 EMaxC= 1.00D-01 BMatC= 3.62D-08 BMatP= 3.62D-06
 IDIUse=1 WtCom= 1.00D+00 WtEn= 0.00D+00
 Coeff-Com: -0.636D-02 0.158D+00 0.104D+00 0.745D+00
 Coeff:     -0.636D-02 0.158D+00 0.104D+00 0.745D+00
 Gap=     0.199 Goal=   None    Shift=    0.000
 Gap=     0.199 Goal=   None    Shift=    0.000
 RMSDP=2.20D-07 MaxDP=1.25D-05 DE=-2.66D-06 OVMax= 4.61D-05

 Cycle  13  Pass 1  IDiag  1:
 RMSU=  1.80D-07    CP:  1.00D+00  1.05D+00  5.84D-01  1.08D+00
 E= -6168.99521393870     Delta-E=       -0.000000021268 Rises=F Damp=F
 DIIS: error= 1.22D-06 at cycle   5 NSaved=   5.
 NSaved= 5 IEnMin= 5 EnMin= -6168.99521393870     IErMin= 5 ErrMin= 1.22D-06
 ErrMax= 1.22D-06  0.00D+00 EMaxC= 1.00D-01 BMatC= 1.71D-08 BMatP= 3.62D-08
 IDIUse=1 WtCom= 1.00D+00 WtEn= 0.00D+00
 Coeff-Com:  0.382D-02-0.125D+00-0.696D-01 0.391D+00 0.800D+00
 Coeff:      0.382D-02-0.125D+00-0.696D-01 0.391D+00 0.800D+00
 Gap=     0.199 Goal=   None    Shift=    0.000
 Gap=     0.199 Goal=   None    Shift=    0.000
 RMSDP=1.80D-07 MaxDP=1.07D-05 DE=-2.13D-08 OVMax= 5.09D-05

 Cycle  14  Pass 1  IDiag  1:
 RMSU=  1.33D-07    CP:  1.00D+00  1.05D+00  5.99D-01  1.18D+00  1.28D+00
 E= -6168.99521394454     Delta-E=       -0.000000005841 Rises=F Damp=F
 DIIS: error= 5.63D-07 at cycle   6 NSaved=   6.
 NSaved= 6 IEnMin= 6 EnMin= -6168.99521394454     IErMin= 6 ErrMin= 5.63D-07
 ErrMax= 5.63D-07  0.00D+00 EMaxC= 1.00D-01 BMatC= 2.63D-09 BMatP= 1.71D-08
 IDIUse=1 WtCom= 1.00D+00 WtEn= 0.00D+00
 Coeff-Com:  0.245D-02-0.728D-01-0.432D-01 0.478D-01 0.333D+00 0.733D+00
 Coeff:      0.245D-02-0.728D-01-0.432D-01 0.478D-01 0.333D+00 0.733D+00
 Gap=     0.199 Goal=   None    Shift=    0.000
 Gap=     0.199 Goal=   None    Shift=    0.000
 RMSDP=6.96D-08 MaxDP=4.66D-06 DE=-5.84D-09 OVMax= 2.05D-05

 Cycle  15  Pass 1  IDiag  1:
 RMSU=  3.99D-08    CP:  1.00D+00  1.05D+00  6.03D-01  1.20D+00  1.54D+00
                    CP:  1.18D+00
 E= -6168.99521393225     Delta-E=        0.000000012285 Rises=F Damp=F
 DIIS: error= 2.65D-07 at cycle   7 NSaved=   7.
 NSaved= 7 IEnMin= 6 EnMin= -6168.99521394454     IErMin= 7 ErrMin= 2.65D-07
 ErrMax= 2.65D-07  0.00D+00 EMaxC= 1.00D-01 BMatC= 9.64D-10 BMatP= 2.63D-09
 IDIUse=1 WtCom= 1.00D+00 WtEn= 0.00D+00
 Coeff-Com:  0.116D-03 0.238D-03-0.152D-02-0.105D+00-0.795D-01 0.422D+00
 Coeff-Com:  0.763D+00
 Coeff:      0.116D-03 0.238D-03-0.152D-02-0.105D+00-0.795D-01 0.422D+00
 Coeff:      0.763D+00
 Gap=     0.199 Goal=   None    Shift=    0.000
 Gap=     0.199 Goal=   None    Shift=    0.000
 RMSDP=4.36D-08 MaxDP=2.68D-06 DE= 1.23D-08 OVMax= 1.45D-05

 Cycle  16  Pass 1  IDiag  1:
 RMSU=  1.60D-08    CP:  1.00D+00  1.05D+00  6.04D-01  1.21D+00  1.67D+00
                    CP:  1.41D+00  9.66D-01
[...]
    28 C(13)  Bbb    -0.0000    -0.000    -0.000    -0.000  0.3066  0.9513 -0.0326
              Bcc     0.0000     0.000     0.000     0.000  0.9485 -0.3025  0.0941
 
              Baa    -0.0000    -0.000    -0.000    -0.000  0.7381  0.1877 -0.6480
    29 S(33)  Bbb     0.0000     0.000     0.000     0.000  0.3199  0.7483  0.5811
              Bcc     0.0000     0.000     0.000     0.000 -0.5940  0.6362 -0.4923
 
              Baa    -0.0000    -0.000    -0.000    -0.000 -0.0633  0.7613  0.6453
    30 C(13)  Bbb    -0.0000    -0.000    -0.000    -0.000  0.1268 -0.6353  0.7618
              Bcc     0.0000     0.000     0.000     0.000  0.9899  0.1300 -0.0563
 
              Baa    -0.0000    -0.000    -0.000    -0.000  0.8556  0.4919 -0.1613
    31 C(13)  Bbb    -0.0000    -0.000    -0.000    -0.000 -0.5172  0.7995 -0.3054
              Bcc     0.0000     0.000     0.000     0.000 -0.0213  0.3448  0.9385
 
              Baa    -0.0000     0.000     0.000     0.000 -0.3835  0.9179 -0.1020
    32 O(17)  Bbb     0.0000    -0.000    -0.000    -0.000 -0.1444  0.0495  0.9883
              Bcc     0.0000    -0.000    -0.000    -0.000  0.9122  0.3938  0.1135
 
              Baa    -0.0000    -0.000    -0.000    -0.000 -0.0479  0.8592 -0.5094
    33 C(13)  Bbb     0.0000     0.000     0.000     0.000  0.9468 -0.1234 -0.2972
              Bcc     0.0000     0.000     0.000     0.000  0.3182  0.4966  0.8076
 
              Baa    -0.0000    -0.000    -0.000    -0.000  0.1379  0.8291 -0.5419
    34 C(13)  Bbb    -0.0000    -0.000    -0.000    -0.000  0.9882 -0.1521  0.0187
              Bcc     0.0000     0.000     0.000     0.000  0.0669  0.5381  0.8402
 
              Baa    -0.0000    -0.000    -0.000    -0.000  0.0212  0.3806  0.9245
    35 C(13)  Bbb     0.0000     0.000     0.000     0.000  0.7958 -0.5662  0.2148
              Bcc     0.0000     0.000     0.000     0.000  0.6052  0.7311 -0.3149
 
              Baa    -0.0000    -0.000    -0.000    -0.000 -0.4543 -0.0551  0.8891
    36 S(33)  Bbb    -0.0000    -0.000    -0.000    -0.000  0.5310  0.7846  0.3200
              Bcc     0.0000     0.000     0.000     0.000  0.7153 -0.6175  0.3272
 
              Baa    -0.0000    -0.000    -0.000    -0.000  0.9238 -0.3824 -0.0176
    37 C(13)  Bbb     0.0000     0.000     0.000     0.000  0.3718  0.9074 -0.1961
              Bcc     0.0000     0.000     0.000     0.000  0.0910  0.1746  0.9804
 
              Baa    -0.0000    -0.000    -0.000    -0.000  0.8099 -0.5325 -0.2461
    38 C(13)  Bbb    -0.0000    -0.000    -0.000    -0.000  0.2149 -0.1209  0.9691
              Bcc     0.0000     0.000     0.000     0.000  0.5458  0.8378 -0.0165
 
              Baa    -0.0000    -0.000    -0.000    -0.000 -0.1196 -0.0329  0.9923
    39 N(14)  Bbb    -0.0000    -0.000    -0.000    -0.000  0.9822  0.1417  0.1230
              Bcc     0.0000     0.000     0.000     0.000 -0.1447  0.9894  0.0154
 
              Baa    -0.0000    -0.000    -0.000    -0.000 -0.2270  0.9714 -0.0693
    40 C(13)  Bbb     0.0000     0.000     0.000     0.000 -0.6298 -0.0921  0.7713
              Bcc     0.0000     0.000     0.000     0.000  0.7428  0.2187  0.6327
 
              Baa    -0.0000    -0.000    -0.000    -0.000  0.9723 -0.2152 -0.0912
    41 S(33)  Bbb     0.0000     0.000     0.000     0.000  0.0383 -0.2380  0.9705
              Bcc     0.0000     0.000     0.000     0.000  0.2306  0.9471  0.2231
 
              Baa    -0.0000    -0.000    -0.000    -0.000  0.5213  0.8527 -0.0339
    42 C(13)  Bbb     0.0000     0.000     0.000     0.000  0.0686 -0.0023  0.9976
              Bcc     0.0000     0.000     0.000     0.000  0.8506 -0.5224 -0.0597
 
              Baa    -0.0000    -0.000    -0.000    -0.000 -0.1206  0.7542  0.6455
    43 C(13)  Bbb    -0.0000    -0.000    -0.000    -0.000  0.3082 -0.5897  0.7465
              Bcc     0.0000     0.000     0.000     0.000  0.9437  0.2890 -0.1613
 
              Baa    -0.0000     0.000     0.000     0.000 -0.2447  0.5820  0.7755
    44 O(17)  Bbb    -0.0000     0.000     0.000     0.000  0.5300 -0.5895  0.6096
              Bcc     0.0000    -0.000    -0.000    -0.000  0.8119  0.5602 -0.1642
 
              Baa    -0.0000    -0.000    -0.000    -0.000  0.3118  0.8537 -0.4171
    45 C(13)  Bbb     0.0000     0.000     0.000     0.000  0.2072  0.3673  0.9067
              Bcc     0.0000     0.000     0.000     0.000  0.9273 -0.3691 -0.0624
 
              Baa    -0.0000    -0.000    -0.000    -0.000 -0.6249  0.7769 -0.0768
    46 C(13)  Bbb     0.0000     0.000     0.000     0.000  0.0677  0.1520  0.9861
              Bcc     0.0000     0.000     0.000     0.000  0.7778  0.6110 -0.1475
 
              Baa    -0.0000    -0.000    -0.000    -0.000  0.9874 -0.0892 -0.1305
    47 C(13)  Bbb    -0.0000    -0.000    -0.000    -0.000  0.0450  0.9501 -0.3085
              Bcc     0.0000     0.000     0.000     0.000  0.1515  0.2988  0.9422
 
              Baa    -0.0000    -0.000    -0.000    -0.000  0.9673  0.1983  0.1582
    48 S(33)  Bbb     0.0000     0.000     0.000     0.000 -0.1402 -0.1015  0.9849
              Bcc     0.0000     0.000     0.000     0.000 -0.2113  0.9749  0.0704
 
              Baa    -0.0000    -0.000    -0.000    -0.000  0.9937  0.0863 -0.0720
    49 C(13)  Bbb     0.0000     0.000     0.000     0.000 -0.0280  0.8103  0.5854
              Bcc     0.0000     0.000     0.000     0.000  0.1088 -0.5797  0.8076
 
              Baa    -0.0000    -0.000    -0.000    -0.000  0.0680 -0.3092  0.9486
    50 C(13)  Bbb     0.0000     0.000     0.000     0.000  0.9042  0.4209  0.0724
              Bcc     0.0000     0.000     0.000     0.000 -0.4217  0.8528  0.3082
 
              Baa    -0.0000    -0.000    -0.000    -0.000  0.8524 -0.4230  0.3075
    51 N(14)  Bbb    -0.0000    -0.000    -0.000    -0.000 -0.4451 -0.2781  0.8512
              Bcc     0.0000     0.000     0.000     0.000  0.2746  0.8624  0.4253
 
              Baa    -0.0000    -0.000    -0.000    -0.000  0.0389  0.9094  0.4140
    52 C(13)  Bbb    -0.0000    -0.000    -0.000    -0.000 -0.0822 -0.4100  0.9084
              Bcc     0.0000     0.000     0.000     0.000  0.9959 -0.0694  0.0588
 
              Baa    -0.0000    -0.000    -0.000    -0.000  0.7335 -0.6393 -0.2307
    53 S(33)  Bbb     0.0000     0.000     0.000     0.000  0.3408  0.0523  0.9387
              Bcc     0.0000     0.000     0.000     0.000  0.5881  0.7672 -0.2563
 
              Baa    -0.0000    -0.000    -0.000    -0.000 -0.1520 -0.5336  0.8320
    54 C(13)  Bbb    -0.0000    -0.000    -0.000    -0.000  0.9881 -0.1037  0.1140
              Bcc     0.0000     0.000     0.000     0.000  0.0254  0.8394  0.5430
 
              Baa    -0.0000    -0.000    -0.000    -0.000  0.9447  0.3047  0.1210
    55 C(13)  Bbb     0.0000     0.000     0.000     0.000 -0.2997  0.9523 -0.0580
              Bcc     0.0000     0.000     0.000     0.000 -0.1329  0.0185  0.9910
 
              Baa    -0.0000     0.000     0.000     0.000  0.5248  0.8505  0.0341
    56 O(17)  Bbb     0.0000    -0.000    -0.000    -0.000  0.4853 -0.3319  0.8089
              Bcc     0.0000    -0.000    -0.000    -0.000  0.6993 -0.4080 -0.5869
 
              Baa    -0.0000    -0.000    -0.000    -0.000  0.0027  0.9798  0.1999
    57 C(13)  Bbb     0.0000     0.000     0.000     0.000 -0.1709 -0.1965  0.9655
              Bcc     0.0000     0.000     0.000     0.000  0.9853 -0.0368  0.1670
 
              Baa    -0.0000    -0.000    -0.000    -0.000  0.8078  0.3759 -0.4541
    58 C(13)  Bbb    -0.0000    -0.000    -0.000    -0.000  0.5436 -0.1769  0.8205
              Bcc     0.0000     0.000     0.000     0.000 -0.2281  0.9096  0.3472
 
              Baa    -0.0000    -0.000    -0.000    -0.000 -0.4314  0.7752  0.4614
    59 C(13)  Bbb     0.0000     0.000     0.000     0.000  0.8926  0.2925  0.3431
              Bcc     0.0000     0.000     0.000     0.000 -0.1311 -0.5599  0.8181
 
              Baa    -0.0000    -0.000    -0.000    -0.000 -0.3665  0.9304  0.0045
    60 S(33)  Bbb    -0.0000    -0.000    -0.000    -0.000  0.2173  0.0809  0.9728
              Bcc     0.0000     0.000     0.000     0.000  0.9047  0.3575 -0.2318
 
              Baa    -0.0000    -0.000    -0.000    -0.000 -0.6302  0.6617  0.4063
    61 H(1)   Bbb    -0.0000    -0.000    -0.000    -0.000  0.0142 -0.5134  0.8581
              Bcc     0.0000     0.000     0.000     0.000  0.7763  0.5465  0.3142
 
              Baa    -0.0000    -0.000    -0.000    -0.000  0.6640  0.7469 -0.0340
    62 H(1)   Bbb     0.0000     0.000     0.000     0.000  0.2166 -0.1486  0.9649
              Bcc     0.0000     0.000     0.000     0.000  0.7156 -0.6481 -0.2604
 
              Baa    -0.0000    -0.000    -0.000    -0.000  0.2620  0.9312  0.2534
    63 H(1)   Bbb    -0.0000    -0.000    -0.000    -0.000  0.4222 -0.3467  0.8376
              Bcc     0.0000     0.000     0.000     0.000  0.8678 -0.1125 -0.4840
 
              Baa    -0.0000    -0.000    -0.000    -0.000  0.9674 -0.0769  0.2415
    64 H(1)   Bbb     0.0000     0.000     0.000     0.000  0.0718  0.9970  0.0296
              Bcc     0.0000     0.000     0.000     0.000 -0.2430 -0.0113  0.9700
 
              Baa    -0.0000    -0.000    -0.000    -0.000  0.9731 -0.2301 -0.0140
    65 H(1)   Bbb    -0.0000    -0.000    -0.000    -0.000  0.1919  0.7748  0.6024
              Bcc     0.0000     0.000     0.000     0.000 -0.1277 -0.5888  0.7981
 
              Baa    -0.0000    -0.000    -0.000    -0.000  0.1266  0.9503  0.2845
    66 H(1)   Bbb     0.0000     0.000     0.000     0.000  0.9918 -0.1161 -0.0532
              Bcc     0.0000     0.000     0.000     0.000  0.0175 -0.2889  0.9572
 
              Baa    -0.0000    -0.000    -0.000    -0.000  0.3581  0.9308 -0.0740
    67 H(1)   Bbb     0.0000     0.000     0.000     0.000  0.9335 -0.3554  0.0473
              Bcc     0.0000     0.000     0.000     0.000 -0.0177  0.0861  0.9961
 
              Baa    -0.0000    -0.000    -0.000    -0.000  0.6228  0.0205  0.7821
    68 H(1)   Bbb     0.0000     0.000     0.000     0.000  0.6151  0.6050 -0.5056
              Bcc     0.0000     0.000     0.000     0.000 -0.4835  0.7960  0.3642
 
              Baa    -0.0000    -0.000    -0.000    -0.000 -0.3417 -0.1132  0.9330
    69 H(1)   Bbb     0.0000     0.000     0.000     0.000  0.7853 -0.5797  0.2173
              Bcc     0.0000     0.000     0.000     0.000  0.5162  0.8070  0.2869
 
              Baa    -0.0000    -0.000    -0.000    -0.000  0.8905 -0.2897  0.3509
    70 H(1)   Bbb     0.0000     0.000     0.000     0.000  0.3865  0.8886 -0.2471
              Bcc     0.0000     0.000     0.000     0.000 -0.2402  0.3557  0.9032
 
              Baa    -0.0000    -0.000    -0.000    -0.000  0.1809  0.9832  0.0230
    71 H(1)   Bbb     0.0000     0.000     0.000     0.000  0.9818 -0.1791 -0.0629
              Bcc     0.0000     0.000     0.000     0.000  0.0577 -0.0339  0.9978
 
              Baa    -0.0000    -0.000    -0.000    -0.000 -0.1517  0.8686  0.4717
    72 H(1)   Bbb     0.0000     0.000     0.000     0.000  0.1602 -0.4493  0.8789
              Bcc     0.0000     0.000     0.000     0.000  0.9754  0.2088 -0.0710
 
              Baa    -0.0000    -0.000    -0.000    -0.000  0.6338  0.1790  0.7525
    73 H(1)   Bbb     0.0000     0.000     0.000     0.000  0.1930  0.9055 -0.3780
              Bcc     0.0000     0.000     0.000     0.000  0.7491 -0.3848 -0.5393
 
              Baa    -0.0000    -0.000    -0.000    -0.000 -0.3226  0.7038  0.6330
    74 H(1)   Bbb    -0.0000    -0.000    -0.000    -0.000  0.2326  0.7071 -0.6677
              Bcc     0.0000     0.000     0.000     0.000  0.9175  0.0682  0.3918
 
              Baa    -0.0000    -0.000    -0.000    -0.000  0.7789  0.5696 -0.2624
    75 H(1)   Bbb     0.0000     0.000     0.000     0.000  0.4420 -0.2017  0.8740
              Bcc     0.0000     0.000     0.000     0.000 -0.4449  0.7968  0.4089
 
              Baa    -0.0000    -0.000    -0.000    -0.000 -0.4675  0.8320 -0.2987
    76 H(1)   Bbb     0.0000     0.000     0.000     0.000  0.8743  0.4850 -0.0175
              Bcc     0.0000     0.000     0.000     0.000 -0.1303  0.2693  0.9542
 
              Baa    -0.0000    -0.000    -0.000    -0.000  0.8981  0.4395 -0.0168
    77 H(1)   Bbb    -0.0000    -0.000    -0.000    -0.000 -0.0445  0.1288  0.9907
              Bcc     0.0000     0.000     0.000     0.000 -0.4376  0.8889 -0.1352
 
              Baa    -0.0000    -0.000    -0.000    -0.000  0.0132  0.7711  0.6365
    78 H(1)   Bbb    -0.0000    -0.000    -0.000    -0.000  0.5677 -0.5298  0.6301
              Bcc     0.0000     0.000     0.000     0.000  0.8231  0.3530 -0.4448
 
              Baa    -0.0000    -0.000    -0.000    -0.000  0.0970  0.3093  0.9460
    79 H(1)   Bbb    -0.0000    -0.000    -0.000    -0.000 -0.4791  0.8477 -0.2280
              Bcc     0.0000     0.000     0.000     0.000  0.8724  0.4311 -0.2304
 
              Baa    -0.0000    -0.000    -0.000    -0.000 -0.0240 -0.5735  0.8189
    80 H(1)   Bbb    -0.0000    -0.000    -0.000    -0.000 -0.4812  0.7246  0.4934
              Bcc     0.0000     0.000     0.000     0.000  0.8763  0.3821  0.2934
 
              Baa    -0.0000    -0.000    -0.000    -0.000 -0.6712  0.7393 -0.0537
    81 H(1)   Bbb     0.0000     0.000     0.000     0.000  0.7382  0.6603 -0.1380
              Bcc     0.0000     0.000     0.000     0.000  0.0666  0.1322  0.9890
 
              Baa    -0.0000    -0.000    -0.000    -0.000  0.9811 -0.0932 -0.1695
    82 H(1)   Bbb    -0.0000    -0.000    -0.000    -0.000  0.1276 -0.3464  0.9294
              Bcc     0.0000     0.000     0.000     0.000  0.1453  0.9335  0.3280
 
              Baa    -0.0000    -0.000    -0.000    -0.000  0.8303 -0.5115  0.2214
    83 H(1)   Bbb    -0.0000    -0.000    -0.000    -0.000 -0.5257 -0.5867  0.6160
              Bcc     0.0000     0.000     0.000     0.000  0.1852  0.6278  0.7560
 
              Baa    -0.0000    -0.000    -0.000    -0.000 -0.7051 -0.0416  0.7079
    84 H(1)   Bbb     0.0000     0.000     0.000     0.000  0.5414  0.6132  0.5752
              Bcc     0.0000     0.000     0.000     0.000 -0.4580  0.7888 -0.4098
 
              Baa    -0.0000    -0.000    -0.000    -0.000  0.8433  0.2866 -0.4547
    85 H(1)   Bbb    -0.0000    -0.000    -0.000    -0.000  0.5140 -0.1826  0.8381
              Bcc     0.0000     0.000     0.000     0.000 -0.1572  0.9405  0.3013
 
              Baa    -0.0000    -0.000    -0.000    -0.000 -0.1675  0.8688  0.4659
    86 H(1)   Bbb    -0.0000    -0.000    -0.000    -0.000  0.2874 -0.4090  0.8661
              Bcc     0.0000     0.000     0.000     0.000  0.9431  0.2790 -0.1812
 
              Baa    -0.0000    -0.000    -0.000    -0.000  0.9866  0.1505 -0.0635
    87 H(1)   Bbb     0.0000     0.000     0.000     0.000 -0.1377  0.9754  0.1719
              Bcc     0.0000     0.000     0.000     0.000  0.0878 -0.1608  0.9831
 

 ---------------------------------------------------------------------------------

 No NMR shielding tensors so no spin-rotation constants.
 Leave Link  601 at Fri Jul 24 00:30:08 2020, MaxMem=  4026531840 cpu:              12.7 elap:               1.7
 (Enter /opt/ohpc/pub/libs/gaussian/g16-A.03/sandybridge/g16/l9999.exe)

 Test job not archived.
 1\1\GINC-SKYLAKE041\FOpt\ULC-wPBE\CC-pVDZ\C40H27N5O5S10\RDU230\24-Jul-
 2020\0\\#P uLC-wPBE/cc-pVDZ iop(3/107=0206300000, 3/108=0206300000) op
 t\\H27 C40 S10 N5 O5\\0,1\C,-18.0166979662,-2.4068151924,-0.6405968228
 \C,-17.0179870045,-3.2688808054,-1.0160468319\N,-15.7359250729,-2.7900
 82621,-0.9160123708\C,-15.737093331,-1.5531625131,-0.461941905\S,-17.3
 353242805,-0.9009937225,-0.1278585411\C,-14.5200787664,-0.7931397968,-
 0.2567099581\C,-14.354318181,0.5051430124,0.2112021699\O,-15.448647994
 4,1.2384145981,0.5481905859\C,-15.2160525286,2.5578484074,1.0282947696
 \C,-12.9887049562,0.9081856782,0.2849392203\C,-12.1234551789,-0.089920
 9576,-0.1303557038\S,-12.9815076905,-1.5188943262,-0.6289239741\C,-10.
 6688061774,-0.0494300264,-0.1814189091\C,-9.7680508178,-1.0965873671,-
 0.1811433797\N,-8.4425842698,-0.7698266229,-0.2330175442\C,-8.28497313
 3,0.5391545388,-0.2700087455\S,-9.7850001869,1.4552098603,-0.255732483
 2\C,-6.9844860431,1.1705364291,-0.3202569713\C,-6.6567264995,2.5220440
 008,-0.3624033792\O,-7.6509938602,3.448590401,-0.3608101589\C,-7.25693
 28081,4.8163354018,-0.4030351119\C,-5.2523415336,2.7621064003,-0.38840
 40626\C,-4.5197152551,1.5864355107,-0.377730232\S,-5.5485729536,0.1850
 531414,-0.3366001885\C,-3.0687047892,1.4618324776,-0.4204073894\C,-2.1
 540583331,2.3427264508,-0.964640598\N,-0.8356228903,2.0012726413,-0.86
 57756392\C,-0.6989005764,0.8419941874,-0.2497560937\S,-2.2087621572,0.
 1043000239,0.2631082577\C,0.5881803634,0.2263352394,-0.0141754295\C,0.
 8883453886,-0.9793319543,0.6116051526\O,-0.1218001277,-1.7436084195,1.
 1007325916\C,0.2401190329,-2.9696060243,1.7292669627\C,2.2854979869,-1
 .2550523226,0.6630989339\C,3.0400862066,-0.2540740758,0.0739813511\S,2
 .0395073639,1.0192301008,-0.5619989988\C,4.4887270443,-0.181068674,-0.
 0495956655\C,5.2911145657,0.927701288,-0.2370689757\N,6.6368016527,0.7
 084394404,-0.3158600761\C,6.9094223026,-0.5758815822,-0.1868314642\S,5
 .4998129721,-1.6030084609,0.03017831\C,8.257586778,-1.097974381,-0.223
 2825152\C,8.7020442835,-2.4111831877,-0.1044999415\O,7.7950591339,-3.4
 070881781,0.0731928961\C,8.3061418272,-4.7315198289,0.1892184012\C,10.
 1198435037,-2.5358406349,-0.1747662124\C,10.7444180561,-1.3132045888,-
 0.3587793503\S,9.5980674334,-0.0087510839,-0.4472243609\C,12.175696267
 7,-1.0763169103,-0.4963884026\C,13.1390280525,-1.940871211,-0.97860141
 37\N,14.425484203,-1.4820133555,-0.9948912415\C,14.4863095049,-0.24774
 4722,-0.5336071547\S,12.9419341029,0.4224265929,-0.0325762786\C,15.724
 5833411,0.4984444008,-0.4437356129\C,15.9388904177,1.7941602042,0.0146
 118654\O,14.884941708,2.5263200738,0.4603682553\C,15.1601796653,3.8501
 69154,0.9077091556\C,17.3106217637,2.1927867541,-0.0511348493\C,18.104
 3516412,1.1893696219,-0.5572392807\S,17.2193543923,-0.2326053335,-0.95
 73312174\H,-19.0973873649,-2.5720018447,-0.6373584381\H,-17.1788174827
 ,-4.2898030828,-1.3812931211\H,-16.2104056192,2.984213818,1.2405805062
 \H,-14.6149705747,2.5498544503,1.9606036313\H,-14.705496019,3.18198938
 19,0.2664881496\H,-12.6417154494,1.8800947806,0.6482455793\H,-10.05680
 34014,-2.1532454195,-0.1271327786\H,-6.6552746959,5.0917053761,0.48710
 68684\H,-6.6798083929,5.0422821902,-1.322776012\H,-8.1908771464,5.4021
 101175,-0.4064993426\H,-4.784852137,3.7506017551,-0.3851841929\H,-2.42
 87262849,3.2701392068,-1.4807050203\H,0.8781162952,-2.7938398994,2.619
 2510089\H,0.7666620558,-3.6442917014,1.0239690641\H,-0.7056390152,-3.4
 391994121,2.0457449752\H,2.7324160745,-2.1368959205,1.1315441708\H,4.9
 114066674,1.9541643422,-0.3085650781\H,8.86083328,-5.0314861989,-0.723
 0508236\H,7.4281631553,-5.3865751144,0.3131593151\H,8.9671957746,-4.83
 36616323,1.073864155\H,10.6733437616,-3.4726530707,-0.0665981446\H,12.
 9247464441,-2.9454046652,-1.361780713\H,15.8544039484,3.8480929655,1.7
 727041284\H,15.5857369852,4.4713628827,0.0934142776\H,14.191113696,4.2
 730212207,1.2196980968\H,17.6960218392,3.168544599,0.2580478032\H,19.1
 859940138,1.2188197236,-0.7169085086\\Version=EM64L-G16RevA.03\State=1
 -A\HF=-6169.1624942\S2=0.\S2-1=0.\S2A=0.\RMSD=6.053e-09\RMSF=1.033e-06
 \Dipole=2.0461677,1.3082563,1.5636441\Quadrupole=29.7361123,12.5132158
 ,-42.2493282,-27.3484318,3.0192644,-0.5826074\PG=C01 [X(C40H27N5O5S10)
 ]\\@


 THE GREAT THING ABOUT BEING IMPERFECT IS THE JOY IT BRINGS OTHERS.
   -- SIGN OUTSIDE LAKE AGASSIZ JR. HIGH SCHOOL, FARGO, N.D.
 Job cpu time:       2 days 21 hours 32 minutes 16.2 seconds.
 Elapsed time:       0 days  8 hours 52 minutes  7.3 seconds.
 File lengths (MBytes):  RWF=   1180 Int=      0 D2E=      0 Chk=    108 Scr=      8
 Normal termination of Gaussian 16 at Fri Jul 24 00:30:08 2020.
