 Entering Gaussian System, Link 0=g16
 Input=mols_65_5_00_c-c-C_opt_0.gjf
 Output=mols_65_5_00_c-c-C_opt_0.log
 Initial command:
 /opt/ohpc/pub/libs/gaussian/g16-A.03/sandybridge/g16/l1.exe "/mnt/gpfs2_4m/scratch/rdu230/ondemand/projects/dihedral_energies/7trial/wtuning/mols_65_5_00_c-c-C/Gau-281720.inp" -scrdir="/mnt/gpfs2_4m/scratch/rdu230/ondemand/projects/dihedral_energies/7trial/wtuning/mols_65_5_00_c-c-C/"
 Entering Link 1 = /opt/ohpc/pub/libs/gaussian/g16-A.03/sandybridge/g16/l1.exe PID=    281722.
  
 Copyright (c) 1988,1990,1992,1993,1995,1998,2003,2009,2016,
            Gaussian, Inc.  All Rights Reserved.
  
 This is part of the Gaussian(R) 16 program.  It is based on
 the Gaussian(R) 09 system (copyright 2009, Gaussian, Inc.),
 the Gaussian(R) 03 system (copyright 2003, Gaussian, Inc.),
 the Gaussian(R) 98 system (copyright 1998, Gaussian, Inc.),
 the Gaussian(R) 94 system (copyright 1995, Gaussian, Inc.),
 the Gaussian 92(TM) system (copyright 1992, Gaussian, Inc.),
 the Gaussian 90(TM) system (copyright 1990, Gaussian, Inc.),
 the Gaussian 88(TM) system (copyright 1988, Gaussian, Inc.),
 the Gaussian 86(TM) system (copyright 1986, Carnegie Mellon
 University), and the Gaussian 82(TM) system (copyright 1983,
 Carnegie Mellon University). Gaussian is a federally registered
 trademark of Gaussian, Inc.
  
 This software contains proprietary and confidential information,
 including trade secrets, belonging to Gaussian, Inc.
  
 This software is provided under written license and may be
 used, copied, transmitted, or stored only in accord with that
 written license.
  
 The following legend is applicable only to US Government
 contracts under FAR:
  
                    RESTRICTED RIGHTS LEGEND
  
 Use, reproduction and disclosure by the US Government is
 subject to restrictions as set forth in subparagraphs (a)
 and (c) of the Commercial Computer Software - Restricted
 Rights clause in FAR 52.227-19.
  
 Gaussian, Inc.
 340 Quinnipiac St., Bldg. 40, Wallingford CT 06492
  
  
 ---------------------------------------------------------------
 Warning -- This program may not be used in any manner that
 competes with the business of Gaussian, Inc. or will provide
 assistance to any competitor of Gaussian, Inc.  The licensee
 of this program is prohibited from giving any competitor of
 Gaussian, Inc. access to this program.  By using this program,
 the user acknowledges that Gaussian, Inc. is engaged in the
 business of creating and licensing software in the field of
 computational chemistry and represents and warrants to the
 licensee that it is not a competitor of Gaussian, Inc. and that
 it will not use this program in any manner prohibited above.
 ---------------------------------------------------------------
  

 Cite this work as:
 Gaussian 16, Revision A.03,
 M. J. Frisch, G. W. Trucks, H. B. Schlegel, G. E. Scuseria, 
 M. A. Robb, J. R. Cheeseman, G. Scalmani, V. Barone, 
 G. A. Petersson, H. Nakatsuji, X. Li, M. Caricato, A. V. Marenich, 
 J. Bloino, B. G. Janesko, R. Gomperts, B. Mennucci, H. P. Hratchian, 
 J. V. Ortiz, A. F. Izmaylov, J. L. Sonnenberg, D. Williams-Young, 
 F. Ding, F. Lipparini, F. Egidi, J. Goings, B. Peng, A. Petrone, 
 T. Henderson, D. Ranasinghe, V. G. Zakrzewski, J. Gao, N. Rega, 
 G. Zheng, W. Liang, M. Hada, M. Ehara, K. Toyota, R. Fukuda, 
 J. Hasegawa, M. Ishida, T. Nakajima, Y. Honda, O. Kitao, H. Nakai, 
 T. Vreven, K. Throssell, J. A. Montgomery, Jr., J. E. Peralta, 
 F. Ogliaro, M. J. Bearpark, J. J. Heyd, E. N. Brothers, K. N. Kudin, 
 V. N. Staroverov, T. A. Keith, R. Kobayashi, J. Normand, 
 K. Raghavachari, A. P. Rendell, J. C. Burant, S. S. Iyengar, 
 J. Tomasi, M. Cossi, J. M. Millam, M. Klene, C. Adamo, R. Cammi, 
 J. W. Ochterski, R. L. Martin, K. Morokuma, O. Farkas, 
 J. B. Foresman, and D. J. Fox, Gaussian, Inc., Wallingford CT, 2016.
 
 ******************************************
 Gaussian 16:  EM64L-G16RevA.03 25-Dec-2016
                24-Jul-2020 
 ******************************************
 %mem=30GB
 %nproc=8
 Will use up to    8 processors via shared memory.
 ---------------------------------------------------------------
 #P uLC-wPBE/cc-pVDZ iop(3/107=0115300000, 3/108=0115300000) opt
 ---------------------------------------------------------------
 1/18=20,19=15,26=3,38=1/1,3;
 2/9=110,12=2,17=6,18=5,40=1/2;
 3/5=16,11=2,25=1,30=1,71=1,74=-41,107=115300000,108=115300000,116=2/1,2,3;
 4//1;
 5/5=2,38=5/2;
 6/7=2,8=2,9=2,10=2,28=1/1;
 7//1,2,3,16;
 1/18=20,19=15,26=3/3(2);
 2/9=110/2;
 99//99;
 2/9=110/2;
 3/5=16,11=2,25=1,30=1,71=1,74=-41,107=115300000,108=115300000,116=2/1,2,3;
 4/5=5,16=3,69=1/1;
 5/5=2,38=5/2;
 7//1,2,3,16;
 1/18=20,19=15,26=3/3(-5);
 2/9=110/2;
 6/7=2,8=2,9=2,10=2,19=2,28=1/1;
 99/9=1/99;
 Leave Link    1 at Fri Jul 24 12:11:57 2020, MaxMem=  4026531840 cpu:               1.8 elap:               0.3
 (Enter /opt/ohpc/pub/libs/gaussian/g16-A.03/sandybridge/g16/l101.exe)
 ----------
 H32 C50 S5
 ----------
 Symbolic Z-matrix:
 Charge =  0 Multiplicity = 1
 C                     19.11214   2.22889   0.25517 
 C                     18.08341   2.75477  -0.64648 
 C                     16.8512   2.08959  -0.74898 
 C                     16.53889   0.96932   0.11523 
 C                     17.52015   0.57988   0.96886 
 C                     18.78985   1.18595   1.02061 
 C                     15.22003   0.39457   0.03189 
 C                     14.93636  -1.02693   0.10364 
 C                     13.53881  -1.25696   0.00525 
 C                     12.7922  -0.0338   -0.0027 
 S                     13.77672   1.27964  -0.00168 
 C                     11.29527   0.05559   0.02827 
 C                     10.47854  -0.67694   0.84716 
 C                     9.14422  -0.53128   0.91972 
 C                     8.49398   0.38852  -0.05897 
 C                     9.2723    1.129    -0.93305 
 C                     10.67247   0.9354   -0.95704 
 C                     7.01107   0.61037  -0.00068 
 C                     6.30907   1.78099  -0.00901 
 C                     4.9343    1.60254   0.05481 
 C                     4.62507   0.23456  -0.00783 
 S                     5.97897  -0.78722  -0.06104 
 C                     3.21599  -0.31362   0.00098 
 C                     2.24727   0.21723  -0.82209 
 C                     0.90144  -0.24302  -0.86781 
 C                     0.55295  -1.41872  -0.12679 
 C                     1.54954  -2.01488   0.64244 
 C                     2.92286  -1.43757   0.70614 
 C                    -0.72403  -1.9336   -0.19592 
 C                    -1.15308  -3.28969  -0.35992 
 C                    -2.54144  -3.52072  -0.41349 
 C                    -3.25322  -2.27766  -0.19706 
 S                    -2.17582  -0.94988  -0.01994 
 C                    -4.6561   -2.10693  -0.1283 
 C                    -5.27468  -0.96537  -0.76358 
 C                    -6.74134  -0.87525  -0.76717 
 C                    -7.49382  -1.8525   -0.18782 
 C                    -6.90359  -2.88818   0.43582 
 C                    -5.51811  -3.10606   0.42741 
 C                    -8.93193  -1.74326  -0.19851 
 C                    -9.84662  -2.75166  -0.41326 
 C                    -11.22287  -2.30418  -0.40948 
 C                    -11.27742  -0.92192  -0.11452 
 S                    -9.80781  -0.26211   0.12298 
 C                    -12.52502  -0.09776  -0.03614 
 C                    -12.60596   1.21327  -0.61433 
 C                    -13.76854   1.88367  -0.53903 
 C                    -14.95447   1.3968    0.16978 
 C                    -14.87855   0.16195   0.74811 
 C                    -13.69946  -0.5743    0.67616 
 C                    -16.2063   2.2037    0.14497 
 C                    -17.45191   1.73743   0.06609 
 C                    -18.44774   2.71288   0.20953 
 C                    -17.85655   3.95984   0.36403 
 S                    -16.24546   3.86116   0.45308 
 H                     20.06183   2.67402   0.29447 
 H                     18.38209   3.55394  -1.31646 
 H                     16.12488   2.55201  -1.38 
 H                     17.36533  -0.27891   1.61036 
 H                     19.55598   0.79494   1.74712 
 H                     15.66341  -1.79134   0.08096 
 H                     13.06788  -2.21212   0.00463 
 H                     10.9827  -1.33312   1.54114 
 H                     8.52257  -1.04806   1.56552 
 H                     8.82331   1.73536  -1.63077 
 H                     11.28933   1.52599  -1.67729 
 H                     6.88408   2.73036   0.0429 
 H                     4.19835   2.35482   0.04059 
 H                     2.4821    1.17528  -1.44494 
 H                     0.17836   0.25291  -1.53528 
 H                     1.34203  -2.8785    1.31736 
 H                     3.60785  -1.93637   1.41054 
 H                    -0.33927  -4.08784  -0.47754 
 H                    -2.98759  -4.49095  -0.55459 
 H                    -4.66156  -0.27132  -1.2917 
 H                    -7.0997   -0.02448  -1.22397 
 H                    -7.46059  -3.649     0.95099 
 H                    -5.06246  -3.8941    0.9655 
 H                    -9.65244  -3.78441  -0.65743 
 H                    -12.10617  -2.85205  -0.53991 
 H                    -11.81279   1.55818  -1.19499 
 H                    -13.87476   2.89834  -1.06874 
 H                    -15.67989  -0.27178   1.29667 
 H                    -13.61036  -1.53125   1.15185 
 H                    -17.72412   0.60479  -0.10272 
 H                    -19.5052   2.59502   0.07892 
 H                    -18.43672   4.87411   0.46846 
 
 ITRead=  0  0  0  0  0  0  0  0  0  0  0  0  0  0  0  0  0  0  0  0
 ITRead=  0  0  0  0  0  0  0  0  0  0  0  0  0  0  0  0  0  0  0  0
 ITRead=  0  0  0  0  0  0  0  0  0  0  0  0  0  0  0  0  0  0  0  0
 ITRead=  0  0  0  0  0  0  0  0  0  0  0  0  0  0  0  0  0  0  0  0
 ITRead=  0  0  0  0  0  0  0
 MicOpt= -1 -1 -1 -1 -1 -1 -1 -1 -1 -1 -1 -1 -1 -1 -1 -1 -1 -1 -1 -1
 MicOpt= -1 -1 -1 -1 -1 -1 -1 -1 -1 -1 -1 -1 -1 -1 -1 -1 -1 -1 -1 -1
 MicOpt= -1 -1 -1 -1 -1 -1 -1 -1 -1 -1 -1 -1 -1 -1 -1 -1 -1 -1 -1 -1
 MicOpt= -1 -1 -1 -1 -1 -1 -1 -1 -1 -1 -1 -1 -1 -1 -1 -1 -1 -1 -1 -1
 MicOpt= -1 -1 -1 -1 -1 -1 -1
 NAtoms=     87 NQM=       87 NQMF=       0 NMMI=      0 NMMIF=      0
                NMic=       0 NMicF=      0.
                    Isotopes and Nuclear Properties:
 (Nuclear quadrupole moments (NQMom) in fm**2, nuclear magnetic moments (NMagM)
  in nuclear magnetons)

  Atom         1           2           3           4           5           6           7           8           9          10
 IAtWgt=          12          12          12          12          12          12          12          12          12          12
 AtmWgt=  12.0000000  12.0000000  12.0000000  12.0000000  12.0000000  12.0000000  12.0000000  12.0000000  12.0000000  12.0000000
 NucSpn=           0           0           0           0           0           0           0           0           0           0
 AtZEff=  -0.0000000  -0.0000000  -0.0000000  -0.0000000  -0.0000000  -0.0000000  -0.0000000  -0.0000000  -0.0000000  -0.0000000
 NQMom=    0.0000000   0.0000000   0.0000000   0.0000000   0.0000000   0.0000000   0.0000000   0.0000000   0.0000000   0.0000000
 NMagM=    0.0000000   0.0000000   0.0000000   0.0000000   0.0000000   0.0000000   0.0000000   0.0000000   0.0000000   0.0000000
 AtZNuc=   6.0000000   6.0000000   6.0000000   6.0000000   6.0000000   6.0000000   6.0000000   6.0000000   6.0000000   6.0000000

  Atom        11          12          13          14          15          16          17          18          19          20
 IAtWgt=          32          12          12          12          12          12          12          12          12          12
 AtmWgt=  31.9720718  12.0000000  12.0000000  12.0000000  12.0000000  12.0000000  12.0000000  12.0000000  12.0000000  12.0000000
 NucSpn=           0           0           0           0           0           0           0           0           0           0
 AtZEff=  -0.0000000  -0.0000000  -0.0000000  -0.0000000  -0.0000000  -0.0000000  -0.0000000  -0.0000000  -0.0000000  -0.0000000
 NQMom=    0.0000000   0.0000000   0.0000000   0.0000000   0.0000000   0.0000000   0.0000000   0.0000000   0.0000000   0.0000000
 NMagM=    0.0000000   0.0000000   0.0000000   0.0000000   0.0000000   0.0000000   0.0000000   0.0000000   0.0000000   0.0000000
 AtZNuc=  16.0000000   6.0000000   6.0000000   6.0000000   6.0000000   6.0000000   6.0000000   6.0000000   6.0000000   6.0000000

  Atom        21          22          23          24          25          26          27          28          29          30
 IAtWgt=          12          32          12          12          12          12          12          12          12          12
 AtmWgt=  12.0000000  31.9720718  12.0000000  12.0000000  12.0000000  12.0000000  12.0000000  12.0000000  12.0000000  12.0000000
 NucSpn=           0           0           0           0           0           0           0           0           0           0
 AtZEff=  -0.0000000  -0.0000000  -0.0000000  -0.0000000  -0.0000000  -0.0000000  -0.0000000  -0.0000000  -0.0000000  -0.0000000
 NQMom=    0.0000000   0.0000000   0.0000000   0.0000000   0.0000000   0.0000000   0.0000000   0.0000000   0.0000000   0.0000000
 NMagM=    0.0000000   0.0000000   0.0000000   0.0000000   0.0000000   0.0000000   0.0000000   0.0000000   0.0000000   0.0000000
 AtZNuc=   6.0000000  16.0000000   6.0000000   6.0000000   6.0000000   6.0000000   6.0000000   6.0000000   6.0000000   6.0000000

  Atom        31          32          33          34          35          36          37          38          39          40
 IAtWgt=          12          12          32          12          12          12          12          12          12          12
 AtmWgt=  12.0000000  12.0000000  31.9720718  12.0000000  12.0000000  12.0000000  12.0000000  12.0000000  12.0000000  12.0000000
 NucSpn=           0           0           0           0           0           0           0           0           0           0
 AtZEff=  -0.0000000  -0.0000000  -0.0000000  -0.0000000  -0.0000000  -0.0000000  -0.0000000  -0.0000000  -0.0000000  -0.0000000
 NQMom=    0.0000000   0.0000000   0.0000000   0.0000000   0.0000000   0.0000000   0.0000000   0.0000000   0.0000000   0.0000000
 NMagM=    0.0000000   0.0000000   0.0000000   0.0000000   0.0000000   0.0000000   0.0000000   0.0000000   0.0000000   0.0000000
 AtZNuc=   6.0000000   6.0000000  16.0000000   6.0000000   6.0000000   6.0000000   6.0000000   6.0000000   6.0000000   6.0000000

  Atom        41          42          43          44          45          46          47          48          49          50
 IAtWgt=          12          12          12          32          12          12          12          12          12          12
 AtmWgt=  12.0000000  12.0000000  12.0000000  31.9720718  12.0000000  12.0000000  12.0000000  12.0000000  12.0000000  12.0000000
 NucSpn=           0           0           0           0           0           0           0           0           0           0
 AtZEff=  -0.0000000  -0.0000000  -0.0000000  -0.0000000  -0.0000000  -0.0000000  -0.0000000  -0.0000000  -0.0000000  -0.0000000
 NQMom=    0.0000000   0.0000000   0.0000000   0.0000000   0.0000000   0.0000000   0.0000000   0.0000000   0.0000000   0.0000000
 NMagM=    0.0000000   0.0000000   0.0000000   0.0000000   0.0000000   0.0000000   0.0000000   0.0000000   0.0000000   0.0000000
 AtZNuc=   6.0000000   6.0000000   6.0000000  16.0000000   6.0000000   6.0000000   6.0000000   6.0000000   6.0000000   6.0000000

  Atom        51          52          53          54          55          56          57          58          59          60
 IAtWgt=          12          12          12          12          32           1           1           1           1           1
 AtmWgt=  12.0000000  12.0000000  12.0000000  12.0000000  31.9720718   1.0078250   1.0078250   1.0078250   1.0078250   1.0078250
 NucSpn=           0           0           0           0           0           1           1           1           1           1
 AtZEff=  -0.0000000  -0.0000000  -0.0000000  -0.0000000  -0.0000000  -0.0000000  -0.0000000  -0.0000000  -0.0000000  -0.0000000
 NQMom=    0.0000000   0.0000000   0.0000000   0.0000000   0.0000000   0.0000000   0.0000000   0.0000000   0.0000000   0.0000000
 NMagM=    0.0000000   0.0000000   0.0000000   0.0000000   0.0000000   2.7928460   2.7928460   2.7928460   2.7928460   2.7928460
 AtZNuc=   6.0000000   6.0000000   6.0000000   6.0000000  16.0000000   1.0000000   1.0000000   1.0000000   1.0000000   1.0000000

  Atom        61          62          63          64          65          66          67          68          69          70
 IAtWgt=           1           1           1           1           1           1           1           1           1           1
 AtmWgt=   1.0078250   1.0078250   1.0078250   1.0078250   1.0078250   1.0078250   1.0078250   1.0078250   1.0078250   1.0078250
 NucSpn=           1           1           1           1           1           1           1           1           1           1
 AtZEff=  -0.0000000  -0.0000000  -0.0000000  -0.0000000  -0.0000000  -0.0000000  -0.0000000  -0.0000000  -0.0000000  -0.0000000
 NQMom=    0.0000000   0.0000000   0.0000000   0.0000000   0.0000000   0.0000000   0.0000000   0.0000000   0.0000000   0.0000000
 NMagM=    2.7928460   2.7928460   2.7928460   2.7928460   2.7928460   2.7928460   2.7928460   2.7928460   2.7928460   2.7928460
 AtZNuc=   1.0000000   1.0000000   1.0000000   1.0000000   1.0000000   1.0000000   1.0000000   1.0000000   1.0000000   1.0000000

  Atom        71          72          73          74          75          76          77          78          79          80
 IAtWgt=           1           1           1           1           1           1           1           1           1           1
 AtmWgt=   1.0078250   1.0078250   1.0078250   1.0078250   1.0078250   1.0078250   1.0078250   1.0078250   1.0078250   1.0078250
 NucSpn=           1           1           1           1           1           1           1           1           1           1
 AtZEff=  -0.0000000  -0.0000000  -0.0000000  -0.0000000  -0.0000000  -0.0000000  -0.0000000  -0.0000000  -0.0000000  -0.0000000
 NQMom=    0.0000000   0.0000000   0.0000000   0.0000000   0.0000000   0.0000000   0.0000000   0.0000000   0.0000000   0.0000000
 NMagM=    2.7928460   2.7928460   2.7928460   2.7928460   2.7928460   2.7928460   2.7928460   2.7928460   2.7928460   2.7928460
 AtZNuc=   1.0000000   1.0000000   1.0000000   1.0000000   1.0000000   1.0000000   1.0000000   1.0000000   1.0000000   1.0000000

  Atom        81          82          83          84          85          86          87
 IAtWgt=           1           1           1           1           1           1           1
 AtmWgt=   1.0078250   1.0078250   1.0078250   1.0078250   1.0078250   1.0078250   1.0078250
 NucSpn=           1           1           1           1           1           1           1
 AtZEff=  -0.0000000  -0.0000000  -0.0000000  -0.0000000  -0.0000000  -0.0000000  -0.0000000
 NQMom=    0.0000000   0.0000000   0.0000000   0.0000000   0.0000000   0.0000000   0.0000000
 NMagM=    2.7928460   2.7928460   2.7928460   2.7928460   2.7928460   2.7928460   2.7928460
 AtZNuc=   1.0000000   1.0000000   1.0000000   1.0000000   1.0000000   1.0000000   1.0000000
 Leave Link  101 at Fri Jul 24 12:11:57 2020, MaxMem=  4026531840 cpu:               3.6 elap:               0.5
 (Enter /opt/ohpc/pub/libs/gaussian/g16-A.03/sandybridge/g16/l103.exe)

 GradGradGradGradGradGradGradGradGradGradGradGradGradGradGradGradGradGrad
 Berny optimization.
 Initialization pass.
                           ----------------------------
                           !    Initial Parameters    !
                           ! (Angstroms and Degrees)  !
 --------------------------                            --------------------------
 ! Name  Definition              Value          Derivative Info.                !
 --------------------------------------------------------------------------------
 ! R1    R(1,2)                  1.4655         estimate D2E/DX2                !
 ! R2    R(1,6)                  1.3332         estimate D2E/DX2                !
 ! R3    R(1,56)                 1.0496         estimate D2E/DX2                !
 ! R4    R(2,3)                  1.404          estimate D2E/DX2                !
 ! R5    R(2,57)                 1.0848         estimate D2E/DX2                !
 ! R6    R(3,4)                  1.4489         estimate D2E/DX2                !
 ! R7    R(3,58)                 1.0675         estimate D2E/DX2                !
 ! R8    R(4,5)                  1.3577         estimate D2E/DX2                !
 ! R9    R(4,7)                  1.4411         estimate D2E/DX2                !
 ! R10   R(5,6)                  1.4079         estimate D2E/DX2                !
 ! R11   R(5,59)                 1.0831         estimate D2E/DX2                !
 ! R12   R(6,60)                 1.1259         estimate D2E/DX2                !
 ! R13   R(7,8)                  1.4513         estimate D2E/DX2                !
 ! R14   R(7,11)                 1.6934         estimate D2E/DX2                !
 ! R15   R(8,9)                  1.4198         estimate D2E/DX2                !
 ! R16   R(8,61)                 1.0552         estimate D2E/DX2                !
 ! R17   R(9,10)                 1.433          estimate D2E/DX2                !
 ! R18   R(9,62)                 1.0649         estimate D2E/DX2                !
 ! R19   R(10,11)                1.6415         estimate D2E/DX2                !
 ! R20   R(10,12)                1.4999         estimate D2E/DX2                !
 ! R21   R(12,13)                1.369          estimate D2E/DX2                !
 ! R22   R(12,17)                1.4604         estimate D2E/DX2                !
 ! R23   R(13,14)                1.3442         estimate D2E/DX2                !
 ! R24   R(13,63)                1.08           estimate D2E/DX2                !
 ! R25   R(14,15)                1.4922         estimate D2E/DX2                !
 ! R26   R(14,64)                1.0347         estimate D2E/DX2                !
 ! R27   R(15,16)                1.385          estimate D2E/DX2                !
 ! R28   R(15,18)                1.5005         estimate D2E/DX2                !
 ! R29   R(16,17)                1.4137         estimate D2E/DX2                !
 ! R30   R(16,65)                1.0277         estimate D2E/DX2                !
 ! R31   R(17,66)                1.1172         estimate D2E/DX2                !
 ! R32   R(18,19)                1.365          estimate D2E/DX2                !
 ! R33   R(18,22)                1.7384         estimate D2E/DX2                !
 ! R34   R(19,20)                1.3878         estimate D2E/DX2                !
 ! R35   R(19,67)                1.1111         estimate D2E/DX2                !
 ! R36   R(20,21)                1.4039         estimate D2E/DX2                !
 ! R37   R(20,68)                1.0525         estimate D2E/DX2                !
 ! R38   R(21,22)                1.697          estimate D2E/DX2                !
 ! R39   R(21,23)                1.512          estimate D2E/DX2                !
 ! R40   R(23,24)                1.3776         estimate D2E/DX2                !
 ! R41   R(23,28)                1.3588         estimate D2E/DX2                !
 ! R42   R(24,25)                1.4231         estimate D2E/DX2                !
 ! R43   R(24,69)                1.1666         estimate D2E/DX2                !
 ! R44   R(25,26)                1.4328         estimate D2E/DX2                !
 ! R45   R(25,70)                1.102          estimate D2E/DX2                !
 ! R46   R(26,27)                1.393          estimate D2E/DX2                !
 ! R47   R(26,29)                1.3786         estimate D2E/DX2                !
 ! R48   R(27,28)                1.4911         estimate D2E/DX2                !
 ! R49   R(27,71)                1.1155         estimate D2E/DX2                !
 ! R50   R(28,72)                1.1019         estimate D2E/DX2                !
 ! R51   R(29,30)                1.4318         estimate D2E/DX2                !
 ! R52   R(29,33)                1.7625         estimate D2E/DX2                !
 ! R53   R(30,31)                1.4085         estimate D2E/DX2                !
 ! R54   R(30,73)                1.1459         estimate D2E/DX2                !
 ! R55   R(31,32)                1.4487         estimate D2E/DX2                !
 ! R56   R(31,74)                1.0772         estimate D2E/DX2                !
 ! R57   R(32,33)                1.7191         estimate D2E/DX2                !
 ! R58   R(32,34)                1.4149         estimate D2E/DX2                !
 ! R59   R(34,35)                1.4455         estimate D2E/DX2                !
 ! R60   R(34,39)                1.4318         estimate D2E/DX2                !
 ! R61   R(35,36)                1.4694         estimate D2E/DX2                !
 ! R62   R(35,75)                1.0661         estimate D2E/DX2                !
 ! R63   R(36,37)                1.3627         estimate D2E/DX2                !
 ! R64   R(36,76)                1.03           estimate D2E/DX2                !
 ! R65   R(37,38)                1.3453         estimate D2E/DX2                !
 ! R66   R(37,40)                1.4423         estimate D2E/DX2                !
 ! R67   R(38,39)                1.4025         estimate D2E/DX2                !
 ! R68   R(38,77)                1.0745         estimate D2E/DX2                !
 ! R69   R(39,78)                1.0574         estimate D2E/DX2                !
 ! R70   R(40,41)                1.3783         estimate D2E/DX2                !
 ! R71   R(40,44)                1.7505         estimate D2E/DX2                !
 ! R72   R(41,42)                1.4472         estimate D2E/DX2                !
 ! R73   R(41,79)                1.0788         estimate D2E/DX2                !
 ! R74   R(42,43)                1.4144         estimate D2E/DX2                !
 ! R75   R(42,80)                1.0476         estimate D2E/DX2                !
 ! R76   R(43,44)                1.6283         estimate D2E/DX2                !
 ! R77   R(43,45)                1.4973         estimate D2E/DX2                !
 ! R78   R(45,46)                1.4352         estimate D2E/DX2                !
 ! R79   R(45,50)                1.4539         estimate D2E/DX2                !
 ! R80   R(46,47)                1.3441         estimate D2E/DX2                !
 ! R81   R(46,81)                1.0418         estimate D2E/DX2                !
 ! R82   R(47,48)                1.4649         estimate D2E/DX2                !
 ! R83   R(47,82)                1.1495         estimate D2E/DX2                !
 ! R84   R(48,49)                1.3657         estimate D2E/DX2                !
 ! R85   R(48,51)                1.4896         estimate D2E/DX2                !
 ! R86   R(49,50)                1.3919         estimate D2E/DX2                !
 ! R87   R(49,83)                1.0636         estimate D2E/DX2                !
 ! R88   R(50,84)                1.0724         estimate D2E/DX2                !
 ! R89   R(51,52)                1.3324         estimate D2E/DX2                !
 ! R90   R(51,55)                1.6863         estimate D2E/DX2                !
 ! R91   R(52,53)                1.4013         estimate D2E/DX2                !
 ! R92   R(52,85)                1.1771         estimate D2E/DX2                !
 ! R93   R(53,54)                1.3886         estimate D2E/DX2                !
 ! R94   R(53,86)                1.072          estimate D2E/DX2                !
 ! R95   R(54,55)                1.6166         estimate D2E/DX2                !
 ! R96   R(54,87)                1.0878         estimate D2E/DX2                !
 ! A1    A(2,1,6)              117.6609         estimate D2E/DX2                !
 ! A2    A(2,1,56)             120.3975         estimate D2E/DX2                !
 ! A3    A(6,1,56)             121.9383         estimate D2E/DX2                !
 ! A4    A(1,2,3)              119.4036         estimate D2E/DX2                !
 ! A5    A(1,2,57)             116.8119         estimate D2E/DX2                !
 ! A6    A(3,2,57)             123.064          estimate D2E/DX2                !
 ! A7    A(2,3,4)              120.792          estimate D2E/DX2                !
 ! A8    A(2,3,58)             115.7893         estimate D2E/DX2                !
 ! A9    A(4,3,58)             122.7403         estimate D2E/DX2                !
 ! A10   A(3,4,5)              116.1681         estimate D2E/DX2                !
 ! A11   A(3,4,7)              118.1084         estimate D2E/DX2                !
 ! A12   A(5,4,7)              125.6924         estimate D2E/DX2                !
 ! A13   A(4,5,6)              123.4672         estimate D2E/DX2                !
 ! A14   A(4,5,59)             119.7715         estimate D2E/DX2                !
 ! A15   A(6,5,59)             116.6466         estimate D2E/DX2                !
 ! A16   A(1,6,5)              122.2527         estimate D2E/DX2                !
 ! A17   A(1,6,60)             118.5312         estimate D2E/DX2                !
 ! A18   A(5,6,60)             119.2027         estimate D2E/DX2                !
 ! A19   A(4,7,8)              124.5182         estimate D2E/DX2                !
 ! A20   A(4,7,11)             124.9405         estimate D2E/DX2                !
 ! A21   A(8,7,11)             110.262          estimate D2E/DX2                !
 ! A22   A(7,8,9)              110.3445         estimate D2E/DX2                !
 ! A23   A(7,8,61)             125.0165         estimate D2E/DX2                !
 ! A24   A(9,8,61)             124.0126         estimate D2E/DX2                !
 ! A25   A(8,9,10)             112.0205         estimate D2E/DX2                !
 ! A26   A(8,9,62)             125.4963         estimate D2E/DX2                !
 ! A27   A(10,9,62)            122.3543         estimate D2E/DX2                !
 ! A28   A(9,10,11)            111.7455         estimate D2E/DX2                !
 ! A29   A(9,10,12)            124.8            estimate D2E/DX2                !
 ! A30   A(11,10,12)           123.4279         estimate D2E/DX2                !
 ! A31   A(7,11,10)             95.3363         estimate D2E/DX2                !
 ! A32   A(10,12,13)           125.1592         estimate D2E/DX2                !
 ! A33   A(10,12,17)           116.5883         estimate D2E/DX2                !
 ! A34   A(13,12,17)           118.1322         estimate D2E/DX2                !
 ! A35   A(12,13,14)           124.5059         estimate D2E/DX2                !
 ! A36   A(12,13,63)           115.5298         estimate D2E/DX2                !
 ! A37   A(14,13,63)           119.6394         estimate D2E/DX2                !
 ! A38   A(13,14,15)           117.6418         estimate D2E/DX2                !
 ! A39   A(13,14,64)           125.1667         estimate D2E/DX2                !
 ! A40   A(15,14,64)           117.0924         estimate D2E/DX2                !
 ! A41   A(14,15,16)           119.9082         estimate D2E/DX2                !
 ! A42   A(14,15,18)           119.7546         estimate D2E/DX2                !
 ! A43   A(16,15,18)           120.0562         estimate D2E/DX2                !
 ! A44   A(15,16,17)           119.6104         estimate D2E/DX2                !
 ! A45   A(15,16,65)           119.8962         estimate D2E/DX2                !
 ! A46   A(17,16,65)           120.133          estimate D2E/DX2                !
 ! A47   A(12,17,16)           119.5662         estimate D2E/DX2                !
 ! A48   A(12,17,66)           121.1967         estimate D2E/DX2                !
 ! A49   A(16,17,66)           119.0406         estimate D2E/DX2                !
 ! A50   A(15,18,19)           129.4053         estimate D2E/DX2                !
 ! A51   A(15,18,22)           117.808          estimate D2E/DX2                !
 ! A52   A(19,18,22)           112.5761         estimate D2E/DX2                !
 ! A53   A(18,19,20)           113.5105         estimate D2E/DX2                !
 ! A54   A(18,19,67)           117.7952         estimate D2E/DX2                !
 ! A55   A(20,19,67)           128.3424         estimate D2E/DX2                !
 ! A56   A(19,20,21)           109.965          estimate D2E/DX2                !
 ! A57   A(19,20,68)           126.8813         estimate D2E/DX2                !
 ! A58   A(21,20,68)           122.81           estimate D2E/DX2                !
 ! A59   A(20,21,22)           114.3535         estimate D2E/DX2                !
 ! A60   A(20,21,23)           123.9382         estimate D2E/DX2                !
 ! A61   A(22,21,23)           121.695          estimate D2E/DX2                !
 ! A62   A(18,22,21)            89.342          estimate D2E/DX2                !
 ! A63   A(21,23,24)           120.8081         estimate D2E/DX2                !
 ! A64   A(21,23,28)           120.2618         estimate D2E/DX2                !
 ! A65   A(24,23,28)           118.4962         estimate D2E/DX2                !
 ! A66   A(23,24,25)           124.0286         estimate D2E/DX2                !
 ! A67   A(23,24,69)           119.5981         estimate D2E/DX2                !
 ! A68   A(25,24,69)           116.0282         estimate D2E/DX2                !
 ! A69   A(24,25,26)           118.6067         estimate D2E/DX2                !
 ! A70   A(24,25,70)           119.6345         estimate D2E/DX2                !
 ! A71   A(26,25,70)           121.5314         estimate D2E/DX2                !
 ! A72   A(25,26,27)           117.5673         estimate D2E/DX2                !
 ! A73   A(25,26,29)           120.3868         estimate D2E/DX2                !
 ! A74   A(27,26,29)           122.0428         estimate D2E/DX2                !
 ! A75   A(26,27,28)           121.1197         estimate D2E/DX2                !
 ! A76   A(26,27,71)           122.1652         estimate D2E/DX2                !
 ! A77   A(28,27,71)           116.4373         estimate D2E/DX2                !
 ! A78   A(23,28,27)           119.7861         estimate D2E/DX2                !
 ! A79   A(23,28,72)           124.8941         estimate D2E/DX2                !
 ! A80   A(27,28,72)           115.1244         estimate D2E/DX2                !
 ! A81   A(26,29,30)           129.5727         estimate D2E/DX2                !
 ! A82   A(26,29,33)           123.335          estimate D2E/DX2                !
 ! A83   A(30,29,33)           107.0518         estimate D2E/DX2                !
 ! A84   A(29,30,31)           117.0717         estimate D2E/DX2                !
 ! A85   A(29,30,73)           117.2988         estimate D2E/DX2                !
 ! A86   A(31,30,73)           125.583          estimate D2E/DX2                !
 ! A87   A(30,31,32)           109.7478         estimate D2E/DX2                !
 ! A88   A(30,31,74)           124.1249         estimate D2E/DX2                !
 ! A89   A(32,31,74)           126.0821         estimate D2E/DX2                !
 ! A90   A(31,32,33)           111.7288         estimate D2E/DX2                !
 ! A91   A(31,32,34)           126.7233         estimate D2E/DX2                !
 ! A92   A(33,32,34)           121.5479         estimate D2E/DX2                !
 ! A93   A(29,33,32)            94.2938         estimate D2E/DX2                !
 ! A94   A(32,34,35)           119.8836         estimate D2E/DX2                !
 ! A95   A(32,34,39)           122.1124         estimate D2E/DX2                !
 ! A96   A(35,34,39)           117.6473         estimate D2E/DX2                !
 ! A97   A(34,35,36)           118.4664         estimate D2E/DX2                !
 ! A98   A(34,35,75)           119.0622         estimate D2E/DX2                !
 ! A99   A(36,35,75)           122.2009         estimate D2E/DX2                !
 ! A100  A(35,36,37)           120.4072         estimate D2E/DX2                !
 ! A101  A(35,36,76)           113.5161         estimate D2E/DX2                !
 ! A102  A(37,36,76)           126.0715         estimate D2E/DX2                !
 ! A103  A(36,37,38)           120.458          estimate D2E/DX2                !
 ! A104  A(36,37,40)           119.5468         estimate D2E/DX2                !
 ! A105  A(38,37,40)           119.9467         estimate D2E/DX2                !
 ! A106  A(37,38,39)           123.3806         estimate D2E/DX2                !
 ! A107  A(37,38,77)           122.6794         estimate D2E/DX2                !
 ! A108  A(39,38,77)           113.8888         estimate D2E/DX2                !
 ! A109  A(34,39,38)           119.2513         estimate D2E/DX2                !
 ! A110  A(34,39,78)           117.265          estimate D2E/DX2                !
 ! A111  A(38,39,78)           122.5733         estimate D2E/DX2                !
 ! A112  A(37,40,41)           127.4066         estimate D2E/DX2                !
 ! A113  A(37,40,44)           124.1681         estimate D2E/DX2                !
 ! A114  A(41,40,44)           108.3976         estimate D2E/DX2                !
 ! A115  A(40,41,42)           113.8592         estimate D2E/DX2                !
 ! A116  A(40,41,79)           128.0383         estimate D2E/DX2                !
 ! A117  A(42,41,79)           117.8891         estimate D2E/DX2                !
 ! A118  A(41,42,43)           109.84           estimate D2E/DX2                !
 ! A119  A(41,42,80)           129.7796         estimate D2E/DX2                !
 ! A120  A(43,42,80)           120.3007         estimate D2E/DX2                !
 ! A121  A(42,43,44)           113.054          estimate D2E/DX2                !
 ! A122  A(42,43,45)           125.5182         estimate D2E/DX2                !
 ! A123  A(44,43,45)           121.422          estimate D2E/DX2                !
 ! A124  A(40,44,43)            94.6999         estimate D2E/DX2                !
 ! A125  A(43,45,46)           121.9197         estimate D2E/DX2                !
 ! A126  A(43,45,50)           121.2198         estimate D2E/DX2                !
 ! A127  A(46,45,50)           116.8234         estimate D2E/DX2                !
 ! A128  A(45,46,47)           118.8054         estimate D2E/DX2                !
 ! A129  A(45,46,81)           118.9516         estimate D2E/DX2                !
 ! A130  A(47,46,81)           121.6434         estimate D2E/DX2                !
 ! A131  A(46,47,48)           124.1638         estimate D2E/DX2                !
 ! A132  A(46,47,82)           119.6271         estimate D2E/DX2                !
 ! A133  A(48,47,82)           116.2014         estimate D2E/DX2                !
 ! A134  A(47,48,49)           117.4142         estimate D2E/DX2                !
 ! A135  A(47,48,51)           119.4898         estimate D2E/DX2                !
 ! A136  A(49,48,51)           122.9278         estimate D2E/DX2                !
 ! A137  A(48,49,50)           120.2296         estimate D2E/DX2                !
 ! A138  A(48,49,83)           123.0428         estimate D2E/DX2                !
 ! A139  A(50,49,83)           116.6917         estimate D2E/DX2                !
 ! A140  A(45,50,49)           122.4274         estimate D2E/DX2                !
 ! A141  A(45,50,84)           116.2765         estimate D2E/DX2                !
 ! A142  A(49,50,84)           121.2958         estimate D2E/DX2                !
 ! A143  A(48,51,52)           126.6625         estimate D2E/DX2                !
 ! A144  A(48,51,55)           123.2924         estimate D2E/DX2                !
 ! A145  A(52,51,55)           109.4555         estimate D2E/DX2                !
 ! A146  A(51,52,53)           114.5003         estimate D2E/DX2                !
 ! A147  A(51,52,85)           124.156          estimate D2E/DX2                !
 ! A148  A(53,52,85)           121.3426         estimate D2E/DX2                !
 ! A149  A(52,53,54)           109.507          estimate D2E/DX2                !
 ! A150  A(52,53,86)           127.7336         estimate D2E/DX2                !
 ! A151  A(54,53,86)           122.1573         estimate D2E/DX2                !
 ! A152  A(53,54,55)           112.0618         estimate D2E/DX2                !
 ! A153  A(53,54,87)           122.5701         estimate D2E/DX2                !
 ! A154  A(55,54,87)           125.2773         estimate D2E/DX2                !
 ! A155  A(51,55,54)            94.191          estimate D2E/DX2                !
 ! D1    D(6,1,2,3)             -4.9238         estimate D2E/DX2                !
 ! D2    D(6,1,2,57)          -175.499          estimate D2E/DX2                !
 ! D3    D(56,1,2,3)           175.7312         estimate D2E/DX2                !
 ! D4    D(56,1,2,57)            5.1561         estimate D2E/DX2                !
 ! D5    D(2,1,6,5)              0.9667         estimate D2E/DX2                !
 ! D6    D(2,1,6,60)          -177.6889         estimate D2E/DX2                !
 ! D7    D(56,1,6,5)          -179.6991         estimate D2E/DX2                !
 ! D8    D(56,1,6,60)            1.6453         estimate D2E/DX2                !
 ! D9    D(1,2,3,4)              5.8906         estimate D2E/DX2                !
 ! D10   D(1,2,3,58)           176.7041         estimate D2E/DX2                !
 ! D11   D(57,2,3,4)           175.8475         estimate D2E/DX2                !
 ! D12   D(57,2,3,58)          -13.339          estimate D2E/DX2                !
 ! D13   D(2,3,4,5)             -2.77           estimate D2E/DX2                !
 ! D14   D(2,3,4,7)            175.3158         estimate D2E/DX2                !
 ! D15   D(58,3,4,5)          -172.93           estimate D2E/DX2                !
 ! D16   D(58,3,4,7)             5.1557         estimate D2E/DX2                !
 ! D17   D(3,4,5,6)             -1.3309         estimate D2E/DX2                !
 ! D18   D(3,4,5,59)          -177.3047         estimate D2E/DX2                !
 ! D19   D(7,4,5,6)           -179.2518         estimate D2E/DX2                !
 ! D20   D(7,4,5,59)             4.7743         estimate D2E/DX2                !
 ! D21   D(3,4,7,8)            140.6416         estimate D2E/DX2                !
 ! D22   D(3,4,7,11)           -46.026          estimate D2E/DX2                !
 ! D23   D(5,4,7,8)            -41.4738         estimate D2E/DX2                !
 ! D24   D(5,4,7,11)           131.8585         estimate D2E/DX2                !
 ! D25   D(4,5,6,1)              2.2468         estimate D2E/DX2                !
 ! D26   D(4,5,6,60)          -179.1063         estimate D2E/DX2                !
 ! D27   D(59,5,6,1)           178.3369         estimate D2E/DX2                !
 ! D28   D(59,5,6,60)           -3.0162         estimate D2E/DX2                !
 ! D29   D(4,7,8,9)            179.311          estimate D2E/DX2                !
 ! D30   D(4,7,8,61)            -9.4835         estimate D2E/DX2                !
 ! D31   D(11,7,8,9)             5.1341         estimate D2E/DX2                !
 ! D32   D(11,7,8,61)          176.3397         estimate D2E/DX2                !
 ! D33   D(4,7,11,10)         -176.6785         estimate D2E/DX2                !
 ! D34   D(8,7,11,10)           -2.5316         estimate D2E/DX2                !
 ! D35   D(7,8,9,10)            -5.775          estimate D2E/DX2                !
 ! D36   D(7,8,9,62)           178.2892         estimate D2E/DX2                !
 ! D37   D(61,8,9,10)         -177.0867         estimate D2E/DX2                !
 ! D38   D(61,8,9,62)            6.9775         estimate D2E/DX2                !
 ! D39   D(8,9,10,11)            3.9928         estimate D2E/DX2                !
 ! D40   D(8,9,10,12)         -174.1796         estimate D2E/DX2                !
 ! D41   D(62,9,10,11)        -179.9239         estimate D2E/DX2                !
 ! D42   D(62,9,10,12)           1.9037         estimate D2E/DX2                !
 ! D43   D(9,10,11,7)           -0.7807         estimate D2E/DX2                !
 ! D44   D(12,10,11,7)         177.4211         estimate D2E/DX2                !
 ! D45   D(9,10,12,13)          44.6176         estimate D2E/DX2                !
 ! D46   D(9,10,12,17)        -131.3058         estimate D2E/DX2                !
 ! D47   D(11,10,12,13)       -133.3483         estimate D2E/DX2                !
 ! D48   D(11,10,12,17)         50.7283         estimate D2E/DX2                !
 ! D49   D(10,12,13,14)        175.9362         estimate D2E/DX2                !
 ! D50   D(10,12,13,63)          2.531          estimate D2E/DX2                !
 ! D51   D(17,12,13,14)         -8.1977         estimate D2E/DX2                !
 ! D52   D(17,12,13,63)        178.397          estimate D2E/DX2                !
 ! D53   D(10,12,17,16)       -176.2374         estimate D2E/DX2                !
 ! D54   D(10,12,17,66)         -1.381          estimate D2E/DX2                !
 ! D55   D(13,12,17,16)          7.5415         estimate D2E/DX2                !
 ! D56   D(13,12,17,66)       -177.6021         estimate D2E/DX2                !
 ! D57   D(12,13,14,15)          6.7217         estimate D2E/DX2                !
 ! D58   D(12,13,14,64)       -177.0135         estimate D2E/DX2                !
 ! D59   D(63,13,14,15)        179.8739         estimate D2E/DX2                !
 ! D60   D(63,13,14,64)         -3.8614         estimate D2E/DX2                !
 ! D61   D(13,14,15,16)         -4.7015         estimate D2E/DX2                !
 ! D62   D(13,14,15,18)       -178.6178         estimate D2E/DX2                !
 ! D63   D(64,14,15,16)        178.7279         estimate D2E/DX2                !
 ! D64   D(64,14,15,18)          4.8117         estimate D2E/DX2                !
 ! D65   D(14,15,16,17)          4.5647         estimate D2E/DX2                !
 ! D66   D(14,15,16,65)        177.6831         estimate D2E/DX2                !
 ! D67   D(18,15,16,17)        178.4624         estimate D2E/DX2                !
 ! D68   D(18,15,16,65)         -8.4192         estimate D2E/DX2                !
 ! D69   D(14,15,18,19)        131.1815         estimate D2E/DX2                !
 ! D70   D(14,15,18,22)        -54.53           estimate D2E/DX2                !
 ! D71   D(16,15,18,19)        -42.7256         estimate D2E/DX2                !
 ! D72   D(16,15,18,22)        131.5629         estimate D2E/DX2                !
 ! D73   D(15,16,17,12)         -6.0036         estimate D2E/DX2                !
 ! D74   D(15,16,17,66)        179.0287         estimate D2E/DX2                !
 ! D75   D(65,16,17,12)       -179.1054         estimate D2E/DX2                !
 ! D76   D(65,16,17,66)          5.9268         estimate D2E/DX2                !
 ! D77   D(15,18,19,20)        179.8571         estimate D2E/DX2                !
 ! D78   D(15,18,19,67)         -6.3819         estimate D2E/DX2                !
 ! D79   D(22,18,19,20)          5.3276         estimate D2E/DX2                !
 ! D80   D(22,18,19,67)        179.0886         estimate D2E/DX2                !
 ! D81   D(15,18,22,21)       -178.205          estimate D2E/DX2                !
 ! D82   D(19,18,22,21)         -2.982          estimate D2E/DX2                !
 ! D83   D(18,19,20,21)         -5.2127         estimate D2E/DX2                !
 ! D84   D(18,19,20,68)       -178.5805         estimate D2E/DX2                !
 ! D85   D(67,19,20,21)       -178.172          estimate D2E/DX2                !
 ! D86   D(67,19,20,68)          8.4602         estimate D2E/DX2                !
 ! D87   D(19,20,21,22)          2.9224         estimate D2E/DX2                !
 ! D88   D(19,20,21,23)       -178.3868         estimate D2E/DX2                !
 ! D89   D(68,20,21,22)        176.6118         estimate D2E/DX2                !
 ! D90   D(68,20,21,23)         -4.6974         estimate D2E/DX2                !
 ! D91   D(20,21,22,18)         -0.0238         estimate D2E/DX2                !
 ! D92   D(23,21,22,18)       -178.7472         estimate D2E/DX2                !
 ! D93   D(20,21,23,24)         47.6655         estimate D2E/DX2                !
 ! D94   D(20,21,23,28)       -140.0068         estimate D2E/DX2                !
 ! D95   D(22,21,23,24)       -133.7363         estimate D2E/DX2                !
 ! D96   D(22,21,23,28)         38.5914         estimate D2E/DX2                !
 ! D97   D(21,23,24,25)       -179.8709         estimate D2E/DX2                !
 ! D98   D(21,23,24,69)         -6.8934         estimate D2E/DX2                !
 ! D99   D(28,23,24,25)          7.6686         estimate D2E/DX2                !
 ! D100  D(28,23,24,69)       -179.3539         estimate D2E/DX2                !
 ! D101  D(21,23,28,27)       -176.3669         estimate D2E/DX2                !
 ! D102  D(21,23,28,72)          8.9695         estimate D2E/DX2                !
 ! D103  D(24,23,28,27)         -3.8638         estimate D2E/DX2                !
 ! D104  D(24,23,28,72)       -178.5275         estimate D2E/DX2                !
 ! D105  D(23,24,25,26)         -7.0273         estimate D2E/DX2                !
 ! D106  D(23,24,25,70)        178.3654         estimate D2E/DX2                !
 ! D107  D(69,24,25,26)        179.7669         estimate D2E/DX2                !
 ! D108  D(69,24,25,70)          5.1596         estimate D2E/DX2                !
 ! D109  D(24,25,26,27)          2.4967         estimate D2E/DX2                !
 ! D110  D(24,25,26,29)       -176.8811         estimate D2E/DX2                !
 ! D111  D(70,25,26,27)        176.9971         estimate D2E/DX2                !
 ! D112  D(70,25,26,29)         -2.3807         estimate D2E/DX2                !
 ! D113  D(25,26,27,28)          0.8534         estimate D2E/DX2                !
 ! D114  D(25,26,27,71)        174.5827         estimate D2E/DX2                !
 ! D115  D(29,26,27,28)       -179.7798         estimate D2E/DX2                !
 ! D116  D(29,26,27,71)         -6.0505         estimate D2E/DX2                !
 ! D117  D(25,26,29,30)        134.809          estimate D2E/DX2                !
 ! D118  D(25,26,29,33)        -47.8138         estimate D2E/DX2                !
 ! D119  D(27,26,29,30)        -44.5403         estimate D2E/DX2                !
 ! D120  D(27,26,29,33)        132.8369         estimate D2E/DX2                !
 ! D121  D(26,27,28,23)         -0.228          estimate D2E/DX2                !
 ! D122  D(26,27,28,72)        174.9389         estimate D2E/DX2                !
 ! D123  D(71,27,28,23)       -174.3011         estimate D2E/DX2                !
 ! D124  D(71,27,28,72)          0.8658         estimate D2E/DX2                !
 ! D125  D(26,29,30,31)       -179.2047         estimate D2E/DX2                !
 ! D126  D(26,29,30,73)         -1.5452         estimate D2E/DX2                !
 ! D127  D(33,29,30,31)          3.0871         estimate D2E/DX2                !
 ! D128  D(33,29,30,73)       -179.2534         estimate D2E/DX2                !
 ! D129  D(26,29,33,32)       -179.1378         estimate D2E/DX2                !
 ! D130  D(30,29,33,32)         -1.2521         estimate D2E/DX2                !
 ! D131  D(29,30,31,32)         -3.6597         estimate D2E/DX2                !
 ! D132  D(29,30,31,74)        178.6559         estimate D2E/DX2                !
 ! D133  D(73,30,31,32)        178.8978         estimate D2E/DX2                !
 ! D134  D(73,30,31,74)          1.2134         estimate D2E/DX2                !
 ! D135  D(30,31,32,33)          2.4789         estimate D2E/DX2                !
 ! D136  D(30,31,32,34)       -177.4885         estimate D2E/DX2                !
 ! D137  D(74,31,32,33)       -179.893          estimate D2E/DX2                !
 ! D138  D(74,31,32,34)          0.1395         estimate D2E/DX2                !
 ! D139  D(31,32,33,29)         -0.6897         estimate D2E/DX2                !
 ! D140  D(34,32,33,29)        179.2797         estimate D2E/DX2                !
 ! D141  D(31,32,34,35)       -138.9804         estimate D2E/DX2                !
 ! D142  D(31,32,34,39)         33.9991         estimate D2E/DX2                !
 ! D143  D(33,32,34,35)         41.055          estimate D2E/DX2                !
 ! D144  D(33,32,34,39)       -145.9655         estimate D2E/DX2                !
 ! D145  D(32,34,35,36)        175.1058         estimate D2E/DX2                !
 ! D146  D(32,34,35,75)          0.9468         estimate D2E/DX2                !
 ! D147  D(39,34,35,36)          1.8173         estimate D2E/DX2                !
 ! D148  D(39,34,35,75)       -172.3418         estimate D2E/DX2                !
 ! D149  D(32,34,39,38)       -178.4537         estimate D2E/DX2                !
 ! D150  D(32,34,39,78)         12.181          estimate D2E/DX2                !
 ! D151  D(35,34,39,38)         -5.3247         estimate D2E/DX2                !
 ! D152  D(35,34,39,78)       -174.6899         estimate D2E/DX2                !
 ! D153  D(34,35,36,37)         -0.2783         estimate D2E/DX2                !
 ! D154  D(34,35,36,76)        178.9467         estimate D2E/DX2                !
 ! D155  D(75,35,36,37)        173.6874         estimate D2E/DX2                !
 ! D156  D(75,35,36,76)         -7.0876         estimate D2E/DX2                !
 ! D157  D(35,36,37,38)          2.348          estimate D2E/DX2                !
 ! D158  D(35,36,37,40)        179.8142         estimate D2E/DX2                !
 ! D159  D(76,36,37,38)       -176.7728         estimate D2E/DX2                !
 ! D160  D(76,36,37,40)          0.6934         estimate D2E/DX2                !
 ! D161  D(36,37,38,39)         -6.2414         estimate D2E/DX2                !
 ! D162  D(36,37,38,77)        176.5223         estimate D2E/DX2                !
 ! D163  D(40,37,38,39)        176.3026         estimate D2E/DX2                !
 ! D164  D(40,37,38,77)         -0.9338         estimate D2E/DX2                !
 ! D165  D(36,37,40,41)        139.4857         estimate D2E/DX2                !
 ! D166  D(36,37,40,44)        -42.6542         estimate D2E/DX2                !
 ! D167  D(38,37,40,41)        -43.035          estimate D2E/DX2                !
 ! D168  D(38,37,40,44)        134.8251         estimate D2E/DX2                !
 ! D169  D(37,38,39,34)          7.795          estimate D2E/DX2                !
 ! D170  D(37,38,39,78)        176.5699         estimate D2E/DX2                !
 ! D171  D(77,38,39,34)       -174.749          estimate D2E/DX2                !
 ! D172  D(77,38,39,78)         -5.9741         estimate D2E/DX2                !
 ! D173  D(37,40,41,42)       -177.7833         estimate D2E/DX2                !
 ! D174  D(37,40,41,79)         -3.2602         estimate D2E/DX2                !
 ! D175  D(44,40,41,42)          4.0826         estimate D2E/DX2                !
 ! D176  D(44,40,41,79)        178.6056         estimate D2E/DX2                !
 ! D177  D(37,40,44,43)        178.3598         estimate D2E/DX2                !
 ! D178  D(41,40,44,43)         -3.4315         estimate D2E/DX2                !
 ! D179  D(40,41,42,43)         -2.8771         estimate D2E/DX2                !
 ! D180  D(40,41,42,80)       -179.5731         estimate D2E/DX2                !
 ! D181  D(79,41,42,43)       -177.9981         estimate D2E/DX2                !
 ! D182  D(79,41,42,80)          5.3059         estimate D2E/DX2                !
 ! D183  D(41,42,43,44)          0.159          estimate D2E/DX2                !
 ! D184  D(41,42,43,45)        179.2912         estimate D2E/DX2                !
 ! D185  D(80,42,43,44)        177.2184         estimate D2E/DX2                !
 ! D186  D(80,42,43,45)         -3.6494         estimate D2E/DX2                !
 ! D187  D(42,43,44,40)          1.8673         estimate D2E/DX2                !
 ! D188  D(45,43,44,40)       -177.305          estimate D2E/DX2                !
 ! D189  D(42,43,45,46)       -136.8134         estimate D2E/DX2                !
 ! D190  D(42,43,45,50)         45.4723         estimate D2E/DX2                !
 ! D191  D(44,43,45,46)         42.2508         estimate D2E/DX2                !
 ! D192  D(44,43,45,50)       -135.4634         estimate D2E/DX2                !
 ! D193  D(43,45,46,47)        178.1999         estimate D2E/DX2                !
 ! D194  D(43,45,46,81)          6.9282         estimate D2E/DX2                !
 ! D195  D(50,45,46,47)         -3.9904         estimate D2E/DX2                !
 ! D196  D(50,45,46,81)       -175.2621         estimate D2E/DX2                !
 ! D197  D(43,45,50,49)       -179.0223         estimate D2E/DX2                !
 ! D198  D(43,45,50,84)          1.1699         estimate D2E/DX2                !
 ! D199  D(46,45,50,49)          3.1516         estimate D2E/DX2                !
 ! D200  D(46,45,50,84)       -176.6561         estimate D2E/DX2                !
 ! D201  D(45,46,47,48)          3.7747         estimate D2E/DX2                !
 ! D202  D(45,46,47,82)       -175.1758         estimate D2E/DX2                !
 ! D203  D(81,46,47,48)        174.8014         estimate D2E/DX2                !
 ! D204  D(81,46,47,82)         -4.1491         estimate D2E/DX2                !
 ! D205  D(46,47,48,49)         -2.3587         estimate D2E/DX2                !
 ! D206  D(46,47,48,51)       -177.7851         estimate D2E/DX2                !
 ! D207  D(82,47,48,49)        176.6245         estimate D2E/DX2                !
 ! D208  D(82,47,48,51)          1.1981         estimate D2E/DX2                !
 ! D209  D(47,48,49,50)          1.2723         estimate D2E/DX2                !
 ! D210  D(47,48,49,83)        179.0212         estimate D2E/DX2                !
 ! D211  D(51,48,49,50)        176.529          estimate D2E/DX2                !
 ! D212  D(51,48,49,83)         -5.7222         estimate D2E/DX2                !
 ! D213  D(47,48,51,52)        142.0503         estimate D2E/DX2                !
 ! D214  D(47,48,51,55)        -47.6996         estimate D2E/DX2                !
 ! D215  D(49,48,51,52)        -33.1121         estimate D2E/DX2                !
 ! D216  D(49,48,51,55)        137.138          estimate D2E/DX2                !
 ! D217  D(48,49,50,45)         -1.8576         estimate D2E/DX2                !
 ! D218  D(48,49,50,84)        177.9406         estimate D2E/DX2                !
 ! D219  D(83,49,50,45)       -179.7455         estimate D2E/DX2                !
 ! D220  D(83,49,50,84)          0.0527         estimate D2E/DX2                !
 ! D221  D(48,51,52,53)        173.3066         estimate D2E/DX2                !
 ! D222  D(48,51,52,85)         -6.3272         estimate D2E/DX2                !
 ! D223  D(55,51,52,53)          1.9409         estimate D2E/DX2                !
 ! D224  D(55,51,52,85)       -177.6929         estimate D2E/DX2                !
 ! D225  D(48,51,55,54)       -175.8212         estimate D2E/DX2                !
 ! D226  D(52,51,55,54)         -4.1047         estimate D2E/DX2                !
 ! D227  D(51,52,53,54)          1.7324         estimate D2E/DX2                !
 ! D228  D(51,52,53,86)        172.8858         estimate D2E/DX2                !
 ! D229  D(85,52,53,54)       -178.6223         estimate D2E/DX2                !
 ! D230  D(85,52,53,86)         -7.469          estimate D2E/DX2                !
 ! D231  D(52,53,54,55)         -4.8187         estimate D2E/DX2                !
 ! D232  D(52,53,54,87)        178.4789         estimate D2E/DX2                !
 ! D233  D(86,53,54,55)       -176.5586         estimate D2E/DX2                !
 ! D234  D(86,53,54,87)          6.739          estimate D2E/DX2                !
 ! D235  D(53,54,55,51)          5.1916         estimate D2E/DX2                !
 ! D236  D(87,54,55,51)       -178.2127         estimate D2E/DX2                !
 --------------------------------------------------------------------------------
 Trust Radius=3.00D-01 FncErr=1.00D-07 GrdErr=1.00D-06 EigMax=2.50D+02 EigMin=1.00D-04
 Number of steps in this run=    497 maximum allowed number of steps=    522.
 GradGradGradGradGradGradGradGradGradGradGradGradGradGradGradGradGradGrad

 Leave Link  103 at Fri Jul 24 12:11:58 2020, MaxMem=  4026531840 cpu:               0.2 elap:               0.2
 (Enter /opt/ohpc/pub/libs/gaussian/g16-A.03/sandybridge/g16/l202.exe)
 Stoichiometry    C50H32S5
 Framework group  C1[X(C50H32S5)]
 Deg. of freedom   255
 Full point group                 C1      NOp   1
 Largest Abelian subgroup         C1      NOp   1
 Largest concise Abelian subgroup C1      NOp   1
                         Standard orientation:                         
 ---------------------------------------------------------------------
 Center     Atomic      Atomic             Coordinates (Angstroms)
 Number     Number       Type             X           Y           Z
 ---------------------------------------------------------------------
      1          6           0       19.119043    2.225174    0.263017
      2          6           0       18.090614    2.750216   -0.639459
      3          6           0       16.858224    2.085269   -0.741323
      4          6           0       16.545447    0.966174    0.124242
      5          6           0       17.526461    0.577526    0.978516
      6          6           0       18.796327    1.183289    1.029718
      7          6           0       15.226438    0.391701    0.041404
      8          6           0       14.942349   -1.029625    0.114901
      9          6           0       13.544751   -1.259375    0.016571
     10          6           0       12.798494   -0.036013    0.006955
     11         16           0       13.783390    1.277143    0.006488
     12          6           0       11.301579    0.053846    0.037573
     13          6           0       10.484511   -0.677421    0.857248
     14          6           0        9.150213   -0.531281    0.929405
     15          6           0        8.500403    0.387476   -0.050549
     16          6           0        9.279081    1.126630   -0.925425
     17          6           0       10.679195    0.932600   -0.948941
     18          6           0        7.017547    0.609830    0.007226
     19          6           0        6.315884    1.780633   -0.002693
     20          6           0        4.941049    1.602663    0.061126
     21          6           0        4.631436    0.234696    0.000162
     22         16           0        5.985051   -0.787540   -0.051547
     23          6           0        3.222205   -0.313063    0.009430
     24          6           0        2.253768    0.217029   -0.814471
     25          6           0        0.907809   -0.242886   -0.859830
     26          6           0        0.558861   -1.417555   -0.117394
     27          6           0        1.555150   -2.013038    0.652750
     28          6           0        2.928633   -1.436041    0.715949
     29          6           0       -0.718253   -1.932154   -0.186079
     30          6           0       -1.147670   -3.288324   -0.348448
     31          6           0       -2.536091   -3.519025   -0.401948
     32          6           0       -3.247545   -2.275486   -0.187201
     33         16           0       -2.169787   -0.947801   -0.011571
     34          6           0       -4.650390   -2.104269   -0.118881
     35          6           0       -5.268534   -0.963327   -0.755698
     36          6           0       -6.735169   -0.872791   -0.759643
     37          6           0       -7.488025   -1.849096   -0.179184
     38          6           0       -6.898196   -2.884163    0.445847
     39          6           0       -5.512775   -3.102452    0.437933
     40          6           0       -8.926100   -1.739457   -0.190253
     41          6           0       -9.841047   -2.747857   -0.403881
     42          6           0      -11.217167   -2.299978   -0.400894
     43          6           0      -11.271364   -0.917330   -0.107678
     44         16           0       -9.801604   -0.257642    0.129231
     45          6           0      -12.518740   -0.092716   -0.030533
     46          6           0      -12.599211    1.217614   -0.610387
     47          6           0      -13.761608    1.888441   -0.536122
     48          6           0      -14.947793    1.402804    0.173102
     49          6           0      -14.872320    0.168657    0.752999
     50          6           0      -13.693432   -0.568014    0.682173
     51          6           0      -16.199386    2.210032    0.147077
     52          6           0      -17.445118    1.744023    0.068583
     53          6           0      -18.440685    2.719938    0.210633
     54          6           0      -17.849165    3.966921    0.363660
     55         16           0      -16.238123    3.867887    0.453097
     56          1           0       20.068855    2.670086    0.301909
     57          1           0       18.389632    3.548458   -1.310392
     58          1           0       16.132138    2.547100   -1.373047
     59          1           0       17.371285   -0.280411    1.621074
     60          1           0       19.562230    0.792978    1.756836
     61          1           0       15.669178   -1.794270    0.093296
     62          1           0       13.073542   -2.214401    0.017068
     63          1           0       10.988361   -1.332867    1.552137
     64          1           0        8.528313   -1.047069    1.575756
     65          1           0        8.830377    1.732244   -1.623984
     66          1           0       11.296349    1.522100   -1.669839
     67          1           0        6.891158    2.729906    0.048119
     68          1           0        4.205327    2.355135    0.045843
     69          1           0        2.488974    1.174226   -1.438485
     70          1           0        0.184982    0.252408   -1.528042
     71          1           0        1.347283   -2.875750    1.328718
     72          1           0        3.613360   -1.934157    1.421084
     73          1           0       -0.334066   -4.086855   -0.464933
     74          1           0       -2.982499   -4.489305   -0.541910
     75          1           0       -4.655129   -0.270116   -1.284596
     76          1           0       -7.093209   -0.022487   -1.217570
     77          1           0       -7.455492   -3.644172    0.961884
     78          1           0       -5.057443   -3.889942    0.977093
     79          1           0       -9.647120   -3.780970   -0.646725
     80          1           0      -12.100607   -2.847750   -0.530773
     81          1           0      -11.805848    1.561566   -1.191350
     82          1           0      -13.867451    2.902479   -1.067126
     83          1           0      -15.673879   -0.264150    1.301978
     84          1           0      -13.604693   -1.524393    1.159077
     85          1           0      -17.717627    0.611255   -0.098851
     86          1           0      -19.498158    2.602221    0.079998
     87          1           0      -18.429091    4.881492    0.466843
 ---------------------------------------------------------------------
 Rotational constants (GHZ):           0.1777494           0.0049542           0.0048387
 Leave Link  202 at Fri Jul 24 12:11:58 2020, MaxMem=  4026531840 cpu:               0.1 elap:               0.0
 (Enter /opt/ohpc/pub/libs/gaussian/g16-A.03/sandybridge/g16/l301.exe)
 Standard basis: CC-pVDZ (5D, 7F)
 Ernie: Thresh=  0.10000D-02 Tol=  0.10000D-05 Strict=F.
 Ernie:  150 primitive shells out of 1510 were deleted.
 There are  1005 symmetry adapted cartesian basis functions of A   symmetry.
 There are   950 symmetry adapted basis functions of A   symmetry.
   950 basis functions,  2229 primitive gaussians,  1005 cartesian basis functions
   206 alpha electrons      206 beta electrons
       nuclear repulsion energy      6161.4806620906 Hartrees.
 IExCor=32609 DFT=T Ex+Corr=LC-wPBE ExCW=0 ScaHFX=  1.000000
 ScaDFX=  1.000000  0.000000  1.000000  1.000000 ScalE2=  1.000000  1.000000
 IRadAn=      5 IRanWt=     -1 IRanGd=            0 ICorTp=0 IEmpDi=  4
 HFx  wShort=  0.000000 wLong=  0.115300 cFull=  0.000000 cShort=  0.000000 cLong=  1.000000
 DFx  wShort=  0.000000 wLong=  0.115300 cFull=  0.000000 cShort=  0.000000 cLong=  1.000000
 NAtoms=   87 NActive=   87 NUniq=   87 SFac= 1.00D+00 NAtFMM=   60 NAOKFM=T Big=T
 Integral buffers will be    131072 words long.
 Raffenetti 2 integral format.
 Two-electron integral symmetry is turned on.
 Leave Link  301 at Fri Jul 24 12:11:58 2020, MaxMem=  4026531840 cpu:               0.7 elap:               0.1
 (Enter /opt/ohpc/pub/libs/gaussian/g16-A.03/sandybridge/g16/l302.exe)
 NPDir=0 NMtPBC=     1 NCelOv=     1 NCel=       1 NClECP=     1 NCelD=      1
         NCelK=      1 NCelE2=     1 NClLst=     1 CellRange=     0.0.
 One-electron integrals computed using PRISM.
 One-electron integral symmetry used in STVInt
 NBasis=   950 RedAO= T EigKep=  3.00D-04  NBF=   950
 NBsUse=   950 1.00D-06 EigRej= -1.00D+00 NBFU=   950
 Precomputing XC quadrature grid using
 IXCGrd= 4 IRadAn=           5 IRanWt=          -1 IRanGd=           0 AccXCQ= 0.00D+00.
 Generated NRdTot=       0 NPtTot=           0 NUsed=           0 NTot=          32
 NSgBfM=   603   603   603   603   603 MxSgAt=    87 MxSgA2=    82.
 Leave Link  302 at Fri Jul 24 12:12:03 2020, MaxMem=  4026531840 cpu:              38.2 elap:               4.8
 (Enter /opt/ohpc/pub/libs/gaussian/g16-A.03/sandybridge/g16/l303.exe)
 DipDrv:  MaxL=1.
 Leave Link  303 at Fri Jul 24 12:12:03 2020, MaxMem=  4026531840 cpu:               2.4 elap:               0.3
 (Enter /opt/ohpc/pub/libs/gaussian/g16-A.03/sandybridge/g16/l401.exe)
 ExpMin= 1.22D-01 ExpMax= 1.11D+05 ExpMxC= 1.07D+03 IAcc=3 IRadAn=         5 AccDes= 0.00D+00
 Harris functional with IExCor=32609 and IRadAn=       5 diagonalized for initial guess.
 HarFok:  IExCor=32609 AccDes= 0.00D+00 IRadAn=         5 IDoV= 1 UseB2=F ITyADJ=14
 ICtDFT=  3500011 ScaDFX=  1.000000  1.000000  1.000000  1.000000
 FoFCou: FMM=F IPFlag=           0 FMFlag=      100000 FMFlg1=        2001
         NFxFlg=           0 DoJE=T BraDBF=F KetDBF=T FulRan=T
         wScrn=  0.000000 ICntrl=       500 IOpCl=  0 I1Cent=   200000004 NGrid=           0
         NMat0=    1 NMatS0=      1 NMatT0=    0 NMatD0=    1 NMtDS0=    0 NMtDT0=    0
 Petite list used in FoFCou.
 Harris En= -3913.16839216004    
 JPrj=0 DoOrth=F DoCkMO=F.
 Initial guess <Sx>= 0.0000 <Sy>= 0.0000 <Sz>= 0.0000 <S**2>=-0.0000 S=-0.0000
 Leave Link  401 at Fri Jul 24 12:12:20 2020, MaxMem=  4026531840 cpu:             133.6 elap:              16.8
 (Enter /opt/ohpc/pub/libs/gaussian/g16-A.03/sandybridge/g16/l502.exe)
 Integral symmetry usage will be decided dynamically.
 UHF open shell SCF:
 Using DIIS extrapolation, IDIIS=  1040.
 NGot=  4026531840 LenX=  4024493639 LenY=  4023482609
 Requested convergence on RMS density matrix=1.00D-08 within 128 cycles.
 Requested convergence on MAX density matrix=1.00D-06.
 Requested convergence on             energy=1.00D-06.
 No special actions if energy rises.
 Fock matrices will be formed incrementally for  20 cycles.
 Integral accuracy reduced to 1.0D-05 until final iterations.

 Cycle   1  Pass 0  IDiag  1:
 FoFJK:  IHMeth= 1 ICntrl=       0 DoSepK=T KAlg= 0 I1Cent=           0 FoldK=F
 IRaf=         1 NMat=       1 IRICut=       1 DoRegI=T DoRafI=F ISym2E= 0 IDoP0=0 IntGTp=1.
 FoFCou: FMM=T IPFlag=           0 FMFlag=      100000 FMFlg1=        2001
         NFxFlg=           0 DoJE=T BraDBF=F KetDBF=F FulRan=T
         wScrn=  0.000000 ICntrl=       500 IOpCl=  0 I1Cent=           0 NGrid=           0
         NMat0=    1 NMatS0=      1 NMatT0=    0 NMatD0=    1 NMtDS0=    0 NMtDT0=    0
 Symmetry not used in FoFCou.
 FMM levels:  10  Number of levels for PrismC:   9
 E= -3911.53015576097    
 DIIS: error= 2.49D-02 at cycle   1 NSaved=   1.
 NSaved= 1 IEnMin= 1 EnMin= -3911.53015576097     IErMin= 1 ErrMin= 2.49D-02
 ErrMax= 2.49D-02  0.00D+00 EMaxC= 1.00D-01 BMatC= 4.27D+00 BMatP= 4.27D+00
 IDIUse=3 WtCom= 7.51D-01 WtEn= 2.49D-01
 Coeff-Com:  0.100D+01
 Coeff-En:   0.100D+01
 Coeff:      0.100D+01
 Gap=     0.156 Goal=   None    Shift=    0.000
 Gap=     0.156 Goal=   None    Shift=    0.000
 GapD=    0.156 DampG=1.000 DampE=0.500 DampFc=0.5000 IDamp=-1.
 Damping current iteration by 5.00D-01
 RMSDP=3.06D-03 MaxDP=2.01D-01              OVMax= 2.64D-01

 Cycle   2  Pass 0  IDiag  1:
 RMSU=  1.52D-03    CP:  9.82D-01
 E= -3912.02536317055     Delta-E=       -0.495207409580 Rises=F Damp=T
 DIIS: error= 4.40D-03 at cycle   2 NSaved=   2.
 NSaved= 2 IEnMin= 2 EnMin= -3912.02536317055     IErMin= 2 ErrMin= 4.40D-03
 ErrMax= 4.40D-03  0.00D+00 EMaxC= 1.00D-01 BMatC= 3.20D-01 BMatP= 4.27D+00
 IDIUse=3 WtCom= 9.56D-01 WtEn= 4.40D-02
 Coeff-Com:  0.147D+00 0.853D+00
 Coeff-En:   0.237D+00 0.763D+00
 Coeff:      0.151D+00 0.849D+00
 Gap=     0.275 Goal=   None    Shift=    0.000
 Gap=     0.275 Goal=   None    Shift=    0.000
 RMSDP=8.16D-04 MaxDP=4.20D-02 DE=-4.95D-01 OVMax= 2.35D-01

 Cycle   3  Pass 0  IDiag  1:
 RMSU=  7.39D-04    CP:  9.75D-01  7.78D-01
 E= -3912.78391115500     Delta-E=       -0.758547984453 Rises=F Damp=F
 DIIS: error= 3.35D-03 at cycle   3 NSaved=   3.
 NSaved= 3 IEnMin= 3 EnMin= -3912.78391115500     IErMin= 3 ErrMin= 3.35D-03
 ErrMax= 3.35D-03  0.00D+00 EMaxC= 1.00D-01 BMatC= 1.90D-01 BMatP= 3.20D-01
 IDIUse=3 WtCom= 9.67D-01 WtEn= 3.35D-02
 Coeff-Com:  0.469D-01 0.436D+00 0.517D+00
 Coeff-En:   0.000D+00 0.000D+00 0.100D+01
 Coeff:      0.453D-01 0.421D+00 0.534D+00
 Gap=     0.189 Goal=   None    Shift=    0.000
 Gap=     0.189 Goal=   None    Shift=    0.000
 RMSDP=3.51D-04 MaxDP=2.44D-02 DE=-7.59D-01 OVMax= 4.95D-02

 Cycle   4  Pass 0  IDiag  1:
 RMSU=  2.53D-04    CP:  9.77D-01  8.27D-01  6.88D-01
 E= -3912.83279101665     Delta-E=       -0.048879861655 Rises=F Damp=F
 DIIS: error= 1.30D-03 at cycle   4 NSaved=   4.
 NSaved= 4 IEnMin= 4 EnMin= -3912.83279101665     IErMin= 4 ErrMin= 1.30D-03
 ErrMax= 1.30D-03  0.00D+00 EMaxC= 1.00D-01 BMatC= 2.46D-02 BMatP= 1.90D-01
 IDIUse=3 WtCom= 9.87D-01 WtEn= 1.30D-02
 Coeff-Com:  0.107D-01 0.910D-01 0.277D+00 0.621D+00
 Coeff-En:   0.000D+00 0.000D+00 0.713D-01 0.929D+00
 Coeff:      0.106D-01 0.898D-01 0.274D+00 0.625D+00
 Gap=     0.191 Goal=   None    Shift=    0.000
 Gap=     0.191 Goal=   None    Shift=    0.000
 RMSDP=1.02D-04 MaxDP=1.00D-02 DE=-4.89D-02 OVMax= 1.54D-02

 Cycle   5  Pass 0  IDiag  1:
 RMSU=  7.13D-05    CP:  9.77D-01  8.21D-01  7.45D-01  7.65D-01
 E= -3912.83891548432     Delta-E=       -0.006124467662 Rises=F Damp=F
 DIIS: error= 4.81D-04 at cycle   5 NSaved=   5.
 NSaved= 5 IEnMin= 5 EnMin= -3912.83891548432     IErMin= 5 ErrMin= 4.81D-04
 ErrMax= 4.81D-04  0.00D+00 EMaxC= 1.00D-01 BMatC= 2.43D-03 BMatP= 2.46D-02
 IDIUse=3 WtCom= 9.95D-01 WtEn= 4.81D-03
 Coeff-Com:  0.370D-02 0.428D-02 0.937D-01 0.317D+00 0.581D+00
 Coeff-En:   0.000D+00 0.000D+00 0.000D+00 0.000D+00 0.100D+01
 Coeff:      0.368D-02 0.426D-02 0.933D-01 0.316D+00 0.583D+00
 Gap=     0.192 Goal=   None    Shift=    0.000
 Gap=     0.192 Goal=   None    Shift=    0.000
 RMSDP=4.20D-05 MaxDP=3.75D-03 DE=-6.12D-03 OVMax= 5.70D-03

 Cycle   6  Pass 0  IDiag  1:
 RMSU=  3.46D-05    CP:  9.77D-01  8.16D-01  7.57D-01  8.09D-01  7.54D-01
 E= -3912.83942942468     Delta-E=       -0.000513940364 Rises=F Damp=F
 DIIS: error= 3.05D-04 at cycle   6 NSaved=   6.
 NSaved= 6 IEnMin= 6 EnMin= -3912.83942942468     IErMin= 6 ErrMin= 3.05D-04
 ErrMax= 3.05D-04  0.00D+00 EMaxC= 1.00D-01 BMatC= 6.61D-04 BMatP= 2.43D-03
 IDIUse=3 WtCom= 9.97D-01 WtEn= 3.05D-03
 Coeff-Com:  0.138D-02-0.139D-01 0.160D-01 0.104D+00 0.375D+00 0.518D+00
 Coeff-En:   0.000D+00 0.000D+00 0.000D+00 0.000D+00 0.176D+00 0.824D+00
 Coeff:      0.138D-02-0.139D-01 0.159D-01 0.104D+00 0.374D+00 0.519D+00
 Gap=     0.192 Goal=   None    Shift=    0.000
 Gap=     0.192 Goal=   None    Shift=    0.000
 RMSDP=2.24D-05 MaxDP=1.61D-03 DE=-5.14D-04 OVMax= 2.48D-03

 Cycle   7  Pass 0  IDiag  1:
 RMSU=  1.85D-05    CP:  9.77D-01  8.14D-01  7.62D-01  8.19D-01  8.81D-01
                    CP:  8.05D-01
 E= -3912.83960324424     Delta-E=       -0.000173819555 Rises=F Damp=F
 DIIS: error= 9.09D-05 at cycle   7 NSaved=   7.
 NSaved= 7 IEnMin= 7 EnMin= -3912.83960324424     IErMin= 7 ErrMin= 9.09D-05
 ErrMax= 9.09D-05  0.00D+00 EMaxC= 1.00D-01 BMatC= 5.78D-05 BMatP= 6.61D-04
 IDIUse=1 WtCom= 1.00D+00 WtEn= 0.00D+00
 Coeff-Com:  0.646D-03-0.815D-02-0.623D-03 0.214D-01 0.126D+00 0.270D+00
 Coeff-Com:  0.591D+00
 Coeff:      0.646D-03-0.815D-02-0.623D-03 0.214D-01 0.126D+00 0.270D+00
 Coeff:      0.591D+00
 Gap=     0.192 Goal=   None    Shift=    0.000
 Gap=     0.192 Goal=   None    Shift=    0.000
 RMSDP=1.89D-05 MaxDP=4.92D-04 DE=-1.74D-04 OVMax= 9.64D-04

 Cycle   8  Pass 0  IDiag  1:
 RMSU=  1.63D-05    CP:  9.77D-01  8.13D-01  7.62D-01  8.27D-01  9.10D-01
                    CP:  1.00D+00  1.34D+00
 E= -3912.83961982241     Delta-E=       -0.000016578177 Rises=F Damp=F
 DIIS: error= 5.78D-05 at cycle   8 NSaved=   8.
 NSaved= 8 IEnMin= 8 EnMin= -3912.83961982241     IErMin= 8 ErrMin= 5.78D-05
 ErrMax= 5.78D-05  0.00D+00 EMaxC= 1.00D-01 BMatC= 2.16D-05 BMatP= 5.78D-05
 IDIUse=1 WtCom= 1.00D+00 WtEn= 0.00D+00
 Coeff-Com:  0.379D-03-0.425D-02-0.170D-02 0.380D-02 0.433D-01 0.123D+00
 Coeff-Com:  0.386D+00 0.449D+00
 Coeff:      0.379D-03-0.425D-02-0.170D-02 0.380D-02 0.433D-01 0.123D+00
 Coeff:      0.386D+00 0.449D+00
 Gap=     0.192 Goal=   None    Shift=    0.000
 Gap=     0.192 Goal=   None    Shift=    0.000
 RMSDP=1.88D-05 MaxDP=4.23D-04 DE=-1.66D-05 OVMax= 4.04D-04

 Cycle   9  Pass 0  IDiag  1:
 RMSU=  1.04D-05    CP:  9.77D-01  8.13D-01  7.63D-01  8.30D-01  9.34D-01
                    CP:  1.13D+00  1.91D+00  1.65D+00
 E= -3912.83962036001     Delta-E=       -0.000000537595 Rises=F Damp=F
 DIIS: error= 9.04D-05 at cycle   9 NSaved=   9.
 NSaved= 9 IEnMin= 9 EnMin= -3912.83962036001     IErMin= 8 ErrMin= 5.78D-05
 ErrMax= 9.04D-05  0.00D+00 EMaxC= 1.00D-01 BMatC= 2.70D-05 BMatP= 2.16D-05
 IDIUse=1 WtCom= 1.00D+00 WtEn= 0.00D+00
 Coeff-Com:  0.402D-03-0.455D-02-0.254D-02 0.113D-02 0.388D-01 0.129D+00
 Coeff-Com:  0.460D+00 0.672D+00-0.294D+00
 Coeff:      0.402D-03-0.455D-02-0.254D-02 0.113D-02 0.388D-01 0.129D+00
 Coeff:      0.460D+00 0.672D+00-0.294D+00
 Gap=     0.192 Goal=   None    Shift=    0.000
 Gap=     0.192 Goal=   None    Shift=    0.000
 RMSDP=1.26D-05 MaxDP=3.20D-04 DE=-5.38D-07 OVMax= 7.29D-05

 Cycle  10  Pass 0  IDiag  1:
 RMSU=  6.53D-06    CP:  9.77D-01  8.13D-01  7.63D-01  8.28D-01  9.21D-01
                    CP:  1.06D+00  1.62D+00  1.19D+00  5.13D-01
 E= -3912.83962004915     Delta-E=        0.000000310854 Rises=F Damp=F
 DIIS: error= 8.26D-05 at cycle  10 NSaved=  10.
 NSaved=10 IEnMin= 9 EnMin= -3912.83962036001     IErMin= 8 ErrMin= 5.78D-05
 ErrMax= 8.26D-05  0.00D+00 EMaxC= 1.00D-01 BMatC= 2.32D-05 BMatP= 2.16D-05
 IDIUse=1 WtCom= 1.00D+00 WtEn= 0.00D+00
 Coeff-Com:  0.360D-03-0.398D-02-0.255D-02-0.879D-03 0.283D-01 0.107D+00
 Coeff-Com:  0.417D+00 0.694D+00-0.623D+00 0.383D+00
 Coeff:      0.360D-03-0.398D-02-0.255D-02-0.879D-03 0.283D-01 0.107D+00
 Coeff:      0.417D+00 0.694D+00-0.623D+00 0.383D+00
 Gap=     0.192 Goal=   None    Shift=    0.000
 Gap=     0.192 Goal=   None    Shift=    0.000
 RMSDP=9.70D-06 MaxDP=2.90D-04 DE= 3.11D-07 OVMax= 4.42D-05

 Initial convergence to 1.0D-05 achieved.  Increase integral accuracy.
 Cycle  11  Pass 1  IDiag  1:
 E= -3912.83875910542     Delta-E=        0.000860943728 Rises=F Damp=F
 DIIS: error= 2.85D-04 at cycle   1 NSaved=   1.
 NSaved= 1 IEnMin= 1 EnMin= -3912.83875910542     IErMin= 1 ErrMin= 2.85D-04
[...]
    28 C(13)  Bbb    -0.0000    -0.000    -0.000    -0.000 -0.1141  0.9885 -0.0997
              Bcc     0.0000     0.000     0.000     0.000  0.9720  0.1318  0.1944
 
              Baa    -0.0000    -0.000    -0.000    -0.000  0.0399 -0.0829  0.9958
    29 C(13)  Bbb     0.0000     0.000     0.000     0.000  0.9992 -0.0009 -0.0401
              Bcc     0.0000     0.000     0.000     0.000  0.0042  0.9966  0.0828
 
              Baa    -0.0000    -0.000    -0.000    -0.000 -0.0961  0.1186  0.9883
    30 C(13)  Bbb    -0.0000    -0.000    -0.000    -0.000  0.1340  0.9854 -0.1052
              Bcc     0.0000     0.000     0.000     0.000  0.9863 -0.1224  0.1105
 
              Baa    -0.0000    -0.000    -0.000    -0.000  0.1204 -0.0793  0.9896
    31 C(13)  Bbb    -0.0000    -0.000    -0.000    -0.000  0.8314  0.5528 -0.0568
              Bcc     0.0000     0.000     0.000     0.000 -0.5425  0.8295  0.1324
 
              Baa    -0.0000    -0.000    -0.000    -0.000 -0.0651 -0.1820  0.9811
    32 C(13)  Bbb    -0.0000    -0.000    -0.000    -0.000  0.6159  0.7663  0.1830
              Bcc     0.0000     0.000     0.000     0.000  0.7851 -0.6162 -0.0622
 
              Baa    -0.0000    -0.000    -0.000    -0.000  0.0356  0.9157  0.4003
    33 S(33)  Bbb    -0.0000    -0.000    -0.000    -0.000 -0.0501 -0.3984  0.9158
              Bcc     0.0000     0.000     0.000     0.000  0.9981 -0.0526  0.0317
 
              Baa    -0.0000    -0.000    -0.000    -0.000 -0.3614  0.9237 -0.1272
    34 C(13)  Bbb     0.0000     0.000     0.000     0.000  0.9313  0.3508 -0.0984
              Bcc     0.0000     0.000     0.000     0.000  0.0463  0.1540  0.9870
 
              Baa    -0.0000    -0.000    -0.000    -0.000  0.0838  0.7395  0.6679
    35 C(13)  Bbb    -0.0000    -0.000    -0.000    -0.000  0.9502 -0.2612  0.1700
              Bcc     0.0000     0.000     0.000     0.000 -0.3002 -0.6204  0.7246
 
              Baa    -0.0000    -0.000    -0.000    -0.000  0.9553  0.2325 -0.1828
    36 C(13)  Bbb     0.0000     0.000     0.000     0.000  0.0832  0.3820  0.9204
              Bcc     0.0000     0.000     0.000     0.000 -0.2838  0.8945 -0.3456
 
              Baa    -0.0000    -0.000    -0.000    -0.000  0.9999 -0.0109 -0.0074
    37 C(13)  Bbb    -0.0000    -0.000    -0.000    -0.000  0.0066  0.8978 -0.4403
              Bcc     0.0000     0.000     0.000     0.000  0.0114  0.4402  0.8978
 
              Baa    -0.0000    -0.000    -0.000    -0.000  0.7851 -0.4065  0.4673
    38 C(13)  Bbb     0.0000     0.000     0.000     0.000 -0.2965  0.4159  0.8598
              Bcc     0.0000     0.000     0.000     0.000  0.5438  0.8135 -0.2060
 
              Baa    -0.0000    -0.000    -0.000    -0.000  0.0206  0.2832  0.9588
    39 C(13)  Bbb     0.0000     0.000     0.000     0.000  0.7640  0.6142 -0.1978
              Bcc     0.0000     0.000     0.000     0.000 -0.6449  0.7366 -0.2037
 
              Baa    -0.0000    -0.000    -0.000    -0.000  0.9916 -0.0200  0.1276
    40 C(13)  Bbb     0.0000     0.000     0.000     0.000 -0.0841  0.6495  0.7557
              Bcc     0.0000     0.000     0.000     0.000  0.0980  0.7601 -0.6424
 
              Baa    -0.0000    -0.000    -0.000    -0.000  0.8410  0.3923 -0.3726
    41 C(13)  Bbb    -0.0000    -0.000    -0.000    -0.000  0.4441 -0.1072  0.8896
              Bcc     0.0000     0.000     0.000     0.000 -0.3090  0.9136  0.2643
 
              Baa    -0.0000    -0.000    -0.000    -0.000 -0.5600  0.8209  0.1122
    42 C(13)  Bbb    -0.0000    -0.000    -0.000    -0.000 -0.1329 -0.2227  0.9658
              Bcc     0.0000     0.000     0.000     0.000  0.8178  0.5259  0.2338
 
              Baa    -0.0000    -0.000    -0.000    -0.000  0.0922  0.9946 -0.0482
    43 C(13)  Bbb     0.0000     0.000     0.000     0.000  0.9951 -0.0903  0.0404
              Bcc     0.0000     0.000     0.000     0.000 -0.0359  0.0517  0.9980
 
              Baa    -0.0000    -0.000    -0.000    -0.000  0.6222  0.7803 -0.0623
    44 S(33)  Bbb    -0.0000    -0.000    -0.000    -0.000  0.7763 -0.6254 -0.0795
              Bcc     0.0000     0.000     0.000     0.000  0.1011 -0.0011  0.9949
 
              Baa    -0.0000    -0.000    -0.000    -0.000  0.4727  0.7972 -0.3756
    45 C(13)  Bbb     0.0000     0.000     0.000     0.000 -0.5852  0.6027  0.5425
              Bcc     0.0000     0.000     0.000     0.000  0.6589 -0.0367  0.7514
 
              Baa    -0.0000    -0.000    -0.000    -0.000  0.0124  0.9669  0.2550
    46 C(13)  Bbb    -0.0000    -0.000    -0.000    -0.000  0.0726 -0.2553  0.9641
              Bcc     0.0000     0.000     0.000     0.000  0.9973  0.0066 -0.0733
 
              Baa    -0.0000    -0.000    -0.000    -0.000 -0.0867  0.7637 -0.6397
    47 C(13)  Bbb     0.0000     0.000     0.000     0.000  0.3350  0.6271  0.7032
              Bcc     0.0000     0.000     0.000     0.000  0.9382 -0.1533 -0.3102
 
              Baa    -0.0000    -0.000    -0.000    -0.000  0.1490  0.9543 -0.2591
    48 C(13)  Bbb    -0.0000    -0.000    -0.000    -0.000  0.5490  0.1381  0.8244
              Bcc     0.0000     0.000     0.000     0.000  0.8224 -0.2651 -0.5033
 
              Baa    -0.0000    -0.000    -0.000    -0.000 -0.6621  0.0111  0.7493
    49 C(13)  Bbb    -0.0000    -0.000    -0.000    -0.000  0.3737  0.8716  0.3173
              Bcc     0.0000     0.000     0.000     0.000  0.6496 -0.4901  0.5812
 
              Baa    -0.0000    -0.000    -0.000    -0.000  0.2875  0.0588  0.9560
    50 C(13)  Bbb    -0.0000    -0.000    -0.000    -0.000 -0.0812  0.9960 -0.0368
              Bcc     0.0000     0.000     0.000     0.000  0.9543  0.0671 -0.2911
 
              Baa    -0.0000    -0.000    -0.000    -0.000  0.9828 -0.1710  0.0697
    51 C(13)  Bbb     0.0000     0.000     0.000     0.000  0.1611  0.9785  0.1289
              Bcc     0.0000     0.000     0.000     0.000 -0.0902 -0.1154  0.9892
 
              Baa    -0.0000    -0.000    -0.000    -0.000  0.9924 -0.1070 -0.0605
    52 C(13)  Bbb     0.0000     0.000     0.000     0.000  0.0667  0.0554  0.9962
              Bcc     0.0000     0.000     0.000     0.000  0.1033  0.9927 -0.0621
 
              Baa    -0.0000    -0.000    -0.000    -0.000 -0.2123  0.8540  0.4750
    53 C(13)  Bbb    -0.0000    -0.000    -0.000    -0.000 -0.0215 -0.4900  0.8715
              Bcc     0.0000     0.000     0.000     0.000  0.9770  0.1748  0.1224
 
              Baa    -0.0000    -0.000    -0.000    -0.000 -0.1792 -0.1917  0.9650
    54 C(13)  Bbb     0.0000     0.000     0.000     0.000  0.8612 -0.5047  0.0597
              Bcc     0.0000     0.000     0.000     0.000  0.4756  0.8418  0.2555
 
              Baa    -0.0000    -0.000    -0.000    -0.000  0.1230  0.9876  0.0977
    55 S(33)  Bbb     0.0000     0.000     0.000     0.000 -0.1071 -0.0846  0.9906
              Bcc     0.0000     0.000     0.000     0.000  0.9866 -0.1323  0.0954
 
              Baa    -0.0000    -0.000    -0.000    -0.000 -0.2619  0.5063  0.8216
    56 H(1)   Bbb    -0.0000    -0.000    -0.000    -0.000 -0.3871  0.7247 -0.5700
              Bcc     0.0000     0.000     0.000     0.000  0.8841  0.4673 -0.0062
 
              Baa    -0.0000    -0.000    -0.000    -0.000 -0.4028  0.2363  0.8842
    57 H(1)   Bbb    -0.0000    -0.000    -0.000    -0.000  0.9118  0.1874  0.3653
              Bcc     0.0000     0.000     0.000     0.000 -0.0793  0.9534 -0.2910
 
              Baa    -0.0000    -0.000    -0.000    -0.000 -0.3672  0.0316  0.9296
    58 H(1)   Bbb    -0.0000    -0.000    -0.000    -0.000  0.4527  0.8791  0.1489
              Bcc     0.0000     0.000     0.000     0.000  0.8125 -0.4755  0.3371
 
              Baa    -0.0000    -0.000    -0.000    -0.000  0.6458 -0.4485 -0.6179
    59 H(1)   Bbb    -0.0000    -0.000    -0.000    -0.000  0.6671 -0.0623  0.7424
              Bcc     0.0000     0.000     0.000     0.000  0.3715  0.8916 -0.2589
 
              Baa    -0.0000    -0.000    -0.000    -0.000  0.8157  0.5677 -0.1112
    60 H(1)   Bbb    -0.0000    -0.000    -0.000    -0.000 -0.1579  0.4034  0.9013
              Bcc     0.0000     0.000     0.000     0.000 -0.5566  0.7176 -0.4187
 
              Baa    -0.0000    -0.000    -0.000    -0.000  0.2115  0.9771 -0.0223
    61 H(1)   Bbb    -0.0000    -0.000    -0.000    -0.000  0.7385 -0.1448  0.6585
              Bcc     0.0000     0.000     0.000     0.000 -0.6402  0.1557  0.7523
 
              Baa    -0.0000    -0.000    -0.000    -0.000 -0.3540  0.0857  0.9313
    62 H(1)   Bbb    -0.0000    -0.000    -0.000    -0.000  0.8384 -0.4122  0.3566
              Bcc     0.0000     0.000     0.000     0.000  0.4144  0.9071  0.0741
 
              Baa    -0.0000    -0.000    -0.000    -0.000  0.3969  0.5654  0.7230
    63 H(1)   Bbb    -0.0000    -0.000    -0.000    -0.000  0.7525  0.2505 -0.6090
              Bcc     0.0000     0.000     0.000     0.000 -0.5255  0.7859 -0.3260
 
              Baa    -0.0000    -0.000    -0.000    -0.000  0.0609  0.3308  0.9417
    64 H(1)   Bbb     0.0000     0.000     0.000     0.000  0.7564 -0.6309  0.1727
              Bcc     0.0000     0.000     0.000     0.000  0.6513  0.7018 -0.2886
 
              Baa    -0.0000    -0.000    -0.000    -0.000 -0.0808  0.4395  0.8946
    65 H(1)   Bbb    -0.0000    -0.000    -0.000    -0.000  0.6721  0.6868 -0.2767
              Bcc     0.0000     0.000     0.000     0.000  0.7360 -0.5789  0.3509
 
              Baa    -0.0000    -0.000    -0.000    -0.000  0.9099  0.3503  0.2222
    66 H(1)   Bbb     0.0000     0.000     0.000     0.000  0.0200 -0.5720  0.8200
              Bcc     0.0000     0.000     0.000     0.000 -0.4144  0.7417  0.5274
 
              Baa    -0.0000    -0.000    -0.000    -0.000  0.1807  0.9755  0.1258
    67 H(1)   Bbb     0.0000     0.000     0.000     0.000  0.9835 -0.1790 -0.0250
              Bcc     0.0000     0.000     0.000     0.000  0.0019 -0.1282  0.9917
 
              Baa    -0.0000    -0.000    -0.000    -0.000 -0.5669  0.8236 -0.0165
    68 H(1)   Bbb     0.0000     0.000     0.000     0.000  0.8080  0.5599  0.1833
              Bcc     0.0000     0.000     0.000     0.000 -0.1602 -0.0905  0.9829
 
              Baa    -0.0000    -0.000    -0.000    -0.000  0.9980 -0.0338 -0.0531
    69 H(1)   Bbb    -0.0000    -0.000    -0.000    -0.000  0.0623  0.4016  0.9137
              Bcc     0.0000     0.000     0.000     0.000  0.0096  0.9152 -0.4029
 
              Baa    -0.0000    -0.000    -0.000    -0.000 -0.2134  0.4918  0.8442
    70 H(1)   Bbb     0.0000     0.000     0.000     0.000  0.8289  0.5485 -0.1100
              Bcc     0.0000     0.000     0.000     0.000 -0.5172  0.6762 -0.5246
 
              Baa    -0.0000    -0.000    -0.000    -0.000  0.7828 -0.2455 -0.5718
    71 H(1)   Bbb    -0.0000    -0.000    -0.000    -0.000  0.6113  0.1317  0.7804
              Bcc     0.0000     0.000     0.000     0.000  0.1163  0.9604 -0.2532
 
              Baa    -0.0000    -0.000    -0.000    -0.000 -0.0568  0.2130  0.9754
    72 H(1)   Bbb     0.0000     0.000     0.000     0.000  0.9936  0.1076  0.0344
              Bcc     0.0000     0.000     0.000     0.000 -0.0976  0.9711 -0.2178
 
              Baa    -0.0000    -0.000    -0.000    -0.000  0.6647  0.7282  0.1671
    73 H(1)   Bbb    -0.0000    -0.000    -0.000    -0.000  0.1279 -0.3313  0.9348
              Bcc     0.0000     0.000     0.000     0.000  0.7361 -0.6000 -0.3134
 
              Baa    -0.0000    -0.000    -0.000    -0.000  0.4418 -0.4972  0.7468
    74 H(1)   Bbb    -0.0000    -0.000    -0.000    -0.000  0.6661 -0.3759 -0.6443
              Bcc     0.0000     0.000     0.000     0.000  0.6010  0.7820  0.1651
 
              Baa    -0.0000    -0.000    -0.000    -0.000 -0.2730  0.9392  0.2082
    75 H(1)   Bbb    -0.0000    -0.000    -0.000    -0.000  0.1810 -0.1624  0.9700
              Bcc     0.0000     0.000     0.000     0.000  0.9448  0.3025 -0.1256
 
              Baa    -0.0000    -0.000    -0.000    -0.000  0.7376  0.6639 -0.1234
    76 H(1)   Bbb     0.0000     0.000     0.000     0.000 -0.2580  0.4459  0.8571
              Bcc     0.0000     0.000     0.000     0.000  0.6240 -0.6003  0.5001
 
              Baa    -0.0000    -0.000    -0.000    -0.000 -0.0930  0.9890  0.1148
    77 H(1)   Bbb     0.0000     0.000     0.000     0.000  0.5744 -0.0409  0.8175
              Bcc     0.0000     0.000     0.000     0.000  0.8133  0.1420 -0.5643
 
              Baa    -0.0000    -0.000    -0.000    -0.000  0.7488  0.5271  0.4018
    78 H(1)   Bbb    -0.0000    -0.000    -0.000    -0.000 -0.5125  0.0761  0.8553
              Bcc     0.0000     0.000     0.000     0.000 -0.4202  0.8464 -0.3271
 
              Baa    -0.0000    -0.000    -0.000    -0.000  0.7442  0.0760 -0.6636
    79 H(1)   Bbb    -0.0000    -0.000    -0.000    -0.000  0.6500  0.1462  0.7457
              Bcc     0.0000     0.000     0.000     0.000 -0.1537  0.9863 -0.0594
 
              Baa    -0.0000    -0.000    -0.000    -0.000  0.8121  0.5500  0.1952
    80 H(1)   Bbb     0.0000     0.000     0.000     0.000  0.0332 -0.3774  0.9254
              Bcc     0.0000     0.000     0.000     0.000 -0.5826  0.7450  0.3248
 
              Baa    -0.0000    -0.000    -0.000    -0.000  0.5266  0.0673  0.8474
    81 H(1)   Bbb    -0.0000    -0.000    -0.000    -0.000  0.7297 -0.5472 -0.4100
              Bcc     0.0000     0.000     0.000     0.000  0.4361  0.8343 -0.3373
 
              Baa    -0.0000    -0.000    -0.000    -0.000  0.6392  0.7326 -0.2338
    82 H(1)   Bbb    -0.0000    -0.000    -0.000    -0.000  0.7490 -0.6620 -0.0265
              Bcc     0.0000     0.000     0.000     0.000  0.1742  0.1582  0.9719
 
              Baa    -0.0000    -0.000    -0.000    -0.000  0.8607  0.3794 -0.3396
    83 H(1)   Bbb    -0.0000    -0.000    -0.000    -0.000 -0.4669  0.8541 -0.2290
              Bcc     0.0000     0.000     0.000     0.000  0.2031  0.3556  0.9123
 
              Baa    -0.0000    -0.000    -0.000    -0.000  0.9977  0.0626  0.0244
    84 H(1)   Bbb    -0.0000    -0.000    -0.000    -0.000 -0.0426  0.3090  0.9501
              Bcc     0.0000     0.000     0.000     0.000 -0.0519  0.9490 -0.3110
 
              Baa    -0.0000    -0.000    -0.000    -0.000  0.4717  0.8817  0.0090
    85 H(1)   Bbb     0.0000     0.000     0.000     0.000  0.7655 -0.4145  0.4921
              Bcc     0.0000     0.000     0.000     0.000 -0.4376  0.2253  0.8705
 
              Baa    -0.0000    -0.000    -0.000    -0.000 -0.1979  0.9395 -0.2796
    86 H(1)   Bbb    -0.0000    -0.000    -0.000    -0.000 -0.0614  0.2728  0.9601
              Bcc     0.0000     0.000     0.000     0.000  0.9783  0.2072  0.0037
 
              Baa    -0.0000    -0.000    -0.000    -0.000 -0.5093  0.8591  0.0508
    87 H(1)   Bbb     0.0000     0.000     0.000     0.000  0.2962  0.1196  0.9476
              Bcc     0.0000     0.000     0.000     0.000  0.8081  0.4976 -0.3153
 

 ---------------------------------------------------------------------------------

 No NMR shielding tensors so no spin-rotation constants.
 Leave Link  601 at Fri Jul 24 17:47:23 2020, MaxMem=  4026531840 cpu:              18.8 elap:               2.5
 (Enter /opt/ohpc/pub/libs/gaussian/g16-A.03/sandybridge/g16/l9999.exe)

 Test job not archived.
 1\1\GINC-SKYLAKE052\FOpt\ULC-wPBE\CC-pVDZ\C50H32S5\RDU230\24-Jul-2020\
 0\\#P uLC-wPBE/cc-pVDZ iop(3/107=0115300000, 3/108=0115300000) opt\\H3
 2 C50 S5\\0,1\C,19.2829249529,2.1342370461,0.0070774879\C,18.199977624
 6,2.8748613059,-0.4886265223\C,16.9124500627,2.3258131235,-0.495623456
 8\C,16.6759869094,1.0249825705,0.0032916411\C,17.7752979117,0.29329902
 81,0.5087825397\C,19.0631641738,0.8404017571,0.5036070739\C,15.3308052
 594,0.4309515913,-0.0018122064\C,14.9711136047,-0.9098512106,-0.018790
 2446\C,13.5668149859,-1.1246297277,-0.0204822835\C,12.8227388282,0.047
 9522463,-0.0044779956\S,13.8945429912,1.4361365657,0.029099562\C,11.36
 43497611,0.2130788519,-0.0019576114\C,10.5230459246,-0.826884606,0.456
 2969766\C,9.134850675,-0.6866792222,0.453703835\C,8.5166703497,0.49973
 46288,-0.0034583399\C,9.3579012564,1.5398327931,-0.4615097518\C,10.746
 1167002,1.3994971326,-0.4590559652\C,7.0583769046,0.6644700036,-0.0011
 076518\C,6.3133413134,1.8367962556,0.011936592\C,4.9096804949,1.621634
 4676,0.0119814577\C,4.5500127917,0.2799804226,-0.0009724211\S,5.987659
 1907,-0.7245391251,-0.0304097201\C,3.2080595638,-0.3138801554,-0.00295
 06935\C,2.0936757523,0.42674003,-0.4601738571\C,0.8113022714,-0.122941
 3612,-0.4576421661\C,0.5770340087,-1.440437127,-0.0013447793\C,1.69138
 0594,-2.1809416465,0.4561552226\C,2.973742662,-1.6312967066,0.45357235
 27\C,-0.7647031719,-2.034830154,-0.0040363411\C,-1.1234547627,-3.37678
 64435,-0.0140042674\C,-2.5269379942,-3.5928211278,-0.0158246665\C,-3.2
 727211037,-2.420887126,-0.0074391401\S,-2.2030205434,-1.0311341042,0.0
 200786555\C,-4.7311568044,-2.2580227285,-0.0097922783\C,-5.350141123,-
 1.0742600432,-0.4705213956\C,-6.7392422826,-0.938602133,-0.47665964\C,
 -7.5796433339,-1.9797888354,-0.0222728232\C,-6.9599783284,-3.162119118
 3,0.446425786\C,-5.5718693272,-3.2977442644,0.4524608095\C,-9.04197830
 49,-1.8572107359,-0.0326403152\C,-10.0004571345,-2.8625697628,-0.04426
 9323\C,-11.3356050603,-2.3787808712,-0.0559044416\C,-11.4275959295,-0.
 9928117145,-0.0534226476\S,-9.8225941266,-0.2865018795,-0.0189861108\C
 ,-12.6291784812,-0.1498485022,-0.0656563894\C,-12.6025519417,1.1819040
 134,-0.5369283956\C,-13.7563283828,1.9675878337,-0.5524084702\C,-14.99
 39847049,1.4612876632,-0.0969394007\C,-15.0193221365,0.1309774736,0.38
 22334212\C,-13.8666246073,-0.6548003406,0.3973800224\C,-16.2196026079,
 2.2714924559,-0.1173770367\C,-17.5410223974,1.8488237655,-0.1625556269
 \C,-18.483024819,2.9189845797,-0.1707430354\C,-17.8801480349,4.1586501
 256,-0.1294442236\S,-16.1520671468,4.0255911985,-0.0746793285\H,20.294
 3868528,2.5644336641,0.0091635962\H,18.3592805205,3.8885370234,-0.8833
 474172\H,16.0750411526,2.9060180091,-0.9108146778\H,17.610223651,-0.70
 82504161,0.9301979201\H,19.9026795499,0.253662402,0.9034547616\H,15.70
 87570568,-1.7204390808,-0.0678681227\H,13.1060064695,-2.1189633966,-0.
 0707587176\H,10.9681726499,-1.7510212782,0.8502404402\H,8.512758577,-1
 .5061304861,0.8429362762\H,8.9129384209,2.4641420984,-0.8552564495\H,1
 1.3683139796,2.2189438113,-0.8480652193\H,6.773589402,2.8314978127,0.0
 589256818\H,4.172698282,2.4328874888,0.0590154175\H,2.2411744552,1.442
 1391671,-0.853304076\H,-0.0277812435,0.4729453821,-0.8460148707\H,1.54
 39362777,-3.1962982725,0.8494230681\H,3.8128827353,-2.2270335583,0.842
 0410506\H,-0.3858865699,-4.1876925787,-0.0574442831\H,-2.9865018167,-4
 .5879338494,-0.0609322658\H,-4.7293845002,-0.252658966,-0.8570976499\H
 ,-7.1858610786,-0.0127233063,-0.8679015616\H,-7.5798659014,-3.97763646
 2,0.8441726293\H,-5.1249517128,-4.2174406539,0.8548962173\H,-9.7420161
 499,-3.9280681893,-0.0821487636\H,-12.2161270713,-3.0313742884,-0.1037
 506462\H,-11.6625467231,1.6014385866,-0.924539878\H,-13.7030180185,2.9
 910549247,-0.9517786752\H,-15.9560822206,-0.282645076,0.7810193807\H,-
 13.9169176318,-1.6728999166,0.807955696\H,-17.8225964931,0.789977946,-
 0.2192181309\H,-19.5703491818,2.779454571,-0.2132947512\H,-18.34936364
 72,5.1480177316,-0.1239104515\\Version=EM64L-G16RevA.03\State=1-A\HF=-
 3913.0056649\S2=0.\S2-1=0.\S2A=0.\RMSD=4.765e-09\RMSF=1.489e-06\Dipole
 =-0.1269513,-0.3972858,-0.0404264\Quadrupole=34.0835581,3.0144966,-37.
 0980548,3.0205293,0.8546835,-8.7638998\PG=C01 [X(C50H32S5)]\\@


 QUHEN THE CAUSS IS TAKEN AWAY THE EFFECT WANISHETH.
 -- PROVERBS AND REASONS OF THE YEAR 1585
           AS REPRINTED IN PAISLEY MAGAZINE 1828.
 Job cpu time:       1 days 19 hours 55 minutes  3.6 seconds.
 Elapsed time:       0 days  5 hours 35 minutes 24.3 seconds.
 File lengths (MBytes):  RWF=   1040 Int=      0 D2E=      0 Chk=     96 Scr=      8
 Normal termination of Gaussian 16 at Fri Jul 24 17:47:24 2020.
