 Entering Gaussian System, Link 0=g16
 Input=mols_65_3_16_n-n-C_opt_0.gjf
 Output=mols_65_3_16_n-n-C_opt_0.log
 Initial command:
 /opt/ohpc/pub/libs/gaussian/g16-A.03/sandybridge/g16/l1.exe "/mnt/gpfs2_4m/scratch/rdu230/ondemand/projects/dihedral_energies/7trial/wtuning/mols_65_3_16_n-n-C/Gau-225608.inp" -scrdir="/mnt/gpfs2_4m/scratch/rdu230/ondemand/projects/dihedral_energies/7trial/wtuning/mols_65_3_16_n-n-C/"
 Entering Link 1 = /opt/ohpc/pub/libs/gaussian/g16-A.03/sandybridge/g16/l1.exe PID=    225609.
  
 Copyright (c) 1988,1990,1992,1993,1995,1998,2003,2009,2016,
            Gaussian, Inc.  All Rights Reserved.
  
 This is part of the Gaussian(R) 16 program.  It is based on
 the Gaussian(R) 09 system (copyright 2009, Gaussian, Inc.),
 the Gaussian(R) 03 system (copyright 2003, Gaussian, Inc.),
 the Gaussian(R) 98 system (copyright 1998, Gaussian, Inc.),
 the Gaussian(R) 94 system (copyright 1995, Gaussian, Inc.),
 the Gaussian 92(TM) system (copyright 1992, Gaussian, Inc.),
 the Gaussian 90(TM) system (copyright 1990, Gaussian, Inc.),
 the Gaussian 88(TM) system (copyright 1988, Gaussian, Inc.),
 the Gaussian 86(TM) system (copyright 1986, Carnegie Mellon
 University), and the Gaussian 82(TM) system (copyright 1983,
 Carnegie Mellon University). Gaussian is a federally registered
 trademark of Gaussian, Inc.
  
 This software contains proprietary and confidential information,
 including trade secrets, belonging to Gaussian, Inc.
  
 This software is provided under written license and may be
 used, copied, transmitted, or stored only in accord with that
 written license.
  
 The following legend is applicable only to US Government
 contracts under FAR:
  
                    RESTRICTED RIGHTS LEGEND
  
 Use, reproduction and disclosure by the US Government is
 subject to restrictions as set forth in subparagraphs (a)
 and (c) of the Commercial Computer Software - Restricted
 Rights clause in FAR 52.227-19.
  
 Gaussian, Inc.
 340 Quinnipiac St., Bldg. 40, Wallingford CT 06492
  
  
 ---------------------------------------------------------------
 Warning -- This program may not be used in any manner that
 competes with the business of Gaussian, Inc. or will provide
 assistance to any competitor of Gaussian, Inc.  The licensee
 of this program is prohibited from giving any competitor of
 Gaussian, Inc. access to this program.  By using this program,
 the user acknowledges that Gaussian, Inc. is engaged in the
 business of creating and licensing software in the field of
 computational chemistry and represents and warrants to the
 licensee that it is not a competitor of Gaussian, Inc. and that
 it will not use this program in any manner prohibited above.
 ---------------------------------------------------------------
  

 Cite this work as:
 Gaussian 16, Revision A.03,
 M. J. Frisch, G. W. Trucks, H. B. Schlegel, G. E. Scuseria, 
 M. A. Robb, J. R. Cheeseman, G. Scalmani, V. Barone, 
 G. A. Petersson, H. Nakatsuji, X. Li, M. Caricato, A. V. Marenich, 
 J. Bloino, B. G. Janesko, R. Gomperts, B. Mennucci, H. P. Hratchian, 
 J. V. Ortiz, A. F. Izmaylov, J. L. Sonnenberg, D. Williams-Young, 
 F. Ding, F. Lipparini, F. Egidi, J. Goings, B. Peng, A. Petrone, 
 T. Henderson, D. Ranasinghe, V. G. Zakrzewski, J. Gao, N. Rega, 
 G. Zheng, W. Liang, M. Hada, M. Ehara, K. Toyota, R. Fukuda, 
 J. Hasegawa, M. Ishida, T. Nakajima, Y. Honda, O. Kitao, H. Nakai, 
 T. Vreven, K. Throssell, J. A. Montgomery, Jr., J. E. Peralta, 
 F. Ogliaro, M. J. Bearpark, J. J. Heyd, E. N. Brothers, K. N. Kudin, 
 V. N. Staroverov, T. A. Keith, R. Kobayashi, J. Normand, 
 K. Raghavachari, A. P. Rendell, J. C. Burant, S. S. Iyengar, 
 J. Tomasi, M. Cossi, J. M. Millam, M. Klene, C. Adamo, R. Cammi, 
 J. W. Ochterski, R. L. Martin, K. Morokuma, O. Farkas, 
 J. B. Foresman, and D. J. Fox, Gaussian, Inc., Wallingford CT, 2016.
 
 ******************************************
 Gaussian 16:  EM64L-G16RevA.03 25-Dec-2016
                25-Jul-2020 
 ******************************************
 %mem=30GB
 %nproc=8
 Will use up to    8 processors via shared memory.
 ---------------------------------------------------------------
 #P uLC-wPBE/cc-pVDZ iop(3/107=0182900000, 3/108=0182900000) opt
 ---------------------------------------------------------------
 1/18=20,19=15,26=3,38=1/1,3;
 2/9=110,12=2,17=6,18=5,40=1/2;
 3/5=16,11=2,25=1,30=1,71=1,74=-41,107=182900000,108=182900000,116=2/1,2,3;
 4//1;
 5/5=2,38=5/2;
 6/7=2,8=2,9=2,10=2,28=1/1;
 7//1,2,3,16;
 1/18=20,19=15,26=3/3(2);
 2/9=110/2;
 99//99;
 2/9=110/2;
 3/5=16,11=2,25=1,30=1,71=1,74=-41,107=182900000,108=182900000,116=2/1,2,3;
 4/5=5,16=3,69=1/1;
 5/5=2,38=5/2;
 7//1,2,3,16;
 1/18=20,19=15,26=3/3(-5);
 2/9=110/2;
 6/7=2,8=2,9=2,10=2,19=2,28=1/1;
 99/9=1/99;
 Leave Link    1 at Sat Jul 25 02:28:22 2020, MaxMem=  4026531840 cpu:               1.8 elap:               0.3
 (Enter /opt/ohpc/pub/libs/gaussian/g16-A.03/sandybridge/g16/l101.exe)
 -------------
 H14 C24 S3 N6
 -------------
 Symbolic Z-matrix:
 Charge =  0 Multiplicity = 1
 C                    -10.6242   2.42056  -0.01927 
 C                    -9.3896    2.98622  -0.00604 
 N                    -8.23666   2.20819   0.01485 
 C                    -8.49496   0.87812   0.02852 
 N                    -9.6086    0.223     0.01735 
 C                    -10.73417   0.98779  -0.02134 
 C                    -7.32419  -0.01829  -0.01227 
 C                    -7.22649  -1.44138   0.00587 
 C                    -5.84849  -1.88584  -0.02172 
 C                    -4.95801  -0.89569   0.04121 
 S                    -5.71637   0.66528   0.03652 
 C                    -3.43489  -0.98719   0.01725 
 C                    -2.78431  -2.27884   0.02272 
 N                    -1.48958  -2.43582   0.04914 
 C                    -0.75914  -1.28011  -0.01698 
 N                    -1.26658  -0.10056  -0.00832 
 C                    -2.55499   0.03627   0.04517 
 C                     0.74485  -1.46555  -0.00511 
 C                     1.42748  -2.73538   0.02414 
 C                     2.87157  -2.51651  -0.03303 
 C                     3.25095  -1.1399   -0.0071 
 S                     1.79366  -0.21873   0.01509 
 C                     4.57162  -0.50714  -0.00531 
 C                     4.82207   0.76569  -0.01942 
 N                     6.03646   1.39782   0.0368 
 C                     7.04407   0.47123   0.00271 
 N                     6.96465  -0.79078   0.02972 
 C                     5.69971  -1.34889   0.0406 
 C                     8.43411   1.12461  -0.04222 
 C                     8.72822   2.4786   -0.01001 
 C                     10.15376   2.6753   -0.04451 
 C                     10.91117   1.47492   0.03029 
 S                     9.82283   0.08462   0.03205 
 H                    -11.55745   2.99633   0.03868 
 H                    -9.25061   3.96341  -0.0046 
 H                    -11.71311   0.48227   0.02819 
 H                    -8.06575  -2.02143  -0.01235 
 H                    -5.66489  -2.99702   0.03226 
 H                    -3.41018  -3.2259   -0.0156 
 H                    -2.95087   1.05614  -0.03251 
 H                     0.92653  -3.66146   0.04057 
 H                     3.52847  -3.31588  -0.04446 
 H                     4.04585   1.58136  -0.01255 
 H                     5.66274  -2.44339  -0.03288 
 H                     8.02436   3.24317  -0.04963 
 H                     10.66574   3.67807   0.02048 
 H                     11.9789   1.36605   0.02577 
 
 ITRead=  0  0  0  0  0  0  0  0  0  0  0  0  0  0  0  0  0  0  0  0
 ITRead=  0  0  0  0  0  0  0  0  0  0  0  0  0  0  0  0  0  0  0  0
 ITRead=  0  0  0  0  0  0  0
 MicOpt= -1 -1 -1 -1 -1 -1 -1 -1 -1 -1 -1 -1 -1 -1 -1 -1 -1 -1 -1 -1
 MicOpt= -1 -1 -1 -1 -1 -1 -1 -1 -1 -1 -1 -1 -1 -1 -1 -1 -1 -1 -1 -1
 MicOpt= -1 -1 -1 -1 -1 -1 -1
 NAtoms=     47 NQM=       47 NQMF=       0 NMMI=      0 NMMIF=      0
                NMic=       0 NMicF=      0.
                    Isotopes and Nuclear Properties:
 (Nuclear quadrupole moments (NQMom) in fm**2, nuclear magnetic moments (NMagM)
  in nuclear magnetons)

  Atom         1           2           3           4           5           6           7           8           9          10
 IAtWgt=          12          12          14          12          14          12          12          12          12          12
 AtmWgt=  12.0000000  12.0000000  14.0030740  12.0000000  14.0030740  12.0000000  12.0000000  12.0000000  12.0000000  12.0000000
 NucSpn=           0           0           2           0           2           0           0           0           0           0
 AtZEff=  -0.0000000  -0.0000000  -0.0000000  -0.0000000  -0.0000000  -0.0000000  -0.0000000  -0.0000000  -0.0000000  -0.0000000
 NQMom=    0.0000000   0.0000000   2.0440000   0.0000000   2.0440000   0.0000000   0.0000000   0.0000000   0.0000000   0.0000000
 NMagM=    0.0000000   0.0000000   0.4037610   0.0000000   0.4037610   0.0000000   0.0000000   0.0000000   0.0000000   0.0000000
 AtZNuc=   6.0000000   6.0000000   7.0000000   6.0000000   7.0000000   6.0000000   6.0000000   6.0000000   6.0000000   6.0000000

  Atom        11          12          13          14          15          16          17          18          19          20
 IAtWgt=          32          12          12          14          12          14          12          12          12          12
 AtmWgt=  31.9720718  12.0000000  12.0000000  14.0030740  12.0000000  14.0030740  12.0000000  12.0000000  12.0000000  12.0000000
 NucSpn=           0           0           0           2           0           2           0           0           0           0
 AtZEff=  -0.0000000  -0.0000000  -0.0000000  -0.0000000  -0.0000000  -0.0000000  -0.0000000  -0.0000000  -0.0000000  -0.0000000
 NQMom=    0.0000000   0.0000000   0.0000000   2.0440000   0.0000000   2.0440000   0.0000000   0.0000000   0.0000000   0.0000000
 NMagM=    0.0000000   0.0000000   0.0000000   0.4037610   0.0000000   0.4037610   0.0000000   0.0000000   0.0000000   0.0000000
 AtZNuc=  16.0000000   6.0000000   6.0000000   7.0000000   6.0000000   7.0000000   6.0000000   6.0000000   6.0000000   6.0000000

  Atom        21          22          23          24          25          26          27          28          29          30
 IAtWgt=          12          32          12          12          14          12          14          12          12          12
 AtmWgt=  12.0000000  31.9720718  12.0000000  12.0000000  14.0030740  12.0000000  14.0030740  12.0000000  12.0000000  12.0000000
 NucSpn=           0           0           0           0           2           0           2           0           0           0
 AtZEff=  -0.0000000  -0.0000000  -0.0000000  -0.0000000  -0.0000000  -0.0000000  -0.0000000  -0.0000000  -0.0000000  -0.0000000
 NQMom=    0.0000000   0.0000000   0.0000000   0.0000000   2.0440000   0.0000000   2.0440000   0.0000000   0.0000000   0.0000000
 NMagM=    0.0000000   0.0000000   0.0000000   0.0000000   0.4037610   0.0000000   0.4037610   0.0000000   0.0000000   0.0000000
 AtZNuc=   6.0000000  16.0000000   6.0000000   6.0000000   7.0000000   6.0000000   7.0000000   6.0000000   6.0000000   6.0000000

  Atom        31          32          33          34          35          36          37          38          39          40
 IAtWgt=          12          12          32           1           1           1           1           1           1           1
 AtmWgt=  12.0000000  12.0000000  31.9720718   1.0078250   1.0078250   1.0078250   1.0078250   1.0078250   1.0078250   1.0078250
 NucSpn=           0           0           0           1           1           1           1           1           1           1
 AtZEff=  -0.0000000  -0.0000000  -0.0000000  -0.0000000  -0.0000000  -0.0000000  -0.0000000  -0.0000000  -0.0000000  -0.0000000
 NQMom=    0.0000000   0.0000000   0.0000000   0.0000000   0.0000000   0.0000000   0.0000000   0.0000000   0.0000000   0.0000000
 NMagM=    0.0000000   0.0000000   0.0000000   2.7928460   2.7928460   2.7928460   2.7928460   2.7928460   2.7928460   2.7928460
 AtZNuc=   6.0000000   6.0000000  16.0000000   1.0000000   1.0000000   1.0000000   1.0000000   1.0000000   1.0000000   1.0000000

  Atom        41          42          43          44          45          46          47
 IAtWgt=           1           1           1           1           1           1           1
 AtmWgt=   1.0078250   1.0078250   1.0078250   1.0078250   1.0078250   1.0078250   1.0078250
 NucSpn=           1           1           1           1           1           1           1
 AtZEff=  -0.0000000  -0.0000000  -0.0000000  -0.0000000  -0.0000000  -0.0000000  -0.0000000
 NQMom=    0.0000000   0.0000000   0.0000000   0.0000000   0.0000000   0.0000000   0.0000000
 NMagM=    2.7928460   2.7928460   2.7928460   2.7928460   2.7928460   2.7928460   2.7928460
 AtZNuc=   1.0000000   1.0000000   1.0000000   1.0000000   1.0000000   1.0000000   1.0000000
 Leave Link  101 at Sat Jul 25 02:28:22 2020, MaxMem=  4026531840 cpu:               2.9 elap:               0.4
 (Enter /opt/ohpc/pub/libs/gaussian/g16-A.03/sandybridge/g16/l103.exe)

 GradGradGradGradGradGradGradGradGradGradGradGradGradGradGradGradGradGrad
 Berny optimization.
 Initialization pass.
                           ----------------------------
                           !    Initial Parameters    !
                           ! (Angstroms and Degrees)  !
 --------------------------                            --------------------------
 ! Name  Definition              Value          Derivative Info.                !
 --------------------------------------------------------------------------------
 ! R1    R(1,2)                  1.3581         estimate D2E/DX2                !
 ! R2    R(1,6)                  1.437          estimate D2E/DX2                !
 ! R3    R(1,34)                 1.0981         estimate D2E/DX2                !
 ! R4    R(2,3)                  1.3911         estimate D2E/DX2                !
 ! R5    R(2,35)                 0.987          estimate D2E/DX2                !
 ! R6    R(3,4)                  1.355          estimate D2E/DX2                !
 ! R7    R(4,5)                  1.2921         estimate D2E/DX2                !
 ! R8    R(4,7)                  1.4751         estimate D2E/DX2                !
 ! R9    R(5,6)                  1.3614         estimate D2E/DX2                !
 ! R10   R(6,36)                 1.1029         estimate D2E/DX2                !
 ! R11   R(7,8)                  1.4265         estimate D2E/DX2                !
 ! R12   R(7,11)                 1.7478         estimate D2E/DX2                !
 ! R13   R(8,9)                  1.4482         estimate D2E/DX2                !
 ! R14   R(8,37)                 1.0204         estimate D2E/DX2                !
 ! R15   R(9,10)                 1.3332         estimate D2E/DX2                !
 ! R16   R(9,38)                 1.1275         estimate D2E/DX2                !
 ! R17   R(10,11)                1.7354         estimate D2E/DX2                !
 ! R18   R(10,12)                1.526          estimate D2E/DX2                !
 ! R19   R(12,13)                1.4463         estimate D2E/DX2                !
 ! R20   R(12,17)                1.35           estimate D2E/DX2                !
 ! R21   R(13,14)                1.3045         estimate D2E/DX2                !
 ! R22   R(13,39)                1.1358         estimate D2E/DX2                !
 ! R23   R(14,15)                1.3688         estimate D2E/DX2                !
 ! R24   R(15,16)                1.2841         estimate D2E/DX2                !
 ! R25   R(15,18)                1.5154         estimate D2E/DX2                !
 ! R26   R(16,17)                1.2968         estimate D2E/DX2                !
 ! R27   R(17,40)                1.0968         estimate D2E/DX2                !
 ! R28   R(18,19)                1.442          estimate D2E/DX2                !
 ! R29   R(18,22)                1.6294         estimate D2E/DX2                !
 ! R30   R(19,20)                1.4617         estimate D2E/DX2                !
 ! R31   R(19,41)                1.053          estimate D2E/DX2                !
 ! R32   R(20,21)                1.4282         estimate D2E/DX2                !
 ! R33   R(20,42)                1.0347         estimate D2E/DX2                !
 ! R34   R(21,22)                1.7242         estimate D2E/DX2                !
 ! R35   R(21,23)                1.4644         estimate D2E/DX2                !
 ! R36   R(23,24)                1.2973         estimate D2E/DX2                !
 ! R37   R(23,28)                1.4083         estimate D2E/DX2                !
 ! R38   R(24,25)                1.3702         estimate D2E/DX2                !
 ! R39   R(24,43)                1.126          estimate D2E/DX2                !
 ! R40   R(25,26)                1.3693         estimate D2E/DX2                !
 ! R41   R(26,27)                1.2648         estimate D2E/DX2                !
 ! R42   R(26,29)                1.5366         estimate D2E/DX2                !
 ! R43   R(27,28)                1.3826         estimate D2E/DX2                !
 ! R44   R(28,44)                1.0976         estimate D2E/DX2                !
 ! R45   R(29,30)                1.3859         estimate D2E/DX2                !
 ! R46   R(29,33)                1.7366         estimate D2E/DX2                !
 ! R47   R(30,31)                1.4395         estimate D2E/DX2                !
 ! R48   R(30,45)                1.04           estimate D2E/DX2                !
 ! R49   R(31,32)                1.4213         estimate D2E/DX2                !
 ! R50   R(31,46)                1.1278         estimate D2E/DX2                !
 ! R51   R(32,33)                1.7656         estimate D2E/DX2                !
 ! R52   R(32,47)                1.0733         estimate D2E/DX2                !
 ! A1    A(2,1,6)              119.0044         estimate D2E/DX2                !
 ! A2    A(2,1,34)             123.6204         estimate D2E/DX2                !
 ! A3    A(6,1,34)             117.2479         estimate D2E/DX2                !
 ! A4    A(1,2,3)              121.3757         estimate D2E/DX2                !
 ! A5    A(1,2,35)             122.7107         estimate D2E/DX2                !
 ! A6    A(3,2,35)             115.9124         estimate D2E/DX2                !
 ! A7    A(2,3,4)              113.0277         estimate D2E/DX2                !
 ! A8    A(3,4,5)              131.4456         estimate D2E/DX2                !
 ! A9    A(3,4,7)              116.4195         estimate D2E/DX2                !
 ! A10   A(5,4,7)              112.0691         estimate D2E/DX2                !
 ! A11   A(4,5,6)              115.342          estimate D2E/DX2                !
 ! A12   A(1,6,5)              119.7901         estimate D2E/DX2                !
 ! A13   A(1,6,36)             121.6603         estimate D2E/DX2                !
 ! A14   A(5,6,36)             118.3664         estimate D2E/DX2                !
 ! A15   A(4,7,8)              131.3167         estimate D2E/DX2                !
 ! A16   A(4,7,11)             119.4516         estimate D2E/DX2                !
 ! A17   A(8,7,11)             109.0748         estimate D2E/DX2                !
 ! A18   A(7,8,9)              111.7832         estimate D2E/DX2                !
 ! A19   A(7,8,37)             120.6999         estimate D2E/DX2                !
 ! A20   A(9,8,37)             127.4331         estimate D2E/DX2                !
 ! A21   A(8,9,10)             113.9996         estimate D2E/DX2                !
 ! A22   A(8,9,38)             117.1616         estimate D2E/DX2                !
 ! A23   A(10,9,38)            128.3823         estimate D2E/DX2                !
 ! A24   A(9,10,11)            112.0879         estimate D2E/DX2                !
 ! A25   A(9,10,12)            128.4174         estimate D2E/DX2                !
 ! A26   A(11,10,12)           119.3432         estimate D2E/DX2                !
 ! A27   A(7,11,10)             92.8822         estimate D2E/DX2                !
 ! A28   A(10,12,13)           120.1637         estimate D2E/DX2                !
 ! A29   A(10,12,17)           127.2104         estimate D2E/DX2                !
 ! A30   A(13,12,17)           112.5694         estimate D2E/DX2                !
 ! A31   A(12,13,14)           123.644          estimate D2E/DX2                !
 ! A32   A(12,13,39)           119.7798         estimate D2E/DX2                !
 ! A33   A(14,13,39)           116.5676         estimate D2E/DX2                !
 ! A34   A(13,14,15)           115.2816         estimate D2E/DX2                !
 ! A35   A(14,15,16)           124.3594         estimate D2E/DX2                !
 ! A36   A(14,15,18)           115.2084         estimate D2E/DX2                !
 ! A37   A(16,15,18)           120.3013         estimate D2E/DX2                !
 ! A38   A(15,16,17)           119.33           estimate D2E/DX2                !
 ! A39   A(12,17,16)           124.5228         estimate D2E/DX2                !
 ! A40   A(12,17,40)           117.9204         estimate D2E/DX2                !
 ! A41   A(16,17,40)           116.9898         estimate D2E/DX2                !
 ! A42   A(15,18,19)           125.2918         estimate D2E/DX2                !
 ! A43   A(15,18,22)           123.0436         estimate D2E/DX2                !
 ! A44   A(19,18,22)           111.6468         estimate D2E/DX2                !
 ! A45   A(18,19,20)           109.5747         estimate D2E/DX2                !
 ! A46   A(18,19,41)           123.3379         estimate D2E/DX2                !
 ! A47   A(20,19,41)           127.0341         estimate D2E/DX2                !
 ! A48   A(19,20,21)           113.958          estimate D2E/DX2                !
 ! A49   A(19,20,42)           120.7948         estimate D2E/DX2                !
 ! A50   A(21,20,42)           125.1844         estimate D2E/DX2                !
 ! A51   A(20,21,22)           106.8993         estimate D2E/DX2                !
 ! A52   A(20,21,23)           131.0018         estimate D2E/DX2                !
 ! A53   A(22,21,23)           122.0979         estimate D2E/DX2                !
 ! A54   A(18,22,21)            97.762          estimate D2E/DX2                !
 ! A55   A(21,23,24)           126.7284         estimate D2E/DX2                !
 ! A56   A(21,23,28)           117.6567         estimate D2E/DX2                !
 ! A57   A(24,23,28)           115.6043         estimate D2E/DX2                !
 ! A58   A(23,24,25)           128.5558         estimate D2E/DX2                !
 ! A59   A(23,24,43)           125.2803         estimate D2E/DX2                !
 ! A60   A(25,24,43)           106.053          estimate D2E/DX2                !
 ! A61   A(24,25,26)           109.8144         estimate D2E/DX2                !
 ! A62   A(25,26,27)           128.9363         estimate D2E/DX2                !
 ! A63   A(25,26,29)           112.2509         estimate D2E/DX2                !
 ! A64   A(27,26,29)           118.7967         estimate D2E/DX2                !
 ! A65   A(26,27,28)           117.412          estimate D2E/DX2                !
 ! A66   A(23,28,27)           119.4275         estimate D2E/DX2                !
 ! A67   A(23,28,44)           124.5327         estimate D2E/DX2                !
 ! A68   A(27,28,44)           115.6461         estimate D2E/DX2                !
 ! A69   A(26,29,30)           127.3512         estimate D2E/DX2                !
 ! A70   A(26,29,33)           117.8739         estimate D2E/DX2                !
 ! A71   A(30,29,33)           114.4797         estimate D2E/DX2                !
 ! A72   A(29,30,31)           110.0658         estimate D2E/DX2                !
 ! A73   A(29,30,45)           125.0106         estimate D2E/DX2                !
 ! A74   A(31,30,45)           124.672          estimate D2E/DX2                !
 ! A75   A(30,31,32)           114.2719         estimate D2E/DX2                !
 ! A76   A(30,31,46)           124.7294         estimate D2E/DX2                !
 ! A77   A(32,31,46)           120.3966         estimate D2E/DX2                !
 ! A78   A(31,32,33)           109.6696         estimate D2E/DX2                !
 ! A79   A(31,32,47)           127.9941         estimate D2E/DX2                !
 ! A80   A(33,32,47)           122.2323         estimate D2E/DX2                !
 ! A81   A(29,33,32)            91.2221         estimate D2E/DX2                !
 ! D1    D(6,1,2,3)             -0.4521         estimate D2E/DX2                !
 ! D2    D(6,1,2,35)           179.9562         estimate D2E/DX2                !
 ! D3    D(34,1,2,3)           175.3273         estimate D2E/DX2                !
 ! D4    D(34,1,2,35)           -4.2644         estimate D2E/DX2                !
 ! D5    D(2,1,6,5)              1.3314         estimate D2E/DX2                !
 ! D6    D(2,1,6,36)           176.3319         estimate D2E/DX2                !
 ! D7    D(34,1,6,5)          -174.7158         estimate D2E/DX2                !
 ! D8    D(34,1,6,36)            0.2847         estimate D2E/DX2                !
 ! D9    D(1,2,3,4)             -0.3916         estimate D2E/DX2                !
 ! D10   D(35,2,3,4)           179.2264         estimate D2E/DX2                !
 ! D11   D(2,3,4,5)              0.482          estimate D2E/DX2                !
 ! D12   D(2,3,4,7)            177.254          estimate D2E/DX2                !
 ! D13   D(3,4,5,6)              0.3589         estimate D2E/DX2                !
 ! D14   D(7,4,5,6)           -176.5217         estimate D2E/DX2                !
 ! D15   D(3,4,7,8)            179.0688         estimate D2E/DX2                !
 ! D16   D(3,4,7,11)             4.1667         estimate D2E/DX2                !
 ! D17   D(5,4,7,8)             -3.5417         estimate D2E/DX2                !
 ! D18   D(5,4,7,11)          -178.4438         estimate D2E/DX2                !
 ! D19   D(4,5,6,1)             -1.2511         estimate D2E/DX2                !
 ! D20   D(4,5,6,36)          -176.4154         estimate D2E/DX2                !
 ! D21   D(4,7,8,9)           -178.716          estimate D2E/DX2                !
 ! D22   D(4,7,8,37)             4.3742         estimate D2E/DX2                !
 ! D23   D(11,7,8,9)            -3.4121         estimate D2E/DX2                !
 ! D24   D(11,7,8,37)          179.6781         estimate D2E/DX2                !
 ! D25   D(4,7,11,10)          177.2006         estimate D2E/DX2                !
 ! D26   D(8,7,11,10)            1.25           estimate D2E/DX2                !
 ! D27   D(7,8,9,10)             4.6709         estimate D2E/DX2                !
 ! D28   D(7,8,9,38)           177.575          estimate D2E/DX2                !
 ! D29   D(37,8,9,10)         -178.6755         estimate D2E/DX2                !
 ! D30   D(37,8,9,38)           -5.7715         estimate D2E/DX2                !
 ! D31   D(8,9,10,11)           -3.6692         estimate D2E/DX2                !
 ! D32   D(8,9,10,12)         -179.1039         estimate D2E/DX2                !
 ! D33   D(38,9,10,11)        -175.6092         estimate D2E/DX2                !
 ! D34   D(38,9,10,12)           8.9561         estimate D2E/DX2                !
 ! D35   D(9,10,11,7)            1.3895         estimate D2E/DX2                !
 ! D36   D(12,10,11,7)         177.2869         estimate D2E/DX2                !
 ! D37   D(9,10,12,13)          -4.9433         estimate D2E/DX2                !
 ! D38   D(9,10,12,17)         178.0019         estimate D2E/DX2                !
 ! D39   D(11,10,12,13)        179.9102         estimate D2E/DX2                !
 ! D40   D(11,10,12,17)          2.8554         estimate D2E/DX2                !
 ! D41   D(10,12,13,14)       -177.5836         estimate D2E/DX2                !
 ! D42   D(10,12,13,39)          3.5179         estimate D2E/DX2                !
 ! D43   D(17,12,13,14)         -0.1235         estimate D2E/DX2                !
 ! D44   D(17,12,13,39)       -179.022          estimate D2E/DX2                !
 ! D45   D(10,12,17,16)       -178.3434         estimate D2E/DX2                !
 ! D46   D(10,12,17,40)         -7.259          estimate D2E/DX2                !
 ! D47   D(13,12,17,16)          4.414          estimate D2E/DX2                !
 ! D48   D(13,12,17,40)        175.4984         estimate D2E/DX2                !
 ! D49   D(12,13,14,15)         -4.124          estimate D2E/DX2                !
 ! D50   D(39,13,14,15)        174.8071         estimate D2E/DX2                !
 ! D51   D(13,14,15,16)          4.9578         estimate D2E/DX2                !
 ! D52   D(13,14,15,18)       -179.2066         estimate D2E/DX2                !
 ! D53   D(14,15,16,17)         -1.1244         estimate D2E/DX2                !
 ! D54   D(18,15,16,17)       -176.7601         estimate D2E/DX2                !
 ! D55   D(14,15,18,19)          2.1651         estimate D2E/DX2                !
 ! D56   D(14,15,18,22)       -176.1723         estimate D2E/DX2                !
 ! D57   D(16,15,18,19)        178.1837         estimate D2E/DX2                !
 ! D58   D(16,15,18,22)         -0.1538         estimate D2E/DX2                !
 ! D59   D(15,16,17,12)         -3.9534         estimate D2E/DX2                !
 ! D60   D(15,16,17,40)       -175.1133         estimate D2E/DX2                !
 ! D61   D(15,18,19,20)        177.4798         estimate D2E/DX2                !
 ! D62   D(15,18,19,41)         -0.0323         estimate D2E/DX2                !
 ! D63   D(22,18,19,20)         -4.0195         estimate D2E/DX2                !
 ! D64   D(22,18,19,41)        178.4684         estimate D2E/DX2                !
 ! D65   D(15,18,22,21)       -179.0859         estimate D2E/DX2                !
 ! D66   D(19,18,22,21)          2.374          estimate D2E/DX2                !
 ! D67   D(18,19,20,21)          4.1688         estimate D2E/DX2                !
 ! D68   D(18,19,20,42)       -178.5665         estimate D2E/DX2                !
 ! D69   D(41,19,20,21)       -178.435          estimate D2E/DX2                !
 ! D70   D(41,19,20,42)         -1.1703         estimate D2E/DX2                !
 ! D71   D(19,20,21,22)         -2.4615         estimate D2E/DX2                !
 ! D72   D(19,20,21,23)        177.8955         estimate D2E/DX2                !
 ! D73   D(42,20,21,22)       -179.5865         estimate D2E/DX2                !
 ! D74   D(42,20,21,23)          0.7705         estimate D2E/DX2                !
 ! D75   D(20,21,22,18)          0.0457         estimate D2E/DX2                !
 ! D76   D(23,21,22,18)        179.7276         estimate D2E/DX2                !
 ! D77   D(20,21,23,24)        177.8524         estimate D2E/DX2                !
 ! D78   D(20,21,23,28)         -3.3902         estimate D2E/DX2                !
 ! D79   D(22,21,23,24)         -1.7443         estimate D2E/DX2                !
 ! D80   D(22,21,23,28)        177.0131         estimate D2E/DX2                !
 ! D81   D(21,23,24,25)        177.0477         estimate D2E/DX2                !
 ! D82   D(21,23,24,43)          1.4214         estimate D2E/DX2                !
 ! D83   D(28,23,24,25)         -1.7319         estimate D2E/DX2                !
 ! D84   D(28,23,24,43)       -177.3582         estimate D2E/DX2                !
 ! D85   D(21,23,28,27)        179.3277         estimate D2E/DX2                !
 ! D86   D(21,23,28,44)          6.8559         estimate D2E/DX2                !
 ! D87   D(24,23,28,27)         -1.7766         estimate D2E/DX2                !
 ! D88   D(24,23,28,44)       -174.2484         estimate D2E/DX2                !
 ! D89   D(23,24,25,26)          5.0391         estimate D2E/DX2                !
 ! D90   D(43,24,25,26)       -178.6752         estimate D2E/DX2                !
 ! D91   D(24,25,26,27)         -5.7419         estimate D2E/DX2                !
 ! D92   D(24,25,26,29)        175.7583         estimate D2E/DX2                !
 ! D93   D(25,26,27,28)          2.9505         estimate D2E/DX2                !
 ! D94   D(29,26,27,28)       -178.6339         estimate D2E/DX2                !
 ! D95   D(25,26,29,30)          2.1004         estimate D2E/DX2                !
 ! D96   D(25,26,29,33)        175.4819         estimate D2E/DX2                !
 ! D97   D(27,26,29,30)       -176.5681         estimate D2E/DX2                !
 ! D98   D(27,26,29,33)         -3.1865         estimate D2E/DX2                !
 ! D99   D(26,27,28,23)          1.2551         estimate D2E/DX2                !
 ! D100  D(26,27,28,44)        174.3789         estimate D2E/DX2                !
 ! D101  D(26,29,30,31)        178.8229         estimate D2E/DX2                !
 ! D102  D(26,29,30,45)         -6.7272         estimate D2E/DX2                !
 ! D103  D(33,29,30,31)          5.2505         estimate D2E/DX2                !
 ! D104  D(33,29,30,45)        179.7004         estimate D2E/DX2                !
 ! D105  D(26,29,33,32)       -176.9135         estimate D2E/DX2                !
 ! D106  D(30,29,33,32)         -2.6913         estimate D2E/DX2                !
 ! D107  D(29,30,31,32)         -5.8511         estimate D2E/DX2                !
 ! D108  D(29,30,31,46)       -176.9437         estimate D2E/DX2                !
 ! D109  D(45,30,31,32)        179.6761         estimate D2E/DX2                !
 ! D110  D(45,30,31,46)          8.5835         estimate D2E/DX2                !
 ! D111  D(30,31,32,33)          3.8899         estimate D2E/DX2                !
 ! D112  D(30,31,32,47)       -179.7956         estimate D2E/DX2                !
 ! D113  D(46,31,32,33)        175.4059         estimate D2E/DX2                !
 ! D114  D(46,31,32,47)         -8.2796         estimate D2E/DX2                !
 ! D115  D(31,32,33,29)         -0.7305         estimate D2E/DX2                !
 ! D116  D(47,32,33,29)       -177.2972         estimate D2E/DX2                !
 --------------------------------------------------------------------------------
 Trust Radius=3.00D-01 FncErr=1.00D-07 GrdErr=1.00D-06 EigMax=2.50D+02 EigMin=1.00D-04
 Number of steps in this run=    259 maximum allowed number of steps=    282.
 GradGradGradGradGradGradGradGradGradGradGradGradGradGradGradGradGradGrad

 Leave Link  103 at Sat Jul 25 02:28:22 2020, MaxMem=  4026531840 cpu:               0.2 elap:               0.0
 (Enter /opt/ohpc/pub/libs/gaussian/g16-A.03/sandybridge/g16/l202.exe)
                          Input orientation:                          
 ---------------------------------------------------------------------
 Center     Atomic      Atomic             Coordinates (Angstroms)
 Number     Number       Type             X           Y           Z
 ---------------------------------------------------------------------
      1          6           0      -10.624202    2.420555   -0.019271
      2          6           0       -9.389603    2.986222   -0.006041
      3          7           0       -8.236660    2.208193    0.014846
      4          6           0       -8.494960    0.878117    0.028517
      5          7           0       -9.608603    0.223003    0.017351
      6          6           0      -10.734165    0.987788   -0.021339
      7          6           0       -7.324186   -0.018293   -0.012272
      8          6           0       -7.226490   -1.441375    0.005872
      9          6           0       -5.848492   -1.885844   -0.021724
     10          6           0       -4.958006   -0.895686    0.041211
     11         16           0       -5.716369    0.665275    0.036515
     12          6           0       -3.434894   -0.987194    0.017249
     13          6           0       -2.784306   -2.278843    0.022716
     14          7           0       -1.489576   -2.435821    0.049136
     15          6           0       -0.759135   -1.280106   -0.016978
     16          7           0       -1.266575   -0.100563   -0.008320
     17          6           0       -2.554987    0.036274    0.045168
     18          6           0        0.744851   -1.465549   -0.005113
     19          6           0        1.427475   -2.735382    0.024141
     20          6           0        2.871565   -2.516512   -0.033028
     21          6           0        3.250954   -1.139902   -0.007096
     22         16           0        1.793662   -0.218725    0.015094
     23          6           0        4.571618   -0.507135   -0.005305
     24          6           0        4.822065    0.765692   -0.019416
     25          7           0        6.036463    1.397818    0.036795
     26          6           0        7.044071    0.471231    0.002709
     27          7           0        6.964651   -0.790779    0.029720
     28          6           0        5.699708   -1.348893    0.040604
     29          6           0        8.434105    1.124606   -0.042221
     30          6           0        8.728216    2.478599   -0.010010
     31          6           0       10.153760    2.675300   -0.044506
     32          6           0       10.911172    1.474916    0.030293
     33         16           0        9.822833    0.084622    0.032046
     34          1           0      -11.557452    2.996333    0.038675
     35          1           0       -9.250610    3.963413   -0.004599
     36          1           0      -11.713106    0.482268    0.028194
     37          1           0       -8.065748   -2.021432   -0.012348
     38          1           0       -5.664886   -2.997015    0.032258
     39          1           0       -3.410178   -3.225902   -0.015598
     40          1           0       -2.950866    1.056140   -0.032509
     41          1           0        0.926529   -3.661463    0.040571
     42          1           0        3.528468   -3.315883   -0.044462
     43          1           0        4.045849    1.581360   -0.012552
     44          1           0        5.662739   -2.443390   -0.032881
     45          1           0        8.024362    3.243174   -0.049627
     46          1           0       10.665741    3.678072    0.020476
     47          1           0       11.978902    1.366047    0.025765
 ---------------------------------------------------------------------
                    Distance matrix (angstroms):
                    1          2          3          4          5
     1  C    0.000000
     2  C    1.358083   0.000000
     3  N    2.397211   1.391058   0.000000
     4  C    2.629652   2.290346   1.354994   0.000000
     5  N    2.421160   2.771983   2.413133   1.292091   0.000000
     6  C    1.436982   2.408697   2.779969   2.242443   1.361353
     7  C    4.103430   3.645970   2.406363   1.475102   2.297316
     8  C    5.143888   4.927760   3.786802   2.643780   2.905985
     9  C    6.430590   6.023018   4.739813   3.826983   4.311287
    10  C    6.565584   5.891561   4.514901   3.956840   4.783313
    11  S    5.212576   4.345256   2.955154   2.786742   3.917328
    12  C    7.956145   7.158711   5.767795   5.392938   6.291205
    13  C    9.140573   8.446993   7.061283   6.525182   7.268445
    14  N   10.345553   9.581859   8.190921   7.749711   8.543357
    15  C   10.536339   9.627391   8.251219   8.031375   8.976280
    16  N    9.691302   8.689754   7.342546   7.294431   8.348340
    17  C    8.414344   7.444246   6.082726   5.999355   7.056142
    18  C   12.014881  11.069120   9.703830   9.532471  10.490268
    19  C   13.108337  12.237109  10.855161  10.559929  11.425721
    20  C   14.370475  13.439384  12.071362  11.862765  12.777405
    21  C   14.324697  13.296939  11.965596  11.918060  12.931601
    22  S   12.695288  11.633467  10.319752  10.346931  11.410818
    23  C   15.475287  14.391638  13.092952  13.139845  14.199024
    24  C   15.534662  14.384104  13.138199  13.317586  14.440916
    25  N   16.692121  15.507688  14.296126  14.540716  15.689125
    26  C   17.775495  16.625008  15.379139  15.544379  16.654530
    27  N   17.879676  16.784774  15.494319  15.549430  16.604236
    28  C   16.753578  15.699768  14.383180  14.368310  15.388820
    29  C   19.102332  17.920700  16.706042  16.931007  18.065319
    30  C   19.352507  18.124929  16.967049  17.297422  18.475048
    31  C   20.779539  19.545874  18.396447  18.735260  19.914030
    32  C   21.556183  20.356985  19.161874  19.415307  20.557933
    33  S   20.580099  19.430348  18.183925  18.334972  19.431934
    34  H    1.098105   2.168334   3.413121   3.723681   3.389665
    35  H    2.065764   0.987028   2.027133   3.176658   3.757567
    36  H    2.223718   3.416083   3.881323   3.242400   2.120441
    37  H    5.126108   5.179694   4.233164   2.931429   2.723742
    38  H    7.344899   7.047986   5.805903   4.798539   5.091330
    39  H    9.161039   8.622302   7.268098   6.534518   7.093413
    40  H    7.793708   6.721849   5.410091   5.547287   6.709848
    41  H   13.054268  12.272590  10.881983  10.458125  11.228474
    42  H   15.271065  14.373398  12.997583  12.734119  13.605520
    43  H   14.694036  13.508703  12.298524  12.560578  13.721884
    44  H   16.997723  16.001700  14.657176  14.542236  15.502453
    45  H   18.666723  17.415915  16.294053  16.687948  17.889868
    46  H   21.327086  20.067291  18.959466  19.364201  20.566636
    47  H   22.627734  21.429862  20.233099  20.479675  21.617747
                    6          7          8          9         10
     6  C    0.000000
     7  C    3.555311   0.000000
     8  C    4.266774   1.426547   0.000000
     9  C    5.668118   2.380233   1.448169   0.000000
    10  C    6.075804   2.524180   2.333462   1.333169   0.000000
    11  S    5.028483   1.747776   2.592176   2.555202   1.735435
    12  C    7.561838   4.008271   3.818718   2.575761   1.526047
    13  C    8.594945   5.071668   4.520468   3.089605   2.576516
    14  N    9.858422   6.315923   5.822626   4.394046   3.795008
    15  C   10.229594   6.685214   6.469406   5.125280   4.216833
    16  N    9.529950   6.058171   6.108892   4.917456   3.776419
    17  C    8.234607   4.769857   4.899789   3.813946   2.577414
    18  C   11.738268   8.197802   7.971385   6.606746   5.731446
    19  C   12.718866   9.163813   8.750194   7.325538   6.645234
    20  C   14.049774  10.497374  10.155203   8.742841   7.995922
    21  C   14.146053  10.634454  10.481788   9.129981   8.212734
    22  S   12.585843   9.120092   9.102642   7.821966   6.785571
    23  C   15.378623  11.905846  11.835045  10.510937   9.537655
    24  C   15.557815  12.171528  12.249060  10.995064   9.920365
    25  N   16.775740  13.435577  13.563477  12.330370  11.231141
    26  C   17.785755  14.376601  14.398159  13.106280  12.079727
    27  N   17.788030  14.309765  14.206067  12.859955  11.923124
    28  C   16.599280  13.091795  12.926575  11.560844  10.667346
    29  C   19.168770  15.799710  15.869493  14.596431  13.543898
    30  C   19.519399  16.245433  16.429215  15.216074  14.096138
    31  C   20.955993  17.684317  17.861205  16.639610  15.528192
    32  C   21.650879  18.296441  18.370632  17.093383  16.045270
    33  S   20.576898  17.147385  17.117499  15.794811  14.813315
    34  H    2.171556   5.197221   6.200932   7.512092   7.661626
    35  H    3.324990   4.423251   5.771387   6.766721   6.483779
    36  H    1.102873   4.417558   4.881662   6.324883   6.894222
    37  H    4.021932   2.135996   1.020369   2.221418   3.305788
    38  H    6.448187   3.409992   2.204386   1.127531   2.217057
    39  H    8.449615   5.060457   4.212984   2.782295   2.798018
    40  H    7.783607   4.503415   4.951769   4.129361   2.800655
    41  H   12.553531   9.019411   8.449953   7.004114   6.502098
    42  H   14.897813  11.342629  10.917208   9.485405   8.825244
    43  H   14.791931  11.482011  11.670600  10.484254   9.338525
    44  H   16.752062  13.211425  12.928177  11.524731  10.733178
    45  H   18.893647  15.691287  15.954202  14.790662  13.626456
    46  H   21.568388  18.365774  18.610236  17.426383  16.279471
    47  H   22.716265  19.352701  19.409510  18.121618  17.087262
                   11         12         13         14         15
    11  S    0.000000
    12  C    2.817118   0.000000
    13  C    4.155119   1.446254   0.000000
    14  N    5.242398   2.425654   1.304479   0.000000
    15  C    5.325555   2.691961   2.258400   1.368792   0.000000
    16  N    4.515438   2.342728   2.655066   2.346585   1.284092
    17  C    3.223361   1.350001   2.326555   2.691908   2.227510
    18  C    6.803639   4.207088   3.621763   2.436603   1.515422
    19  C    7.911961   5.167092   4.236452   2.932499   2.626934
    20  C    9.158669   6.489435   5.661137   4.362661   3.835484
    21  C    9.147319   6.687636   6.141860   4.914793   4.012551
    22  S    7.561910   5.284728   5.020153   3.961859   2.764838
    23  C   10.354659   8.020923   7.566330   6.360886   5.386515
    24  C   10.539061   8.441050   8.193159   7.077513   5.944332
    25  N   11.775639   9.767050   9.556359   8.446195   7.304404
    26  C   12.761960  10.579977  10.205895   9.015333   7.997349
    27  N   12.764341  10.401407   9.861873   8.612810   7.739412
    28  C   11.592399   9.141790   8.534847   7.270990   6.459466
    29  C   14.158146  12.055554  11.723499  10.543454   9.502575
    30  C   14.558034  12.647281  12.456825  11.338355  10.204790
    31  C   15.997117  14.073706  13.854299  12.716116  11.607639
    32  C   16.647242  14.555816  14.200594  13.002799  11.991182
    33  S   15.550047  13.300990  12.826769  11.589803  10.669720
    34  H    6.289045   9.046817  10.236983  11.439866  11.614417
    35  H    4.834280   7.637509   8.987747  10.059162   9.979970
    36  H    5.999535   8.407629   9.345974  10.631851  11.094931
    37  H    3.569365   4.745032   5.287827   6.589502   7.344125
    38  H    3.662654   3.002078   2.968771   4.212889   5.197749
    39  H    4.523549   2.239085   1.135828   2.077771   3.288488
    40  H    2.793841   2.100470   3.339596   3.786268   3.203431
    41  H    7.927722   5.116079   3.960082   2.709213   2.918156
    42  H   10.065942   7.342684   6.397740   5.095492   4.746439
    43  H    9.805229   7.909480   7.845599   6.839772   5.592484
    44  H   11.796301   9.213574   8.448830   7.152789   6.526404
    45  H   13.980725  12.215361  12.137760  11.080422   9.879825
    46  H   16.656852  14.852361  14.710153  13.606331  12.454426
    47  H   17.709145  15.592400  15.206497  13.994808  13.010055
                   16         17         18         19         20
    16  N    0.000000
    17  C    1.296762   0.000000
    18  C    2.430850   3.625870   0.000000
    19  C    3.768452   4.852064   1.441980   0.000000
    20  C    4.791829   5.997524   2.372386   1.461700   0.000000
    21  C    4.635547   5.924109   2.527173   2.423140   1.428168
    22  S    3.062607   4.356223   1.629412   2.543175   2.538507
    23  C    5.852333   7.147471   3.944959   3.853776   2.632213
    24  C    6.149964   7.413307   4.647829   4.876747   3.818049
    25  N    7.455303   8.698671   6.016792   6.190822   5.034226
    26  C    8.330301   9.609001   6.590247   6.467533   5.132026
    27  N    8.260201   9.555510   6.256392   5.868716   4.442459
    28  C    7.077416   8.370107   4.956441   4.491614   3.060580
    29  C    9.777800  11.043199   8.113871   7.999798   6.648284
    30  C   10.322206  11.544638   8.904518   8.971487   7.697534
    31  C   11.752905  12.980168  10.279871  10.267826   8.943456
    32  C   12.279297  13.542797  10.583084  10.376279   8.976123
    33  S   11.091028  12.377921   9.209461   8.856327   7.422281
    34  H   10.746866   9.476622  13.086519  14.193699  15.446460
    35  H    8.958835   7.762491  11.374659  12.605403  13.745449
    36  H   10.462841   9.168988  12.609353  13.528790  14.889898
    37  H    7.065303   5.882682   8.828121   9.520102  10.948532
    38  H    5.266519   4.344247   6.590259   7.097190   8.550213
    39  H    3.789833   3.372957   4.512562   4.862620   6.321695
    40  H    2.043375   1.096759   4.474147   5.792126   6.831145
    41  H    4.182356   5.078802   2.203890   1.053016   2.258206
    42  H    5.773389   6.946468   3.342725   2.180793   1.034720
    43  H    5.572318   6.779503   4.492249   5.048910   4.262853
    44  H    7.314700   8.584046   5.014236   4.245700   2.792132
    45  H    9.874401  11.055126   8.669794   8.903229   7.728232
    46  H   12.516352  13.713167  11.175041  11.246242   9.956150
    47  H   13.326469  14.594609  11.585456  11.320527   9.900571
                   21         22         23         24         25
    21  C    0.000000
    22  S    1.724169   0.000000
    23  C    1.464428   2.792962   0.000000
    24  C    2.469783   3.184571   1.297309   0.000000
    25  N    3.768423   4.540379   2.403412   1.370221   0.000000
    26  C    4.121114   5.295563   2.659001   2.241541   1.369306
    27  N    3.730253   5.202556   2.410039   2.648715   2.377297
    28  C    2.458119   4.066341   1.408280   2.290268   2.767280
    29  C    5.656349   6.775198   4.193179   3.629900   2.414451
    30  C    6.564599   7.440714   5.117806   4.265226   2.901002
    31  C    7.887071   8.847043   6.425709   5.663409   4.311694
    32  C    8.094295   9.273491   6.642269   6.130473   4.875323
    33  S    6.685102   8.034917   5.284584   5.047196   4.007631
    34  H   15.375286  13.732786  16.505245  16.530811  17.666383
    35  H   13.503071  11.809598  14.527209  14.431418  15.500922
    36  H   15.051770  13.524953  16.314787  16.537668  17.773168
    37  H   11.350985  10.022897  12.727771  13.185744  14.510894
    38  H    9.107284   7.959217  10.535033  11.141668  12.499446
    39  H    6.980125   6.010325   8.432133   9.148916  10.517631
    40  H    6.579196   4.913053   7.683250   7.778367   8.994089
    41  H    3.429795   3.550354   4.820639   5.897330   7.190811
    42  H    2.193924   3.550421   2.996458   4.281737   5.340002
    43  H    2.834988   2.883300   2.153671   1.125999   1.999667
    44  H    2.741615   4.463316   2.222699   3.317397   3.859975
    45  H    6.480632   7.128152   5.097865   4.048893   2.713770
    46  H    8.842664   9.690141   7.392899   6.529326   5.160430
    47  H    9.080635  10.307799   7.640526   7.182116   5.942534
                   26         27         28         29         30
    26  C    0.000000
    27  N    1.264795   0.000000
    28  C    2.263095   1.382639   0.000000
    29  C    1.536591   2.415196   3.688087   0.000000
    30  C    2.620312   3.714912   4.880996   1.385942   0.000000
    31  C    3.811865   4.710587   6.003328   2.315571   1.439464
    32  C    3.995324   4.550649   5.927340   2.502766   2.402977
    33  S    2.805681   2.989237   4.365226   1.736562   2.632695
    34  H   18.772163  18.905306  17.795802  20.079150  20.292332
    35  H   16.664694  16.897876  15.866148  17.911153  18.040036
    36  H   18.757198  18.721091  17.508838  20.157571  20.538609
    37  H   15.314053  15.080755  13.781977  16.797131  17.386417
    38  H   13.173731  12.820791  11.483483  14.689277  15.399530
    39  H   11.088753  10.656874   9.301416  12.618029  13.412008
    40  H   10.012099  10.086251   8.978973  11.385181  11.765409
    41  H    7.382744   6.685796   5.303887   8.903764   9.928204
    42  H    5.167584   4.264857   2.930967   6.616889   7.785537
    43  H    3.197179   3.761414   3.365183   4.412062   4.767558
    44  H    3.225579   2.104761   1.097584   4.517870   5.798590
    45  H    2.940642   4.171578   5.147741   2.157840   1.039978
    46  H    4.837421   5.802481   7.066277   3.391802   2.278962
    47  H    5.015355   5.458445   6.841008   3.553660   3.435988
                   31         32         33         34         35
    31  C    0.000000
    32  C    1.421334   0.000000
    33  S    2.612850   1.765617   0.000000
    34  H   21.713745  22.520076  21.577643   0.000000
    35  H   19.447118  20.314805  19.463879   2.501727   0.000000
    36  H   21.976681  22.646044  21.539610   2.518901   4.264192
    37  H   18.815175  19.296367  18.012184   6.113311   6.101010
    38  H   16.805077  17.168689  15.791324   8.404915   7.829836
    39  H   14.792073  15.073184  13.640910  10.251694   9.262668
    40  H   13.204281  13.868504  12.810753   8.822853   6.938284
    41  H   11.193909  11.228339   9.652847  14.148358  12.716719
    42  H    8.932456   8.801231   7.154601  16.353470  14.706957
    43  H    6.205184   6.866282   5.967894  15.667411  13.508148
    44  H    6.809581   6.550051   4.868413  18.059089  16.231325
    45  H    2.203825   3.386266   3.635604  19.583569  17.290038
    46  H    1.127785   2.216806   3.691004  22.233655  19.918411
    47  H    2.247271   1.073276   2.508131  23.592752  21.387833
                   36         37         38         39         40
    36  H    0.000000
    37  H    4.424181   0.000000
    38  H    6.977563   2.591889   0.000000
    39  H    9.093462   4.808855   2.266801   0.000000
    40  H    8.781222   5.969412   4.878336   4.306639   0.000000
    41  H   13.301542   9.140763   6.624825   4.358887   6.106989
    42  H   15.707858  11.666297   9.199202   6.939289   7.816425
    43  H   15.797289  12.636095  10.736009   8.871421   7.016429
    44  H   17.620533  13.734985  11.341333   9.106616   9.297360
    45  H   19.929784  16.929534  15.044673  13.137687  11.191025
    46  H   22.605885  19.579431  17.642174  15.677935  13.866843
    47  H   23.708486  20.328907  18.175247  16.059623  14.933098
                   41         42         43         44         45
    41  H    0.000000
    42  H    2.626165   0.000000
    43  H    6.100834   4.924601   0.000000
    44  H    4.890888   2.305752   4.337437   0.000000
    45  H    9.902595   7.952001   4.311794   6.157479   0.000000
    46  H   12.195140   9.993012   6.944081   7.906021   2.677860
    47  H   12.142118   9.661016   7.936067   7.376257   4.378090
                   46         47
    46  H    0.000000
    47  H    2.658924   0.000000
 Stoichiometry    C24H14N6S3
 Framework group  C1[X(C24H14N6S3)]
 Deg. of freedom   135
 Full point group                 C1      NOp   1
 Largest Abelian subgroup         C1      NOp   1
 Largest concise Abelian subgroup C1      NOp   1
                         Standard orientation:                         
 ---------------------------------------------------------------------
 Center     Atomic      Atomic             Coordinates (Angstroms)
 Number     Number       Type             X           Y           Z
 ---------------------------------------------------------------------
      1          6           0       10.627522    2.418235    0.023129
      2          6           0        9.393158    2.984374    0.008211
      3          7           0        8.239897    2.206767   -0.010707
      4          6           0        8.497649    0.876552   -0.020736
      5          7           0        9.611020    0.221011   -0.007654
      6          6           0       10.736893    0.985434    0.029099
      7          6           0        7.326500   -0.019261    0.022341
      8          6           0        7.228219   -1.442347    0.008048
      9          6           0        5.850034   -1.886171    0.036679
     10          6           0        4.959965   -0.895820   -0.029053
     11         16           0        5.718972    0.664835   -0.028500
     12          6           0        3.436812   -0.986634   -0.005031
     13          6           0        2.785692   -2.278025   -0.007073
     14          7           0        1.490900   -2.434540   -0.033227
     15          6           0        0.760929   -1.278348    0.029660
     16          7           0        1.268857   -0.099043    0.017863
     17          6           0        2.557331    0.037117   -0.035836
     18          6           0       -0.743132   -1.463202    0.018112
     19          6           0       -1.426277   -2.732828   -0.007780
     20          6           0       -2.870284   -2.513208    0.048616
     21          6           0       -3.249101   -1.136517    0.018901
     22         16           0       -1.791426   -0.216005   -0.005608
     23          6           0       -4.569503   -0.503213    0.015230
     24          6           0       -4.819427    0.769751    0.025855
     25          7           0       -6.033557    1.402223   -0.032221
     26          6           0       -7.041551    0.476148    0.004255
     27          7           0       -6.962649   -0.785964   -0.019321
     28          6           0       -5.697935   -1.344627   -0.028534
     29          6           0       -8.431321    1.130216    0.047239
     30          6           0       -8.724869    2.484237    0.011317
     31          6           0      -10.150336    2.681619    0.045103
     32          6           0      -10.908234    1.481349   -0.026532
     33         16           0       -9.820469    0.090607   -0.024377
     34          1           0       11.561017    2.993469   -0.036264
     35          1           0        9.254569    3.961614    0.004100
     36          1           0       11.715632    0.479378   -0.018940
     37          1           0        8.067235   -2.022698    0.027946
     38          1           0        5.665976   -2.997408   -0.014309
     39          1           0        3.411168   -3.225234    0.033889
     40          1           0        2.953622    1.057027    0.039121
     41          1           0       -0.925711   -3.659157   -0.021634
     42          1           0       -3.527518   -3.312274    0.062139
     43          1           0       -4.042873    1.585077    0.016873
     44          1           0       -5.661427   -2.438936    0.047926
     45          1           0       -8.020704    3.248627    0.048946
     46          1           0      -10.661895    3.684422   -0.022664
     47          1           0      -11.976010    1.372933   -0.021840
 ---------------------------------------------------------------------
 Rotational constants (GHZ):           0.4490261           0.0232413           0.0220981
 Leave Link  202 at Sat Jul 25 02:28:22 2020, MaxMem=  4026531840 cpu:               0.1 elap:               0.0
 (Enter /opt/ohpc/pub/libs/gaussian/g16-A.03/sandybridge/g16/l301.exe)
 Standard basis: CC-pVDZ (5D, 7F)
 Ernie: Thresh=  0.10000D-02 Tol=  0.10000D-05 Strict=F.
 Ernie:  90 primitive shells out of 880 were deleted.
 There are   577 symmetry adapted cartesian basis functions of A   symmetry.
 There are   544 symmetry adapted basis functions of A   symmetry.
   544 basis functions,  1301 primitive gaussians,   577 cartesian basis functions
   124 alpha electrons      124 beta electrons
       nuclear repulsion energy      3110.3207610672 Hartrees.
 IExCor=32609 DFT=T Ex+Corr=LC-wPBE ExCW=0 ScaHFX=  1.000000
 ScaDFX=  1.000000  0.000000  1.000000  1.000000 ScalE2=  1.000000  1.000000
 IRadAn=      5 IRanWt=     -1 IRanGd=            0 ICorTp=0 IEmpDi=  4
 HFx  wShort=  0.000000 wLong=  0.182900 cFull=  0.000000 cShort=  0.000000 cLong=  1.000000
 DFx  wShort=  0.000000 wLong=  0.182900 cFull=  0.000000 cShort=  0.000000 cLong=  1.000000
 NAtoms=   47 NActive=   47 NUniq=   47 SFac= 1.00D+00 NAtFMM=   60 NAOKFM=F Big=F
 Integral buffers will be    131072 words long.
 Raffenetti 2 integral format.
 Two-electron integral symmetry is turned on.
 Leave Link  301 at Sat Jul 25 02:28:22 2020, MaxMem=  4026531840 cpu:               0.4 elap:               0.1
 (Enter /opt/ohpc/pub/libs/gaussian/g16-A.03/sandybridge/g16/l302.exe)
 NPDir=0 NMtPBC=     1 NCelOv=     1 NCel=       1 NClECP=     1 NCelD=      1
         NCelK=      1 NCelE2=     1 NClLst=     1 CellRange=     0.0.
 One-electron integrals computed using PRISM.
 One-electron integral symmetry used in STVInt
 NBasis=   544 RedAO= T EigKep=  3.93D-04  NBF=   544
 NBsUse=   544 1.00D-06 EigRej= -1.00D+00 NBFU=   544
 Precomputing XC quadrature grid using
 IXCGrd= 4 IRadAn=           5 IRanWt=          -1 IRanGd=           0 AccXCQ= 0.00D+00.
 Generated NRdTot=       0 NPtTot=           0 NUsed=           0 NTot=          32
 NSgBfM=   492   492   492   492   492 MxSgAt=    47 MxSgA2=    47.
 Leave Link  302 at Sat Jul 25 02:28:23 2020, MaxMem=  4026531840 cpu:               7.2 elap:               0.9
 (Enter /opt/ohpc/pub/libs/gaussian/g16-A.03/sandybridge/g16/l303.exe)
 DipDrv:  MaxL=1.
 Leave Link  303 at Sat Jul 25 02:28:23 2020, MaxMem=  4026531840 cpu:               0.8 elap:               0.2
 (Enter /opt/ohpc/pub/libs/gaussian/g16-A.03/sandybridge/g16/l401.exe)
 ExpMin= 1.22D-01 ExpMax= 1.11D+05 ExpMxC= 1.07D+03 IAcc=3 IRadAn=         5 AccDes= 0.00D+00
 Harris functional with IExCor=32609 and IRadAn=       5 diagonalized for initial guess.
 HarFok:  IExCor=32609 AccDes= 0.00D+00 IRadAn=         5 IDoV= 1 UseB2=F ITyADJ=14
 ICtDFT=  3500011 ScaDFX=  1.000000  1.000000  1.000000  1.000000
 FoFCou: FMM=F IPFlag=           0 FMFlag=      100000 FMFlg1=           0
         NFxFlg=           0 DoJE=T BraDBF=F KetDBF=T FulRan=T
         wScrn=  0.000000 ICntrl=       500 IOpCl=  0 I1Cent=   200000004 NGrid=           0
         NMat0=    1 NMatS0=      1 NMatT0=    0 NMatD0=    1 NMtDS0=    0 NMtDT0=    0
 Petite list used in FoFCou.
 Harris En= -2444.39754462383    
 JPrj=0 DoOrth=F DoCkMO=F.
 Initial guess <Sx>= 0.0000 <Sy>= 0.0000 <Sz>= 0.0000 <S**2>= 0.0000 S= 0.0000
 Leave Link  401 at Sat Jul 25 02:28:28 2020, MaxMem=  4026531840 cpu:              34.0 elap:               4.3
 (Enter /opt/ohpc/pub/libs/gaussian/g16-A.03/sandybridge/g16/l502.exe)
 Integral symmetry usage will be decided dynamically.
 UHF open shell SCF:
 Using DIIS extrapolation, IDIIS=  1040.
 NGot=  4026531840 LenX=  4025855579 LenY=  4025522073
 Requested convergence on RMS density matrix=1.00D-08 within 128 cycles.
 Requested convergence on MAX density matrix=1.00D-06.
 Requested convergence on             energy=1.00D-06.
 No special actions if energy rises.
 Fock matrices will be formed incrementally for  20 cycles.
 Integral accuracy reduced to 1.0D-05 until final iterations.

 Cycle   1  Pass 0  IDiag  1:
 FoFJK:  IHMeth= 1 ICntrl=       0 DoSepK=T KAlg= 0 I1Cent=           0 FoldK=F
 IRaf=         1 NMat=       1 IRICut=       1 DoRegI=T DoRafI=F ISym2E= 0 IDoP0=0 IntGTp=1.
 FoFCou: FMM=F IPFlag=           0 FMFlag=      100000 FMFlg1=           0
         NFxFlg=           0 DoJE=T BraDBF=F KetDBF=F FulRan=T
         wScrn=  0.000000 ICntrl=       500 IOpCl=  0 I1Cent=           0 NGrid=           0
         NMat0=    1 NMatS0=      1 NMatT0=    0 NMatD0=    1 NMtDS0=    0 NMtDT0=    0
 Symmetry not used in FoFCou.
 E= -2443.90074537785    
 DIIS: error= 2.33D-02 at cycle   1 NSaved=   1.
 NSaved= 1 IEnMin= 1 EnMin= -2443.90074537785     IErMin= 1 ErrMin= 2.33D-02
 ErrMax= 2.33D-02  0.00D+00 EMaxC= 1.00D-01 BMatC= 2.12D+00 BMatP= 2.12D+00
 IDIUse=3 WtCom= 7.67D-01 WtEn= 2.33D-01
 Coeff-Com:  0.100D+01
 Coeff-En:   0.100D+01
 Coeff:      0.100D+01
 Gap=     0.206 Goal=   None    Shift=    0.000
 Gap=     0.206 Goal=   None    Shift=    0.000
 GapD=    0.206 DampG=1.000 DampE=0.500 DampFc=0.5000 IDamp=-1.
 Damping current iteration by 5.00D-01
 RMSDP=3.25D-03 MaxDP=1.71D-01              OVMax= 2.77D-01

 Cycle   2  Pass 0  IDiag  1:
 RMSU=  1.62D-03    CP:  9.90D-01
 E= -2444.16250364216     Delta-E=       -0.261758264310 Rises=F Damp=T
 DIIS: error= 6.79D-03 at cycle   2 NSaved=   2.
 NSaved= 2 IEnMin= 2 EnMin= -2444.16250364216     IErMin= 2 ErrMin= 6.79D-03
 ErrMax= 6.79D-03  0.00D+00 EMaxC= 1.00D-01 BMatC= 1.24D-01 BMatP= 2.12D+00
 IDIUse=3 WtCom= 9.32D-01 WtEn= 6.79D-02
 Coeff-Com:  0.958D-01 0.904D+00
 Coeff-En:   0.151D+00 0.849D+00
 Coeff:      0.996D-01 0.900D+00
 Gap=     0.224 Goal=   None    Shift=    0.000
 Gap=     0.224 Goal=   None    Shift=    0.000
 RMSDP=8.04D-04 MaxDP=2.65D-02 DE=-2.62D-01 OVMax= 2.02D-01

 Cycle   3  Pass 0  IDiag  1:
 RMSU=  7.99D-04    CP:  9.85D-01  9.72D-01
 E= -2444.49961754028     Delta-E=       -0.337113898117 Rises=F Damp=F
 DIIS: error= 3.39D-03 at cycle   3 NSaved=   3.
 NSaved= 3 IEnMin= 3 EnMin= -2444.49961754028     IErMin= 3 ErrMin= 3.39D-03
 ErrMax= 3.39D-03  0.00D+00 EMaxC= 1.00D-01 BMatC= 5.73D-02 BMatP= 1.24D-01
 IDIUse=3 WtCom= 9.66D-01 WtEn= 3.39D-02
 Coeff-Com:  0.169D-01 0.387D+00 0.596D+00
 Coeff-En:   0.000D+00 0.000D+00 0.100D+01
 Coeff:      0.163D-01 0.374D+00 0.610D+00
 Gap=     0.225 Goal=   None    Shift=    0.000
 Gap=     0.225 Goal=   None    Shift=    0.000
 RMSDP=3.21D-04 MaxDP=1.55D-02 DE=-3.37D-01 OVMax= 3.04D-02

 Cycle   4  Pass 0  IDiag  1:
 RMSU=  2.51D-04    CP:  9.86D-01  9.96D-01  7.54D-01
 E= -2444.51253152607     Delta-E=       -0.012913985785 Rises=F Damp=F
 DIIS: error= 1.77D-03 at cycle   4 NSaved=   4.
 NSaved= 4 IEnMin= 4 EnMin= -2444.51253152607     IErMin= 4 ErrMin= 1.77D-03
 ErrMax= 1.77D-03  0.00D+00 EMaxC= 1.00D-01 BMatC= 1.19D-02 BMatP= 5.73D-02
 IDIUse=3 WtCom= 9.82D-01 WtEn= 1.77D-02
 Coeff-Com:  0.483D-02 0.774D-01 0.319D+00 0.599D+00
 Coeff-En:   0.000D+00 0.000D+00 0.112D+00 0.888D+00
 Coeff:      0.474D-02 0.760D-01 0.315D+00 0.604D+00
 Gap=     0.226 Goal=   None    Shift=    0.000
 Gap=     0.226 Goal=   None    Shift=    0.000
 RMSDP=1.10D-04 MaxDP=8.39D-03 DE=-1.29D-02 OVMax= 1.01D-02

 Cycle   5  Pass 0  IDiag  1:
 RMSU=  8.38D-05    CP:  9.86D-01  9.88D-01  8.07D-01  7.78D-01
 E= -2444.51529917688     Delta-E=       -0.002767650816 Rises=F Damp=F
 DIIS: error= 5.41D-04 at cycle   5 NSaved=   5.
 NSaved= 5 IEnMin= 5 EnMin= -2444.51529917688     IErMin= 5 ErrMin= 5.41D-04
 ErrMax= 5.41D-04  0.00D+00 EMaxC= 1.00D-01 BMatC= 1.13D-03 BMatP= 1.19D-02
 IDIUse=3 WtCom= 9.95D-01 WtEn= 5.41D-03
 Coeff-Com:  0.408D-02-0.119D-01 0.818D-01 0.287D+00 0.639D+00
 Coeff-En:   0.000D+00 0.000D+00 0.000D+00 0.000D+00 0.100D+01
 Coeff:      0.406D-02-0.118D-01 0.814D-01 0.285D+00 0.641D+00
 Gap=     0.227 Goal=   None    Shift=    0.000
 Gap=     0.227 Goal=   None    Shift=    0.000
 RMSDP=4.03D-05 MaxDP=2.76D-03 DE=-2.77D-03 OVMax= 3.44D-03

 Cycle   6  Pass 0  IDiag  1:
 RMSU=  3.37D-05    CP:  9.86D-01  9.85D-01  8.15D-01  8.47D-01  8.72D-01
 E= -2444.51558186584     Delta-E=       -0.000282688961 Rises=F Damp=F
 DIIS: error= 1.95D-04 at cycle   6 NSaved=   6.
 NSaved= 6 IEnMin= 6 EnMin= -2444.51558186584     IErMin= 6 ErrMin= 1.95D-04
 ErrMax= 1.95D-04  0.00D+00 EMaxC= 1.00D-01 BMatC= 1.68D-04 BMatP= 1.13D-03
 IDIUse=3 WtCom= 9.98D-01 WtEn= 1.95D-03
 Coeff-Com:  0.264D-02-0.206D-01-0.513D-02 0.574D-01 0.315D+00 0.651D+00
 Coeff-En:   0.000D+00 0.000D+00 0.000D+00 0.000D+00 0.000D+00 0.100D+01
 Coeff:      0.264D-02-0.205D-01-0.512D-02 0.573D-01 0.314D+00 0.651D+00
 Gap=     0.227 Goal=   None    Shift=    0.000
 Gap=     0.227 Goal=   None    Shift=    0.000
 RMSDP=1.70D-05 MaxDP=1.14D-03 DE=-2.83D-04 OVMax= 1.92D-03

 Cycle   7  Pass 0  IDiag  1:
 RMSU=  1.22D-05    CP:  9.86D-01  9.83D-01  8.23D-01  8.67D-01  9.70D-01
                    CP:  9.19D-01
 E= -2444.51563557556     Delta-E=       -0.000053709720 Rises=F Damp=F
 DIIS: error= 6.36D-05 at cycle   7 NSaved=   7.
 NSaved= 7 IEnMin= 7 EnMin= -2444.51563557556     IErMin= 7 ErrMin= 6.36D-05
 ErrMax= 6.36D-05  0.00D+00 EMaxC= 1.00D-01 BMatC= 1.75D-05 BMatP= 1.68D-04
 IDIUse=1 WtCom= 1.00D+00 WtEn= 0.00D+00
 Coeff-Com:  0.933D-03-0.748D-02-0.116D-01-0.147D-01 0.254D-01 0.241D+00
 Coeff-Com:  0.766D+00
 Coeff:      0.933D-03-0.748D-02-0.116D-01-0.147D-01 0.254D-01 0.241D+00
 Coeff:      0.766D+00
 Gap=     0.227 Goal=   None    Shift=    0.000
 Gap=     0.227 Goal=   None    Shift=    0.000
 RMSDP=7.78D-06 MaxDP=4.39D-04 DE=-5.37D-05 OVMax= 1.09D-03

 Initial convergence to 1.0D-05 achieved.  Increase integral accuracy.
 Cycle   8  Pass 1  IDiag  1:
 E= -2444.51527829883     Delta-E=        0.000357276737 Rises=F Damp=F
 DIIS: error= 1.39D-04 at cycle   1 NSaved=   1.
 NSaved= 1 IEnMin= 1 EnMin= -2444.51527829883     IErMin= 1 ErrMin= 1.39D-04
 ErrMax= 1.39D-04  0.00D+00 EMaxC= 1.00D-01 BMatC= 2.25D-05 BMatP= 2.25D-05
 IDIUse=3 WtCom= 9.99D-01 WtEn= 1.39D-03
 Coeff-Com:  0.100D+01
 Coeff-En:   0.100D+01
 Coeff:      0.100D+01
 Gap=     0.227 Goal=   None    Shift=    0.000
 Gap=     0.227 Goal=   None    Shift=    0.000
 RMSDP=7.78D-06 MaxDP=4.39D-04 DE= 3.57D-04 OVMax= 5.16D-04

 Cycle   9  Pass 1  IDiag  1:
 RMSU=  6.91D-05    CP:  1.00D+00
 E= -2444.51528178883     Delta-E=       -0.000003490006 Rises=F Damp=F
 DIIS: error= 4.93D-05 at cycle   2 NSaved=   2.
 NSaved= 2 IEnMin= 2 EnMin= -2444.51528178883     IErMin= 2 ErrMin= 4.93D-05
 ErrMax= 4.93D-05  0.00D+00 EMaxC= 1.00D-01 BMatC= 8.86D-06 BMatP= 2.25D-05
 IDIUse=1 WtCom= 1.00D+00 WtEn= 0.00D+00
 Coeff-Com:  0.334D+00 0.666D+00
 Coeff:      0.334D+00 0.666D+00
 Gap=     0.227 Goal=   None    Shift=    0.000
 Gap=     0.227 Goal=   None    Shift=    0.000
 RMSDP=4.98D-06 MaxDP=3.36D-04 DE=-3.49D-06 OVMax= 4.14D-04

 Cycle  10  Pass 1  IDiag  1:
 RMSU=  4.54D-06    CP:  1.00D+00  1.03D+00
 E= -2444.51528293735     Delta-E=       -0.000001148522 Rises=F Damp=F
 DIIS: error= 3.95D-05 at cycle   3 NSaved=   3.
 NSaved= 3 IEnMin= 3 EnMin= -2444.51528293735     IErMin= 3 ErrMin= 3.95D-05
 ErrMax= 3.95D-05  0.00D+00 EMaxC= 1.00D-01 BMatC= 5.00D-06 BMatP= 8.86D-06
 IDIUse=1 WtCom= 1.00D+00 WtEn= 0.00D+00
 Coeff-Com: -0.135D-01 0.428D+00 0.585D+00
 Coeff:     -0.135D-01 0.428D+00 0.585D+00
 Gap=     0.227 Goal=   None    Shift=    0.000
 Gap=     0.227 Goal=   None    Shift=    0.000
 RMSDP=2.54D-06 MaxDP=1.74D-04 DE=-1.15D-06 OVMax= 2.26D-04

 Cycle  11  Pass 1  IDiag  1:
 RMSU=  1.14D-06    CP:  1.00D+00  1.05D+00  6.30D-01
 E= -2444.51528408696     Delta-E=       -0.000001149603 Rises=F Damp=F
 DIIS: error= 5.97D-06 at cycle   4 NSaved=   4.
 NSaved= 4 IEnMin= 4 EnMin= -2444.51528408696     IErMin= 4 ErrMin= 5.97D-06
 ErrMax= 5.97D-06  0.00D+00 EMaxC= 1.00D-01 BMatC= 1.76D-07 BMatP= 5.00D-06
 IDIUse=1 WtCom= 1.00D+00 WtEn= 0.00D+00
 Coeff-Com: -0.179D-01 0.207D+00 0.310D+00 0.500D+00
 Coeff:     -0.179D-01 0.207D+00 0.310D+00 0.500D+00
 Gap=     0.227 Goal=   None    Shift=    0.000
 Gap=     0.227 Goal=   None    Shift=    0.000
 RMSDP=4.33D-07 MaxDP=2.30D-05 DE=-1.15D-06 OVMax= 4.74D-05

 Cycle  12  Pass 1  IDiag  1:
 RMSU=  4.09D-07    CP:  1.00D+00  1.05D+00  6.53D-01  9.43D-01
 E= -2444.51528415091     Delta-E=       -0.000000063954 Rises=F Damp=F
 DIIS: error= 2.67D-06 at cycle   5 NSaved=   5.
 NSaved= 5 IEnMin= 5 EnMin= -2444.51528415091     IErMin= 5 ErrMin= 2.67D-06
 ErrMax= 2.67D-06  0.00D+00 EMaxC= 1.00D-01 BMatC= 1.03D-08 BMatP= 1.76D-07
 IDIUse=1 WtCom= 1.00D+00 WtEn= 0.00D+00
 Coeff-Com:  0.726D-03-0.603D-01-0.819D-01 0.473D-01 0.109D+01
 Coeff:      0.726D-03-0.603D-01-0.819D-01 0.473D-01 0.109D+01
 Gap=     0.227 Goal=   None    Shift=    0.000
 Gap=     0.227 Goal=   None    Shift=    0.000
 RMSDP=3.38D-07 MaxDP=2.18D-05 DE=-6.40D-08 OVMax= 6.56D-05

 Cycle  13  Pass 1  IDiag  1:
 RMSU=  1.89D-07    CP:  1.00D+00  1.05D+00  6.64D-01  1.16D+00  1.27D+00
 E= -2444.51528416315     Delta-E=       -0.000000012242 Rises=F Damp=F
 DIIS: error= 1.55D-06 at cycle   6 NSaved=   6.
 NSaved= 6 IEnMin= 6 EnMin= -2444.51528416315     IErMin= 6 ErrMin= 1.55D-06
 ErrMax= 1.55D-06  0.00D+00 EMaxC= 1.00D-01 BMatC= 6.37D-09 BMatP= 1.03D-08
 IDIUse=1 WtCom= 1.00D+00 WtEn= 0.00D+00
 Coeff-Com:  0.454D-02-0.837D-01-0.121D+00-0.897D-01 0.663D+00 0.627D+00
 Coeff:      0.454D-02-0.837D-01-0.121D+00-0.897D-01 0.663D+00 0.627D+00
 Gap=     0.227 Goal=   None    Shift=    0.000
 Gap=     0.227 Goal=   None    Shift=    0.000
 RMSDP=1.50D-07 MaxDP=8.90D-06 DE=-1.22D-08 OVMax= 2.66D-05

 Cycle  14  Pass 1  IDiag  1:
 RMSU=  8.87D-08    CP:  1.00D+00  1.05D+00  6.69D-01  1.24D+00  1.47D+00
                    CP:  1.00D+00
 E= -2444.51528416586     Delta-E=       -0.000000002711 Rises=F Damp=F
 DIIS: error= 3.46D-07 at cycle   7 NSaved=   7.
 NSaved= 7 IEnMin= 7 EnMin= -2444.51528416586     IErMin= 7 ErrMin= 3.46D-07
 ErrMax= 3.46D-07  0.00D+00 EMaxC= 1.00D-01 BMatC= 5.04D-10 BMatP= 6.37D-09
 IDIUse=1 WtCom= 1.00D+00 WtEn= 0.00D+00
 Coeff-Com:  0.230D-02-0.383D-01-0.555D-01-0.525D-01 0.240D+00 0.319D+00
 Coeff-Com:  0.585D+00
 Coeff:      0.230D-02-0.383D-01-0.555D-01-0.525D-01 0.240D+00 0.319D+00
 Coeff:      0.585D+00
 Gap=     0.227 Goal=   None    Shift=    0.000
 Gap=     0.227 Goal=   None    Shift=    0.000
 RMSDP=3.44D-08 MaxDP=1.22D-06 DE=-2.71D-09 OVMax= 4.49D-06

 Cycle  15  Pass 1  IDiag  1:
 RMSU=  2.27D-08    CP:  1.00D+00  1.05D+00  6.69D-01  1.25D+00  1.50D+00
                    CP:  1.10D+00  9.43D-01
 E= -2444.51528416602     Delta-E=       -0.000000000159 Rises=F Damp=F
 DIIS: error= 9.30D-08 at cycle   8 NSaved=   8.
 NSaved= 8 IEnMin= 8 EnMin= -2444.51528416602     IErMin= 8 ErrMin= 9.30D-08
 ErrMax= 9.30D-08  0.00D+00 EMaxC= 1.00D-01 BMatC= 4.34D-11 BMatP= 5.04D-10
 IDIUse=1 WtCom= 1.00D+00 WtEn= 0.00D+00
 Coeff-Com:  0.938D-04-0.259D-03-0.360D-03-0.376D-02-0.158D-01 0.156D-01
 Coeff-Com:  0.230D+00 0.774D+00
 Coeff:      0.938D-04-0.259D-03-0.360D-03-0.376D-02-0.158D-01 0.156D-01
 Coeff:      0.230D+00 0.774D+00
 Gap=     0.227 Goal=   None    Shift=    0.000
 Gap=     0.227 Goal=   None    Shift=    0.000
 RMSDP=1.29D-08 MaxDP=4.80D-07 DE=-1.59D-10 OVMax= 1.40D-06

 Cycle  16  Pass 1  IDiag  1:
 RMSU=  7.63D-09    CP:  1.00D+00  1.05D+00  6.69D-01  1.25D+00  1.50D+00
                    CP:  1.13D+00  1.01D+00  9.02D-01
 E= -2444.51528416605     Delta-E=       -0.000000000028 Rises=F Damp=F
 DIIS: error= 4.49D-08 at cycle   9 NSaved=   9.
 NSaved= 9 IEnMin= 9 EnMin= -2444.51528416605     IErMin= 9 ErrMin= 4.49D-08
 ErrMax= 4.49D-08  0.00D+00 EMaxC= 1.00D-01 BMatC= 8.11D-12 BMatP= 4.34D-11
 IDIUse=1 WtCom= 1.00D+00 WtEn= 0.00D+00
 Coeff-Com: -0.193D-03 0.384D-02 0.563D-02 0.365D-02-0.334D-01-0.273D-01
 Coeff-Com:  0.549D-01 0.379D+00 0.614D+00
 Coeff:     -0.193D-03 0.384D-02 0.563D-02 0.365D-02-0.334D-01-0.273D-01
 Coeff:      0.549D-01 0.379D+00 0.614D+00
 Gap=     0.227 Goal=   None    Shift=    0.000
 Gap=     0.227 Goal=   None    Shift=    0.000
 RMSDP=4.31D-09 MaxDP=2.26D-07 DE=-2.82D-11 OVMax= 5.99D-07

 SCF Done:  E(ULC-wPBE) =  -2444.51528417     A.U. after   16 cycles
            NFock= 16  Conv=0.43D-08     -V/T= 2.0042
 <Sx>= 0.0000 <Sy>= 0.0000 <Sz>= 0.0000 <S**2>=-0.0000 S=-0.0000
 <L.S>= 0.000000000000E+00
 KE= 2.434272100794D+03 PE=-1.196579804397D+04 EE= 3.976689897940D+03
 Annihilation of the first spin contaminant:
 S**2 before annihilation    -0.0000,   after    -0.0000
 Leave Link  502 at Sat Jul 25 02:33:41 2020, MaxMem=  4026531840 cpu:            2500.0 elap:             313.8
 (Enter /opt/ohpc/pub/libs/gaussian/g16-A.03/sandybridge/g16/l601.exe)
 Copying SCF densities to generalized density rwf, IOpCl= 1 IROHF=0.

 **********************************************************************

            Population analysis using the SCF density.

 **********************************************************************

 Orbital symmetries:
 Alpha Orbitals:
       Occupied  (A) (A) (A) (A) (A) (A) (A) (A) (A) (A) (A) (A)
                 (A) (A) (A) (A) (A) (A) (A) (A) (A) (A) (A) (A)
                 (A) (A) (A) (A) (A) (A) (A) (A) (A) (A) (A) (A)
                 (A) (A) (A) (A) (A) (A) (A) (A) (A) (A) (A) (A)
                 (A) (A) (A) (A) (A) (A) (A) (A) (A) (A) (A) (A)
                 (A) (A) (A) (A) (A) (A) (A) (A) (A) (A) (A) (A)
                 (A) (A) (A) (A) (A) (A) (A) (A) (A) (A) (A) (A)
                 (A) (A) (A) (A) (A) (A) (A) (A) (A) (A) (A) (A)
                 (A) (A) (A) (A) (A) (A) (A) (A) (A) (A) (A) (A)
                 (A) (A) (A) (A) (A) (A) (A) (A) (A) (A) (A) (A)
                 (A) (A) (A) (A)
       Virtual   (A) (A) (A) (A) (A) (A) (A) (A) (A) (A) (A) (A)
                 (A) (A) (A) (A) (A) (A) (A) (A) (A) (A) (A) (A)
                 (A) (A) (A) (A) (A) (A) (A) (A) (A) (A) (A) (A)
                 (A) (A) (A) (A) (A) (A) (A) (A) (A) (A) (A) (A)
                 (A) (A) (A) (A) (A) (A) (A) (A) (A) (A) (A) (A)
                 (A) (A) (A) (A) (A) (A) (A) (A) (A) (A) (A) (A)
                 (A) (A) (A) (A) (A) (A) (A) (A) (A) (A) (A) (A)
                 (A) (A) (A) (A) (A) (A) (A) (A) (A) (A) (A) (A)
                 (A) (A) (A) (A) (A) (A) (A) (A) (A) (A) (A) (A)
                 (A) (A) (A) (A) (A) (A) (A) (A) (A) (A) (A) (A)
                 (A) (A) (A) (A) (A) (A) (A) (A) (A) (A) (A) (A)
                 (A) (A) (A) (A) (A) (A) (A) (A) (A) (A) (A) (A)
                 (A) (A) (A) (A) (A) (A) (A) (A) (A) (A) (A) (A)
                 (A) (A) (A) (A) (A) (A) (A) (A) (A) (A) (A) (A)
                 (A) (A) (A) (A) (A) (A) (A) (A) (A) (A) (A) (A)
                 (A) (A) (A) (A) (A) (A) (A) (A) (A) (A) (A) (A)
                 (A) (A) (A) (A) (A) (A) (A) (A) (A) (A) (A) (A)
                 (A) (A) (A) (A) (A) (A) (A) (A) (A) (A) (A) (A)
                 (A) (A) (A) (A) (A) (A) (A) (A) (A) (A) (A) (A)
                 (A) (A) (A) (A) (A) (A) (A) (A) (A) (A) (A) (A)
                 (A) (A) (A) (A) (A) (A) (A) (A) (A) (A) (A) (A)
                 (A) (A) (A) (A) (A) (A) (A) (A) (A) (A) (A) (A)
                 (A) (A) (A) (A) (A) (A) (A) (A) (A) (A) (A) (A)
                 (A) (A) (A) (A) (A) (A) (A) (A) (A) (A) (A) (A)
                 (A) (A) (A) (A) (A) (A) (A) (A) (A) (A) (A) (A)
                 (A) (A) (A) (A) (A) (A) (A) (A) (A) (A) (A) (A)
                 (A) (A) (A) (A) (A) (A) (A) (A) (A) (A) (A) (A)
                 (A) (A) (A) (A) (A) (A) (A) (A) (A) (A) (A) (A)
                 (A) (A) (A) (A) (A) (A) (A) (A) (A) (A) (A) (A)
                 (A) (A) (A) (A) (A) (A) (A) (A) (A) (A) (A) (A)
                 (A) (A) (A) (A) (A) (A) (A) (A) (A) (A) (A) (A)
                 (A) (A) (A) (A) (A) (A) (A) (A) (A) (A) (A) (A)
                 (A) (A) (A) (A) (A) (A) (A) (A) (A) (A) (A) (A)
                 (A) (A) (A) (A) (A) (A) (A) (A) (A) (A) (A) (A)
                 (A) (A) (A) (A) (A) (A) (A) (A) (A) (A) (A) (A)
 Beta  Orbitals:
       Occupied  (A) (A) (A) (A) (A) (A) (A) (A) (A) (A) (A) (A)
                 (A) (A) (A) (A) (A) (A) (A) (A) (A) (A) (A) (A)
                 (A) (A) (A) (A) (A) (A) (A) (A) (A) (A) (A) (A)
                 (A) (A) (A) (A) (A) (A) (A) (A) (A) (A) (A) (A)
                 (A) (A) (A) (A) (A) (A) (A) (A) (A) (A) (A) (A)
                 (A) (A) (A) (A) (A) (A) (A) (A) (A) (A) (A) (A)
                 (A) (A) (A) (A) (A) (A) (A) (A) (A) (A) (A) (A)
                 (A) (A) (A) (A) (A) (A) (A) (A) (A) (A) (A) (A)
                 (A) (A) (A) (A) (A) (A) (A) (A) (A) (A) (A) (A)
                 (A) (A) (A) (A) (A) (A) (A) (A) (A) (A) (A) (A)
                 (A) (A) (A) (A)
       Virtual   (A) (A) (A) (A) (A) (A) (A) (A) (A) (A) (A) (A)
                 (A) (A) (A) (A) (A) (A) (A) (A) (A) (A) (A) (A)
                 (A) (A) (A) (A) (A) (A) (A) (A) (A) (A) (A) (A)
                 (A) (A) (A) (A) (A) (A) (A) (A) (A) (A) (A) (A)
                 (A) (A) (A) (A) (A) (A) (A) (A) (A) (A) (A) (A)
                 (A) (A) (A) (A) (A) (A) (A) (A) (A) (A) (A) (A)
                 (A) (A) (A) (A) (A) (A) (A) (A) (A) (A) (A) (A)
                 (A) (A) (A) (A) (A) (A) (A) (A) (A) (A) (A) (A)
                 (A) (A) (A) (A) (A) (A) (A) (A) (A) (A) (A) (A)
                 (A) (A) (A) (A) (A) (A) (A) (A) (A) (A) (A) (A)
                 (A) (A) (A) (A) (A) (A) (A) (A) (A) (A) (A) (A)
                 (A) (A) (A) (A) (A) (A) (A) (A) (A) (A) (A) (A)
                 (A) (A) (A) (A) (A) (A) (A) (A) (A) (A) (A) (A)
                 (A) (A) (A) (A) (A) (A) (A) (A) (A) (A) (A) (A)
                 (A) (A) (A) (A) (A) (A) (A) (A) (A) (A) (A) (A)
                 (A) (A) (A) (A) (A) (A) (A) (A) (A) (A) (A) (A)
                 (A) (A) (A) (A) (A) (A) (A) (A) (A) (A) (A) (A)
                 (A) (A) (A) (A) (A) (A) (A) (A) (A) (A) (A) (A)
                 (A) (A) (A) (A) (A) (A) (A) (A) (A) (A) (A) (A)
[...]
    18   Atom        0.000000     -0.000000     -0.000000
    19   Atom       -0.000000      0.000000      0.000000
    20   Atom        0.000000     -0.000000      0.000000
    21   Atom        0.000000     -0.000000      0.000000
    22   Atom        0.000000     -0.000000     -0.000000
    23   Atom       -0.000000      0.000000      0.000000
    24   Atom        0.000000      0.000000     -0.000000
    25   Atom        0.000000     -0.000000      0.000000
    26   Atom       -0.000000      0.000000      0.000000
    27   Atom        0.000000      0.000000     -0.000000
    28   Atom        0.000000     -0.000000      0.000000
    29   Atom       -0.000000      0.000000      0.000000
    30   Atom        0.000000      0.000000     -0.000000
    31   Atom        0.000000      0.000000     -0.000000
    32   Atom       -0.000000     -0.000000      0.000000
    33   Atom        0.000000     -0.000000     -0.000000
    34   Atom       -0.000000      0.000000      0.000000
    35   Atom       -0.000000      0.000000     -0.000000
    36   Atom        0.000000     -0.000000     -0.000000
    37   Atom       -0.000000     -0.000000      0.000000
    38   Atom       -0.000000      0.000000     -0.000000
    39   Atom       -0.000000     -0.000000      0.000000
    40   Atom       -0.000000     -0.000000      0.000000
    41   Atom        0.000000     -0.000000     -0.000000
    42   Atom        0.000000     -0.000000      0.000000
    43   Atom        0.000000     -0.000000      0.000000
    44   Atom        0.000000     -0.000000     -0.000000
    45   Atom       -0.000000      0.000000      0.000000
    46   Atom       -0.000000      0.000000     -0.000000
    47   Atom       -0.000000      0.000000      0.000000
 --------------------------------------------------------
                        XY            XZ            YZ
 --------------------------------------------------------
     1   Atom       -0.000000     -0.000000     -0.000000
     2   Atom       -0.000000     -0.000000     -0.000000
     3   Atom        0.000000      0.000000      0.000000
     4   Atom       -0.000000     -0.000000      0.000000
     5   Atom        0.000000     -0.000000     -0.000000
     6   Atom        0.000000      0.000000      0.000000
     7   Atom        0.000000      0.000000     -0.000000
     8   Atom        0.000000     -0.000000      0.000000
     9   Atom       -0.000000      0.000000     -0.000000
    10   Atom       -0.000000     -0.000000      0.000000
    11   Atom       -0.000000     -0.000000     -0.000000
    12   Atom        0.000000     -0.000000     -0.000000
    13   Atom       -0.000000     -0.000000     -0.000000
    14   Atom        0.000000      0.000000      0.000000
    15   Atom       -0.000000     -0.000000      0.000000
    16   Atom       -0.000000      0.000000     -0.000000
    17   Atom        0.000000      0.000000     -0.000000
    18   Atom       -0.000000      0.000000      0.000000
    19   Atom       -0.000000     -0.000000      0.000000
    20   Atom       -0.000000     -0.000000     -0.000000
    21   Atom       -0.000000     -0.000000     -0.000000
    22   Atom       -0.000000      0.000000     -0.000000
    23   Atom       -0.000000     -0.000000     -0.000000
    24   Atom        0.000000     -0.000000      0.000000
    25   Atom        0.000000      0.000000     -0.000000
    26   Atom        0.000000     -0.000000      0.000000
    27   Atom       -0.000000     -0.000000      0.000000
    28   Atom       -0.000000     -0.000000     -0.000000
    29   Atom        0.000000     -0.000000      0.000000
    30   Atom        0.000000      0.000000      0.000000
    31   Atom       -0.000000     -0.000000      0.000000
    32   Atom        0.000000      0.000000     -0.000000
    33   Atom       -0.000000     -0.000000     -0.000000
    34   Atom        0.000000     -0.000000     -0.000000
    35   Atom        0.000000     -0.000000     -0.000000
    36   Atom       -0.000000      0.000000      0.000000
    37   Atom        0.000000     -0.000000      0.000000
    38   Atom        0.000000     -0.000000     -0.000000
    39   Atom        0.000000      0.000000     -0.000000
    40   Atom       -0.000000     -0.000000     -0.000000
    41   Atom       -0.000000     -0.000000      0.000000
    42   Atom       -0.000000     -0.000000     -0.000000
    43   Atom       -0.000000      0.000000      0.000000
    44   Atom        0.000000      0.000000     -0.000000
    45   Atom        0.000000      0.000000      0.000000
    46   Atom       -0.000000     -0.000000      0.000000
    47   Atom       -0.000000     -0.000000     -0.000000
 --------------------------------------------------------


 ---------------------------------------------------------------------------------
              Anisotropic Spin Dipole Couplings in Principal Axis System
 ---------------------------------------------------------------------------------

       Atom             a.u.   MegaHertz   Gauss  10(-4) cm-1        Axes

              Baa    -0.0000    -0.000    -0.000    -0.000  0.9142  0.3930  0.0986
     1 C(13)  Bbb    -0.0000    -0.000    -0.000    -0.000 -0.4041  0.9022  0.1506
              Bcc     0.0000     0.000     0.000     0.000 -0.0298 -0.1775  0.9837
 
              Baa    -0.0000    -0.000    -0.000    -0.000  0.8546  0.4928  0.1635
     2 C(13)  Bbb     0.0000     0.000     0.000     0.000 -0.4926  0.8691 -0.0448
              Bcc     0.0000     0.000     0.000     0.000 -0.1641 -0.0423  0.9855
 
              Baa    -0.0000    -0.000    -0.000    -0.000 -0.0182 -0.0424  0.9989
     3 N(14)  Bbb    -0.0000    -0.000    -0.000    -0.000 -0.2570  0.9657  0.0363
              Bcc     0.0000     0.000     0.000     0.000  0.9662  0.2561  0.0285
 
              Baa    -0.0000    -0.000    -0.000    -0.000  0.0166  0.9584 -0.2851
     4 C(13)  Bbb    -0.0000    -0.000    -0.000    -0.000  0.9959  0.0096  0.0901
              Bcc     0.0000     0.000     0.000     0.000 -0.0891  0.2854  0.9543
 
              Baa    -0.0000    -0.000    -0.000    -0.000 -0.0085  0.2052  0.9787
     5 N(14)  Bbb    -0.0000    -0.000    -0.000    -0.000 -0.1935  0.9599 -0.2030
              Bcc     0.0000     0.000     0.000     0.000  0.9811  0.1911 -0.0316
 
              Baa    -0.0000    -0.000    -0.000    -0.000 -0.1383 -0.0208  0.9902
     6 C(13)  Bbb    -0.0000    -0.000    -0.000    -0.000 -0.1876  0.9822 -0.0056
              Bcc     0.0000     0.000     0.000     0.000  0.9725  0.1865  0.1398
 
              Baa    -0.0000    -0.000    -0.000    -0.000 -0.3402  0.3504  0.8726
     7 C(13)  Bbb     0.0000     0.000     0.000     0.000  0.9402  0.1123  0.3214
              Bcc     0.0000     0.000     0.000     0.000  0.0147  0.9298 -0.3677
 
              Baa    -0.0000    -0.000    -0.000    -0.000  0.8305 -0.4731  0.2942
     8 C(13)  Bbb     0.0000     0.000     0.000     0.000  0.5557  0.6670 -0.4963
              Bcc     0.0000     0.000     0.000     0.000  0.0386  0.5756  0.8168
 
              Baa    -0.0000    -0.000    -0.000    -0.000  0.8289  0.5592 -0.0162
     9 C(13)  Bbb     0.0000     0.000     0.000     0.000 -0.1272  0.2167  0.9679
              Bcc     0.0000     0.000     0.000     0.000 -0.5447  0.8002 -0.2508
 
              Baa    -0.0000    -0.000    -0.000    -0.000  0.9821  0.1289  0.1377
    10 C(13)  Bbb     0.0000     0.000     0.000     0.000 -0.0595  0.9045 -0.4224
              Bcc     0.0000     0.000     0.000     0.000 -0.1790  0.4066  0.8959
 
              Baa    -0.0000    -0.000    -0.000    -0.000  0.0563  0.9862  0.1557
    11 S(33)  Bbb     0.0000     0.000     0.000     0.000  0.2970 -0.1654  0.9404
              Bcc     0.0000     0.000     0.000     0.000  0.9532 -0.0068 -0.3022
 
              Baa    -0.0000    -0.000    -0.000    -0.000  0.9864 -0.1541  0.0577
    12 C(13)  Bbb     0.0000     0.000     0.000     0.000 -0.0191  0.2410  0.9703
              Bcc     0.0000     0.000     0.000     0.000  0.1635  0.9582 -0.2347
 
              Baa    -0.0000    -0.000    -0.000    -0.000  0.6724  0.7218  0.1639
    13 C(13)  Bbb    -0.0000    -0.000    -0.000    -0.000  0.7379 -0.6711 -0.0715
              Bcc     0.0000     0.000     0.000     0.000 -0.0584 -0.1690  0.9839
 
              Baa    -0.0000    -0.000    -0.000    -0.000  0.9250 -0.3738 -0.0684
    14 N(14)  Bbb     0.0000     0.000     0.000     0.000  0.2772  0.7867 -0.5516
              Bcc     0.0000     0.000     0.000     0.000  0.2600  0.4912  0.8313
 
              Baa    -0.0000    -0.000    -0.000    -0.000  0.0407 -0.0799  0.9960
    15 C(13)  Bbb    -0.0000    -0.000    -0.000    -0.000  0.9528  0.3033 -0.0147
              Bcc     0.0000     0.000     0.000     0.000 -0.3009  0.9495  0.0885
 
              Baa    -0.0000    -0.000    -0.000    -0.000  0.0740  0.9923  0.0995
    16 N(14)  Bbb    -0.0000    -0.000    -0.000    -0.000 -0.0434 -0.0965  0.9944
              Bcc     0.0000     0.000     0.000     0.000  0.9963 -0.0779  0.0359
 
              Baa    -0.0000    -0.000    -0.000    -0.000  0.7653 -0.6331 -0.1158
    17 C(13)  Bbb    -0.0000    -0.000    -0.000    -0.000  0.6383  0.7697  0.0108
              Bcc     0.0000     0.000     0.000     0.000  0.0823 -0.0822  0.9932
 
              Baa    -0.0000    -0.000    -0.000    -0.000  0.2513  0.9506 -0.1823
    18 C(13)  Bbb    -0.0000    -0.000    -0.000    -0.000  0.0292  0.1808  0.9831
              Bcc     0.0000     0.000     0.000     0.000  0.9675 -0.2524  0.0176
 
              Baa    -0.0000    -0.000    -0.000    -0.000  0.9344  0.3270  0.1416
    19 C(13)  Bbb     0.0000     0.000     0.000     0.000 -0.0900 -0.1679  0.9817
              Bcc     0.0000     0.000     0.000     0.000 -0.3448  0.9300  0.1275
 
              Baa    -0.0000    -0.000    -0.000    -0.000  0.4685  0.8807  0.0695
    20 C(13)  Bbb     0.0000     0.000     0.000     0.000  0.8825 -0.4629 -0.0829
              Bcc     0.0000     0.000     0.000     0.000  0.0408 -0.1002  0.9941
 
              Baa    -0.0000    -0.000    -0.000    -0.000  0.0268  0.9952  0.0942
    21 C(13)  Bbb     0.0000     0.000     0.000     0.000  0.2519 -0.0979  0.9628
              Bcc     0.0000     0.000     0.000     0.000  0.9674 -0.0021 -0.2534
 
              Baa    -0.0000    -0.000    -0.000    -0.000  0.0052  0.6972  0.7168
    22 S(33)  Bbb    -0.0000    -0.000    -0.000    -0.000  0.1228  0.7110 -0.6924
              Bcc     0.0000     0.000     0.000     0.000  0.9924 -0.0916  0.0819
 
              Baa    -0.0000    -0.000    -0.000    -0.000  0.9500  0.0412  0.3096
    23 C(13)  Bbb     0.0000     0.000     0.000     0.000 -0.2669  0.6219  0.7362
              Bcc     0.0000     0.000     0.000     0.000  0.1622  0.7820 -0.6018
 
              Baa    -0.0000    -0.000    -0.000    -0.000  0.2825 -0.5079  0.8138
    24 C(13)  Bbb     0.0000     0.000     0.000     0.000  0.9119 -0.1210 -0.3921
              Bcc     0.0000     0.000     0.000     0.000  0.2976  0.8529  0.4290
 
              Baa    -0.0000    -0.000    -0.000    -0.000 -0.3551  0.8714  0.3386
    25 N(14)  Bbb     0.0000     0.000     0.000     0.000 -0.3505 -0.4599  0.8159
              Bcc     0.0000     0.000     0.000     0.000  0.8666  0.1710  0.4687
 
              Baa    -0.0000    -0.000    -0.000    -0.000  0.8234 -0.3214  0.4676
    26 C(13)  Bbb    -0.0000    -0.000    -0.000    -0.000 -0.5667 -0.5058  0.6504
              Bcc     0.0000     0.000     0.000     0.000 -0.0275  0.8005  0.5987
 
              Baa    -0.0000    -0.000    -0.000    -0.000  0.0075 -0.2828  0.9592
    27 N(14)  Bbb     0.0000     0.000     0.000     0.000  0.0143  0.9591  0.2826
              Bcc     0.0000     0.000     0.000     0.000  0.9999 -0.0116 -0.0113
 
              Baa    -0.0000    -0.000    -0.000    -0.000  0.5861  0.6017  0.5426
    28 C(13)  Bbb     0.0000     0.000     0.000     0.000 -0.2596  0.7738 -0.5778
              Bcc     0.0000     0.000     0.000     0.000  0.7676 -0.1978 -0.6097
 
              Baa    -0.0000    -0.000    -0.000    -0.000  0.9276 -0.3346  0.1665
    29 C(13)  Bbb     0.0000     0.000     0.000     0.000 -0.3280 -0.5154  0.7917
              Bcc     0.0000     0.000     0.000     0.000  0.1791  0.7890  0.5878
 
              Baa    -0.0000    -0.000    -0.000    -0.000 -0.6569  0.2579  0.7086
    30 C(13)  Bbb    -0.0000    -0.000    -0.000    -0.000 -0.2664  0.7998 -0.5380
              Bcc     0.0000     0.000     0.000     0.000  0.7054  0.5421  0.4566
 
              Baa    -0.0000    -0.000    -0.000    -0.000  0.6664  0.2405  0.7058
    31 C(13)  Bbb    -0.0000    -0.000    -0.000    -0.000  0.3169  0.7655 -0.5600
              Bcc     0.0000     0.000     0.000     0.000  0.6749 -0.5968 -0.4339
 
              Baa    -0.0000    -0.000    -0.000    -0.000 -0.4300  0.7471  0.5069
    32 C(13)  Bbb     0.0000     0.000     0.000     0.000  0.9022  0.3771  0.2095
              Bcc     0.0000     0.000     0.000     0.000  0.0347 -0.5474  0.8362
 
              Baa    -0.0000    -0.000    -0.000    -0.000  0.3952  0.6464  0.6527
    33 S(33)  Bbb     0.0000     0.000     0.000     0.000 -0.4787 -0.4616  0.7469
              Bcc     0.0000     0.000     0.000     0.000  0.7840 -0.6076  0.1270
 
              Baa    -0.0000    -0.000    -0.000    -0.000  0.9625 -0.1606  0.2189
    34 H(1)   Bbb    -0.0000    -0.000    -0.000    -0.000 -0.0774  0.6107  0.7881
              Bcc     0.0000     0.000     0.000     0.000  0.2602  0.7754 -0.5753
 
              Baa    -0.0000    -0.000    -0.000    -0.000  0.8132 -0.2702  0.5155
    35 H(1)   Bbb    -0.0000    -0.000    -0.000    -0.000 -0.4349  0.3067  0.8467
              Bcc     0.0000     0.000     0.000     0.000  0.3869  0.9127 -0.1319
 
              Baa    -0.0000    -0.000    -0.000    -0.000  0.1089  0.8379 -0.5348
    36 H(1)   Bbb    -0.0000    -0.000    -0.000    -0.000  0.0556  0.5320  0.8449
              Bcc     0.0000     0.000     0.000     0.000  0.9925 -0.1217  0.0114
 
              Baa    -0.0000    -0.000    -0.000    -0.000  0.7313 -0.6038  0.3172
    37 H(1)   Bbb     0.0000     0.000     0.000     0.000  0.6541  0.7527 -0.0753
              Bcc     0.0000     0.000     0.000     0.000 -0.1933  0.2625  0.9454
 
              Baa    -0.0000    -0.000    -0.000    -0.000  0.0399  0.2499  0.9674
    38 H(1)   Bbb    -0.0000    -0.000    -0.000    -0.000  0.8896 -0.4498  0.0795
              Bcc     0.0000     0.000     0.000     0.000  0.4550  0.8574 -0.2402
 
              Baa    -0.0000    -0.000    -0.000    -0.000 -0.6011  0.7801  0.1734
    39 H(1)   Bbb     0.0000     0.000     0.000     0.000  0.7953  0.5629  0.2248
              Bcc     0.0000     0.000     0.000     0.000 -0.0778 -0.2731  0.9588
 
              Baa    -0.0000    -0.000    -0.000    -0.000  0.5227  0.8000  0.2945
    40 H(1)   Bbb     0.0000     0.000     0.000     0.000  0.8118 -0.5725  0.1145
              Bcc     0.0000     0.000     0.000     0.000 -0.2602 -0.1792  0.9488
 
              Baa    -0.0000    -0.000    -0.000    -0.000  0.4526  0.8905 -0.0469
    41 H(1)   Bbb    -0.0000    -0.000    -0.000    -0.000  0.1307 -0.0142  0.9913
              Bcc     0.0000     0.000     0.000     0.000  0.8821 -0.4549 -0.1228
 
              Baa    -0.0000    -0.000    -0.000    -0.000  0.5680  0.8163  0.1046
    42 H(1)   Bbb     0.0000     0.000     0.000     0.000 -0.0923 -0.0631  0.9937
              Bcc     0.0000     0.000     0.000     0.000  0.8178 -0.5741  0.0396
 
              Baa    -0.0000    -0.000    -0.000    -0.000  0.4867  0.7254 -0.4868
    43 H(1)   Bbb    -0.0000    -0.000    -0.000    -0.000 -0.5494  0.6874  0.4750
              Bcc     0.0000     0.000     0.000     0.000  0.6792  0.0363  0.7330
 
              Baa    -0.0000    -0.000    -0.000    -0.000 -0.4038  0.6532  0.6405
    44 H(1)   Bbb     0.0000     0.000     0.000     0.000  0.8652  0.0451  0.4994
              Bcc     0.0000     0.000     0.000     0.000  0.2973  0.7559 -0.5834
 
              Baa    -0.0000    -0.000    -0.000    -0.000  0.8302 -0.5310 -0.1700
    45 H(1)   Bbb    -0.0000    -0.000    -0.000    -0.000 -0.2439 -0.6201  0.7456
              Bcc     0.0000     0.000     0.000     0.000  0.5014  0.5775  0.6443
 
              Baa    -0.0000    -0.000    -0.000    -0.000  0.8272  0.5610  0.0326
    46 H(1)   Bbb    -0.0000    -0.000    -0.000    -0.000  0.1470 -0.2720  0.9510
              Bcc     0.0000     0.000     0.000     0.000 -0.5423  0.7819  0.3075
 
              Baa    -0.0000    -0.000    -0.000    -0.000  0.8577  0.3673  0.3599
    47 H(1)   Bbb     0.0000     0.000     0.000     0.000 -0.2980  0.9254 -0.2344
              Bcc     0.0000     0.000     0.000     0.000 -0.4191  0.0938  0.9031
 

 ---------------------------------------------------------------------------------

 No NMR shielding tensors so no spin-rotation constants.
 Leave Link  601 at Sat Jul 25 07:33:00 2020, MaxMem=  4026531840 cpu:               4.2 elap:               0.6
 (Enter /opt/ohpc/pub/libs/gaussian/g16-A.03/sandybridge/g16/l9999.exe)

 Test job not archived.
 1\1\GINC-SKYLAKE018\FOpt\ULC-wPBE\CC-pVDZ\C24H14N6S3\RDU230\25-Jul-202
 0\0\\#P uLC-wPBE/cc-pVDZ iop(3/107=0182900000, 3/108=0182900000) opt\\
 H14 C24 S3 N6\\0,1\C,-10.6435089751,2.271440294,0.5089271529\C,-9.3682
 234988,2.7387247101,0.8397449332\N,-8.2600100243,2.012597804,0.6427062
 013\C,-8.4436132004,0.7890232171,0.1015566773\N,-9.6208321665,0.233703
 1424,-0.2563150341\C,-10.7068248239,0.9889915902,-0.0457112817\C,-7.23
 76113036,-0.0180498739,-0.1180681469\C,-7.144904519,-1.2893255592,-0.6
 537646099\C,-5.8085569532,-1.7618824815,-0.7162199387\C,-4.885955281,-
 0.847441186,-0.2275455334\S,-5.6757346446,0.6076154804,0.3220881169\C,
 -3.4289278492,-0.9987411244,-0.1423709787\C,-2.815659185,-2.2581593651
 ,0.0131660142\N,-1.4934527519,-2.4320575455,0.0722509788\C,-0.74344802
 74,-1.3121473058,-0.0079132921\N,-1.2078605853,-0.0514969231,-0.141619
 9296\C,-2.5340506512,0.0861844952,-0.212983571\C,0.710858016,-1.477899
 3337,0.0597461532\C,1.4328559816,-2.6497770247,0.1963107519\C,2.834101
 6077,-2.4306462969,0.2241877743\C,3.177162588,-1.0907183685,0.10848145
 93\S,1.7553160831,-0.0893322078,-0.0277911649\C,4.52230045,-0.50448907
 8,0.0973615903\C,4.8414521894,0.6850375225,-0.5866141998\N,6.064151438
 3,1.2203312153,-0.6057162138\C,7.0194882644,0.5449447596,0.0687199215\
 N,6.8417055641,-0.6012614467,0.7617732491\C,5.6039903196,-1.100771336,
 0.7741140469\C,8.3726190761,1.1066639671,0.0504032418\C,8.8106031685,2
 .2561241359,-0.5823827421\C,10.198916326,2.4962198997,-0.3843307681\C,
 10.7919973896,1.5249689898,0.3957624899\S,9.6707082937,0.3108052738,0.
 8966223274\H,-11.543304872,2.8759179377,0.6746719995\H,-9.2225020636,3
 .7374804777,1.2817489782\H,-11.6715213538,0.5422487107,-0.3360300135\H
 ,-8.0308647976,-1.8375952944,-0.9902543697\H,-5.5228774256,-2.73410671
 44,-1.1342711168\H,-3.4304970515,-3.1678436871,0.1073271173\H,-2.91137
 49829,1.1141424568,-0.3427840586\H,0.9394945013,-3.6248433682,0.264431
 9176\H,3.5771544,-3.2331359214,0.2980065297\H,4.0652017638,1.224595911
 6,-1.154899099\H,5.4550154083,-2.0194763093,1.3642376018\H,8.130166761
 3,2.8866644863,-1.1641979663\H,10.7428629227,3.352047571,-0.8000052327
 \H,11.8396984737,1.4580547026,0.7061480366\\Version=EM64L-G16RevA.03\S
 tate=1-A\HF=-2444.618073\S2=0.\S2-1=0.\S2A=0.\RMSD=4.524e-09\RMSF=3.31
 4e-06\Dipole=-1.9130694,0.0867446,-0.067097\Quadrupole=26.3146674,-6.5
 953378,-19.7193296,-6.9895971,-1.4812526,0.3782452\PG=C01 [X(C24H14N6S
 3)]\\@


 Just remember, when you're over the hill, you begin to pick up speed.
 -- Charles Schulz
 Job cpu time:       1 days 16 hours 20 minutes 21.9 seconds.
 Elapsed time:       0 days  5 hours  4 minutes 34.4 seconds.
 File lengths (MBytes):  RWF=    384 Int=      0 D2E=      0 Chk=     36 Scr=      8
 Normal termination of Gaussian 16 at Sat Jul 25 07:33:01 2020.
