 Entering Gaussian System, Link 0=g16
 Input=mols_66_1_16_c-n-cOC-cOC_opt_0.gjf
 Output=mols_66_1_16_c-n-cOC-cOC_opt_0.log
 Initial command:
 /opt/ohpc/pub/libs/gaussian/g16-A.03/sandybridge/g16/l1.exe "/mnt/gpfs2_4m/scratch/rdu230/ondemand/projects/dihedral_energies/7trial/wtuning/mols_66_1_16_c-n-cOC-cOC/Gau-82045.inp" -scrdir="/mnt/gpfs2_4m/scratch/rdu230/ondemand/projects/dihedral_energies/7trial/wtuning/mols_66_1_16_c-n-cOC-cOC/"
 Entering Link 1 = /opt/ohpc/pub/libs/gaussian/g16-A.03/sandybridge/g16/l1.exe PID=     82046.
  
 Copyright (c) 1988,1990,1992,1993,1995,1998,2003,2009,2016,
            Gaussian, Inc.  All Rights Reserved.
  
 This is part of the Gaussian(R) 16 program.  It is based on
 the Gaussian(R) 09 system (copyright 2009, Gaussian, Inc.),
 the Gaussian(R) 03 system (copyright 2003, Gaussian, Inc.),
 the Gaussian(R) 98 system (copyright 1998, Gaussian, Inc.),
 the Gaussian(R) 94 system (copyright 1995, Gaussian, Inc.),
 the Gaussian 92(TM) system (copyright 1992, Gaussian, Inc.),
 the Gaussian 90(TM) system (copyright 1990, Gaussian, Inc.),
 the Gaussian 88(TM) system (copyright 1988, Gaussian, Inc.),
 the Gaussian 86(TM) system (copyright 1986, Carnegie Mellon
 University), and the Gaussian 82(TM) system (copyright 1983,
 Carnegie Mellon University). Gaussian is a federally registered
 trademark of Gaussian, Inc.
  
 This software contains proprietary and confidential information,
 including trade secrets, belonging to Gaussian, Inc.
  
 This software is provided under written license and may be
 used, copied, transmitted, or stored only in accord with that
 written license.
  
 The following legend is applicable only to US Government
 contracts under FAR:
  
                    RESTRICTED RIGHTS LEGEND
  
 Use, reproduction and disclosure by the US Government is
 subject to restrictions as set forth in subparagraphs (a)
 and (c) of the Commercial Computer Software - Restricted
 Rights clause in FAR 52.227-19.
  
 Gaussian, Inc.
 340 Quinnipiac St., Bldg. 40, Wallingford CT 06492
  
  
 ---------------------------------------------------------------
 Warning -- This program may not be used in any manner that
 competes with the business of Gaussian, Inc. or will provide
 assistance to any competitor of Gaussian, Inc.  The licensee
 of this program is prohibited from giving any competitor of
 Gaussian, Inc. access to this program.  By using this program,
 the user acknowledges that Gaussian, Inc. is engaged in the
 business of creating and licensing software in the field of
 computational chemistry and represents and warrants to the
 licensee that it is not a competitor of Gaussian, Inc. and that
 it will not use this program in any manner prohibited above.
 ---------------------------------------------------------------
  

 Cite this work as:
 Gaussian 16, Revision A.03,
 M. J. Frisch, G. W. Trucks, H. B. Schlegel, G. E. Scuseria, 
 M. A. Robb, J. R. Cheeseman, G. Scalmani, V. Barone, 
 G. A. Petersson, H. Nakatsuji, X. Li, M. Caricato, A. V. Marenich, 
 J. Bloino, B. G. Janesko, R. Gomperts, B. Mennucci, H. P. Hratchian, 
 J. V. Ortiz, A. F. Izmaylov, J. L. Sonnenberg, D. Williams-Young, 
 F. Ding, F. Lipparini, F. Egidi, J. Goings, B. Peng, A. Petrone, 
 T. Henderson, D. Ranasinghe, V. G. Zakrzewski, J. Gao, N. Rega, 
 G. Zheng, W. Liang, M. Hada, M. Ehara, K. Toyota, R. Fukuda, 
 J. Hasegawa, M. Ishida, T. Nakajima, Y. Honda, O. Kitao, H. Nakai, 
 T. Vreven, K. Throssell, J. A. Montgomery, Jr., J. E. Peralta, 
 F. Ogliaro, M. J. Bearpark, J. J. Heyd, E. N. Brothers, K. N. Kudin, 
 V. N. Staroverov, T. A. Keith, R. Kobayashi, J. Normand, 
 K. Raghavachari, A. P. Rendell, J. C. Burant, S. S. Iyengar, 
 J. Tomasi, M. Cossi, J. M. Millam, M. Klene, C. Adamo, R. Cammi, 
 J. W. Ochterski, R. L. Martin, K. Morokuma, O. Farkas, 
 J. B. Foresman, and D. J. Fox, Gaussian, Inc., Wallingford CT, 2016.
 
 ******************************************
 Gaussian 16:  EM64L-G16RevA.03 25-Dec-2016
                24-Jul-2020 
 ******************************************
 %mem=30GB
 %nproc=8
 Will use up to    8 processors via shared memory.
 ---------------------------------------------------------------
 #P uLC-wPBE/cc-pVDZ iop(3/107=0321900000, 3/108=0321900000) opt
 ---------------------------------------------------------------
 1/18=20,19=15,26=3,38=1/1,3;
 2/9=110,12=2,17=6,18=5,40=1/2;
 3/5=16,11=2,25=1,30=1,71=1,74=-41,107=321900000,108=321900000,116=2/1,2,3;
 4//1;
 5/5=2,38=5/2;
 6/7=2,8=2,9=2,10=2,28=1/1;
 7//1,2,3,16;
 1/18=20,19=15,26=3/3(2);
 2/9=110/2;
 99//99;
 2/9=110/2;
 3/5=16,11=2,25=1,30=1,71=1,74=-41,107=321900000,108=321900000,116=2/1,2,3;
 4/5=5,16=3,69=1/1;
 5/5=2,38=5/2;
 7//1,2,3,16;
 1/18=20,19=15,26=3/3(-5);
 2/9=110/2;
 6/7=2,8=2,9=2,10=2,19=2,28=1/1;
 99/9=1/99;
 Leave Link    1 at Fri Jul 24 23:33:18 2020, MaxMem=  4026531840 cpu:               1.4 elap:               0.2
 (Enter /opt/ohpc/pub/libs/gaussian/g16-A.03/sandybridge/g16/l101.exe)
 -------------
 H13 C13 N1 O2
 -------------
 Symbolic Z-matrix:
 Charge =  0 Multiplicity = 1
 C                     3.51849  -0.86498   0.52647 
 C                     2.95426   0.15416  -0.28819 
 C                     1.58357   0.23823  -0.58781 
 O                     1.0496    1.18018  -1.44213 
 C                     1.46852   2.50718  -1.17098 
 C                     0.7536   -0.66716   0.06243 
 N                     1.29922  -1.6569    0.87149 
 C                     2.60881  -1.67056   1.1183 
 C                    -0.70423  -0.77037  -0.04231 
 C                    -1.31244  -1.83862  -0.67367 
 C                    -2.67517  -1.96265  -0.89326 
 C                    -3.48835  -0.94973  -0.46469 
 C                    -2.92661   0.28269   0.14051 
 C                    -1.54668   0.33324   0.28913 
 O                    -0.86572   1.39858   0.93814 
 C                    -1.70276   2.41041   1.4262 
 H                     4.51386  -0.93526   0.67177 
 H                     3.61622   0.80989  -0.84578 
 H                     0.80987   3.11595  -1.65554 
 H                     1.55969   2.67127  -0.12839 
 H                     2.41958   2.62349  -1.6803 
 H                     2.92458  -2.46498   1.74813 
 H                    -0.61526  -2.67895  -0.94862 
 H                    -3.06571  -2.81145  -1.31044 
 H                    -4.55518  -1.01167  -0.60122 
 H                    -3.60497   1.07329   0.40734 
 H                    -1.05824   3.20806   1.88649 
 H                    -2.27487   2.97869   0.65687 
 H                    -2.45953   2.02809   2.22299 
 
 ITRead=  0  0  0  0  0  0  0  0  0  0  0  0  0  0  0  0  0  0  0  0
 ITRead=  0  0  0  0  0  0  0  0  0
 MicOpt= -1 -1 -1 -1 -1 -1 -1 -1 -1 -1 -1 -1 -1 -1 -1 -1 -1 -1 -1 -1
 MicOpt= -1 -1 -1 -1 -1 -1 -1 -1 -1
 NAtoms=     29 NQM=       29 NQMF=       0 NMMI=      0 NMMIF=      0
                NMic=       0 NMicF=      0.
                    Isotopes and Nuclear Properties:
 (Nuclear quadrupole moments (NQMom) in fm**2, nuclear magnetic moments (NMagM)
  in nuclear magnetons)

  Atom         1           2           3           4           5           6           7           8           9          10
 IAtWgt=          12          12          12          16          12          12          14          12          12          12
 AtmWgt=  12.0000000  12.0000000  12.0000000  15.9949146  12.0000000  12.0000000  14.0030740  12.0000000  12.0000000  12.0000000
 NucSpn=           0           0           0           0           0           0           2           0           0           0
 AtZEff=  -0.0000000  -0.0000000  -0.0000000  -0.0000000  -0.0000000  -0.0000000  -0.0000000  -0.0000000  -0.0000000  -0.0000000
 NQMom=    0.0000000   0.0000000   0.0000000   0.0000000   0.0000000   0.0000000   2.0440000   0.0000000   0.0000000   0.0000000
 NMagM=    0.0000000   0.0000000   0.0000000   0.0000000   0.0000000   0.0000000   0.4037610   0.0000000   0.0000000   0.0000000
 AtZNuc=   6.0000000   6.0000000   6.0000000   8.0000000   6.0000000   6.0000000   7.0000000   6.0000000   6.0000000   6.0000000

  Atom        11          12          13          14          15          16          17          18          19          20
 IAtWgt=          12          12          12          12          16          12           1           1           1           1
 AtmWgt=  12.0000000  12.0000000  12.0000000  12.0000000  15.9949146  12.0000000   1.0078250   1.0078250   1.0078250   1.0078250
 NucSpn=           0           0           0           0           0           0           1           1           1           1
 AtZEff=  -0.0000000  -0.0000000  -0.0000000  -0.0000000  -0.0000000  -0.0000000  -0.0000000  -0.0000000  -0.0000000  -0.0000000
 NQMom=    0.0000000   0.0000000   0.0000000   0.0000000   0.0000000   0.0000000   0.0000000   0.0000000   0.0000000   0.0000000
 NMagM=    0.0000000   0.0000000   0.0000000   0.0000000   0.0000000   0.0000000   2.7928460   2.7928460   2.7928460   2.7928460
 AtZNuc=   6.0000000   6.0000000   6.0000000   6.0000000   8.0000000   6.0000000   1.0000000   1.0000000   1.0000000   1.0000000

  Atom        21          22          23          24          25          26          27          28          29
 IAtWgt=           1           1           1           1           1           1           1           1           1
 AtmWgt=   1.0078250   1.0078250   1.0078250   1.0078250   1.0078250   1.0078250   1.0078250   1.0078250   1.0078250
 NucSpn=           1           1           1           1           1           1           1           1           1
 AtZEff=  -0.0000000  -0.0000000  -0.0000000  -0.0000000  -0.0000000  -0.0000000  -0.0000000  -0.0000000  -0.0000000
 NQMom=    0.0000000   0.0000000   0.0000000   0.0000000   0.0000000   0.0000000   0.0000000   0.0000000   0.0000000
 NMagM=    2.7928460   2.7928460   2.7928460   2.7928460   2.7928460   2.7928460   2.7928460   2.7928460   2.7928460
 AtZNuc=   1.0000000   1.0000000   1.0000000   1.0000000   1.0000000   1.0000000   1.0000000   1.0000000   1.0000000
 Leave Link  101 at Fri Jul 24 23:33:19 2020, MaxMem=  4026531840 cpu:               2.9 elap:               0.4
 (Enter /opt/ohpc/pub/libs/gaussian/g16-A.03/sandybridge/g16/l103.exe)

 GradGradGradGradGradGradGradGradGradGradGradGradGradGradGradGradGradGrad
 Berny optimization.
 Initialization pass.
                           ----------------------------
                           !    Initial Parameters    !
                           ! (Angstroms and Degrees)  !
 --------------------------                            --------------------------
 ! Name  Definition              Value          Derivative Info.                !
 --------------------------------------------------------------------------------
 ! R1    R(1,2)                  1.4215         estimate D2E/DX2                !
 ! R2    R(1,8)                  1.3516         estimate D2E/DX2                !
 ! R3    R(1,17)                 1.0084         estimate D2E/DX2                !
 ! R4    R(2,3)                  1.4056         estimate D2E/DX2                !
 ! R5    R(2,18)                 1.0859         estimate D2E/DX2                !
 ! R6    R(3,4)                  1.3792         estimate D2E/DX2                !
 ! R7    R(3,6)                  1.3897         estimate D2E/DX2                !
 ! R8    R(4,5)                  1.4177         estimate D2E/DX2                !
 ! R9    R(5,19)                 1.0194         estimate D2E/DX2                !
 ! R10   R(5,20)                 1.0594         estimate D2E/DX2                !
 ! R11   R(5,21)                 1.0851         estimate D2E/DX2                !
 ! R12   R(6,7)                  1.3899         estimate D2E/DX2                !
 ! R13   R(6,9)                  1.4652         estimate D2E/DX2                !
 ! R14   R(7,8)                  1.3327         estimate D2E/DX2                !
 ! R15   R(8,22)                 1.0618         estimate D2E/DX2                !
 ! R16   R(9,10)                 1.3819         estimate D2E/DX2                !
 ! R17   R(9,14)                 1.4274         estimate D2E/DX2                !
 ! R18   R(10,11)                1.3859         estimate D2E/DX2                !
 ! R19   R(10,23)                1.126          estimate D2E/DX2                !
 ! R20   R(11,12)                1.3678         estimate D2E/DX2                !
 ! R21   R(11,24)                1.0232         estimate D2E/DX2                !
 ! R22   R(12,13)                1.4835         estimate D2E/DX2                !
 ! R23   R(12,25)                1.0773         estimate D2E/DX2                !
 ! R24   R(13,14)                1.3888         estimate D2E/DX2                !
 ! R25   R(13,26)                1.0754         estimate D2E/DX2                !
 ! R26   R(14,15)                1.4212         estimate D2E/DX2                !
 ! R27   R(15,16)                1.4009         estimate D2E/DX2                !
 ! R28   R(16,27)                1.1241         estimate D2E/DX2                !
 ! R29   R(16,28)                1.1145         estimate D2E/DX2                !
 ! R30   R(16,29)                1.1635         estimate D2E/DX2                !
 ! A1    A(2,1,8)              114.2747         estimate D2E/DX2                !
 ! A2    A(2,1,17)             121.6245         estimate D2E/DX2                !
 ! A3    A(8,1,17)             124.0386         estimate D2E/DX2                !
 ! A4    A(1,2,3)              123.5128         estimate D2E/DX2                !
 ! A5    A(1,2,18)             119.0297         estimate D2E/DX2                !
 ! A6    A(3,2,18)             116.6741         estimate D2E/DX2                !
 ! A7    A(2,3,4)              123.3965         estimate D2E/DX2                !
 ! A8    A(2,3,6)              116.3394         estimate D2E/DX2                !
 ! A9    A(4,3,6)              120.2346         estimate D2E/DX2                !
 ! A10   A(3,4,5)              113.978          estimate D2E/DX2                !
 ! A11   A(4,5,19)             106.0889         estimate D2E/DX2                !
 ! A12   A(4,5,20)             111.0166         estimate D2E/DX2                !
 ! A13   A(4,5,21)             105.6366         estimate D2E/DX2                !
 ! A14   A(19,5,20)            115.5257         estimate D2E/DX2                !
 ! A15   A(19,5,21)            106.2109         estimate D2E/DX2                !
 ! A16   A(20,5,21)            111.7108         estimate D2E/DX2                !
 ! A17   A(3,6,7)              120.1206         estimate D2E/DX2                !
 ! A18   A(3,6,9)              127.3469         estimate D2E/DX2                !
 ! A19   A(7,6,9)              112.4593         estimate D2E/DX2                !
 ! A20   A(6,7,8)              120.0559         estimate D2E/DX2                !
 ! A21   A(1,8,7)              125.0422         estimate D2E/DX2                !
 ! A22   A(1,8,22)             120.364          estimate D2E/DX2                !
 ! A23   A(7,8,22)             114.1887         estimate D2E/DX2                !
 ! A24   A(6,9,10)             121.6689         estimate D2E/DX2                !
 ! A25   A(6,9,14)             121.0749         estimate D2E/DX2                !
 ! A26   A(10,9,14)            116.3584         estimate D2E/DX2                !
 ! A27   A(9,10,11)            125.0542         estimate D2E/DX2                !
 ! A28   A(9,10,23)            114.5804         estimate D2E/DX2                !
 ! A29   A(11,10,23)           120.2219         estimate D2E/DX2                !
 ! A30   A(10,11,12)           117.9468         estimate D2E/DX2                !
 ! A31   A(10,11,24)           120.9402         estimate D2E/DX2                !
 ! A32   A(12,11,24)           121.006          estimate D2E/DX2                !
 ! A33   A(11,12,13)           121.1929         estimate D2E/DX2                !
 ! A34   A(11,12,25)           120.4269         estimate D2E/DX2                !
 ! A35   A(13,12,25)           118.3231         estimate D2E/DX2                !
 ! A36   A(12,13,14)           116.752          estimate D2E/DX2                !
 ! A37   A(12,13,26)           118.238          estimate D2E/DX2                !
 ! A38   A(14,13,26)           124.9921         estimate D2E/DX2                !
 ! A39   A(9,14,13)            122.2374         estimate D2E/DX2                !
 ! A40   A(9,14,15)            113.753          estimate D2E/DX2                !
 ! A41   A(13,14,15)           123.5191         estimate D2E/DX2                !
 ! A42   A(14,15,16)           114.4694         estimate D2E/DX2                !
 ! A43   A(15,16,27)           108.2154         estimate D2E/DX2                !
 ! A44   A(15,16,28)           115.7538         estimate D2E/DX2                !
 ! A45   A(15,16,29)           112.9462         estimate D2E/DX2                !
 ! A46   A(27,16,28)           102.4257         estimate D2E/DX2                !
 ! A47   A(27,16,29)           109.007          estimate D2E/DX2                !
 ! A48   A(28,16,29)           107.8414         estimate D2E/DX2                !
 ! D1    D(8,1,2,3)             -7.0177         estimate D2E/DX2                !
 ! D2    D(8,1,2,18)          -176.5311         estimate D2E/DX2                !
 ! D3    D(17,1,2,3)           175.7388         estimate D2E/DX2                !
 ! D4    D(17,1,2,18)            6.2254         estimate D2E/DX2                !
 ! D5    D(2,1,8,7)              7.7209         estimate D2E/DX2                !
 ! D6    D(2,1,8,22)           179.979          estimate D2E/DX2                !
 ! D7    D(17,1,8,7)          -175.1117         estimate D2E/DX2                !
 ! D8    D(17,1,8,22)           -2.8536         estimate D2E/DX2                !
 ! D9    D(1,2,3,4)           -175.9994         estimate D2E/DX2                !
 ! D10   D(1,2,3,6)              5.9794         estimate D2E/DX2                !
 ! D11   D(18,2,3,4)            -6.2582         estimate D2E/DX2                !
 ! D12   D(18,2,3,6)           175.7207         estimate D2E/DX2                !
 ! D13   D(2,3,4,5)            -49.3809         estimate D2E/DX2                !
 ! D14   D(6,3,4,5)            128.5665         estimate D2E/DX2                !
 ! D15   D(2,3,6,7)             -5.0684         estimate D2E/DX2                !
 ! D16   D(2,3,6,9)            178.2908         estimate D2E/DX2                !
 ! D17   D(4,3,6,7)            176.8438         estimate D2E/DX2                !
 ! D18   D(4,3,6,9)              0.2029         estimate D2E/DX2                !
 ! D19   D(3,4,5,19)          -163.0526         estimate D2E/DX2                !
 ! D20   D(3,4,5,20)           -36.8065         estimate D2E/DX2                !
 ! D21   D(3,4,5,21)            84.4619         estimate D2E/DX2                !
 ! D22   D(3,6,7,8)              5.7819         estimate D2E/DX2                !
 ! D23   D(9,6,7,8)           -177.1073         estimate D2E/DX2                !
 ! D24   D(3,6,9,10)           110.2514         estimate D2E/DX2                !
 ! D25   D(3,6,9,14)           -58.5069         estimate D2E/DX2                !
 ! D26   D(7,6,9,10)           -66.6048         estimate D2E/DX2                !
 ! D27   D(7,6,9,14)           124.6369         estimate D2E/DX2                !
 ! D28   D(6,7,8,1)             -7.4417         estimate D2E/DX2                !
 ! D29   D(6,7,8,22)           179.8788         estimate D2E/DX2                !
 ! D30   D(6,9,10,11)         -175.3571         estimate D2E/DX2                !
 ! D31   D(6,9,10,23)            9.012          estimate D2E/DX2                !
 ! D32   D(14,9,10,11)          -6.0967         estimate D2E/DX2                !
 ! D33   D(14,9,10,23)         178.2724         estimate D2E/DX2                !
 ! D34   D(6,9,14,13)          176.9804         estimate D2E/DX2                !
 ! D35   D(6,9,14,15)          -10.7943         estimate D2E/DX2                !
 ! D36   D(10,9,14,13)           7.6515         estimate D2E/DX2                !
 ! D37   D(10,9,14,15)         179.8768         estimate D2E/DX2                !
 ! D38   D(9,10,11,12)           0.5314         estimate D2E/DX2                !
 ! D39   D(9,10,11,24)        -175.7444         estimate D2E/DX2                !
 ! D40   D(23,10,11,12)        175.9328         estimate D2E/DX2                !
 ! D41   D(23,10,11,24)         -0.343          estimate D2E/DX2                !
 ! D42   D(10,11,12,13)          3.7371         estimate D2E/DX2                !
 ! D43   D(10,11,12,25)       -179.0574         estimate D2E/DX2                !
 ! D44   D(24,11,12,13)       -179.9896         estimate D2E/DX2                !
 ! D45   D(24,11,12,25)         -2.7842         estimate D2E/DX2                !
 ! D46   D(11,12,13,14)         -2.1139         estimate D2E/DX2                !
 ! D47   D(11,12,13,26)        176.4226         estimate D2E/DX2                !
 ! D48   D(25,12,13,14)       -179.3767         estimate D2E/DX2                !
 ! D49   D(25,12,13,26)         -0.8401         estimate D2E/DX2                !
 ! D50   D(12,13,14,9)          -3.787          estimate D2E/DX2                !
 ! D51   D(12,13,14,15)       -175.246          estimate D2E/DX2                !
 ! D52   D(26,13,14,9)         177.7868         estimate D2E/DX2                !
 ! D53   D(26,13,14,15)          6.3278         estimate D2E/DX2                !
 ! D54   D(9,14,15,16)        -172.0571         estimate D2E/DX2                !
 ! D55   D(13,14,15,16)          0.0542         estimate D2E/DX2                !
 ! D56   D(14,15,16,27)       -178.2545         estimate D2E/DX2                !
 ! D57   D(14,15,16,28)        -64.0331         estimate D2E/DX2                !
 ! D58   D(14,15,16,29)         60.9718         estimate D2E/DX2                !
 --------------------------------------------------------------------------------
 Trust Radius=3.00D-01 FncErr=1.00D-07 GrdErr=1.00D-06 EigMax=2.50D+02 EigMin=1.00D-04
 Number of steps in this run=    146 maximum allowed number of steps=    174.
 GradGradGradGradGradGradGradGradGradGradGradGradGradGradGradGradGradGrad

 Leave Link  103 at Fri Jul 24 23:33:19 2020, MaxMem=  4026531840 cpu:               0.1 elap:               0.0
 (Enter /opt/ohpc/pub/libs/gaussian/g16-A.03/sandybridge/g16/l202.exe)
                          Input orientation:                          
 ---------------------------------------------------------------------
 Center     Atomic      Atomic             Coordinates (Angstroms)
 Number     Number       Type             X           Y           Z
 ---------------------------------------------------------------------
      1          6           0        3.518493   -0.864983    0.526473
      2          6           0        2.954259    0.154157   -0.288192
      3          6           0        1.583568    0.238229   -0.587809
      4          8           0        1.049603    1.180183   -1.442133
      5          6           0        1.468523    2.507183   -1.170982
      6          6           0        0.753601   -0.667155    0.062428
      7          7           0        1.299224   -1.656897    0.871491
      8          6           0        2.608805   -1.670560    1.118297
      9          6           0       -0.704226   -0.770365   -0.042313
     10          6           0       -1.312435   -1.838615   -0.673666
     11          6           0       -2.675170   -1.962654   -0.893261
     12          6           0       -3.488348   -0.949731   -0.464691
     13          6           0       -2.926609    0.282694    0.140505
     14          6           0       -1.546683    0.333237    0.289129
     15          8           0       -0.865721    1.398579    0.938140
     16          6           0       -1.702759    2.410409    1.426195
     17          1           0        4.513857   -0.935256    0.671767
     18          1           0        3.616223    0.809894   -0.845776
     19          1           0        0.809872    3.115951   -1.655544
     20          1           0        1.559689    2.671266   -0.128391
     21          1           0        2.419577    2.623485   -1.680303
     22          1           0        2.924580   -2.464976    1.748130
     23          1           0       -0.615258   -2.678945   -0.948619
     24          1           0       -3.065708   -2.811445   -1.310442
     25          1           0       -4.555181   -1.011666   -0.601219
     26          1           0       -3.604968    1.073291    0.407344
     27          1           0       -1.058238    3.208064    1.886493
     28          1           0       -2.274874    2.978691    0.656872
     29          1           0       -2.459528    2.028092    2.222988
 ---------------------------------------------------------------------
                    Distance matrix (angstroms):
                    1          2          3          4          5
     1  C    0.000000
     2  C    1.421508   0.000000
     3  C    2.490509   1.405572   0.000000
     4  O    3.762118   2.451943   1.379226   0.000000
     5  C    4.295956   2.919497   2.345523   1.417726   0.000000
     6  C    2.810534   2.374949   1.389739   2.400829   3.479775
     7  N    2.381453   2.713655   2.408716   3.669358   4.641112
     8  C    1.351570   2.329623   2.757786   4.136865   4.898426
     9  C    4.261904   3.781496   2.559068   2.973222   4.091094
    10  C    5.072096   4.724871   3.564756   3.909336   5.183340
    11  C    6.448410   6.044623   4.803544   4.904347   6.101374
    12  C    7.077105   6.538876   5.210637   5.107340   6.084379
    13  C    6.557856   5.897873   4.568820   4.372698   5.097601
    14  C    5.210381   4.541349   3.252156   3.233464   3.993674
    15  O    4.951213   4.200562   3.110297   3.062983   3.335580
    16  C    6.228898   5.451386   4.424310   4.161281   4.100210
    17  H    1.008364   2.130889   3.398557   4.576539   4.951784
    18  H    2.167448   1.085858   2.127213   2.660882   2.756658
    19  H    5.286366   3.903879   3.165430   1.962196   1.019421
    20  H    4.095219   2.882048   2.476147   2.051691   1.059354
    21  H    4.271637   2.884690   2.753525   2.004164   1.085098
    22  H    2.098846   3.317732   3.816051   5.194276   5.946737
    23  H    4.749132   4.604789   3.670821   4.231807   5.593524
    24  H    7.107368   6.788210   5.607003   5.734651   6.990458
    25  H    8.153368   7.605841   6.264715   6.076590   6.999424
    26  H    7.383413   6.659732   5.348697   5.009693   5.503405
    27  H    6.275813   5.491424   4.682011   4.431145   4.027891
    28  H    6.953699   6.017888   4.893561   4.323494   4.192421
    29  H    6.854545   6.255138   5.239352   5.144518   5.213266
                    6          7          8          9         10
     6  C    0.000000
     7  N    1.389920   0.000000
     8  C    2.358699   1.332705   0.000000
     9  C    1.465224   2.373771   3.624023   0.000000
    10  C    2.486495   3.039950   4.314568   1.381913   0.000000
    11  C    3.787893   4.359317   5.661455   2.455664   1.385877
    12  C    4.283904   5.020589   6.340404   2.821686   2.359742
    13  C    3.801612   4.706806   5.950806   2.466038   2.787182
    14  C    2.518627   3.521216   4.687302   1.427419   2.387213
    15  O    2.767008   3.745312   4.639440   2.385726   3.643748
    16  C    4.167129   5.085526   5.944636   3.642926   4.755626
    17  H    3.818730   3.300685   2.090283   5.269297   6.047473
    18  H    3.346806   3.795069   3.320410   4.670016   5.597847
    19  H    4.155296   5.422679   5.817305   4.471964   5.478686
    20  H    3.439658   4.449787   4.637492   4.120382   5.374518
    21  H    4.079326   5.107692   5.129015   4.894831   5.903522
    22  H    3.284342   2.015755   1.061838   4.386984   4.920337
    23  H    2.635012   2.832424   3.960248   2.114706   1.125970
    24  H    4.590193   5.014623   6.276981   3.369088   2.103770
    25  H    5.361183   6.071182   7.396862   3.898776   3.347312
    26  H    4.705873   5.632092   6.829725   3.466347   3.860503
    27  H    4.650516   5.500518   6.151285   4.435484   5.664627
    28  H    4.776737   5.857381   6.758607   4.124466   5.089505
    29  H    4.717687   5.434511   6.370900   4.005501   4.965667
                   11         12         13         14         15
    11  C    0.000000
    12  C    1.367824   0.000000
    13  C    2.484649   1.483470   0.000000
    14  C    2.818270   2.446286   1.388827   0.000000
    15  O    4.233913   3.789547   2.475617   1.421224   0.000000
    16  C    5.044714   4.249037   2.770917   2.373167   1.400939
    17  H    7.428793   8.082514   7.558186   6.203679   5.870060
    18  H    6.875384   7.329150   6.637721   5.307618   4.859705
    19  H    6.206353   6.035114   5.021397   4.132626   3.533295
    20  H    6.323944   6.221527   5.089642   3.910275   2.939359
    21  H    6.899895   7.010646   6.113620   4.985491   4.376051
    22  H    6.211801   6.951129   6.661123   5.472739   5.472616
    23  H    2.181599   3.388069   3.911501   3.387154   4.499866
    24  H    1.023233   2.088037   3.420277   3.841235   5.255508
    25  H    2.126995   1.077315   2.208567   3.413582   4.668085
    26  H    3.431189   2.206052   1.075369   2.190478   2.809098
    27  H    6.089156   5.359175   3.885495   3.324873   2.051992
    28  H    5.194231   4.261798   2.821311   2.768379   2.135785
    29  H    5.067895   4.141198   2.757048   2.728668   2.141808
                   16         17         18         19         20
    16  C    0.000000
    17  H    7.099926   0.000000
    18  H    6.001256   2.480772   0.000000
    19  H    4.038344   5.962228   3.721455   0.000000
    20  H    3.623307   4.730155   2.865079   1.758456   0.000000
    21  H    5.166177   4.752145   2.327554   1.683534   1.774858
    22  H    6.729434   2.454466   4.234559   6.870497   5.636066
    23  H    5.720483   5.654549   5.485253   6.009289   5.833346
    24  H    6.050998   8.055994   7.614343   7.090362   7.269915
    25  H    4.894621   9.158263   8.375544   6.850738   7.153963
    26  H    2.538571   8.367766   7.333845   5.283822   5.432699
    27  H    1.124071   7.049177   5.921748   4.005539   3.346857
    28  H    1.114503   7.836203   6.454971   3.857689   3.926197
    29  H    1.163505   7.734069   6.914916   5.188008   4.700719
                   21         22         23         24         25
    21  H    0.000000
    22  H    6.156429   0.000000
    23  H    6.153158   4.455187   0.000000
    24  H    7.730693   6.734869   2.480560   0.000000
    25  H    7.938891   7.973605   4.292260   2.441461   0.000000
    26  H    6.561746   7.546657   4.985607   4.281678   2.503428
    27  H    5.015871   6.932919   6.549120   7.105267   6.018591
    28  H    5.256085   7.606489   6.110710   6.166151   4.765033
    29  H    6.276610   7.028639   5.967966   6.022765   4.648444
                   26         27         28         29
    26  H    0.000000
    27  H    3.637440   0.000000
    28  H    2.337084   1.744931   0.000000
    29  H    2.349519   1.862573   1.841319   0.000000
 Stoichiometry    C13H13NO2
 Framework group  C1[X(C13H13NO2)]
 Deg. of freedom    81
 Full point group                 C1      NOp   1
 Largest Abelian subgroup         C1      NOp   1
 Largest concise Abelian subgroup C1      NOp   1
                         Standard orientation:                         
 ---------------------------------------------------------------------
 Center     Atomic      Atomic             Coordinates (Angstroms)
 Number     Number       Type             X           Y           Z
 ---------------------------------------------------------------------
      1          6           0        3.517561   -0.892231    0.509033
      2          6           0        2.953196    0.128663   -0.303342
      3          6           0        1.580792    0.220276   -0.592735
      4          8           0        1.045938    1.163730   -1.444844
      5          6           0        1.474736    2.488745   -1.179487
      6          6           0        0.750446   -0.678923    0.065550
      7          7           0        1.296332   -1.670321    0.872405
      8          6           0        2.607644   -1.691266    1.109313
      9          6           0       -0.708718   -0.773698   -0.027945
     10          6           0       -1.327999   -1.839540   -0.652570
     11          6           0       -2.693069   -1.955927   -0.861594
     12          6           0       -3.496974   -0.937383   -0.428874
     13          6           0       -2.923390    0.292856    0.169623
     14          6           0       -1.542102    0.335510    0.307693
     15          8           0       -0.849955    1.398047    0.949430
     16          6           0       -1.677274    2.415755    1.441816
     17          1           0        4.513565   -0.968119    0.646923
     18          1           0        3.614775    0.779394   -0.867213
     19          1           0        0.816037    3.100470   -1.660245
     20          1           0        1.574774    2.654291   -0.137942
     21          1           0        2.422570    2.598432   -1.696223
     22          1           0        2.923487   -2.486325    1.738300
     23          1           0       -0.637904   -2.684512   -0.931139
     24          1           0       -3.091768   -2.803191   -1.274134
     25          1           0       -4.565159   -0.993260   -0.557197
     26          1           0       -3.595023    1.087969    0.440034
     27          1           0       -1.024579    3.210462    1.895648
     28          1           0       -2.251840    2.985934    0.675730
     29          1           0       -2.430224    2.039461    2.245068
 ---------------------------------------------------------------------
 Rotational constants (GHZ):           0.8043706           0.4407361           0.3488304
 Leave Link  202 at Fri Jul 24 23:33:19 2020, MaxMem=  4026531840 cpu:               0.2 elap:               0.0
 (Enter /opt/ohpc/pub/libs/gaussian/g16-A.03/sandybridge/g16/l301.exe)
 Standard basis: CC-pVDZ (5D, 7F)
 Ernie: Thresh=  0.10000D-02 Tol=  0.10000D-05 Strict=F.
 Ernie:  32 primitive shells out of 417 were deleted.
 There are   305 symmetry adapted cartesian basis functions of A   symmetry.
 There are   289 symmetry adapted basis functions of A   symmetry.
   289 basis functions,   619 primitive gaussians,   305 cartesian basis functions
    57 alpha electrons       57 beta electrons
       nuclear repulsion energy      1070.6364872784 Hartrees.
 IExCor=32609 DFT=T Ex+Corr=LC-wPBE ExCW=0 ScaHFX=  1.000000
 ScaDFX=  1.000000  0.000000  1.000000  1.000000 ScalE2=  1.000000  1.000000
 IRadAn=      5 IRanWt=     -1 IRanGd=            0 ICorTp=0 IEmpDi=  4
 HFx  wShort=  0.000000 wLong=  0.321900 cFull=  0.000000 cShort=  0.000000 cLong=  1.000000
 DFx  wShort=  0.000000 wLong=  0.321900 cFull=  0.000000 cShort=  0.000000 cLong=  1.000000
 NAtoms=   29 NActive=   29 NUniq=   29 SFac= 1.00D+00 NAtFMM=   60 NAOKFM=F Big=F
 Integral buffers will be    131072 words long.
 Raffenetti 2 integral format.
 Two-electron integral symmetry is turned on.
 Leave Link  301 at Fri Jul 24 23:33:19 2020, MaxMem=  4026531840 cpu:               0.5 elap:               0.1
 (Enter /opt/ohpc/pub/libs/gaussian/g16-A.03/sandybridge/g16/l302.exe)
 NPDir=0 NMtPBC=     1 NCelOv=     1 NCel=       1 NClECP=     1 NCelD=      1
         NCelK=      1 NCelE2=     1 NClLst=     1 CellRange=     0.0.
 One-electron integrals computed using PRISM.
 One-electron integral symmetry used in STVInt
 NBasis=   289 RedAO= T EigKep=  3.26D-04  NBF=   289
 NBsUse=   289 1.00D-06 EigRej= -1.00D+00 NBFU=   289
 Precomputing XC quadrature grid using
 IXCGrd= 4 IRadAn=           5 IRanWt=          -1 IRanGd=           0 AccXCQ= 0.00D+00.
 Generated NRdTot=       0 NPtTot=           0 NUsed=           0 NTot=          32
 NSgBfM=   304   304   304   304   304 MxSgAt=    29 MxSgA2=    29.
 Leave Link  302 at Fri Jul 24 23:33:19 2020, MaxMem=  4026531840 cpu:               2.9 elap:               0.4
 (Enter /opt/ohpc/pub/libs/gaussian/g16-A.03/sandybridge/g16/l303.exe)
 DipDrv:  MaxL=1.
 Leave Link  303 at Fri Jul 24 23:33:19 2020, MaxMem=  4026531840 cpu:               0.4 elap:               0.1
 (Enter /opt/ohpc/pub/libs/gaussian/g16-A.03/sandybridge/g16/l401.exe)
 ExpMin= 1.22D-01 ExpMax= 1.17D+04 ExpMxC= 4.01D+02 IAcc=3 IRadAn=         5 AccDes= 0.00D+00
 Harris functional with IExCor=32609 and IRadAn=       5 diagonalized for initial guess.
 HarFok:  IExCor=32609 AccDes= 0.00D+00 IRadAn=         5 IDoV= 1 UseB2=F ITyADJ=14
 ICtDFT=  3500011 ScaDFX=  1.000000  1.000000  1.000000  1.000000
 FoFCou: FMM=F IPFlag=           0 FMFlag=      100000 FMFlg1=           0
         NFxFlg=           0 DoJE=T BraDBF=F KetDBF=T FulRan=T
         wScrn=  0.000000 ICntrl=       500 IOpCl=  0 I1Cent=   200000004 NGrid=           0
         NMat0=    1 NMatS0=      1 NMatT0=    0 NMatD0=    1 NMtDS0=    0 NMtDT0=    0
 Petite list used in FoFCou.
 Harris En= -707.801413059847    
 JPrj=0 DoOrth=F DoCkMO=F.
 Initial guess <Sx>= 0.0000 <Sy>= 0.0000 <Sz>= 0.0000 <S**2>=-0.0000 S=-0.0000
 Leave Link  401 at Fri Jul 24 23:33:22 2020, MaxMem=  4026531840 cpu:              18.3 elap:               2.3
 (Enter /opt/ohpc/pub/libs/gaussian/g16-A.03/sandybridge/g16/l502.exe)
 Integral symmetry usage will be decided dynamically.
 UHF open shell SCF:
 Using DIIS extrapolation, IDIIS=  1040.
 NGot=  4026531840 LenX=  4026340025 LenY=  4026246559
 Requested convergence on RMS density matrix=1.00D-08 within 128 cycles.
 Requested convergence on MAX density matrix=1.00D-06.
 Requested convergence on             energy=1.00D-06.
 No special actions if energy rises.
 Fock matrices will be formed incrementally for  20 cycles.
 Integral accuracy reduced to 1.0D-05 until final iterations.

 Cycle   1  Pass 0  IDiag  1:
 FoFJK:  IHMeth= 1 ICntrl=       0 DoSepK=T KAlg= 0 I1Cent=           0 FoldK=F
 IRaf=         1 NMat=       1 IRICut=       1 DoRegI=T DoRafI=F ISym2E= 0 IDoP0=0 IntGTp=1.
 FoFCou: FMM=F IPFlag=           0 FMFlag=      100000 FMFlg1=           0
         NFxFlg=           0 DoJE=T BraDBF=F KetDBF=F FulRan=T
         wScrn=  0.000000 ICntrl=       500 IOpCl=  0 I1Cent=           0 NGrid=           0
         NMat0=    1 NMatS0=      1 NMatT0=    0 NMatD0=    1 NMtDS0=    0 NMtDT0=    0
 Symmetry not used in FoFCou.
 E= -707.591432178667    
 DIIS: error= 1.60D-02 at cycle   1 NSaved=   1.
 NSaved= 1 IEnMin= 1 EnMin= -707.591432178667     IErMin= 1 ErrMin= 1.60D-02
 ErrMax= 1.60D-02  0.00D+00 EMaxC= 1.00D-01 BMatC= 8.65D-01 BMatP= 8.65D-01
 IDIUse=3 WtCom= 8.40D-01 WtEn= 1.60D-01
 Coeff-Com:  0.100D+01
 Coeff-En:   0.100D+01
 Coeff:      0.100D+01
 Gap=     0.366 Goal=   None    Shift=    0.000
 Gap=     0.366 Goal=   None    Shift=    0.000
 GapD=    0.366 DampG=1.000 DampE=0.500 DampFc=0.5000 IDamp=-1.
 Damping current iteration by 5.00D-01
 RMSDP=2.97D-03 MaxDP=8.47D-02              OVMax= 1.21D-01

 Cycle   2  Pass 0  IDiag  1:
 RMSU=  1.46D-03    CP:  9.85D-01
 E= -707.722394630636     Delta-E=       -0.130962451968 Rises=F Damp=T
 DIIS: error= 4.65D-03 at cycle   2 NSaved=   2.
 NSaved= 2 IEnMin= 2 EnMin= -707.722394630636     IErMin= 2 ErrMin= 4.65D-03
 ErrMax= 4.65D-03  0.00D+00 EMaxC= 1.00D-01 BMatC= 6.75D-02 BMatP= 8.65D-01
 IDIUse=3 WtCom= 9.54D-01 WtEn= 4.65D-02
 Coeff-Com: -0.196D+00 0.120D+01
 Coeff-En:   0.000D+00 0.100D+01
 Coeff:     -0.187D+00 0.119D+01
 Gap=     0.360 Goal=   None    Shift=    0.000
 Gap=     0.360 Goal=   None    Shift=    0.000
 RMSDP=1.05D-03 MaxDP=2.18D-02 DE=-1.31D-01 OVMax= 5.95D-02

 Cycle   3  Pass 0  IDiag  1:
 RMSU=  7.57D-04    CP:  9.74D-01  1.48D+00
 E= -707.833626820280     Delta-E=       -0.111232189644 Rises=F Damp=F
 DIIS: error= 3.32D-03 at cycle   3 NSaved=   3.
 NSaved= 3 IEnMin= 3 EnMin= -707.833626820280     IErMin= 3 ErrMin= 3.32D-03
 ErrMax= 3.32D-03  0.00D+00 EMaxC= 1.00D-01 BMatC= 2.06D-02 BMatP= 6.75D-02
 IDIUse=3 WtCom= 9.67D-01 WtEn= 3.32D-02
 Coeff-Com: -0.113D+00 0.477D+00 0.635D+00
 Coeff-En:   0.000D+00 0.000D+00 0.100D+01
 Coeff:     -0.109D+00 0.461D+00 0.648D+00
 Gap=     0.351 Goal=   None    Shift=    0.000
 Gap=     0.351 Goal=   None    Shift=    0.000
 RMSDP=3.14D-04 MaxDP=1.08D-02 DE=-1.11D-01 OVMax= 2.41D-02

 Cycle   4  Pass 0  IDiag  1:
 RMSU=  2.53D-04    CP:  9.74D-01  1.49D+00  7.56D-01
 E= -707.838211253675     Delta-E=       -0.004584433395 Rises=F Damp=F
 DIIS: error= 1.53D-03 at cycle   4 NSaved=   4.
 NSaved= 4 IEnMin= 4 EnMin= -707.838211253675     IErMin= 4 ErrMin= 1.53D-03
 ErrMax= 1.53D-03  0.00D+00 EMaxC= 1.00D-01 BMatC= 2.82D-03 BMatP= 2.06D-02
 IDIUse=3 WtCom= 9.85D-01 WtEn= 1.53D-02
 Coeff-Com: -0.154D-01 0.515D-01 0.281D+00 0.683D+00
 Coeff-En:   0.000D+00 0.000D+00 0.497D-01 0.950D+00
 Coeff:     -0.151D-01 0.507D-01 0.278D+00 0.687D+00
 Gap=     0.349 Goal=   None    Shift=    0.000
 Gap=     0.349 Goal=   None    Shift=    0.000
 RMSDP=1.10D-04 MaxDP=3.83D-03 DE=-4.58D-03 OVMax= 7.13D-03

 Cycle   5  Pass 0  IDiag  1:
 RMSU=  6.04D-05    CP:  9.74D-01  1.50D+00  8.49D-01  7.75D-01
 E= -707.838921815301     Delta-E=       -0.000710561626 Rises=F Damp=F
 DIIS: error= 1.73D-04 at cycle   5 NSaved=   5.
 NSaved= 5 IEnMin= 5 EnMin= -707.838921815301     IErMin= 5 ErrMin= 1.73D-04
 ErrMax= 1.73D-04  0.00D+00 EMaxC= 1.00D-01 BMatC= 1.11D-04 BMatP= 2.82D-03
 IDIUse=3 WtCom= 9.98D-01 WtEn= 1.73D-03
 Coeff-Com:  0.354D-02-0.136D-01 0.499D-01 0.217D+00 0.743D+00
 Coeff-En:   0.000D+00 0.000D+00 0.000D+00 0.000D+00 0.100D+01
 Coeff:      0.353D-02-0.136D-01 0.498D-01 0.217D+00 0.743D+00
 Gap=     0.350 Goal=   None    Shift=    0.000
 Gap=     0.350 Goal=   None    Shift=    0.000
 RMSDP=2.55D-05 MaxDP=7.94D-04 DE=-7.11D-04 OVMax= 1.86D-03

 Cycle   6  Pass 0  IDiag  1:
 RMSU=  2.16D-05    CP:  9.74D-01  1.50D+00  8.56D-01  8.22D-01  9.72D-01
 E= -707.838951172620     Delta-E=       -0.000029357319 Rises=F Damp=F
 DIIS: error= 7.74D-05 at cycle   6 NSaved=   6.
 NSaved= 6 IEnMin= 6 EnMin= -707.838951172620     IErMin= 6 ErrMin= 7.74D-05
 ErrMax= 7.74D-05  0.00D+00 EMaxC= 1.00D-01 BMatC= 2.24D-05 BMatP= 1.11D-04
 IDIUse=1 WtCom= 1.00D+00 WtEn= 0.00D+00
 Coeff-Com:  0.375D-02-0.128D-01-0.897D-02 0.157D-01 0.324D+00 0.679D+00
 Coeff:      0.375D-02-0.128D-01-0.897D-02 0.157D-01 0.324D+00 0.679D+00
 Gap=     0.350 Goal=   None    Shift=    0.000
 Gap=     0.350 Goal=   None    Shift=    0.000
 RMSDP=1.13D-05 MaxDP=2.76D-04 DE=-2.94D-05 OVMax= 8.44D-04

 Cycle   7  Pass 0  IDiag  1:
 RMSU=  7.43D-06    CP:  9.74D-01  1.50D+00  8.61D-01  8.33D-01  1.09D+00
                    CP:  9.25D-01
 E= -707.838957825801     Delta-E=       -0.000006653181 Rises=F Damp=F
 DIIS: error= 3.93D-05 at cycle   7 NSaved=   7.
 NSaved= 7 IEnMin= 7 EnMin= -707.838957825801     IErMin= 7 ErrMin= 3.93D-05
 ErrMax= 3.93D-05  0.00D+00 EMaxC= 1.00D-01 BMatC= 1.43D-06 BMatP= 2.24D-05
 IDIUse=1 WtCom= 1.00D+00 WtEn= 0.00D+00
 Coeff-Com:  0.499D-03-0.103D-02-0.707D-02-0.267D-01-0.335D-01 0.116D+00
 Coeff-Com:  0.951D+00
 Coeff:      0.499D-03-0.103D-02-0.707D-02-0.267D-01-0.335D-01 0.116D+00
 Coeff:      0.951D+00
 Gap=     0.350 Goal=   None    Shift=    0.000
 Gap=     0.350 Goal=   None    Shift=    0.000
 RMSDP=5.54D-06 MaxDP=1.28D-04 DE=-6.65D-06 OVMax= 5.36D-04

 Initial convergence to 1.0D-05 achieved.  Increase integral accuracy.
 Cycle   8  Pass 1  IDiag  1:
 E= -707.838746480484     Delta-E=        0.000211345318 Rises=F Damp=F
 DIIS: error= 8.29D-05 at cycle   1 NSaved=   1.
 NSaved= 1 IEnMin= 1 EnMin= -707.838746480484     IErMin= 1 ErrMin= 8.29D-05
 ErrMax= 8.29D-05  0.00D+00 EMaxC= 1.00D-01 BMatC= 4.61D-06 BMatP= 4.61D-06
 IDIUse=1 WtCom= 1.00D+00 WtEn= 0.00D+00
 Coeff-Com:  0.100D+01
 Coeff:      0.100D+01
 Gap=     0.350 Goal=   None    Shift=    0.000
 Gap=     0.350 Goal=   None    Shift=    0.000
 RMSDP=5.54D-06 MaxDP=1.28D-04 DE= 2.11D-04 OVMax= 2.06D-04

 Cycle   9  Pass 1  IDiag  1:
 RMSU=  4.91D-05    CP:  1.00D+00
 E= -707.838747373792     Delta-E=       -0.000000893308 Rises=F Damp=F
 DIIS: error= 2.16D-05 at cycle   2 NSaved=   2.
 NSaved= 2 IEnMin= 2 EnMin= -707.838747373792     IErMin= 2 ErrMin= 2.16D-05
 ErrMax= 2.16D-05  0.00D+00 EMaxC= 1.00D-01 BMatC= 3.87D-07 BMatP= 4.61D-06
 IDIUse=1 WtCom= 1.00D+00 WtEn= 0.00D+00
 Coeff-Com:  0.998D-01 0.900D+00
 Coeff:      0.998D-01 0.900D+00
 Gap=     0.350 Goal=   None    Shift=    0.000
 Gap=     0.350 Goal=   None    Shift=    0.000
 RMSDP=3.31D-06 MaxDP=9.55D-05 DE=-8.93D-07 OVMax= 1.51D-04

 Cycle  10  Pass 1  IDiag  1:
 RMSU=  2.06D-06    CP:  1.00D+00  1.05D+00
 E= -707.838747409424     Delta-E=       -0.000000035632 Rises=F Damp=F
 DIIS: error= 1.84D-05 at cycle   3 NSaved=   3.
 NSaved= 3 IEnMin= 3 EnMin= -707.838747409424     IErMin= 3 ErrMin= 1.84D-05
 ErrMax= 1.84D-05  0.00D+00 EMaxC= 1.00D-01 BMatC= 3.75D-07 BMatP= 3.87D-07
 IDIUse=1 WtCom= 1.00D+00 WtEn= 0.00D+00
 Coeff-Com: -0.235D-01 0.499D+00 0.525D+00
 Coeff:     -0.235D-01 0.499D+00 0.525D+00
 Gap=     0.350 Goal=   None    Shift=    0.000
 Gap=     0.350 Goal=   None    Shift=    0.000
 RMSDP=1.06D-06 MaxDP=4.87D-05 DE=-3.56D-08 OVMax= 5.26D-05

 Cycle  11  Pass 1  IDiag  1:
 RMSU=  7.42D-07    CP:  1.00D+00  1.06D+00  7.23D-01
 E= -707.838747487180     Delta-E=       -0.000000077756 Rises=F Damp=F
 DIIS: error= 1.95D-06 at cycle   4 NSaved=   4.
 NSaved= 4 IEnMin= 4 EnMin= -707.838747487180     IErMin= 4 ErrMin= 1.95D-06
 ErrMax= 1.95D-06  0.00D+00 EMaxC= 1.00D-01 BMatC= 7.23D-09 BMatP= 3.75D-07
 IDIUse=1 WtCom= 1.00D+00 WtEn= 0.00D+00
 Coeff-Com: -0.864D-02 0.714D-01 0.836D-01 0.854D+00
 Coeff:     -0.864D-02 0.714D-01 0.836D-01 0.854D+00
 Gap=     0.350 Goal=   None    Shift=    0.000
 Gap=     0.350 Goal=   None    Shift=    0.000
 RMSDP=3.28D-07 MaxDP=6.73D-06 DE=-7.78D-08 OVMax= 3.76D-05

 Cycle  12  Pass 1  IDiag  1:
 RMSU=  2.28D-07    CP:  1.00D+00  1.06D+00  7.77D-01  1.26D+00
 E= -707.838747488460     Delta-E=       -0.000000001280 Rises=F Damp=F
 DIIS: error= 1.35D-06 at cycle   5 NSaved=   5.
 NSaved= 5 IEnMin= 5 EnMin= -707.838747488460     IErMin= 5 ErrMin= 1.35D-06
 ErrMax= 1.35D-06  0.00D+00 EMaxC= 1.00D-01 BMatC= 2.91D-09 BMatP= 7.23D-09
 IDIUse=1 WtCom= 1.00D+00 WtEn= 0.00D+00
 Coeff-Com:  0.822D-02-0.209D+00-0.235D+00 0.289D+00 0.115D+01
 Coeff:      0.822D-02-0.209D+00-0.235D+00 0.289D+00 0.115D+01
 Gap=     0.350 Goal=   None    Shift=    0.000
 Gap=     0.350 Goal=   None    Shift=    0.000
 RMSDP=3.83D-07 MaxDP=8.48D-06 DE=-1.28D-09 OVMax= 5.02D-05

 Cycle  13  Pass 1  IDiag  1:
 RMSU=  1.63D-07    CP:  1.00D+00  1.07D+00  8.29D-01  1.66D+00  1.59D+00
 E= -707.838747499168     Delta-E=       -0.000000010708 Rises=F Damp=F
 DIIS: error= 3.39D-07 at cycle   6 NSaved=   6.
 NSaved= 6 IEnMin= 6 EnMin= -707.838747499168     IErMin= 6 ErrMin= 3.39D-07
 ErrMax= 3.39D-07  0.00D+00 EMaxC= 1.00D-01 BMatC= 2.81D-10 BMatP= 2.91D-09
 IDIUse=1 WtCom= 1.00D+00 WtEn= 0.00D+00
 Coeff-Com:  0.349D-02-0.771D-01-0.863D-01 0.239D-01 0.401D+00 0.735D+00
 Coeff:      0.349D-02-0.771D-01-0.863D-01 0.239D-01 0.401D+00 0.735D+00
 Gap=     0.350 Goal=   None    Shift=    0.000
 Gap=     0.350 Goal=   None    Shift=    0.000
 RMSDP=6.93D-08 MaxDP=1.60D-06 DE=-1.07D-08 OVMax= 7.51D-06

 Cycle  14  Pass 1  IDiag  1:
 RMSU=  4.14D-08    CP:  1.00D+00  1.07D+00  8.36D-01  1.70D+00  1.75D+00
                    CP:  1.13D+00
 E= -707.838747499399     Delta-E=       -0.000000000230 Rises=F Damp=F
 DIIS: error= 1.62D-07 at cycle   7 NSaved=   7.
 NSaved= 7 IEnMin= 7 EnMin= -707.838747499399     IErMin= 7 ErrMin= 1.62D-07
 ErrMax= 1.62D-07  0.00D+00 EMaxC= 1.00D-01 BMatC= 5.85D-11 BMatP= 2.81D-10
 IDIUse=1 WtCom= 1.00D+00 WtEn= 0.00D+00
 Coeff-Com: -0.677D-03 0.212D-01 0.253D-01-0.633D-01-0.128D+00 0.264D+00
 Coeff-Com:  0.882D+00
 Coeff:     -0.677D-03 0.212D-01 0.253D-01-0.633D-01-0.128D+00 0.264D+00
 Coeff:      0.882D+00
 Gap=     0.350 Goal=   None    Shift=    0.000
 Gap=     0.350 Goal=   None    Shift=    0.000
 RMSDP=3.97D-08 MaxDP=9.43D-07 DE=-2.30D-10 OVMax= 4.85D-06

 Cycle  15  Pass 1  IDiag  1:
 RMSU=  1.98D-08    CP:  1.00D+00  1.06D+00  8.35D-01  1.70D+00  1.83D+00
                    CP:  1.28D+00  1.07D+00
 E= -707.838747499434     Delta-E=       -0.000000000035 Rises=F Damp=F
 DIIS: error= 6.36D-08 at cycle   8 NSaved=   8.
 NSaved= 8 IEnMin= 8 EnMin= -707.838747499434     IErMin= 8 ErrMin= 6.36D-08
 ErrMax= 6.36D-08  0.00D+00 EMaxC= 1.00D-01 BMatC= 1.03D-11 BMatP= 5.85D-11
 IDIUse=1 WtCom= 1.00D+00 WtEn= 0.00D+00
 Coeff-Com: -0.742D-03 0.186D-01 0.223D-01-0.254D-01-0.103D+00-0.264D-02
 Coeff-Com:  0.322D+00 0.769D+00
 Coeff:     -0.742D-03 0.186D-01 0.223D-01-0.254D-01-0.103D+00-0.264D-02
 Coeff:      0.322D+00 0.769D+00
 Gap=     0.350 Goal=   None    Shift=    0.000
 Gap=     0.350 Goal=   None    Shift=    0.000
 RMSDP=1.19D-08 MaxDP=2.39D-07 DE=-3.52D-11 OVMax= 1.20D-06

 Cycle  16  Pass 1  IDiag  1:
 RMSU=  6.74D-09    CP:  1.00D+00  1.06D+00  8.36D-01  1.70D+00  1.85D+00
                    CP:  1.30D+00  1.20D+00  1.28D+00
 E= -707.838747499470     Delta-E=       -0.000000000036 Rises=F Damp=F
 DIIS: error= 2.75D-08 at cycle   9 NSaved=   9.
 NSaved= 9 IEnMin= 9 EnMin= -707.838747499470     IErMin= 9 ErrMin= 2.75D-08
 ErrMax= 2.75D-08  0.00D+00 EMaxC= 1.00D-01 BMatC= 1.35D-12 BMatP= 1.03D-11
 IDIUse=1 WtCom= 1.00D+00 WtEn= 0.00D+00
 Coeff-Com:  0.561D-04-0.267D-02-0.255D-02 0.130D-01 0.145D-01-0.718D-01
 Coeff-Com: -0.182D+00 0.119D+00 0.111D+01
 Coeff:      0.561D-04-0.267D-02-0.255D-02 0.130D-01 0.145D-01-0.718D-01
 Coeff:     -0.182D+00 0.119D+00 0.111D+01
 Gap=     0.350 Goal=   None    Shift=    0.000
 Gap=     0.350 Goal=   None    Shift=    0.000
 RMSDP=7.97D-09 MaxDP=1.90D-07 DE=-3.57D-11 OVMax= 9.33D-07

 SCF Done:  E(ULC-wPBE) =  -707.838747499     A.U. after   16 cycles
            NFock= 16  Conv=0.80D-08     -V/T= 2.0066
 <Sx>= 0.0000 <Sy>= 0.0000 <Sz>= 0.0000 <S**2>=-0.0000 S=-0.0000
 <L.S>= 0.000000000000E+00
 KE= 7.032252548025D+02 PE=-3.790126940037D+03 EE= 1.308426450457D+03
 Annihilation of the first spin contaminant:
 S**2 before annihilation    -0.0000,   after    -0.0000
 Leave Link  502 at Fri Jul 24 23:35:28 2020, MaxMem=  4026531840 cpu:            1004.7 elap:             126.2
 (Enter /opt/ohpc/pub/libs/gaussian/g16-A.03/sandybridge/g16/l601.exe)
 Copying SCF densities to generalized density rwf, IOpCl= 1 IROHF=0.

 **********************************************************************

            Population analysis using the SCF density.

 **********************************************************************

 Orbital symmetries:
 Alpha Orbitals:
       Occupied  (A) (A) (A) (A) (A) (A) (A) (A) (A) (A) (A) (A)
                 (A) (A) (A) (A) (A) (A) (A) (A) (A) (A) (A) (A)
                 (A) (A) (A) (A) (A) (A) (A) (A) (A) (A) (A) (A)
                 (A) (A) (A) (A) (A) (A) (A) (A) (A) (A) (A) (A)
                 (A) (A) (A) (A) (A) (A) (A) (A) (A)
       Virtual   (A) (A) (A) (A) (A) (A) (A) (A) (A) (A) (A) (A)
                 (A) (A) (A) (A) (A) (A) (A) (A) (A) (A) (A) (A)
                 (A) (A) (A) (A) (A) (A) (A) (A) (A) (A) (A) (A)
                 (A) (A) (A) (A) (A) (A) (A) (A) (A) (A) (A) (A)
                 (A) (A) (A) (A) (A) (A) (A) (A) (A) (A) (A) (A)
                 (A) (A) (A) (A) (A) (A) (A) (A) (A) (A) (A) (A)
                 (A) (A) (A) (A) (A) (A) (A) (A) (A) (A) (A) (A)
                 (A) (A) (A) (A) (A) (A) (A) (A) (A) (A) (A) (A)
                 (A) (A) (A) (A) (A) (A) (A) (A) (A) (A) (A) (A)
                 (A) (A) (A) (A) (A) (A) (A) (A) (A) (A) (A) (A)
                 (A) (A) (A) (A) (A) (A) (A) (A) (A) (A) (A) (A)
                 (A) (A) (A) (A) (A) (A) (A) (A) (A) (A) (A) (A)
                 (A) (A) (A) (A) (A) (A) (A) (A) (A) (A) (A) (A)
                 (A) (A) (A) (A) (A) (A) (A) (A) (A) (A) (A) (A)
                 (A) (A) (A) (A) (A) (A) (A) (A) (A) (A) (A) (A)
                 (A) (A) (A) (A) (A) (A) (A) (A) (A) (A) (A) (A)
                 (A) (A) (A) (A) (A) (A) (A) (A) (A) (A) (A) (A)
                 (A) (A) (A) (A) (A) (A) (A) (A) (A) (A) (A) (A)
                 (A) (A) (A) (A) (A) (A) (A) (A) (A) (A) (A) (A)
                 (A) (A) (A) (A)
 Beta  Orbitals:
       Occupied  (A) (A) (A) (A) (A) (A) (A) (A) (A) (A) (A) (A)
                 (A) (A) (A) (A) (A) (A) (A) (A) (A) (A) (A) (A)
                 (A) (A) (A) (A) (A) (A) (A) (A) (A) (A) (A) (A)
                 (A) (A) (A) (A) (A) (A) (A) (A) (A) (A) (A) (A)
                 (A) (A) (A) (A) (A) (A) (A) (A) (A)
       Virtual   (A) (A) (A) (A) (A) (A) (A) (A) (A) (A) (A) (A)
                 (A) (A) (A) (A) (A) (A) (A) (A) (A) (A) (A) (A)
                 (A) (A) (A) (A) (A) (A) (A) (A) (A) (A) (A) (A)
                 (A) (A) (A) (A) (A) (A) (A) (A) (A) (A) (A) (A)
                 (A) (A) (A) (A) (A) (A) (A) (A) (A) (A) (A) (A)
                 (A) (A) (A) (A) (A) (A) (A) (A) (A) (A) (A) (A)
                 (A) (A) (A) (A) (A) (A) (A) (A) (A) (A) (A) (A)
                 (A) (A) (A) (A) (A) (A) (A) (A) (A) (A) (A) (A)
                 (A) (A) (A) (A) (A) (A) (A) (A) (A) (A) (A) (A)
                 (A) (A) (A) (A) (A) (A) (A) (A) (A) (A) (A) (A)
                 (A) (A) (A) (A) (A) (A) (A) (A) (A) (A) (A) (A)
                 (A) (A) (A) (A) (A) (A) (A) (A) (A) (A) (A) (A)
                 (A) (A) (A) (A) (A) (A) (A) (A) (A) (A) (A) (A)
                 (A) (A) (A) (A) (A) (A) (A) (A) (A) (A) (A) (A)
                 (A) (A) (A) (A) (A) (A) (A) (A) (A) (A) (A) (A)
                 (A) (A) (A) (A) (A) (A) (A) (A) (A) (A) (A) (A)
                 (A) (A) (A) (A) (A) (A) (A) (A) (A) (A) (A) (A)
                 (A) (A) (A) (A) (A) (A) (A) (A) (A) (A) (A) (A)
                 (A) (A) (A) (A) (A) (A) (A) (A) (A) (A) (A) (A)
                 (A) (A) (A) (A)
 The electronic state is 1-A.
 Alpha  occ. eigenvalues --  -18.97159 -18.95973 -14.16528 -10.14038 -10.13849
 Alpha  occ. eigenvalues --  -10.13397 -10.11603 -10.11261 -10.09471 -10.09450
 Alpha  occ. eigenvalues --  -10.08509 -10.08321 -10.08304 -10.07837 -10.07827
 Alpha  occ. eigenvalues --  -10.06414  -1.15407  -1.14819  -1.03530  -0.96228
 Alpha  occ. eigenvalues --   -0.90283  -0.89498  -0.85859  -0.84587  -0.81149
 Alpha  occ. eigenvalues --   -0.79651  -0.75380  -0.71651  -0.70116  -0.69058
 Alpha  occ. eigenvalues --   -0.64578  -0.62588  -0.60463  -0.59949  -0.58731
 Alpha  occ. eigenvalues --   -0.57861  -0.56914  -0.56079  -0.55207  -0.54071
 Alpha  occ. eigenvalues --   -0.53199  -0.51314  -0.50155  -0.49262  -0.48375
 Alpha  occ. eigenvalues --   -0.47239  -0.46242  -0.44814  -0.43989  -0.42225
 Alpha  occ. eigenvalues --   -0.41428  -0.39536  -0.36908  -0.34570  -0.34134
 Alpha  occ. eigenvalues --   -0.32357  -0.31045
 Alpha virt. eigenvalues --    0.03964   0.06233   0.08578   0.09209   0.14435
 Alpha virt. eigenvalues --    0.15466   0.16601   0.17862   0.18850   0.20168
 Alpha virt. eigenvalues --    0.20801   0.21069   0.21553   0.22269   0.23067
 Alpha virt. eigenvalues --    0.23486   0.23892   0.24850   0.25145   0.25407
 Alpha virt. eigenvalues --    0.26904   0.30524   0.32087   0.33977   0.35542
 Alpha virt. eigenvalues --    0.37306   0.39770   0.40141   0.41628   0.42498
 Alpha virt. eigenvalues --    0.45092   0.46833   0.47508   0.50667   0.51963
 Alpha virt. eigenvalues --    0.52903   0.54165   0.54397   0.55879   0.56427
 Alpha virt. eigenvalues --    0.56512   0.57295   0.57994   0.58770   0.59065
 Alpha virt. eigenvalues --    0.59582   0.60386   0.61037   0.61651   0.61971
 Alpha virt. eigenvalues --    0.63020   0.63602   0.64306   0.65076   0.65643
 Alpha virt. eigenvalues --    0.66881   0.67714   0.67841   0.68287   0.70252
 Alpha virt. eigenvalues --    0.70926   0.71935   0.72072   0.72586   0.73372
 Alpha virt. eigenvalues --    0.74476   0.74742   0.76207   0.77500   0.77934
 Alpha virt. eigenvalues --    0.78737   0.79614   0.80346   0.81756   0.82656
 Alpha virt. eigenvalues --    0.83424   0.84123   0.85027   0.85615   0.88816
 Alpha virt. eigenvalues --    0.92912   0.93357   0.93669   0.96324   0.97792
 Alpha virt. eigenvalues --    0.98995   1.00063   1.00905   1.01520   1.01600
 Alpha virt. eigenvalues --    1.03200   1.03294   1.04166   1.05721   1.05870
 Alpha virt. eigenvalues --    1.07711   1.08663   1.10212   1.10466   1.12984
 Alpha virt. eigenvalues --    1.13361   1.14411   1.15642   1.16005   1.17423
 Alpha virt. eigenvalues --    1.18608   1.19551   1.21588   1.24491   1.25436
 Alpha virt. eigenvalues --    1.26835   1.27959   1.31696   1.32501   1.35225
 Alpha virt. eigenvalues --    1.37075   1.38240   1.38734   1.40152   1.42642
 Alpha virt. eigenvalues --    1.45157   1.46107   1.47399   1.48546   1.51430
 Alpha virt. eigenvalues --    1.51844   1.53626   1.55480   1.56102   1.56720
 Alpha virt. eigenvalues --    1.58378   1.59466   1.61266   1.62161   1.62541
 Alpha virt. eigenvalues --    1.64584   1.66208   1.67758   1.68613   1.68801
 Alpha virt. eigenvalues --    1.69329   1.70658   1.71260   1.72305   1.73116
 Alpha virt. eigenvalues --    1.73737   1.74226   1.74895   1.76389   1.76547
 Alpha virt. eigenvalues --    1.77612   1.77893   1.78488   1.81441   1.82631
 Alpha virt. eigenvalues --    1.82657   1.83204   1.83744   1.85030   1.86048
 Alpha virt. eigenvalues --    1.86584   1.87271   1.89758   1.90484   1.92364
 Alpha virt. eigenvalues --    1.93831   1.95040   1.95949   1.96826   1.98214
 Alpha virt. eigenvalues --    1.98400   1.99624   2.00878   2.03270   2.03462
 Alpha virt. eigenvalues --    2.04511   2.07463   2.08946   2.10447   2.11275
 Alpha virt. eigenvalues --    2.11661   2.13580   2.14893   2.15374   2.18118
 Alpha virt. eigenvalues --    2.19045   2.22679   2.23036   2.25076   2.28009
 Alpha virt. eigenvalues --    2.30616   2.32482   2.33251   2.35637   2.37025
 Alpha virt. eigenvalues --    2.37918   2.41751   2.43046   2.45813   2.49667
 Alpha virt. eigenvalues --    2.50208   2.53156   2.54559   2.56468   2.57440
 Alpha virt. eigenvalues --    2.57679   2.59222   2.62396   2.63238   2.67933
 Alpha virt. eigenvalues --    2.70631   2.72212   2.74247   2.82501   2.85518
 Alpha virt. eigenvalues --    2.86443   2.87428   2.91868   2.95008   2.98385
 Alpha virt. eigenvalues --    3.01874   3.06216   3.07698   3.09730   3.13853
 Alpha virt. eigenvalues --    3.20845   3.35918   3.38409   3.39965   3.42370
 Alpha virt. eigenvalues --    3.63516   3.69472
  Beta  occ. eigenvalues --  -18.97159 -18.95973 -14.16528 -10.14038 -10.13849
  Beta  occ. eigenvalues --  -10.13397 -10.11603 -10.11261 -10.09471 -10.09450
  Beta  occ. eigenvalues --  -10.08509 -10.08321 -10.08304 -10.07837 -10.07827
  Beta  occ. eigenvalues --  -10.06414  -1.15407  -1.14819  -1.03530  -0.96228
  Beta  occ. eigenvalues --   -0.90283  -0.89498  -0.85859  -0.84587  -0.81149
  Beta  occ. eigenvalues --   -0.79651  -0.75380  -0.71651  -0.70116  -0.69058
  Beta  occ. eigenvalues --   -0.64578  -0.62588  -0.60463  -0.59949  -0.58731
  Beta  occ. eigenvalues --   -0.57861  -0.56914  -0.56079  -0.55207  -0.54071
  Beta  occ. eigenvalues --   -0.53199  -0.51314  -0.50155  -0.49262  -0.48375
  Beta  occ. eigenvalues --   -0.47239  -0.46242  -0.44814  -0.43989  -0.42225
  Beta  occ. eigenvalues --   -0.41428  -0.39536  -0.36908  -0.34570  -0.34134
  Beta  occ. eigenvalues --   -0.32357  -0.31045
  Beta virt. eigenvalues --    0.03964   0.06233   0.08578   0.09209   0.14435
  Beta virt. eigenvalues --    0.15466   0.16601   0.17862   0.18850   0.20168
  Beta virt. eigenvalues --    0.20801   0.21069   0.21553   0.22269   0.23067
  Beta virt. eigenvalues --    0.23486   0.23892   0.24850   0.25145   0.25407
  Beta virt. eigenvalues --    0.26904   0.30524   0.32087   0.33977   0.35542
  Beta virt. eigenvalues --    0.37306   0.39770   0.40141   0.41628   0.42498
  Beta virt. eigenvalues --    0.45092   0.46833   0.47508   0.50667   0.51963
  Beta virt. eigenvalues --    0.52903   0.54165   0.54397   0.55879   0.56427
  Beta virt. eigenvalues --    0.56512   0.57295   0.57994   0.58770   0.59065
  Beta virt. eigenvalues --    0.59582   0.60386   0.61037   0.61651   0.61971
  Beta virt. eigenvalues --    0.63020   0.63602   0.64306   0.65076   0.65643
  Beta virt. eigenvalues --    0.66881   0.67714   0.67841   0.68287   0.70252
  Beta virt. eigenvalues --    0.70926   0.71935   0.72072   0.72586   0.73372
  Beta virt. eigenvalues --    0.74476   0.74742   0.76207   0.77500   0.77934
  Beta virt. eigenvalues --    0.78737   0.79614   0.80346   0.81756   0.82656
  Beta virt. eigenvalues --    0.83424   0.84123   0.85027   0.85615   0.88816
  Beta virt. eigenvalues --    0.92912   0.93357   0.93669   0.96324   0.97792
  Beta virt. eigenvalues --    0.98995   1.00063   1.00905   1.01520   1.01600
  Beta virt. eigenvalues --    1.03200   1.03294   1.04166   1.05721   1.05870
  Beta virt. eigenvalues --    1.07711   1.08663   1.10212   1.10466   1.12984
  Beta virt. eigenvalues --    1.13361   1.14411   1.15642   1.16005   1.17423
  Beta virt. eigenvalues --    1.18608   1.19551   1.21588   1.24491   1.25436
  Beta virt. eigenvalues --    1.26835   1.27959   1.31696   1.32501   1.35225
  Beta virt. eigenvalues --    1.37075   1.38240   1.38734   1.40152   1.42642
  Beta virt. eigenvalues --    1.45157   1.46107   1.47399   1.48546   1.51430
  Beta virt. eigenvalues --    1.51844   1.53626   1.55480   1.56102   1.56720
  Beta virt. eigenvalues --    1.58378   1.59466   1.61266   1.62161   1.62541
  Beta virt. eigenvalues --    1.64584   1.66208   1.67758   1.68613   1.68801
  Beta virt. eigenvalues --    1.69329   1.70658   1.71260   1.72305   1.73116
  Beta virt. eigenvalues --    1.73737   1.74226   1.74895   1.76389   1.76547
  Beta virt. eigenvalues --    1.77612   1.77893   1.78488   1.81441   1.82631
  Beta virt. eigenvalues --    1.82657   1.83204   1.83744   1.85030   1.86048
  Beta virt. eigenvalues --    1.86584   1.87271   1.89758   1.90484   1.92364
  Beta virt. eigenvalues --    1.93831   1.95040   1.95949   1.96826   1.98214
  Beta virt. eigenvalues --    1.98400   1.99624   2.00878   2.03270   2.03462
  Beta virt. eigenvalues --    2.04511   2.07463   2.08946   2.10447   2.11275
  Beta virt. eigenvalues --    2.11661   2.13580   2.14893   2.15374   2.18118
  Beta virt. eigenvalues --    2.19045   2.22679   2.23036   2.25076   2.28009
  Beta virt. eigenvalues --    2.30616   2.32482   2.33251   2.35637   2.37025
  Beta virt. eigenvalues --    2.37918   2.41751   2.43046   2.45813   2.49667
  Beta virt. eigenvalues --    2.50208   2.53156   2.54559   2.56468   2.57440
  Beta virt. eigenvalues --    2.57679   2.59222   2.62396   2.63238   2.67933
  Beta virt. eigenvalues --    2.70631   2.72212   2.74247   2.82501   2.85518
  Beta virt. eigenvalues --    2.86443   2.87428   2.91868   2.95008   2.98385
  Beta virt. eigenvalues --    3.01874   3.06216   3.07698   3.09730   3.13853
  Beta virt. eigenvalues --    3.20845   3.35918   3.38409   3.39965   3.42370
  Beta virt. eigenvalues --    3.63516   3.69472
          Condensed to atoms (all electrons):
               1          2          3          4          5          6
     1  C    4.753911   0.490914   0.008900   0.003615   0.000864  -0.045292
     2  C    0.490914   4.888377   0.431908  -0.059708  -0.001945  -0.066936
     3  C    0.008900   0.431908   5.016485   0.447485  -0.074727   0.324854
     4  O    0.003615  -0.059708   0.447485   7.687477   0.340569  -0.067866
     5  C    0.000864  -0.001945  -0.074727   0.340569   4.411587  -0.000386
     6  C   -0.045292  -0.066936   0.324854  -0.067866  -0.000386   5.275027
     7  N   -0.038461  -0.042828  -0.038631   0.001495  -0.000030   0.513236
     8  C    0.495516  -0.030636  -0.048403   0.000011   0.000005  -0.088070
     9  C    0.001223   0.005965  -0.099364  -0.004714  -0.000906   0.271120
    10  C    0.000095  -0.000274   0.002051  -0.001566  -0.000035  -0.080183
    11  C   -0.000000   0.000008   0.000006   0.000048   0.000002   0.007623
    12  C    0.000000  -0.000001  -0.000103  -0.000027  -0.000000  -0.000359
    13  C   -0.000001   0.000021   0.000960   0.000589  -0.000029   0.012863
    14  C   -0.000056   0.000531  -0.006033   0.008251  -0.000549  -0.092795
    15  O    0.000019  -0.000100   0.002197  -0.001661   0.003727   0.009694
    16  C   -0.000000  -0.000007  -0.000196  -0.000096   0.000046  -0.000388
    17  H    0.395940  -0.037023   0.009103  -0.000042   0.000005   0.000275
    18  H   -0.044417   0.386061  -0.036734  -0.004075   0.001643   0.010573
    19  H   -0.000020  -0.000300   0.005118  -0.017816   0.409375   0.000086
    20  H   -0.000440   0.005469  -0.003498  -0.032582   0.390527   0.006841
    21  H    0.000245   0.008287  -0.013146  -0.035797   0.402318  -0.001972
    22  H   -0.062003   0.006830   0.001701   0.000009  -0.000001   0.003818
    23  H    0.000080  -0.000104   0.001046  -0.000084  -0.000001  -0.021500
    24  H    0.000000   0.000000   0.000003   0.000001  -0.000000  -0.000256
    25  H    0.000000   0.000000   0.000001  -0.000000   0.000000   0.000006
    26  H    0.000000   0.000000   0.000013   0.000020   0.000001  -0.000307
    27  H   -0.000001  -0.000002  -0.000029  -0.000015   0.000013  -0.000060
    28  H    0.000000   0.000002   0.000105   0.000030  -0.000215  -0.000031
    29  H   -0.000000  -0.000000  -0.000025  -0.000006   0.000047   0.000210
               7          8          9         10         11         12
     1  C   -0.038461   0.495516   0.001223   0.000095  -0.000000   0.000000
     2  C   -0.042828  -0.030636   0.005965  -0.000274   0.000008  -0.000001
     3  C   -0.038631  -0.048403  -0.099364   0.002051   0.000006  -0.000103
     4  O    0.001495   0.000011  -0.004714  -0.001566   0.000048  -0.000027
     5  C   -0.000030   0.000005  -0.000906  -0.000035   0.000002  -0.000000
     6  C    0.513236  -0.088070   0.271120  -0.080183   0.007623  -0.000359
     7  N    6.295005   0.581132  -0.055931   0.004130   0.000067   0.000053
     8  C    0.581132   4.609726   0.004558   0.000922   0.000020   0.000001
     9  C   -0.055931   0.004558   5.080134   0.526385  -0.008929  -0.063059
    10  C    0.004130   0.000922   0.526385   4.760360   0.476552   0.010493
    11  C    0.000067   0.000020  -0.008929   0.476552   4.668491   0.515415
    12  C    0.000053   0.000001  -0.063059   0.010493   0.515415   4.760520
    13  C   -0.000222   0.000004  -0.018712  -0.086266  -0.003338   0.438593
    14  C    0.001402  -0.000212   0.414684   0.018673  -0.075908   0.020433
    15  O   -0.000678  -0.000032  -0.071178   0.002916  -0.000018   0.002988
    16  C    0.000011  -0.000002   0.007404  -0.000041  -0.000021   0.000828
    17  H    0.006061  -0.041794   0.000015  -0.000003   0.000000  -0.000000
    18  H   -0.000198   0.008562  -0.000220   0.000010  -0.000000   0.000000
    19  H    0.000005   0.000001   0.000009   0.000010  -0.000001   0.000000
    20  H   -0.000221  -0.000055   0.000248   0.000009  -0.000000  -0.000001
    21  H    0.000021  -0.000002  -0.000174  -0.000011   0.000000  -0.000000
    22  H   -0.028022   0.403431  -0.001062  -0.000097  -0.000002  -0.000000
    23  H    0.009084   0.000110  -0.037453   0.393201  -0.055186   0.010105
    24  H   -0.000023  -0.000001   0.011409  -0.049454   0.410802  -0.055555
    25  H    0.000000   0.000000  -0.000103   0.009572  -0.044507   0.400830
    26  H    0.000000  -0.000000   0.005547  -0.000215   0.007927  -0.034451
    27  H    0.000004  -0.000001  -0.000102   0.000025  -0.000000  -0.000019
    28  H   -0.000002  -0.000000  -0.000183  -0.000018  -0.000023   0.000186
    29  H    0.000000   0.000001   0.000292  -0.000151   0.000013   0.000037
              13         14         15         16         17         18
     1  C   -0.000001  -0.000056   0.000019  -0.000000   0.395940  -0.044417
     2  C    0.000021   0.000531  -0.000100  -0.000007  -0.037023   0.386061
     3  C    0.000960  -0.006033   0.002197  -0.000196   0.009103  -0.036734
     4  O    0.000589   0.008251  -0.001661  -0.000096  -0.000042  -0.004075
     5  C   -0.000029  -0.000549   0.003727   0.000046   0.000005   0.001643
     6  C    0.012863  -0.092795   0.009694  -0.000388   0.000275   0.010573
     7  N   -0.000222   0.001402  -0.000678   0.000011   0.006061  -0.000198
     8  C    0.000004  -0.000212  -0.000032  -0.000002  -0.041794   0.008562
     9  C   -0.018712   0.414684  -0.071178   0.007404   0.000015  -0.000220
    10  C   -0.086266   0.018673   0.002916  -0.000041  -0.000003   0.000010
    11  C   -0.003338  -0.075908  -0.000018  -0.000021   0.000000  -0.000000
    12  C    0.438593   0.020433   0.002988   0.000828  -0.000000   0.000000
    13  C    5.027279   0.361528  -0.071857  -0.004080   0.000000  -0.000000
    14  C    0.361528   4.954764   0.420728  -0.082690   0.000001  -0.000009
    15  O   -0.071857   0.420728   7.693972   0.354055   0.000000  -0.000008
    16  C   -0.004080  -0.082690   0.354055   4.524663  -0.000000   0.000000
    17  H    0.000000   0.000001   0.000000  -0.000000   0.735370  -0.013789
    18  H   -0.000000  -0.000009  -0.000008   0.000000  -0.013789   0.688250
    19  H   -0.000029  -0.000135  -0.000247   0.000132  -0.000001  -0.000079
    20  H    0.000030  -0.000447   0.004941  -0.000350  -0.000029   0.002451
    21  H    0.000007   0.000170   0.000202  -0.000016   0.000048  -0.002427
    22  H    0.000000   0.000023   0.000001  -0.000000  -0.010132  -0.000284
    23  H   -0.001213   0.014814  -0.000072   0.000012  -0.000007   0.000005
    24  H    0.010753  -0.001209   0.000004  -0.000000   0.000000   0.000000
    25  H   -0.043953   0.008376  -0.000046  -0.000018  -0.000000  -0.000000
    26  H    0.404058  -0.049619  -0.007015   0.005997   0.000000  -0.000000
    27  H   -0.000325   0.004277  -0.019795   0.394710  -0.000000   0.000001
    28  H    0.006424  -0.009932  -0.027088   0.387063   0.000000  -0.000000
    29  H    0.010375  -0.009746  -0.030832   0.386285  -0.000000   0.000000
              19         20         21         22         23         24
     1  C   -0.000020  -0.000440   0.000245  -0.062003   0.000080   0.000000
     2  C   -0.000300   0.005469   0.008287   0.006830  -0.000104   0.000000
     3  C    0.005118  -0.003498  -0.013146   0.001701   0.001046   0.000003
     4  O   -0.017816  -0.032582  -0.035797   0.000009  -0.000084   0.000001
     5  C    0.409375   0.390527   0.402318  -0.000001  -0.000001  -0.000000
     6  C    0.000086   0.006841  -0.001972   0.003818  -0.021500  -0.000256
     7  N    0.000005  -0.000221   0.000021  -0.028022   0.009084  -0.000023
     8  C    0.000001  -0.000055  -0.000002   0.403431   0.000110  -0.000001
     9  C    0.000009   0.000248  -0.000174  -0.001062  -0.037453   0.011409
    10  C    0.000010   0.000009  -0.000011  -0.000097   0.393201  -0.049454
    11  C   -0.000001  -0.000000   0.000000  -0.000002  -0.055186   0.410802
    12  C    0.000000  -0.000001  -0.000000  -0.000000   0.010105  -0.055555
    13  C   -0.000029   0.000030   0.000007   0.000000  -0.001213   0.010753
    14  C   -0.000135  -0.000447   0.000170   0.000023   0.014814  -0.001209
    15  O   -0.000247   0.004941   0.000202   0.000001  -0.000072   0.000004
    16  C    0.000132  -0.000350  -0.000016  -0.000000   0.000012  -0.000000
    17  H   -0.000001  -0.000029   0.000048  -0.010132  -0.000007   0.000000
    18  H   -0.000079   0.002451  -0.002427  -0.000284   0.000005   0.000000
    19  H    0.628232  -0.021800  -0.027968   0.000000   0.000000   0.000000
    20  H   -0.021800   0.651205  -0.039860  -0.000002   0.000001   0.000000
    21  H   -0.027968  -0.039860   0.680887   0.000000  -0.000001   0.000000
    22  H    0.000000  -0.000002   0.000000   0.695068  -0.000059   0.000000
    23  H    0.000000   0.000001  -0.000001  -0.000059   0.703875  -0.015227
    24  H    0.000000   0.000000   0.000000   0.000000  -0.015227   0.744699
    25  H   -0.000000   0.000000  -0.000000  -0.000000  -0.000243  -0.015809
    26  H   -0.000006  -0.000001   0.000001   0.000000   0.000030  -0.000147
    27  H    0.000041  -0.000043  -0.000016  -0.000000  -0.000000  -0.000000
    28  H    0.000077   0.000051  -0.000011   0.000000  -0.000000   0.000000
    29  H   -0.000005   0.000066   0.000001   0.000000  -0.000001   0.000001
              25         26         27         28         29
     1  C    0.000000   0.000000  -0.000001   0.000000  -0.000000
     2  C    0.000000   0.000000  -0.000002   0.000002  -0.000000
     3  C    0.000001   0.000013  -0.000029   0.000105  -0.000025
     4  O   -0.000000   0.000020  -0.000015   0.000030  -0.000006
     5  C    0.000000   0.000001   0.000013  -0.000215   0.000047
     6  C    0.000006  -0.000307  -0.000060  -0.000031   0.000210
     7  N    0.000000   0.000000   0.000004  -0.000002   0.000000
     8  C    0.000000  -0.000000  -0.000001  -0.000000   0.000001
     9  C   -0.000103   0.005547  -0.000102  -0.000183   0.000292
    10  C    0.009572  -0.000215   0.000025  -0.000018  -0.000151
    11  C   -0.044507   0.007927  -0.000000  -0.000023   0.000013
    12  C    0.400830  -0.034451  -0.000019   0.000186   0.000037
    13  C   -0.043953   0.404058  -0.000325   0.006424   0.010375
    14  C    0.008376  -0.049619   0.004277  -0.009932  -0.009746
    15  O   -0.000046  -0.007015  -0.019795  -0.027088  -0.030832
    16  C   -0.000018   0.005997   0.394710   0.387063   0.386285
    17  H   -0.000000   0.000000  -0.000000   0.000000  -0.000000
    18  H   -0.000000  -0.000000   0.000001  -0.000000   0.000000
    19  H   -0.000000  -0.000006   0.000041   0.000077  -0.000005
    20  H    0.000000  -0.000001  -0.000043   0.000051   0.000066
    21  H   -0.000000   0.000001  -0.000016  -0.000011   0.000001
    22  H   -0.000000   0.000000  -0.000000   0.000000   0.000000
    23  H   -0.000243   0.000030  -0.000000  -0.000000  -0.000001
    24  H   -0.015809  -0.000147  -0.000000   0.000000   0.000001
    25  H    0.706664  -0.011800  -0.000000   0.000013   0.000007
    26  H   -0.011800   0.679638  -0.000365   0.001132   0.001864
    27  H   -0.000000  -0.000365   0.627506  -0.031899  -0.023938
    28  H    0.000013   0.001132  -0.031899   0.681281  -0.047181
    29  H    0.000007   0.001864  -0.023938  -0.047181   0.660394
          Atomic-Atomic Spin Densities.
               1          2          3          4          5          6
     1  C   -0.000000   0.000000  -0.000000   0.000000   0.000000   0.000000
     2  C    0.000000   0.000000  -0.000000   0.000000  -0.000000  -0.000000
     3  C   -0.000000  -0.000000  -0.000000   0.000000  -0.000000   0.000000
     4  O    0.000000   0.000000   0.000000   0.000000  -0.000000  -0.000000
     5  C    0.000000  -0.000000  -0.000000  -0.000000   0.000000   0.000000
     6  C    0.000000  -0.000000   0.000000  -0.000000   0.000000  -0.000000
     7  N   -0.000000  -0.000000   0.000000   0.000000   0.000000   0.000000
     8  C    0.000000  -0.000000   0.000000  -0.000000   0.000000  -0.000000
     9  C   -0.000000   0.000000   0.000000   0.000000   0.000000   0.000000
    10  C   -0.000000   0.000000  -0.000000   0.000000   0.000000   0.000000
    11  C    0.000000  -0.000000   0.000000  -0.000000   0.000000  -0.000000
    12  C   -0.000000   0.000000  -0.000000   0.000000  -0.000000   0.000000
    13  C    0.000000  -0.000000   0.000000  -0.000000  -0.000000  -0.000000
    14  C    0.000000   0.000000   0.000000  -0.000000  -0.000000   0.000000
    15  O    0.000000  -0.000000   0.000000   0.000000  -0.000000  -0.000000
    16  C   -0.000000   0.000000  -0.000000   0.000000   0.000000   0.000000
    17  H   -0.000000   0.000000  -0.000000   0.000000  -0.000000   0.000000
    18  H   -0.000000   0.000000   0.000000  -0.000000   0.000000  -0.000000
    19  H    0.000000   0.000000  -0.000000   0.000000   0.000000  -0.000000
    20  H   -0.000000  -0.000000   0.000000  -0.000000  -0.000000   0.000000
    21  H    0.000000   0.000000  -0.000000   0.000000   0.000000   0.000000
    22  H    0.000000  -0.000000   0.000000  -0.000000   0.000000  -0.000000
    23  H   -0.000000   0.000000  -0.000000  -0.000000  -0.000000   0.000000
    24  H    0.000000  -0.000000   0.000000  -0.000000   0.000000   0.000000
    25  H    0.000000  -0.000000  -0.000000   0.000000  -0.000000   0.000000
    26  H   -0.000000  -0.000000  -0.000000  -0.000000   0.000000  -0.000000
    27  H   -0.000000   0.000000   0.000000   0.000000  -0.000000  -0.000000
    28  H    0.000000   0.000000  -0.000000   0.000000   0.000000  -0.000000
    29  H    0.000000  -0.000000   0.000000   0.000000  -0.000000  -0.000000
               7          8          9         10         11         12
     1  C   -0.000000   0.000000  -0.000000  -0.000000   0.000000  -0.000000
     2  C   -0.000000  -0.000000   0.000000   0.000000  -0.000000   0.000000
     3  C    0.000000   0.000000   0.000000  -0.000000   0.000000  -0.000000
     4  O    0.000000  -0.000000   0.000000   0.000000  -0.000000   0.000000
     5  C    0.000000   0.000000   0.000000   0.000000   0.000000  -0.000000
     6  C    0.000000  -0.000000   0.000000   0.000000  -0.000000   0.000000
     7  N   -0.000000   0.000000  -0.000000  -0.000000   0.000000  -0.000000
     8  C    0.000000  -0.000000  -0.000000   0.000000   0.000000   0.000000
     9  C   -0.000000  -0.000000  -0.000000  -0.000000  -0.000000   0.000000
    10  C   -0.000000   0.000000  -0.000000   0.000000   0.000000   0.000000
    11  C    0.000000   0.000000  -0.000000   0.000000  -0.000000   0.000000
    12  C   -0.000000   0.000000   0.000000   0.000000   0.000000  -0.000000
    13  C    0.000000  -0.000000   0.000000   0.000000  -0.000000  -0.000000
    14  C   -0.000000  -0.000000   0.000000  -0.000000   0.000000  -0.000000
    15  O   -0.000000  -0.000000   0.000000  -0.000000   0.000000   0.000000
    16  C   -0.000000   0.000000  -0.000000  -0.000000  -0.000000   0.000000
    17  H   -0.000000   0.000000   0.000000  -0.000000  -0.000000   0.000000
    18  H   -0.000000  -0.000000   0.000000   0.000000  -0.000000  -0.000000
    19  H    0.000000  -0.000000  -0.000000  -0.000000   0.000000  -0.000000
    20  H   -0.000000   0.000000  -0.000000   0.000000  -0.000000  -0.000000
    21  H    0.000000   0.000000   0.000000   0.000000   0.000000   0.000000
    22  H    0.000000  -0.000000   0.000000   0.000000   0.000000  -0.000000
    23  H   -0.000000   0.000000  -0.000000   0.000000   0.000000  -0.000000
    24  H    0.000000  -0.000000   0.000000   0.000000  -0.000000  -0.000000
    25  H   -0.000000   0.000000   0.000000  -0.000000   0.000000  -0.000000
    26  H    0.000000   0.000000  -0.000000   0.000000  -0.000000   0.000000
    27  H   -0.000000   0.000000   0.000000  -0.000000   0.000000  -0.000000
    28  H    0.000000  -0.000000  -0.000000   0.000000  -0.000000   0.000000
    29  H    0.000000  -0.000000   0.000000   0.000000   0.000000  -0.000000
              13         14         15         16         17         18
     1  C    0.000000   0.000000   0.000000  -0.000000  -0.000000  -0.000000
     2  C   -0.000000   0.000000  -0.000000   0.000000   0.000000   0.000000
     3  C    0.000000   0.000000   0.000000  -0.000000  -0.000000   0.000000
     4  O   -0.000000  -0.000000   0.000000   0.000000   0.000000  -0.000000
     5  C   -0.000000  -0.000000  -0.000000   0.000000  -0.000000   0.000000
     6  C   -0.000000   0.000000  -0.000000   0.000000   0.000000  -0.000000
     7  N    0.000000  -0.000000  -0.000000  -0.000000  -0.000000  -0.000000
     8  C   -0.000000  -0.000000  -0.000000   0.000000   0.000000  -0.000000
     9  C    0.000000   0.000000   0.000000  -0.000000   0.000000   0.000000
    10  C    0.000000  -0.000000  -0.000000  -0.000000  -0.000000   0.000000
    11  C   -0.000000   0.000000   0.000000  -0.000000  -0.000000  -0.000000
[...]
    22  H   -0.000000   0.000000  -0.000000   0.000000   0.000000
    23  H   -0.000000   0.000000  -0.000000  -0.000000  -0.000000
    24  H   -0.000000   0.000000   0.000000   0.000000   0.000000
    25  H    0.000000   0.000000  -0.000000  -0.000000  -0.000000
    26  H    0.000000  -0.000000   0.000000  -0.000000   0.000000
    27  H   -0.000000   0.000000  -0.000000   0.000000   0.000000
    28  H   -0.000000  -0.000000   0.000000  -0.000000  -0.000000
    29  H   -0.000000   0.000000   0.000000  -0.000000  -0.000000
 Mulliken charges and spin densities:
               1          2
     1  C   -0.039611  -0.000000
     2  C   -0.005050   0.000000
     3  C    0.129239  -0.000000
     4  O   -0.232294   0.000000
     5  C    0.051222  -0.000000
     6  C    0.010977  -0.000000
     7  N   -0.171486  -0.000000
     8  C    0.068122  -0.000000
     9  C   -0.014638   0.000000
    10  C    0.046586  -0.000000
    11  C    0.007739   0.000000
    12  C    0.016061   0.000000
    13  C   -0.051533  -0.000000
    14  C    0.124984  -0.000000
    15  O   -0.242138  -0.000000
    16  C    0.054525   0.000000
    17  H   -0.001958   0.000000
    18  H    0.002643   0.000000
    19  H    0.056598   0.000000
    20  H    0.044747   0.000000
    21  H    0.045336   0.000000
    22  H    0.004208   0.000000
    23  H   -0.017376  -0.000000
    24  H   -0.011396  -0.000000
    25  H   -0.008702   0.000000
    26  H   -0.006805  -0.000000
    27  H    0.051393  -0.000000
    28  H    0.042815  -0.000000
    29  H    0.045792  -0.000000
 Sum of Mulliken charges =  -0.00000   0.00000
 Mulliken charges and spin densities with hydrogens summed into heavy atoms:
               1          2
     1  C   -0.041568  -0.000000
     2  C   -0.002407   0.000000
     3  C    0.129239  -0.000000
     4  O   -0.232294   0.000000
     5  C    0.197902  -0.000000
     6  C    0.010977  -0.000000
     7  N   -0.171486  -0.000000
     8  C    0.072330   0.000000
     9  C   -0.014638   0.000000
    10  C    0.029210  -0.000000
    11  C   -0.003657  -0.000000
    12  C    0.007358   0.000000
    13  C   -0.058338  -0.000000
    14  C    0.124984  -0.000000
    15  O   -0.242138  -0.000000
    16  C    0.194526  -0.000000
 Electronic spatial extent (au):  <R**2>=           3429.5939
 Charge=             -0.0000 electrons
 Dipole moment (field-independent basis, Debye):
    X=              1.0033    Y=              3.5332    Z=             -0.7150  Tot=              3.7419
 Quadrupole moment (field-independent basis, Debye-Ang):
   XX=            -78.0471   YY=            -84.2769   ZZ=            -92.5743
   XY=             -0.0065   XZ=             -2.4930   YZ=              2.0893
 Traceless Quadrupole moment (field-independent basis, Debye-Ang):
   XX=              6.9190   YY=              0.6892   ZZ=             -7.6082
   XY=             -0.0065   XZ=             -2.4930   YZ=              2.0893
 Octapole moment (field-independent basis, Debye-Ang**2):
  XXX=             15.1467  YYY=             40.5320  ZZZ=              1.3555  XYY=              1.4635
  XXY=             13.4303  XXZ=              1.6247  XZZ=              3.4861  YZZ=             15.1604
  YYZ=             -6.2254  XYZ=            -20.8587
 Hexadecapole moment (field-independent basis, Debye-Ang**3):
 XXXX=          -2528.4633 YYYY=          -1260.8209 ZZZZ=           -543.1424 XXXY=            -13.4430
 XXXZ=             15.0827 YYYX=             -2.1875 YYYZ=             12.9442 ZZZX=            -33.0836
 ZZZY=             -3.7054 XXYY=           -631.4129 XXZZ=           -554.7467 YYZZ=           -277.6960
 XXYZ=             -4.5069 YYXZ=             -3.1029 ZZXY=             -2.4813
 N-N= 1.073179357110D+03 E-N=-3.795237359053D+03  KE= 7.030780501964D+02
                          Isotropic Fermi Contact Couplings
        Atom                 a.u.       MegaHertz       Gauss      10(-4) cm-1
     1  C(13)              0.00000       0.00000       0.00000       0.00000
     2  C(13)              0.00000       0.00000       0.00000       0.00000
     3  C(13)             -0.00000      -0.00000      -0.00000      -0.00000
     4  O(17)              0.00000      -0.00000      -0.00000      -0.00000
     5  C(13)              0.00000       0.00000       0.00000       0.00000
     6  C(13)              0.00000       0.00000       0.00000       0.00000
     7  N(14)              0.00000       0.00000       0.00000       0.00000
     8  C(13)              0.00000       0.00000       0.00000       0.00000
     9  C(13)              0.00000       0.00000       0.00000       0.00000
    10  C(13)             -0.00000      -0.00000      -0.00000      -0.00000
    11  C(13)              0.00000       0.00000       0.00000       0.00000
    12  C(13)              0.00000       0.00000       0.00000       0.00000
    13  C(13)              0.00000       0.00000       0.00000       0.00000
    14  C(13)              0.00000       0.00000       0.00000       0.00000
    15  O(17)              0.00000      -0.00000      -0.00000      -0.00000
    16  C(13)             -0.00000      -0.00000      -0.00000      -0.00000
    17  H(1)              -0.00000      -0.00000      -0.00000      -0.00000
    18  H(1)               0.00000       0.00000       0.00000       0.00000
    19  H(1)              -0.00000      -0.00000      -0.00000      -0.00000
    20  H(1)               0.00000       0.00000       0.00000       0.00000
    21  H(1)               0.00000       0.00000       0.00000       0.00000
    22  H(1)               0.00000       0.00000       0.00000       0.00000
    23  H(1)               0.00000       0.00000       0.00000       0.00000
    24  H(1)              -0.00000      -0.00000      -0.00000      -0.00000
    25  H(1)              -0.00000      -0.00000      -0.00000      -0.00000
    26  H(1)               0.00000       0.00000       0.00000       0.00000
    27  H(1)              -0.00000      -0.00000      -0.00000      -0.00000
    28  H(1)              -0.00000      -0.00000      -0.00000      -0.00000
    29  H(1)              -0.00000      -0.00000      -0.00000      -0.00000
 --------------------------------------------------------
       Center         ----  Spin Dipole Couplings  ----
                      3XX-RR        3YY-RR        3ZZ-RR
 --------------------------------------------------------
     1   Atom       -0.000000     -0.000000      0.000000
     2   Atom       -0.000000      0.000000     -0.000000
     3   Atom       -0.000000     -0.000000      0.000000
     4   Atom        0.000000     -0.000000     -0.000000
     5   Atom        0.000000      0.000000     -0.000000
     6   Atom        0.000000      0.000000     -0.000000
     7   Atom        0.000000     -0.000000      0.000000
     8   Atom       -0.000000      0.000000     -0.000000
     9   Atom        0.000000     -0.000000     -0.000000
    10   Atom       -0.000000     -0.000000      0.000000
    11   Atom       -0.000000      0.000000      0.000000
    12   Atom        0.000000     -0.000000     -0.000000
    13   Atom       -0.000000      0.000000     -0.000000
    14   Atom        0.000000      0.000000     -0.000000
    15   Atom       -0.000000      0.000000      0.000000
    16   Atom        0.000000     -0.000000      0.000000
    17   Atom       -0.000000      0.000000      0.000000
    18   Atom        0.000000     -0.000000     -0.000000
    19   Atom       -0.000000      0.000000     -0.000000
    20   Atom        0.000000      0.000000     -0.000000
    21   Atom        0.000000     -0.000000      0.000000
    22   Atom        0.000000      0.000000     -0.000000
    23   Atom       -0.000000     -0.000000      0.000000
    24   Atom        0.000000     -0.000000      0.000000
    25   Atom        0.000000     -0.000000     -0.000000
    26   Atom        0.000000     -0.000000      0.000000
    27   Atom        0.000000     -0.000000      0.000000
    28   Atom       -0.000000     -0.000000      0.000000
    29   Atom       -0.000000     -0.000000      0.000000
 --------------------------------------------------------
                        XY            XZ            YZ
 --------------------------------------------------------
     1   Atom       -0.000000     -0.000000      0.000000
     2   Atom        0.000000      0.000000     -0.000000
     3   Atom        0.000000     -0.000000      0.000000
     4   Atom        0.000000      0.000000     -0.000000
     5   Atom        0.000000      0.000000     -0.000000
     6   Atom        0.000000     -0.000000     -0.000000
     7   Atom       -0.000000      0.000000      0.000000
     8   Atom       -0.000000      0.000000     -0.000000
     9   Atom        0.000000      0.000000      0.000000
    10   Atom        0.000000      0.000000     -0.000000
    11   Atom       -0.000000     -0.000000      0.000000
    12   Atom        0.000000      0.000000      0.000000
    13   Atom        0.000000      0.000000      0.000000
    14   Atom        0.000000      0.000000      0.000000
    15   Atom        0.000000     -0.000000      0.000000
    16   Atom        0.000000      0.000000     -0.000000
    17   Atom       -0.000000     -0.000000     -0.000000
    18   Atom        0.000000      0.000000      0.000000
    19   Atom        0.000000     -0.000000      0.000000
    20   Atom       -0.000000     -0.000000     -0.000000
    21   Atom        0.000000      0.000000     -0.000000
    22   Atom       -0.000000      0.000000     -0.000000
    23   Atom        0.000000      0.000000     -0.000000
    24   Atom        0.000000      0.000000     -0.000000
    25   Atom       -0.000000      0.000000     -0.000000
    26   Atom       -0.000000     -0.000000     -0.000000
    27   Atom        0.000000      0.000000     -0.000000
    28   Atom        0.000000      0.000000     -0.000000
    29   Atom        0.000000     -0.000000     -0.000000
 --------------------------------------------------------


 ---------------------------------------------------------------------------------
              Anisotropic Spin Dipole Couplings in Principal Axis System
 ---------------------------------------------------------------------------------

       Atom             a.u.   MegaHertz   Gauss  10(-4) cm-1        Axes

              Baa    -0.0000    -0.000    -0.000    -0.000  0.7361  0.6756 -0.0418
     1 C(13)  Bbb    -0.0000    -0.000    -0.000    -0.000 -0.6483  0.6858 -0.3308
              Bcc     0.0000     0.000     0.000     0.000 -0.1949  0.2706  0.9428
 
              Baa    -0.0000    -0.000    -0.000    -0.000 -0.0619  0.3957  0.9163
     2 C(13)  Bbb    -0.0000    -0.000    -0.000    -0.000  0.9946 -0.0521  0.0897
              Bcc     0.0000     0.000     0.000     0.000  0.0832  0.9169 -0.3903
 
              Baa    -0.0000    -0.000    -0.000    -0.000 -0.5836  0.7528 -0.3043
     3 C(13)  Bbb    -0.0000    -0.000    -0.000    -0.000  0.6813  0.6579  0.3211
              Bcc     0.0000     0.000     0.000     0.000 -0.4419  0.0199  0.8968
 
              Baa    -0.0000     0.000     0.000     0.000 -0.1041  0.7228  0.6831
     4 O(17)  Bbb     0.0000    -0.000    -0.000    -0.000  0.0078 -0.6863  0.7273
              Bcc     0.0000    -0.000    -0.000    -0.000  0.9945  0.0811  0.0658
 
              Baa    -0.0000    -0.000    -0.000    -0.000 -0.6125  0.4945  0.6166
     5 C(13)  Bbb     0.0000     0.000     0.000     0.000  0.4362 -0.4390  0.7855
              Bcc     0.0000     0.000     0.000     0.000  0.6592  0.7501  0.0532
 
              Baa    -0.0000    -0.000    -0.000    -0.000  0.2878  0.2086  0.9347
     6 C(13)  Bbb    -0.0000    -0.000    -0.000    -0.000 -0.6130  0.7900  0.0125
              Bcc     0.0000     0.000     0.000     0.000  0.7358  0.5766 -0.3553
 
              Baa    -0.0000    -0.000    -0.000    -0.000  0.6254  0.7189 -0.3035
     7 N(14)  Bbb     0.0000     0.000     0.000     0.000 -0.3824  0.6214  0.6838
              Bcc     0.0000     0.000     0.000     0.000  0.6801 -0.3116  0.6636
 
              Baa    -0.0000    -0.000    -0.000    -0.000  0.9236  0.3779 -0.0647
     8 C(13)  Bbb    -0.0000    -0.000    -0.000    -0.000 -0.0506  0.2872  0.9565
              Bcc     0.0000     0.000     0.000     0.000 -0.3801  0.8802 -0.2844
 
              Baa    -0.0000    -0.000    -0.000    -0.000 -0.3048 -0.5033  0.8085
     9 C(13)  Bbb    -0.0000    -0.000    -0.000    -0.000 -0.5456  0.7881  0.2849
              Bcc     0.0000     0.000     0.000     0.000  0.7806  0.3543  0.5149
 
              Baa    -0.0000    -0.000    -0.000    -0.000  0.7542 -0.6288 -0.1892
    10 C(13)  Bbb     0.0000     0.000     0.000     0.000  0.6564  0.7294  0.1925
              Bcc     0.0000     0.000     0.000     0.000  0.0169 -0.2694  0.9629
 
              Baa    -0.0000    -0.000    -0.000    -0.000  0.9700  0.2334  0.0673
    11 C(13)  Bbb     0.0000     0.000     0.000     0.000 -0.0235 -0.1857  0.9823
              Bcc     0.0000     0.000     0.000     0.000 -0.2418  0.9545  0.1746
 
              Baa    -0.0000    -0.000    -0.000    -0.000 -0.1527 -0.5241  0.8378
    12 C(13)  Bbb    -0.0000    -0.000    -0.000    -0.000 -0.6341  0.7022  0.3237
              Bcc     0.0000     0.000     0.000     0.000  0.7580  0.4818  0.4396
 
              Baa    -0.0000    -0.000    -0.000    -0.000  0.8258 -0.4459 -0.3453
    13 C(13)  Bbb    -0.0000    -0.000    -0.000    -0.000  0.0659 -0.5318  0.8443
              Bcc     0.0000     0.000     0.000     0.000  0.5601  0.7200  0.4097
 
              Baa    -0.0000    -0.000    -0.000    -0.000 -0.3151 -0.5034  0.8046
    14 C(13)  Bbb    -0.0000    -0.000    -0.000    -0.000  0.7448 -0.6566 -0.1191
              Bcc     0.0000     0.000     0.000     0.000  0.5882  0.5617  0.5818
 
              Baa    -0.0000     0.000     0.000     0.000  0.9409 -0.2748  0.1979
    15 O(17)  Bbb     0.0000    -0.000    -0.000    -0.000 -0.3155 -0.4989  0.8072
              Bcc     0.0000    -0.000    -0.000    -0.000  0.1231  0.8219  0.5561
 
              Baa    -0.0000    -0.000    -0.000    -0.000 -0.5680  0.7064  0.4223
    16 C(13)  Bbb     0.0000     0.000     0.000     0.000 -0.0848 -0.5606  0.8237
              Bcc     0.0000     0.000     0.000     0.000  0.8186  0.4321  0.3783
 
              Baa    -0.0000    -0.000    -0.000    -0.000  0.9928  0.0817  0.0875
    17 H(1)   Bbb     0.0000     0.000     0.000     0.000 -0.0993  0.1523  0.9833
              Bcc     0.0000     0.000     0.000     0.000 -0.0670  0.9849 -0.1594
 
              Baa    -0.0000    -0.000    -0.000    -0.000 -0.2005  0.7577 -0.6210
    18 H(1)   Bbb    -0.0000    -0.000    -0.000    -0.000 -0.2536  0.5722  0.7799
              Bcc     0.0000     0.000     0.000     0.000  0.9463  0.3139  0.0774
 
              Baa    -0.0000    -0.000    -0.000    -0.000  0.8141 -0.0746  0.5759
    19 H(1)   Bbb     0.0000     0.000     0.000     0.000 -0.5771  0.0059  0.8166
              Bcc     0.0000     0.000     0.000     0.000  0.0643  0.9972  0.0383
 
              Baa    -0.0000    -0.000    -0.000    -0.000  0.4077  0.2275  0.8843
    20 H(1)   Bbb     0.0000     0.000     0.000     0.000  0.9090 -0.0089 -0.4168
              Bcc     0.0000     0.000     0.000     0.000 -0.0869  0.9737 -0.2105
 
              Baa    -0.0000    -0.000    -0.000    -0.000 -0.4884  0.6316  0.6022
    21 H(1)   Bbb     0.0000     0.000     0.000     0.000  0.8064  0.5903  0.0349
              Bcc     0.0000     0.000     0.000     0.000  0.3334 -0.5027  0.7976
 
              Baa    -0.0000    -0.000    -0.000    -0.000  0.7486  0.6383 -0.1794
    22 H(1)   Bbb    -0.0000    -0.000    -0.000    -0.000 -0.1592  0.4357  0.8859
              Bcc     0.0000     0.000     0.000     0.000  0.6436 -0.6346  0.4278
 
              Baa    -0.0000    -0.000    -0.000    -0.000 -0.5939  0.7461  0.3008
    23 H(1)   Bbb     0.0000     0.000     0.000     0.000  0.7960  0.4907  0.3544
              Bcc     0.0000     0.000     0.000     0.000 -0.1168 -0.4499  0.8854
 
              Baa    -0.0000    -0.000    -0.000    -0.000 -0.5677  0.7513  0.3364
    24 H(1)   Bbb    -0.0000    -0.000    -0.000    -0.000 -0.3294 -0.5818  0.7436
              Bcc     0.0000     0.000     0.000     0.000  0.7544  0.3114  0.5778
 
              Baa    -0.0000    -0.000    -0.000    -0.000 -0.1303  0.4905  0.8616
    25 H(1)   Bbb    -0.0000    -0.000    -0.000    -0.000  0.1476  0.8690 -0.4723
              Bcc     0.0000     0.000     0.000     0.000  0.9804 -0.0656  0.1857
 
              Baa    -0.0000    -0.000    -0.000    -0.000  0.0670  0.9974  0.0263
    26 H(1)   Bbb     0.0000     0.000     0.000     0.000  0.6973 -0.0656  0.7138
              Bcc     0.0000     0.000     0.000     0.000  0.7136 -0.0295 -0.6999
 
              Baa    -0.0000    -0.000    -0.000    -0.000 -0.2440  0.9369  0.2502
    27 H(1)   Bbb    -0.0000    -0.000    -0.000    -0.000 -0.4908 -0.3418  0.8014
              Bcc     0.0000     0.000     0.000     0.000  0.8364  0.0728  0.5432
 
              Baa    -0.0000    -0.000    -0.000    -0.000 -0.1503  0.8090  0.5683
    28 H(1)   Bbb    -0.0000    -0.000    -0.000    -0.000  0.9883  0.1380  0.0651
              Bcc     0.0000     0.000     0.000     0.000  0.0258 -0.5715  0.8202
 
              Baa    -0.0000    -0.000    -0.000    -0.000 -0.3974  0.8496  0.3468
    29 H(1)   Bbb    -0.0000    -0.000    -0.000    -0.000  0.8953  0.2761  0.3495
              Bcc     0.0000     0.000     0.000     0.000 -0.2012 -0.4494  0.8704
 

 ---------------------------------------------------------------------------------

 No NMR shielding tensors so no spin-rotation constants.
 Leave Link  601 at Sat Jul 25 00:07:11 2020, MaxMem=  4026531840 cpu:               2.1 elap:               0.3
 (Enter /opt/ohpc/pub/libs/gaussian/g16-A.03/sandybridge/g16/l9999.exe)

 Test job not archived.
 1\1\GINC-SKYLAKE048\FOpt\ULC-wPBE\CC-pVDZ\C13H13N1O2\RDU230\25-Jul-202
 0\0\\#P uLC-wPBE/cc-pVDZ iop(3/107=0321900000, 3/108=0321900000) opt\\
 H13 C13 N1 O2\\0,1\C,3.4401207563,-0.7440891658,0.6079343127\C,2.90210
 9864,0.3424589809,-0.082086561\C,1.5319437119,0.3648054414,-0.32431730
 46\O,0.8868159945,1.3235638452,-1.0314287681\C,1.6450948029,2.41978570
 62,-1.4933268087\C,0.7408554065,-0.6992193133,0.1672258033\N,1.2731046
 976,-1.7430310214,0.7978368083\C,2.5938535264,-1.7638191032,1.01277443
 4\C,-0.7326476676,-0.7344745211,-0.0630894453\C,-1.29634281,-1.8307063
 899,-0.7089812169\C,-2.6693907981,-1.912523159,-0.9382598\C,-3.4900783
 159,-0.8815960849,-0.4991945026\C,-2.9540232549,0.2150717059,0.1771619
 635\C,-1.5784458198,0.2884520721,0.4057211415\O,-0.9752484567,1.290585
 4124,1.0990768777\C,-1.7815429798,2.346393044,1.571084337\H,4.51305791
 1,-0.7943259882,0.8144988872\H,3.553665619,1.1465780052,-0.4315819959\
 H,0.940337671,3.0792898949,-2.0185618131\H,2.1079335593,2.9770977242,-
 0.6578856464\H,2.4354280383,2.1044886476,-2.1998368593\H,2.9830634534,
 -2.6437870818,1.5387403933\H,-0.6291501247,-2.6345101118,-1.0340545186
 \H,-3.0913518052,-2.7781075018,-1.4565214073\H,-4.5702829685,-0.925045
 7464,-0.6711139326\H,-3.6209835858,1.0032748239,0.5324043351\H,-1.1041
 660738,3.0409650092,2.0878658577\H,-2.2838802089,2.8806271796,0.743320
 9353\H,-2.5456821423,1.9919546958,2.2875054938\\Version=EM64L-G16RevA.
 03\State=1-A\HF=-707.8875167\S2=0.\S2-1=0.\S2A=0.\RMSD=5.633e-09\RMSF=
 6.502e-06\Dipole=0.3532693,1.4039109,-0.2673826\Quadrupole=5.16665,0.4
 918971,-5.658547,0.1433365,-1.8220982,1.5460178\PG=C01 [X(C13H13N1O2)]
 \\@


 If fifty million people say a stupid thing,
 it is still a stupid thing.
                   -- Anatole France
 Job cpu time:       0 days  4 hours 28 minutes 48.5 seconds.
 Elapsed time:       0 days  0 hours 33 minutes 51.5 seconds.
 File lengths (MBytes):  RWF=    152 Int=      0 D2E=      0 Chk=     16 Scr=      8
 Normal termination of Gaussian 16 at Sat Jul 25 00:07:11 2020.
