 Entering Gaussian System, Link 0=g16
 Input=mols_65_3_00_c-c-C_opt_0.gjf
 Output=mols_65_3_00_c-c-C_opt_0.log
 Initial command:
 /opt/ohpc/pub/libs/gaussian/g16-A.03/sandybridge/g16/l1.exe "/mnt/gpfs2_4m/scratch/rdu230/ondemand/projects/dihedral_energies/7trial/wtuning/redos_512cycles/mols_65_3_00_c-c-C/Gau-337237.inp" -scrdir="/mnt/gpfs2_4m/scratch/rdu230/ondemand/projects/dihedral_energies/7trial/wtuning/redos_512cycles/mols_65_3_00_c-c-C/"
 Entering Link 1 = /opt/ohpc/pub/libs/gaussian/g16-A.03/sandybridge/g16/l1.exe PID=    337239.
  
 Copyright (c) 1988,1990,1992,1993,1995,1998,2003,2009,2016,
            Gaussian, Inc.  All Rights Reserved.
  
 This is part of the Gaussian(R) 16 program.  It is based on
 the Gaussian(R) 09 system (copyright 2009, Gaussian, Inc.),
 the Gaussian(R) 03 system (copyright 2003, Gaussian, Inc.),
 the Gaussian(R) 98 system (copyright 1998, Gaussian, Inc.),
 the Gaussian(R) 94 system (copyright 1995, Gaussian, Inc.),
 the Gaussian 92(TM) system (copyright 1992, Gaussian, Inc.),
 the Gaussian 90(TM) system (copyright 1990, Gaussian, Inc.),
 the Gaussian 88(TM) system (copyright 1988, Gaussian, Inc.),
 the Gaussian 86(TM) system (copyright 1986, Carnegie Mellon
 University), and the Gaussian 82(TM) system (copyright 1983,
 Carnegie Mellon University). Gaussian is a federally registered
 trademark of Gaussian, Inc.
  
 This software contains proprietary and confidential information,
 including trade secrets, belonging to Gaussian, Inc.
  
 This software is provided under written license and may be
 used, copied, transmitted, or stored only in accord with that
 written license.
  
 The following legend is applicable only to US Government
 contracts under FAR:
  
                    RESTRICTED RIGHTS LEGEND
  
 Use, reproduction and disclosure by the US Government is
 subject to restrictions as set forth in subparagraphs (a)
 and (c) of the Commercial Computer Software - Restricted
 Rights clause in FAR 52.227-19.
  
 Gaussian, Inc.
 340 Quinnipiac St., Bldg. 40, Wallingford CT 06492
  
  
 ---------------------------------------------------------------
 Warning -- This program may not be used in any manner that
 competes with the business of Gaussian, Inc. or will provide
 assistance to any competitor of Gaussian, Inc.  The licensee
 of this program is prohibited from giving any competitor of
 Gaussian, Inc. access to this program.  By using this program,
 the user acknowledges that Gaussian, Inc. is engaged in the
 business of creating and licensing software in the field of
 computational chemistry and represents and warrants to the
 licensee that it is not a competitor of Gaussian, Inc. and that
 it will not use this program in any manner prohibited above.
 ---------------------------------------------------------------
  

 Cite this work as:
 Gaussian 16, Revision A.03,
 M. J. Frisch, G. W. Trucks, H. B. Schlegel, G. E. Scuseria, 
 M. A. Robb, J. R. Cheeseman, G. Scalmani, V. Barone, 
 G. A. Petersson, H. Nakatsuji, X. Li, M. Caricato, A. V. Marenich, 
 J. Bloino, B. G. Janesko, R. Gomperts, B. Mennucci, H. P. Hratchian, 
 J. V. Ortiz, A. F. Izmaylov, J. L. Sonnenberg, D. Williams-Young, 
 F. Ding, F. Lipparini, F. Egidi, J. Goings, B. Peng, A. Petrone, 
 T. Henderson, D. Ranasinghe, V. G. Zakrzewski, J. Gao, N. Rega, 
 G. Zheng, W. Liang, M. Hada, M. Ehara, K. Toyota, R. Fukuda, 
 J. Hasegawa, M. Ishida, T. Nakajima, Y. Honda, O. Kitao, H. Nakai, 
 T. Vreven, K. Throssell, J. A. Montgomery, Jr., J. E. Peralta, 
 F. Ogliaro, M. J. Bearpark, J. J. Heyd, E. N. Brothers, K. N. Kudin, 
 V. N. Staroverov, T. A. Keith, R. Kobayashi, J. Normand, 
 K. Raghavachari, A. P. Rendell, J. C. Burant, S. S. Iyengar, 
 J. Tomasi, M. Cossi, J. M. Millam, M. Klene, C. Adamo, R. Cammi, 
 J. W. Ochterski, R. L. Martin, K. Morokuma, O. Farkas, 
 J. B. Foresman, and D. J. Fox, Gaussian, Inc., Wallingford CT, 2016.
 
 ******************************************
 Gaussian 16:  EM64L-G16RevA.03 25-Dec-2016
                26-Jul-2020 
 ******************************************
 %mem=30GB
 %nproc=8
 Will use up to    8 processors via shared memory.
 ---------------------------------------------------------------
 #P uLC-wPBE/cc-pVDZ iop(3/107=0263700000, 3/108=0263700000) opt
 ---------------------------------------------------------------
 1/18=20,19=15,26=3,38=1/1,3;
 2/9=110,12=2,17=6,18=5,40=1/2;
 3/5=16,11=2,25=1,30=1,71=1,74=-41,107=263700000,108=263700000,116=2/1,2,3;
 4//1;
 5/5=2,38=5/2;
 6/7=2,8=2,9=2,10=2,28=1/1;
 7//1,2,3,16;
 1/18=20,19=15,26=3/3(2);
 2/9=110/2;
 99//99;
 2/9=110/2;
 3/5=16,11=2,25=1,30=1,71=1,74=-41,107=263700000,108=263700000,116=2/1,2,3;
 4/5=5,16=3,69=1/1;
 5/5=2,38=5/2;
 7//1,2,3,16;
 1/18=20,19=15,26=3/3(-5);
 2/9=110/2;
 6/7=2,8=2,9=2,10=2,19=2,28=1/1;
 99/9=1/99;
 Leave Link    1 at Sun Jul 26 12:21:18 2020, MaxMem=  4026531840 cpu:               2.2 elap:               0.3
 (Enter /opt/ohpc/pub/libs/gaussian/g16-A.03/sandybridge/g16/l101.exe)
 ----------
 H20 C30 S3
 ----------
 Symbolic Z-matrix:
 Charge =  0 Multiplicity = 1
 C                    -11.44566   0.31018   0.10093 
 C                    -10.6386   1.12595  -0.5413 
 C                    -9.18219   0.8251   -0.67321 
 C                    -8.69042  -0.32572  -0.14542 
 C                    -9.63965  -1.23676   0.56392 
 C                    -10.91579  -0.89238   0.64013 
 C                    -7.25978  -0.67352  -0.25748 
 C                    -6.74901  -1.94076  -0.52166 
 C                    -5.25404  -1.87317  -0.57033 
 C                    -4.79209  -0.67164  -0.18876 
 S                    -6.05193   0.47706   0.06025 
 C                    -3.42104  -0.18271  -0.12473 
 C                    -2.52326  -1.04529   0.55852 
 C                    -1.11229  -0.66514   0.67041 
 C                    -0.72084   0.5784    0.13948 
 C                    -1.55993   1.36457  -0.54117 
 C                    -2.94696   0.98011  -0.58937 
 C                     0.71139   0.98545   0.24093 
 C                     1.22424   2.1871    0.62941 
 C                     2.63077   2.26069   0.57108 
 C                     3.22972   1.08775   0.32317 
 S                     1.99633  -0.12039  -0.04704 
 C                     4.66956   0.7164    0.2016 
 C                     5.15097  -0.46208   0.85745 
 C                     6.54418  -0.76909   0.74388 
 C                     7.34408   0.04216   0.03894 
 C                     6.89839   1.25937  -0.50681 
 C                     5.48777   1.56702  -0.42039 
 C                     8.82548  -0.25862  -0.10698 
 C                     9.91345   0.56468   0.10926 
 C                     11.20387  -0.02753  -0.08327 
 C                     11.0383  -1.37988  -0.36834 
 S                     9.32036  -1.79212  -0.48902 
 H                    -12.51761   0.46296   0.16513 
 H                    -10.94001   2.01669  -0.98766 
 H                    -8.5483    1.49246  -1.22852 
 H                    -9.21898  -2.09608   1.02584 
 H                    -11.65328  -1.56587   1.21138 
 H                    -7.32313  -2.77693  -0.75853 
 H                    -4.69624  -2.68658  -0.773 
 H                    -2.80206  -1.92205   1.05385 
 H                    -0.42888  -1.31137   1.2876 
 H                    -1.28487   2.31559  -1.01 
 H                    -3.65227   1.63281  -1.1452 
 H                     0.61248   3.11341   0.85147 
 H                     3.18965   3.17964   0.87857 
 H                     4.47152  -1.14742   1.40465 
 H                     6.8801   -1.66681   1.15687 
 H                     7.51382   1.94404  -1.06402 
 H                     5.15522   2.49672  -0.90372 
 H                     9.77807   1.62284   0.42364 
 H                     12.08326   0.45937  -0.00458 
 H                     11.8033  -2.04896  -0.62492 
 
 ITRead=  0  0  0  0  0  0  0  0  0  0  0  0  0  0  0  0  0  0  0  0
 ITRead=  0  0  0  0  0  0  0  0  0  0  0  0  0  0  0  0  0  0  0  0
 ITRead=  0  0  0  0  0  0  0  0  0  0  0  0  0
 MicOpt= -1 -1 -1 -1 -1 -1 -1 -1 -1 -1 -1 -1 -1 -1 -1 -1 -1 -1 -1 -1
 MicOpt= -1 -1 -1 -1 -1 -1 -1 -1 -1 -1 -1 -1 -1 -1 -1 -1 -1 -1 -1 -1
 MicOpt= -1 -1 -1 -1 -1 -1 -1 -1 -1 -1 -1 -1 -1
 NAtoms=     53 NQM=       53 NQMF=       0 NMMI=      0 NMMIF=      0
                NMic=       0 NMicF=      0.
                    Isotopes and Nuclear Properties:
 (Nuclear quadrupole moments (NQMom) in fm**2, nuclear magnetic moments (NMagM)
  in nuclear magnetons)

  Atom         1           2           3           4           5           6           7           8           9          10
 IAtWgt=          12          12          12          12          12          12          12          12          12          12
 AtmWgt=  12.0000000  12.0000000  12.0000000  12.0000000  12.0000000  12.0000000  12.0000000  12.0000000  12.0000000  12.0000000
 NucSpn=           0           0           0           0           0           0           0           0           0           0
 AtZEff=  -0.0000000  -0.0000000  -0.0000000  -0.0000000  -0.0000000  -0.0000000  -0.0000000  -0.0000000  -0.0000000  -0.0000000
 NQMom=    0.0000000   0.0000000   0.0000000   0.0000000   0.0000000   0.0000000   0.0000000   0.0000000   0.0000000   0.0000000
 NMagM=    0.0000000   0.0000000   0.0000000   0.0000000   0.0000000   0.0000000   0.0000000   0.0000000   0.0000000   0.0000000
 AtZNuc=   6.0000000   6.0000000   6.0000000   6.0000000   6.0000000   6.0000000   6.0000000   6.0000000   6.0000000   6.0000000

  Atom        11          12          13          14          15          16          17          18          19          20
 IAtWgt=          32          12          12          12          12          12          12          12          12          12
 AtmWgt=  31.9720718  12.0000000  12.0000000  12.0000000  12.0000000  12.0000000  12.0000000  12.0000000  12.0000000  12.0000000
 NucSpn=           0           0           0           0           0           0           0           0           0           0
 AtZEff=  -0.0000000  -0.0000000  -0.0000000  -0.0000000  -0.0000000  -0.0000000  -0.0000000  -0.0000000  -0.0000000  -0.0000000
 NQMom=    0.0000000   0.0000000   0.0000000   0.0000000   0.0000000   0.0000000   0.0000000   0.0000000   0.0000000   0.0000000
 NMagM=    0.0000000   0.0000000   0.0000000   0.0000000   0.0000000   0.0000000   0.0000000   0.0000000   0.0000000   0.0000000
 AtZNuc=  16.0000000   6.0000000   6.0000000   6.0000000   6.0000000   6.0000000   6.0000000   6.0000000   6.0000000   6.0000000

  Atom        21          22          23          24          25          26          27          28          29          30
 IAtWgt=          12          32          12          12          12          12          12          12          12          12
 AtmWgt=  12.0000000  31.9720718  12.0000000  12.0000000  12.0000000  12.0000000  12.0000000  12.0000000  12.0000000  12.0000000
 NucSpn=           0           0           0           0           0           0           0           0           0           0
 AtZEff=  -0.0000000  -0.0000000  -0.0000000  -0.0000000  -0.0000000  -0.0000000  -0.0000000  -0.0000000  -0.0000000  -0.0000000
 NQMom=    0.0000000   0.0000000   0.0000000   0.0000000   0.0000000   0.0000000   0.0000000   0.0000000   0.0000000   0.0000000
 NMagM=    0.0000000   0.0000000   0.0000000   0.0000000   0.0000000   0.0000000   0.0000000   0.0000000   0.0000000   0.0000000
 AtZNuc=   6.0000000  16.0000000   6.0000000   6.0000000   6.0000000   6.0000000   6.0000000   6.0000000   6.0000000   6.0000000

  Atom        31          32          33          34          35          36          37          38          39          40
 IAtWgt=          12          12          32           1           1           1           1           1           1           1
 AtmWgt=  12.0000000  12.0000000  31.9720718   1.0078250   1.0078250   1.0078250   1.0078250   1.0078250   1.0078250   1.0078250
 NucSpn=           0           0           0           1           1           1           1           1           1           1
 AtZEff=  -0.0000000  -0.0000000  -0.0000000  -0.0000000  -0.0000000  -0.0000000  -0.0000000  -0.0000000  -0.0000000  -0.0000000
 NQMom=    0.0000000   0.0000000   0.0000000   0.0000000   0.0000000   0.0000000   0.0000000   0.0000000   0.0000000   0.0000000
 NMagM=    0.0000000   0.0000000   0.0000000   2.7928460   2.7928460   2.7928460   2.7928460   2.7928460   2.7928460   2.7928460
 AtZNuc=   6.0000000   6.0000000  16.0000000   1.0000000   1.0000000   1.0000000   1.0000000   1.0000000   1.0000000   1.0000000

  Atom        41          42          43          44          45          46          47          48          49          50
 IAtWgt=           1           1           1           1           1           1           1           1           1           1
 AtmWgt=   1.0078250   1.0078250   1.0078250   1.0078250   1.0078250   1.0078250   1.0078250   1.0078250   1.0078250   1.0078250
 NucSpn=           1           1           1           1           1           1           1           1           1           1
 AtZEff=  -0.0000000  -0.0000000  -0.0000000  -0.0000000  -0.0000000  -0.0000000  -0.0000000  -0.0000000  -0.0000000  -0.0000000
 NQMom=    0.0000000   0.0000000   0.0000000   0.0000000   0.0000000   0.0000000   0.0000000   0.0000000   0.0000000   0.0000000
 NMagM=    2.7928460   2.7928460   2.7928460   2.7928460   2.7928460   2.7928460   2.7928460   2.7928460   2.7928460   2.7928460
 AtZNuc=   1.0000000   1.0000000   1.0000000   1.0000000   1.0000000   1.0000000   1.0000000   1.0000000   1.0000000   1.0000000

  Atom        51          52          53
 IAtWgt=           1           1           1
 AtmWgt=   1.0078250   1.0078250   1.0078250
 NucSpn=           1           1           1
 AtZEff=  -0.0000000  -0.0000000  -0.0000000
 NQMom=    0.0000000   0.0000000   0.0000000
 NMagM=    2.7928460   2.7928460   2.7928460
 AtZNuc=   1.0000000   1.0000000   1.0000000
 Leave Link  101 at Sun Jul 26 12:21:19 2020, MaxMem=  4026531840 cpu:               2.9 elap:               0.5
 (Enter /opt/ohpc/pub/libs/gaussian/g16-A.03/sandybridge/g16/l103.exe)

 GradGradGradGradGradGradGradGradGradGradGradGradGradGradGradGradGradGrad
 Berny optimization.
 Initialization pass.
                           ----------------------------
                           !    Initial Parameters    !
                           ! (Angstroms and Degrees)  !
 --------------------------                            --------------------------
 ! Name  Definition              Value          Derivative Info.                !
 --------------------------------------------------------------------------------
 ! R1    R(1,2)                  1.315          estimate D2E/DX2                !
 ! R2    R(1,6)                  1.4204         estimate D2E/DX2                !
 ! R3    R(1,34)                 1.0847         estimate D2E/DX2                !
 ! R4    R(2,3)                  1.493          estimate D2E/DX2                !
 ! R5    R(2,35)                 1.0409         estimate D2E/DX2                !
 ! R6    R(3,4)                  1.3582         estimate D2E/DX2                !
 ! R7    R(3,36)                 1.075          estimate D2E/DX2                !
 ! R8    R(4,5)                  1.4947         estimate D2E/DX2                !
 ! R9    R(4,7)                  1.4766         estimate D2E/DX2                !
 ! R10   R(5,6)                  1.324          estimate D2E/DX2                !
 ! R11   R(5,37)                 1.0624         estimate D2E/DX2                !
 ! R12   R(6,38)                 1.1506         estimate D2E/DX2                !
 ! R13   R(7,8)                  1.3916         estimate D2E/DX2                !
 ! R14   R(7,11)                 1.6981         estimate D2E/DX2                !
 ! R15   R(8,9)                  1.4973         estimate D2E/DX2                !
 ! R16   R(8,39)                 1.0416         estimate D2E/DX2                !
 ! R17   R(9,10)                 1.3426         estimate D2E/DX2                !
 ! R18   R(9,40)                 1.0069         estimate D2E/DX2                !
 ! R19   R(10,11)                1.723          estimate D2E/DX2                !
 ! R20   R(10,12)                1.457          estimate D2E/DX2                !
 ! R21   R(12,13)                1.4202         estimate D2E/DX2                !
 ! R22   R(12,17)                1.339          estimate D2E/DX2                !
 ! R23   R(13,14)                1.4656         estimate D2E/DX2                !
 ! R24   R(13,41)                1.0449         estimate D2E/DX2                !
 ! R25   R(14,15)                1.4077         estimate D2E/DX2                !
 ! R26   R(14,42)                1.125          estimate D2E/DX2                !
 ! R27   R(15,16)                1.3362         estimate D2E/DX2                !
 ! R28   R(15,18)                1.4924         estimate D2E/DX2                !
 ! R29   R(16,17)                1.4401         estimate D2E/DX2                !
 ! R30   R(16,43)                1.0954         estimate D2E/DX2                !
 ! R31   R(17,44)                1.1102         estimate D2E/DX2                !
 ! R32   R(18,19)                1.363          estimate D2E/DX2                !
 ! R33   R(18,22)                1.7196         estimate D2E/DX2                !
 ! R34   R(19,20)                1.4097         estimate D2E/DX2                !
 ! R35   R(19,45)                1.1321         estimate D2E/DX2                !
 ! R36   R(20,21)                1.3401         estimate D2E/DX2                !
 ! R37   R(20,46)                1.1186         estimate D2E/DX2                !
 ! R38   R(21,22)                1.7658         estimate D2E/DX2                !
 ! R39   R(21,23)                1.4919         estimate D2E/DX2                !
 ! R40   R(23,24)                1.432          estimate D2E/DX2                !
 ! R41   R(23,28)                1.3341         estimate D2E/DX2                !
 ! R42   R(24,25)                1.4311         estimate D2E/DX2                !
 ! R43   R(24,47)                1.1094         estimate D2E/DX2                !
 ! R44   R(25,26)                1.3397         estimate D2E/DX2                !
 ! R45   R(25,48)                1.0437         estimate D2E/DX2                !
 ! R46   R(26,27)                1.4064         estimate D2E/DX2                !
 ! R47   R(26,29)                1.5186         estimate D2E/DX2                !
 ! R48   R(27,28)                1.4464         estimate D2E/DX2                !
 ! R49   R(27,49)                1.0761         estimate D2E/DX2                !
 ! R50   R(28,50)                1.0993         estimate D2E/DX2                !
 ! R51   R(29,30)                1.3814         estimate D2E/DX2                !
 ! R52   R(29,33)                1.656          estimate D2E/DX2                !
 ! R53   R(30,31)                1.4328         estimate D2E/DX2                !
 ! R54   R(30,51)                1.1121         estimate D2E/DX2                !
 ! R55   R(31,32)                1.3919         estimate D2E/DX2                !
 ! R56   R(31,52)                1.0083         estimate D2E/DX2                !
 ! R57   R(32,33)                1.7708         estimate D2E/DX2                !
 ! R58   R(32,53)                1.0482         estimate D2E/DX2                !
 ! A1    A(2,1,6)              118.7923         estimate D2E/DX2                !
 ! A2    A(2,1,34)             123.2336         estimate D2E/DX2                !
 ! A3    A(6,1,34)             117.7382         estimate D2E/DX2                !
 ! A4    A(1,2,3)              121.1199         estimate D2E/DX2                !
 ! A5    A(1,2,35)             124.2326         estimate D2E/DX2                !
 ! A6    A(3,2,35)             114.6467         estimate D2E/DX2                !
 ! A7    A(2,3,4)              119.3141         estimate D2E/DX2                !
 ! A8    A(2,3,36)             119.7207         estimate D2E/DX2                !
 ! A9    A(4,3,36)             120.8806         estimate D2E/DX2                !
 ! A10   A(3,4,5)              118.0934         estimate D2E/DX2                !
 ! A11   A(3,4,7)              121.3922         estimate D2E/DX2                !
 ! A12   A(5,4,7)              120.5137         estimate D2E/DX2                !
 ! A13   A(4,5,6)              118.7426         estimate D2E/DX2                !
 ! A14   A(4,5,37)             116.607          estimate D2E/DX2                !
 ! A15   A(6,5,37)             124.5411         estimate D2E/DX2                !
 ! A16   A(1,6,5)              123.9121         estimate D2E/DX2                !
 ! A17   A(1,6,38)             116.4187         estimate D2E/DX2                !
 ! A18   A(5,6,38)             119.6126         estimate D2E/DX2                !
 ! A19   A(4,7,8)              125.7693         estimate D2E/DX2                !
 ! A20   A(4,7,11)             121.0216         estimate D2E/DX2                !
 ! A21   A(8,7,11)             113.0449         estimate D2E/DX2                !
 ! A22   A(7,8,9)              109.3615         estimate D2E/DX2                !
 ! A23   A(7,8,39)             124.8829         estimate D2E/DX2                !
 ! A24   A(9,8,39)             125.3941         estimate D2E/DX2                !
 ! A25   A(8,9,10)             112.0055         estimate D2E/DX2                !
 ! A26   A(8,9,40)             121.5464         estimate D2E/DX2                !
 ! A27   A(10,9,40)            126.124          estimate D2E/DX2                !
 ! A28   A(9,10,11)            112.713          estimate D2E/DX2                !
 ! A29   A(9,10,12)            129.5348         estimate D2E/DX2                !
 ! A30   A(11,10,12)           117.2569         estimate D2E/DX2                !
 ! A31   A(7,11,10)             92.3686         estimate D2E/DX2                !
 ! A32   A(10,12,13)           114.3426         estimate D2E/DX2                !
 ! A33   A(10,12,17)           127.5419         estimate D2E/DX2                !
 ! A34   A(13,12,17)           118.0736         estimate D2E/DX2                !
 ! A35   A(12,13,14)           119.1961         estimate D2E/DX2                !
 ! A36   A(12,13,41)           124.6833         estimate D2E/DX2                !
 ! A37   A(14,13,41)           115.9983         estimate D2E/DX2                !
 ! A38   A(13,14,15)           117.9097         estimate D2E/DX2                !
 ! A39   A(13,14,42)           118.538          estimate D2E/DX2                !
 ! A40   A(15,14,42)           123.0553         estimate D2E/DX2                !
 ! A41   A(14,15,16)           122.4974         estimate D2E/DX2                !
 ! A42   A(14,15,18)           118.8281         estimate D2E/DX2                !
 ! A43   A(16,15,18)           118.4769         estimate D2E/DX2                !
 ! A44   A(15,16,17)           117.6967         estimate D2E/DX2                !
 ! A45   A(15,16,43)           124.8301         estimate D2E/DX2                !
 ! A46   A(17,16,43)           117.342          estimate D2E/DX2                !
 ! A47   A(12,17,16)           124.1417         estimate D2E/DX2                !
 ! A48   A(12,17,44)           117.3486         estimate D2E/DX2                !
 ! A49   A(16,17,44)           118.1444         estimate D2E/DX2                !
 ! A50   A(15,18,19)           128.3823         estimate D2E/DX2                !
 ! A51   A(15,18,22)           122.0283         estimate D2E/DX2                !
 ! A52   A(19,18,22)           109.4828         estimate D2E/DX2                !
 ! A53   A(18,19,20)           114.1824         estimate D2E/DX2                !
 ! A54   A(18,19,45)           125.0252         estimate D2E/DX2                !
 ! A55   A(20,19,45)           120.3038         estimate D2E/DX2                !
 ! A56   A(19,20,21)           114.0731         estimate D2E/DX2                !
 ! A57   A(19,20,46)           122.0056         estimate D2E/DX2                !
 ! A58   A(21,20,46)           123.1309         estimate D2E/DX2                !
 ! A59   A(20,21,22)           108.9921         estimate D2E/DX2                !
 ! A60   A(20,21,23)           131.6255         estimate D2E/DX2                !
 ! A61   A(22,21,23)           119.126          estimate D2E/DX2                !
 ! A62   A(18,22,21)            92.6847         estimate D2E/DX2                !
 ! A63   A(21,23,24)           119.4697         estimate D2E/DX2                !
 ! A64   A(21,23,28)           118.1101         estimate D2E/DX2                !
 ! A65   A(24,23,28)           122.1437         estimate D2E/DX2                !
 ! A66   A(23,24,25)           117.8697         estimate D2E/DX2                !
 ! A67   A(23,24,47)           121.896          estimate D2E/DX2                !
 ! A68   A(25,24,47)           120.1876         estimate D2E/DX2                !
 ! A69   A(24,25,26)           119.5431         estimate D2E/DX2                !
 ! A70   A(24,25,48)           117.8036         estimate D2E/DX2                !
 ! A71   A(26,25,48)           122.4714         estimate D2E/DX2                !
 ! A72   A(25,26,27)           122.6175         estimate D2E/DX2                !
 ! A73   A(25,26,29)           120.866          estimate D2E/DX2                !
 ! A74   A(27,26,29)           116.3114         estimate D2E/DX2                !
 ! A75   A(26,27,28)           118.032          estimate D2E/DX2                !
 ! A76   A(26,27,49)           124.7729         estimate D2E/DX2                !
 ! A77   A(28,27,49)           116.961          estimate D2E/DX2                !
 ! A78   A(23,28,27)           119.3651         estimate D2E/DX2                !
 ! A79   A(23,28,50)           123.9632         estimate D2E/DX2                !
 ! A80   A(27,28,50)           116.6562         estimate D2E/DX2                !
 ! A81   A(26,29,30)           129.4335         estimate D2E/DX2                !
 ! A82   A(26,29,33)           119.8066         estimate D2E/DX2                !
 ! A83   A(30,29,33)           110.649          estimate D2E/DX2                !
 ! A84   A(29,30,31)           116.228          estimate D2E/DX2                !
 ! A85   A(29,30,51)           121.0269         estimate D2E/DX2                !
 ! A86   A(31,30,51)           122.7429         estimate D2E/DX2                !
 ! A87   A(30,31,32)           108.781          estimate D2E/DX2                !
 ! A88   A(30,31,52)           125.1292         estimate D2E/DX2                !
 ! A89   A(32,31,52)           126.0791         estimate D2E/DX2                !
 ! A90   A(31,32,33)           110.826          estimate D2E/DX2                !
 ! A91   A(31,32,53)           125.6949         estimate D2E/DX2                !
 ! A92   A(33,32,53)           122.8706         estimate D2E/DX2                !
 ! A93   A(29,33,32)            93.3604         estimate D2E/DX2                !
 ! D1    D(6,1,2,3)             -1.8037         estimate D2E/DX2                !
 ! D2    D(6,1,2,35)           178.5517         estimate D2E/DX2                !
 ! D3    D(34,1,2,3)          -176.0909         estimate D2E/DX2                !
 ! D4    D(34,1,2,35)            4.2645         estimate D2E/DX2                !
 ! D5    D(2,1,6,5)              1.6025         estimate D2E/DX2                !
 ! D6    D(2,1,6,38)           178.8487         estimate D2E/DX2                !
 ! D7    D(34,1,6,5)           176.2046         estimate D2E/DX2                !
 ! D8    D(34,1,6,38)           -6.5493         estimate D2E/DX2                !
 ! D9    D(1,2,3,4)              1.4614         estimate D2E/DX2                !
 ! D10   D(1,2,3,36)           178.1471         estimate D2E/DX2                !
 ! D11   D(35,2,3,4)          -178.8619         estimate D2E/DX2                !
 ! D12   D(35,2,3,36)           -2.1762         estimate D2E/DX2                !
 ! D13   D(2,3,4,5)             -0.7312         estimate D2E/DX2                !
 ! D14   D(2,3,4,7)            179.568          estimate D2E/DX2                !
 ! D15   D(36,3,4,5)          -177.3774         estimate D2E/DX2                !
 ! D16   D(36,3,4,7)             2.9218         estimate D2E/DX2                !
 ! D17   D(3,4,5,6)              0.4982         estimate D2E/DX2                !
 ! D18   D(3,4,5,37)          -175.8744         estimate D2E/DX2                !
 ! D19   D(7,4,5,6)           -179.7983         estimate D2E/DX2                !
 ! D20   D(7,4,5,37)             3.8291         estimate D2E/DX2                !
 ! D21   D(3,4,7,8)           -139.4433         estimate D2E/DX2                !
 ! D22   D(3,4,7,11)            45.5478         estimate D2E/DX2                !
 ! D23   D(5,4,7,8)             40.8631         estimate D2E/DX2                !
 ! D24   D(5,4,7,11)          -134.1458         estimate D2E/DX2                !
 ! D25   D(4,5,6,1)             -0.9025         estimate D2E/DX2                !
 ! D26   D(4,5,6,38)          -178.0656         estimate D2E/DX2                !
 ! D27   D(37,5,6,1)           175.1598         estimate D2E/DX2                !
 ! D28   D(37,5,6,38)           -2.0034         estimate D2E/DX2                !
 ! D29   D(4,7,8,9)            179.3591         estimate D2E/DX2                !
 ! D30   D(4,7,8,39)             5.9612         estimate D2E/DX2                !
 ! D31   D(11,7,8,9)            -5.2883         estimate D2E/DX2                !
 ! D32   D(11,7,8,39)         -178.6862         estimate D2E/DX2                !
 ! D33   D(4,7,11,10)          177.1128         estimate D2E/DX2                !
 ! D34   D(8,7,11,10)            1.5124         estimate D2E/DX2                !
 ! D35   D(7,8,9,10)             7.7054         estimate D2E/DX2                !
 ! D36   D(7,8,9,40)          -178.4523         estimate D2E/DX2                !
 ! D37   D(39,8,9,10)         -178.9384         estimate D2E/DX2                !
 ! D38   D(39,8,9,40)           -5.0961         estimate D2E/DX2                !
 ! D39   D(8,9,10,11)           -6.7411         estimate D2E/DX2                !
 ! D40   D(8,9,10,12)         -178.3216         estimate D2E/DX2                !
 ! D41   D(40,9,10,11)         179.757          estimate D2E/DX2                !
 ! D42   D(40,9,10,12)           8.1765         estimate D2E/DX2                !
 ! D43   D(9,10,11,7)            3.229          estimate D2E/DX2                !
 ! D44   D(12,10,11,7)         175.931          estimate D2E/DX2                !
 ! D45   D(9,10,12,13)         -49.9978         estimate D2E/DX2                !
 ! D46   D(9,10,12,17)         132.4207         estimate D2E/DX2                !
 ! D47   D(11,10,12,13)        138.7413         estimate D2E/DX2                !
 ! D48   D(11,10,12,17)        -38.8402         estimate D2E/DX2                !
 ! D49   D(10,12,13,14)        179.2021         estimate D2E/DX2                !
 ! D50   D(10,12,13,41)         -4.9869         estimate D2E/DX2                !
 ! D51   D(17,12,13,14)         -2.9711         estimate D2E/DX2                !
 ! D52   D(17,12,13,41)        172.8399         estimate D2E/DX2                !
 ! D53   D(10,12,17,16)       -177.0124         estimate D2E/DX2                !
 ! D54   D(10,12,17,44)         -4.0966         estimate D2E/DX2                !
 ! D55   D(13,12,17,16)          5.485          estimate D2E/DX2                !
 ! D56   D(13,12,17,44)        178.4008         estimate D2E/DX2                !
 ! D57   D(12,13,14,15)          2.716          estimate D2E/DX2                !
 ! D58   D(12,13,14,42)        174.8797         estimate D2E/DX2                !
 ! D59   D(41,13,14,15)       -173.452          estimate D2E/DX2                !
 ! D60   D(41,13,14,42)         -1.2884         estimate D2E/DX2                !
 ! D61   D(13,14,15,16)         -5.124          estimate D2E/DX2                !
 ! D62   D(13,14,15,18)       -179.9357         estimate D2E/DX2                !
 ! D63   D(42,14,15,16)       -176.9078         estimate D2E/DX2                !
 ! D64   D(42,14,15,18)          8.2805         estimate D2E/DX2                !
 ! D65   D(14,15,16,17)          7.276          estimate D2E/DX2                !
 ! D66   D(14,15,16,43)       -177.0094         estimate D2E/DX2                !
 ! D67   D(18,15,16,17)       -177.8949         estimate D2E/DX2                !
 ! D68   D(18,15,16,43)         -2.1803         estimate D2E/DX2                !
 ! D69   D(14,15,18,19)       -133.942          estimate D2E/DX2                !
 ! D70   D(14,15,18,22)         41.8937         estimate D2E/DX2                !
 ! D71   D(16,15,18,19)         51.0357         estimate D2E/DX2                !
 ! D72   D(16,15,18,22)       -133.1286         estimate D2E/DX2                !
 ! D73   D(15,16,17,12)         -7.6751         estimate D2E/DX2                !
 ! D74   D(15,16,17,44)        179.4613         estimate D2E/DX2                !
 ! D75   D(43,16,17,12)        176.2844         estimate D2E/DX2                !
 ! D76   D(43,16,17,44)          3.4208         estimate D2E/DX2                !
 ! D77   D(15,18,19,20)       -177.9213         estimate D2E/DX2                !
 ! D78   D(15,18,19,45)         -5.9618         estimate D2E/DX2                !
 ! D79   D(22,18,19,20)          5.8229         estimate D2E/DX2                !
 ! D80   D(22,18,19,45)        177.7824         estimate D2E/DX2                !
 ! D81   D(15,18,22,21)       -178.0524         estimate D2E/DX2                !
 ! D82   D(19,18,22,21)         -1.5141         estimate D2E/DX2                !
 ! D83   D(18,19,20,21)         -8.7281         estimate D2E/DX2                !
 ! D84   D(18,19,20,46)       -178.8409         estimate D2E/DX2                !
 ! D85   D(45,19,20,21)        178.8958         estimate D2E/DX2                !
 ! D86   D(45,19,20,46)          8.783          estimate D2E/DX2                !
 ! D87   D(19,20,21,22)          7.0791         estimate D2E/DX2                !
 ! D88   D(19,20,21,23)       -178.9463         estimate D2E/DX2                !
 ! D89   D(46,20,21,22)        177.0657         estimate D2E/DX2                !
 ! D90   D(46,20,21,23)         -8.9597         estimate D2E/DX2                !
 ! D91   D(20,21,22,18)         -3.2033         estimate D2E/DX2                !
 ! D92   D(23,21,22,18)       -178.0498         estimate D2E/DX2                !
 ! D93   D(20,21,23,24)        134.8543         estimate D2E/DX2                !
 ! D94   D(20,21,23,28)        -39.2369         estimate D2E/DX2                !
 ! D95   D(22,21,23,24)        -51.6699         estimate D2E/DX2                !
 ! D96   D(22,21,23,28)        134.2389         estimate D2E/DX2                !
 ! D97   D(21,23,24,25)       -178.5721         estimate D2E/DX2                !
 ! D98   D(21,23,24,47)          3.9088         estimate D2E/DX2                !
 ! D99   D(28,23,24,25)         -4.7284         estimate D2E/DX2                !
 ! D100  D(28,23,24,47)        177.7525         estimate D2E/DX2                !
 ! D101  D(21,23,28,27)        177.5484         estimate D2E/DX2                !
 ! D102  D(21,23,28,50)         -3.9365         estimate D2E/DX2                !
 ! D103  D(24,23,28,27)          3.6246         estimate D2E/DX2                !
 ! D104  D(24,23,28,50)       -177.8603         estimate D2E/DX2                !
 ! D105  D(23,24,25,26)          0.0134         estimate D2E/DX2                !
 ! D106  D(23,24,25,48)       -175.2081         estimate D2E/DX2                !
 ! D107  D(47,24,25,26)        177.5767         estimate D2E/DX2                !
 ! D108  D(47,24,25,48)          2.3553         estimate D2E/DX2                !
 ! D109  D(24,25,26,27)          5.7076         estimate D2E/DX2                !
 ! D110  D(24,25,26,29)       -179.6903         estimate D2E/DX2                !
 ! D111  D(48,25,26,27)       -179.3031         estimate D2E/DX2                !
 ! D112  D(48,25,26,29)         -4.701          estimate D2E/DX2                !
 ! D113  D(25,26,27,28)         -6.7884         estimate D2E/DX2                !
 ! D114  D(25,26,27,49)        178.9539         estimate D2E/DX2                !
 ! D115  D(29,26,27,28)        178.3798         estimate D2E/DX2                !
 ! D116  D(29,26,27,49)          4.1221         estimate D2E/DX2                !
 ! D117  D(25,26,29,30)       -129.6323         estimate D2E/DX2                !
 ! D118  D(25,26,29,33)         46.1563         estimate D2E/DX2                !
 ! D119  D(27,26,29,30)         45.2965         estimate D2E/DX2                !
 ! D120  D(27,26,29,33)       -138.9149         estimate D2E/DX2                !
 ! D121  D(26,27,28,23)          1.9657         estimate D2E/DX2                !
 ! D122  D(26,27,28,50)       -176.6562         estimate D2E/DX2                !
 ! D123  D(49,27,28,23)        176.6751         estimate D2E/DX2                !
 ! D124  D(49,27,28,50)         -1.9469         estimate D2E/DX2                !
 ! D125  D(26,29,30,31)        178.4316         estimate D2E/DX2                !
 ! D126  D(26,29,30,51)         -1.0433         estimate D2E/DX2                !
 ! D127  D(33,29,30,31)          2.3363         estimate D2E/DX2                !
 ! D128  D(33,29,30,51)       -177.1386         estimate D2E/DX2                !
 ! D129  D(26,29,33,32)       -176.4381         estimate D2E/DX2                !
 ! D130  D(30,29,33,32)          0.0868         estimate D2E/DX2                !
 ! D131  D(29,30,31,32)         -4.1434         estimate D2E/DX2                !
 ! D132  D(29,30,31,52)        176.9939         estimate D2E/DX2                !
 ! D133  D(51,30,31,32)        175.3216         estimate D2E/DX2                !
 ! D134  D(51,30,31,52)         -3.5411         estimate D2E/DX2                !
 ! D135  D(30,31,32,33)          3.9433         estimate D2E/DX2                !
 ! D136  D(30,31,32,53)        175.1666         estimate D2E/DX2                !
 ! D137  D(52,31,32,33)       -177.2076         estimate D2E/DX2                !
 ! D138  D(52,31,32,53)         -5.9843         estimate D2E/DX2                !
 ! D139  D(31,32,33,29)         -2.4642         estimate D2E/DX2                !
 ! D140  D(53,32,33,29)       -173.9797         estimate D2E/DX2                !
 --------------------------------------------------------------------------------
 Trust Radius=3.00D-01 FncErr=1.00D-07 GrdErr=1.00D-06 EigMax=2.50D+02 EigMin=1.00D-04
 Number of steps in this run=    301 maximum allowed number of steps=    318.
 GradGradGradGradGradGradGradGradGradGradGradGradGradGradGradGradGradGrad

 Leave Link  103 at Sun Jul 26 12:21:19 2020, MaxMem=  4026531840 cpu:               0.2 elap:               0.0
 (Enter /opt/ohpc/pub/libs/gaussian/g16-A.03/sandybridge/g16/l202.exe)
 Stoichiometry    C30H20S3
 Framework group  C1[X(C30H20S3)]
 Deg. of freedom   153
 Full point group                 C1      NOp   1
 Largest Abelian subgroup         C1      NOp   1
 Largest concise Abelian subgroup C1      NOp   1
                         Standard orientation:                         
 ---------------------------------------------------------------------
 Center     Atomic      Atomic             Coordinates (Angstroms)
 Number     Number       Type             X           Y           Z
 ---------------------------------------------------------------------
      1          6           0      -11.448740    0.305692    0.115868
      2          6           0      -10.641960    1.122021   -0.526016
      3          6           0       -9.185638    0.821212   -0.658965
      4          6           0       -8.693662   -0.330137   -0.132518
      5          6           0       -9.642571   -1.241792    0.576462
      6          6           0      -10.918654   -0.897403    0.653657
      7          6           0       -7.263104   -0.677915   -0.245643
      8          6           0       -6.752545   -1.944933   -0.511289
      9          6           0       -5.257597   -1.877377   -0.560668
     10          6           0       -4.795376   -0.676236   -0.178211
     11         16           0       -6.055017    0.472295    0.072532
     12          6           0       -3.424258   -0.187452   -0.114434
     13          6           0       -2.526177   -1.050718    0.567536
     14          6           0       -1.115126   -0.670758    0.679044
     15          6           0       -0.723877    0.573256    0.149085
     16          6           0       -1.563284    1.360121   -0.530381
     17          6           0       -2.950359    0.975779   -0.578223
     18          6           0        0.708425    0.980124    0.250171
     19          6           0        1.221544    2.181381    0.639518
     20          6           0        2.628052    2.254945    0.580524
     21          6           0        3.226806    1.082208    0.331200
     22         16           0        1.993150   -0.125513   -0.039507
     23          6           0        4.666559    0.710884    0.208531
     24          6           0        5.148246   -0.468238    0.863013
     25          6           0        6.541378   -0.775223    0.748435
     26          6           0        7.340957    0.036650    0.043837
     27          6           0        6.895049    1.254398   -0.500531
     28          6           0        5.484491    1.562049   -0.413080
     29          6           0        8.822257   -0.264081   -0.103136
     30          6           0        9.910389    0.558955    0.113316
     31          6           0       11.200676   -0.033152   -0.080442
     32          6           0       11.034876   -1.385216   -0.366698
     33         16           0        9.316854   -1.797248   -0.486880
     34          1           0      -12.520648    0.458469    0.180774
     35          1           0      -10.943554    2.013198   -0.971371
     36          1           0       -8.551998    1.489059   -1.213978
     37          1           0       -9.221719   -2.101572    1.037346
     38          1           0      -11.655885   -1.571389    1.224657
     39          1           0       -7.326838   -2.780845   -0.748645
     40          1           0       -4.699945   -2.690636   -0.764401
     41          1           0       -2.804769   -1.927931    1.062180
     42          1           0       -0.431429   -1.317606    1.295272
     43          1           0       -1.288409    2.311566   -0.998460
     44          1           0       -3.655919    1.629051   -1.133072
     45          1           0        0.609953    3.107521    0.862771
     46          1           0        3.187142    3.173577    0.888589
     47          1           0        4.469037   -1.154050    1.409922
     48          1           0        6.877459   -1.673345    1.160399
     49          1           0        7.510234    1.939554   -1.057416
     50          1           0        5.151745    2.492225   -0.895360
     51          1           0        9.775237    1.616821    0.428759
     52          1           0       12.080136    0.453622   -0.001752
     53          1           0       11.799711   -2.054102   -0.624313
 ---------------------------------------------------------------------
 Rotational constants (GHZ):           0.6804777           0.0220321           0.0215298
 Leave Link  202 at Sun Jul 26 12:21:19 2020, MaxMem=  4026531840 cpu:               0.3 elap:               0.1
 (Enter /opt/ohpc/pub/libs/gaussian/g16-A.03/sandybridge/g16/l301.exe)
 Standard basis: CC-pVDZ (5D, 7F)
 Ernie: Thresh=  0.10000D-02 Tol=  0.10000D-05 Strict=F.
 Ernie:  90 primitive shells out of 910 were deleted.
 There are   607 symmetry adapted cartesian basis functions of A   symmetry.
 There are   574 symmetry adapted basis functions of A   symmetry.
   574 basis functions,  1343 primitive gaussians,   607 cartesian basis functions
   124 alpha electrons      124 beta electrons
       nuclear repulsion energy      3070.8681254287 Hartrees.
 IExCor=32609 DFT=T Ex+Corr=LC-wPBE ExCW=0 ScaHFX=  1.000000
 ScaDFX=  1.000000  0.000000  1.000000  1.000000 ScalE2=  1.000000  1.000000
 IRadAn=      5 IRanWt=     -1 IRanGd=            0 ICorTp=0 IEmpDi=  4
 HFx  wShort=  0.000000 wLong=  0.263700 cFull=  0.000000 cShort=  0.000000 cLong=  1.000000
 DFx  wShort=  0.000000 wLong=  0.263700 cFull=  0.000000 cShort=  0.000000 cLong=  1.000000
 NAtoms=   53 NActive=   53 NUniq=   53 SFac= 1.00D+00 NAtFMM=   60 NAOKFM=F Big=F
 Integral buffers will be    131072 words long.
 Raffenetti 2 integral format.
 Two-electron integral symmetry is turned on.
 Leave Link  301 at Sun Jul 26 12:21:19 2020, MaxMem=  4026531840 cpu:               0.4 elap:               0.1
 (Enter /opt/ohpc/pub/libs/gaussian/g16-A.03/sandybridge/g16/l302.exe)
 NPDir=0 NMtPBC=     1 NCelOv=     1 NCel=       1 NClECP=     1 NCelD=      1
         NCelK=      1 NCelE2=     1 NClLst=     1 CellRange=     0.0.
 One-electron integrals computed using PRISM.
 One-electron integral symmetry used in STVInt
 NBasis=   574 RedAO= T EigKep=  3.04D-04  NBF=   574
 NBsUse=   574 1.00D-06 EigRej= -1.00D+00 NBFU=   574
 Precomputing XC quadrature grid using
 IXCGrd= 4 IRadAn=           5 IRanWt=          -1 IRanGd=           0 AccXCQ= 0.00D+00.
 Generated NRdTot=       0 NPtTot=           0 NUsed=           0 NTot=          32
 NSgBfM=   529   529   529   529   529 MxSgAt=    53 MxSgA2=    53.
 Leave Link  302 at Sun Jul 26 12:21:20 2020, MaxMem=  4026531840 cpu:               8.8 elap:               1.1
 (Enter /opt/ohpc/pub/libs/gaussian/g16-A.03/sandybridge/g16/l303.exe)
 DipDrv:  MaxL=1.
 Leave Link  303 at Sun Jul 26 12:21:20 2020, MaxMem=  4026531840 cpu:               0.8 elap:               0.1
 (Enter /opt/ohpc/pub/libs/gaussian/g16-A.03/sandybridge/g16/l401.exe)
 ExpMin= 1.22D-01 ExpMax= 1.11D+05 ExpMxC= 1.07D+03 IAcc=3 IRadAn=         5 AccDes= 0.00D+00
 Harris functional with IExCor=32609 and IRadAn=       5 diagonalized for initial guess.
 HarFok:  IExCor=32609 AccDes= 0.00D+00 IRadAn=         5 IDoV= 1 UseB2=F ITyADJ=14
 ICtDFT=  3500011 ScaDFX=  1.000000  1.000000  1.000000  1.000000
 FoFCou: FMM=F IPFlag=           0 FMFlag=      100000 FMFlg1=           0
         NFxFlg=           0 DoJE=T BraDBF=F KetDBF=T FulRan=T
         wScrn=  0.000000 ICntrl=       500 IOpCl=  0 I1Cent=   200000004 NGrid=           0
         NMat0=    1 NMatS0=      1 NMatT0=    0 NMatD0=    1 NMtDS0=    0 NMtDT0=    0
 Petite list used in FoFCou.
 Harris En= -2348.38672712886    
 JPrj=0 DoOrth=F DoCkMO=F.
 Initial guess <Sx>= 0.0000 <Sy>= 0.0000 <Sz>= 0.0000 <S**2>=-0.0000 S=-0.0000
 Leave Link  401 at Sun Jul 26 12:21:26 2020, MaxMem=  4026531840 cpu:              40.8 elap:               5.1
 (Enter /opt/ohpc/pub/libs/gaussian/g16-A.03/sandybridge/g16/l502.exe)
 Integral symmetry usage will be decided dynamically.
 UHF open shell SCF:
 Using DIIS extrapolation, IDIIS=  1040.
 NGot=  4026531840 LenX=  4025783897 LenY=  4025414841
 Requested convergence on RMS density matrix=1.00D-08 within 128 cycles.
 Requested convergence on MAX density matrix=1.00D-06.
 Requested convergence on             energy=1.00D-06.
 No special actions if energy rises.
 Fock matrices will be formed incrementally for  20 cycles.
 Integral accuracy reduced to 1.0D-05 until final iterations.

 Cycle   1  Pass 0  IDiag  1:
 FoFJK:  IHMeth= 1 ICntrl=       0 DoSepK=T KAlg= 0 I1Cent=           0 FoldK=F
 IRaf=         1 NMat=       1 IRICut=       1 DoRegI=T DoRafI=F ISym2E= 0 IDoP0=0 IntGTp=1.
 FoFCou: FMM=F IPFlag=           0 FMFlag=      100000 FMFlg1=           0
         NFxFlg=           0 DoJE=T BraDBF=F KetDBF=F FulRan=T
         wScrn=  0.000000 ICntrl=       500 IOpCl=  0 I1Cent=           0 NGrid=           0
         NMat0=    1 NMatS0=      1 NMatT0=    0 NMatD0=    1 NMtDS0=    0 NMtDT0=    0
 Symmetry not used in FoFCou.
 E= -2347.60898158272    
 DIIS: error= 3.09D-02 at cycle   1 NSaved=   1.
 NSaved= 1 IEnMin= 1 EnMin= -2347.60898158272     IErMin= 1 ErrMin= 3.09D-02
 ErrMax= 3.09D-02  0.00D+00 EMaxC= 1.00D-01 BMatC= 2.68D+00 BMatP= 2.68D+00
 IDIUse=3 WtCom= 6.91D-01 WtEn= 3.09D-01
 Coeff-Com:  0.100D+01
 Coeff-En:   0.100D+01
 Coeff:      0.100D+01
 Gap=     0.418 Goal=   None    Shift=    0.000
 Gap=     0.418 Goal=   None    Shift=    0.000
 GapD=    0.418 DampG=2.000 DampE=0.500 DampFc=1.0000 IDamp=-1.
 RMSDP=3.28D-03 MaxDP=1.55D-01              OVMax= 2.19D-01

 Cycle   2  Pass 0  IDiag  1:
 RMSU=  3.22D-03    CP:  9.58D-01
 E= -2347.71567117213     Delta-E=       -0.106689589405 Rises=F Damp=F
 DIIS: error= 2.05D-02 at cycle   2 NSaved=   2.
 NSaved= 2 IEnMin= 2 EnMin= -2347.71567117213     IErMin= 2 ErrMin= 2.05D-02
 ErrMax= 2.05D-02  0.00D+00 EMaxC= 1.00D-01 BMatC= 2.58D+00 BMatP= 2.68D+00
 IDIUse=3 WtCom= 7.95D-01 WtEn= 2.05D-01
 Coeff-Com:  0.495D+00 0.505D+00
 Coeff-En:   0.461D+00 0.539D+00
 Coeff:      0.488D+00 0.512D+00
 Gap=     0.377 Goal=   None    Shift=    0.000
 Gap=     0.377 Goal=   None    Shift=    0.000
 RMSDP=1.76D-03 MaxDP=9.73D-02 DE=-1.07D-01 OVMax= 1.53D-01

 Cycle   3  Pass 0  IDiag  1:
 RMSU=  8.50D-04    CP:  9.67D-01  5.24D-01
 E= -2348.40833410172     Delta-E=       -0.692662929591 Rises=F Damp=F
 DIIS: error= 2.69D-03 at cycle   3 NSaved=   3.
 NSaved= 3 IEnMin= 3 EnMin= -2348.40833410172     IErMin= 3 ErrMin= 2.69D-03
 ErrMax= 2.69D-03  0.00D+00 EMaxC= 1.00D-01 BMatC= 4.75D-02 BMatP= 2.58D+00
 IDIUse=3 WtCom= 9.73D-01 WtEn= 2.69D-02
 Coeff-Com:  0.133D+00 0.168D+00 0.699D+00
 Coeff-En:   0.000D+00 0.000D+00 0.100D+01
 Coeff:      0.129D+00 0.164D+00 0.707D+00
 Gap=     0.297 Goal=   None    Shift=    0.000
 Gap=     0.297 Goal=   None    Shift=    0.000
 RMSDP=3.03D-04 MaxDP=1.43D-02 DE=-6.93D-01 OVMax= 3.76D-02

 Cycle   4  Pass 0  IDiag  1:
 RMSU=  2.49D-04    CP:  9.68D-01  5.51D-01  8.24D-01
 E= -2348.41983452015     Delta-E=       -0.011500418433 Rises=F Damp=F
 DIIS: error= 1.30D-03 at cycle   4 NSaved=   4.
 NSaved= 4 IEnMin= 4 EnMin= -2348.41983452015     IErMin= 4 ErrMin= 1.30D-03
 ErrMax= 1.30D-03  0.00D+00 EMaxC= 1.00D-01 BMatC= 1.09D-02 BMatP= 4.75D-02
 IDIUse=3 WtCom= 9.87D-01 WtEn= 1.30D-02
 Coeff-Com:  0.718D-03 0.261D-02 0.316D+00 0.680D+00
 Coeff-En:   0.000D+00 0.000D+00 0.934D-01 0.907D+00
 Coeff:      0.709D-03 0.258D-02 0.313D+00 0.683D+00
 Gap=     0.299 Goal=   None    Shift=    0.000
 Gap=     0.299 Goal=   None    Shift=    0.000
 RMSDP=1.07D-04 MaxDP=5.52D-03 DE=-1.15D-02 OVMax= 1.04D-02

 Cycle   5  Pass 0  IDiag  1:
 RMSU=  7.23D-05    CP:  9.67D-01  5.46D-01  8.98D-01  8.21D-01
 E= -2348.42284833589     Delta-E=       -0.003013815735 Rises=F Damp=F
 DIIS: error= 2.84D-04 at cycle   5 NSaved=   5.
 NSaved= 5 IEnMin= 5 EnMin= -2348.42284833589     IErMin= 5 ErrMin= 2.84D-04
 ErrMax= 2.84D-04  0.00D+00 EMaxC= 1.00D-01 BMatC= 6.03D-04 BMatP= 1.09D-02
 IDIUse=3 WtCom= 9.97D-01 WtEn= 2.84D-03
 Coeff-Com: -0.102D-01-0.155D-01 0.596D-01 0.237D+00 0.729D+00
 Coeff-En:   0.000D+00 0.000D+00 0.000D+00 0.000D+00 0.100D+01
 Coeff:     -0.102D-01-0.155D-01 0.594D-01 0.236D+00 0.730D+00
 Gap=     0.300 Goal=   None    Shift=    0.000
 Gap=     0.300 Goal=   None    Shift=    0.000
 RMSDP=3.66D-05 MaxDP=1.78D-03 DE=-3.01D-03 OVMax= 3.65D-03

 Cycle   6  Pass 0  IDiag  1:
 RMSU=  2.79D-05    CP:  9.67D-01  5.43D-01  9.17D-01  8.82D-01  1.01D+00
 E= -2348.42306111600     Delta-E=       -0.000212780109 Rises=F Damp=F
 DIIS: error= 1.46D-04 at cycle   6 NSaved=   6.
 NSaved= 6 IEnMin= 6 EnMin= -2348.42306111600     IErMin= 6 ErrMin= 1.46D-04
 ErrMax= 1.46D-04  0.00D+00 EMaxC= 1.00D-01 BMatC= 1.11D-04 BMatP= 6.03D-04
 IDIUse=3 WtCom= 9.99D-01 WtEn= 1.46D-03
 Coeff-Com: -0.527D-02-0.890D-02-0.776D-02 0.282D-01 0.303D+00 0.691D+00
 Coeff-En:   0.000D+00 0.000D+00 0.000D+00 0.000D+00 0.000D+00 0.100D+01
 Coeff:     -0.526D-02-0.889D-02-0.775D-02 0.282D-01 0.302D+00 0.692D+00
 Gap=     0.300 Goal=   None    Shift=    0.000
 Gap=     0.300 Goal=   None    Shift=    0.000
 RMSDP=1.67D-05 MaxDP=9.44D-04 DE=-2.13D-04 OVMax= 2.46D-03

 Cycle   7  Pass 0  IDiag  1:
 RMSU=  1.21D-05    CP:  9.67D-01  5.43D-01  9.23D-01  9.02D-01  1.13D+00
                    CP:  9.98D-01
 E= -2348.42311253420     Delta-E=       -0.000051418202 Rises=F Damp=F
 DIIS: error= 7.44D-05 at cycle   7 NSaved=   7.
 NSaved= 7 IEnMin= 7 EnMin= -2348.42311253420     IErMin= 7 ErrMin= 7.44D-05
 ErrMax= 7.44D-05  0.00D+00 EMaxC= 1.00D-01 BMatC= 2.31D-05 BMatP= 1.11D-04
 IDIUse=1 WtCom= 1.00D+00 WtEn= 0.00D+00
 Coeff-Com: -0.109D-03-0.784D-03-0.155D-01-0.432D-01-0.673D-01 0.272D+00
 Coeff-Com:  0.854D+00
 Coeff:     -0.109D-03-0.784D-03-0.155D-01-0.432D-01-0.673D-01 0.272D+00
 Coeff:      0.854D+00
 Gap=     0.300 Goal=   None    Shift=    0.000
 Gap=     0.300 Goal=   None    Shift=    0.000
 RMSDP=1.09D-05 MaxDP=6.10D-04 DE=-5.14D-05 OVMax= 1.66D-03

 Cycle   8  Pass 0  IDiag  1:
 RMSU=  5.47D-06    CP:  9.67D-01  5.42D-01  9.26D-01  9.14D-01  1.19D+00
                    CP:  1.24D+00  1.10D+00
 E= -2348.42312699431     Delta-E=       -0.000014460108 Rises=F Damp=F
 DIIS: error= 2.84D-05 at cycle   8 NSaved=   8.
 NSaved= 8 IEnMin= 8 EnMin= -2348.42312699431     IErMin= 8 ErrMin= 2.84D-05
 ErrMax= 2.84D-05  0.00D+00 EMaxC= 1.00D-01 BMatC= 4.94D-06 BMatP= 2.31D-05
 IDIUse=1 WtCom= 1.00D+00 WtEn= 0.00D+00
 Coeff-Com:  0.856D-03 0.115D-02-0.585D-02-0.268D-01-0.925D-01-0.417D-03
 Coeff-Com:  0.411D+00 0.713D+00
 Coeff:      0.856D-03 0.115D-02-0.585D-02-0.268D-01-0.925D-01-0.417D-03
 Coeff:      0.411D+00 0.713D+00
 Gap=     0.300 Goal=   None    Shift=    0.000
 Gap=     0.300 Goal=   None    Shift=    0.000
 RMSDP=4.43D-06 MaxDP=2.59D-04 DE=-1.45D-05 OVMax= 7.11D-04

 Initial convergence to 1.0D-05 achieved.  Increase integral accuracy.
 Cycle   9  Pass 1  IDiag  1:
 E= -2348.42263190729     Delta-E=        0.000495087021 Rises=F Damp=F
 DIIS: error= 1.32D-04 at cycle   1 NSaved=   1.
 NSaved= 1 IEnMin= 1 EnMin= -2348.42263190729     IErMin= 1 ErrMin= 1.32D-04
 ErrMax= 1.32D-04  0.00D+00 EMaxC= 1.00D-01 BMatC= 2.46D-05 BMatP= 2.46D-05
 IDIUse=3 WtCom= 9.99D-01 WtEn= 1.32D-03
 Coeff-Com:  0.100D+01
 Coeff-En:   0.100D+01
 Coeff:      0.100D+01
 Gap=     0.300 Goal=   None    Shift=    0.000
 Gap=     0.300 Goal=   None    Shift=    0.000
 RMSDP=4.43D-06 MaxDP=2.59D-04 DE= 4.95D-04 OVMax= 3.04D-04

 Cycle  10  Pass 1  IDiag  1:
 RMSU=  7.29D-05    CP:  1.00D+00
 E= -2348.42263693052     Delta-E=       -0.000005023234 Rises=F Damp=F
 DIIS: error= 1.18D-05 at cycle   2 NSaved=   2.
 NSaved= 2 IEnMin= 2 EnMin= -2348.42263693052     IErMin= 2 ErrMin= 1.18D-05
 ErrMax= 1.18D-05  0.00D+00 EMaxC= 1.00D-01 BMatC= 5.67D-07 BMatP= 2.46D-05
 IDIUse=1 WtCom= 1.00D+00 WtEn= 0.00D+00
 Coeff-Com:  0.107D-02 0.999D+00
 Coeff:      0.107D-02 0.999D+00
 Gap=     0.300 Goal=   None    Shift=    0.000
 Gap=     0.300 Goal=   None    Shift=    0.000
 RMSDP=4.09D-06 MaxDP=1.07D-04 DE=-5.02D-06 OVMax= 1.54D-04

 Cycle  11  Pass 1  IDiag  1:
 RMSU=  1.90D-06    CP:  1.00D+00  1.05D+00
 E= -2348.42263680397     Delta-E=        0.000000126553 Rises=F Damp=F
 DIIS: error= 1.55D-05 at cycle   3 NSaved=   3.
 NSaved= 3 IEnMin= 2 EnMin= -2348.42263693052     IErMin= 2 ErrMin= 1.18D-05
 ErrMax= 1.55D-05  0.00D+00 EMaxC= 1.00D-01 BMatC= 9.46D-07 BMatP= 5.67D-07
 IDIUse=1 WtCom= 1.00D+00 WtEn= 0.00D+00
 Coeff-Com: -0.217D-01 0.579D+00 0.442D+00
 Coeff:     -0.217D-01 0.579D+00 0.442D+00
 Gap=     0.300 Goal=   None    Shift=    0.000
 Gap=     0.300 Goal=   None    Shift=    0.000
 RMSDP=9.03D-07 MaxDP=7.35D-05 DE= 1.27D-07 OVMax= 9.89D-05

 Cycle  12  Pass 1  IDiag  1:
 RMSU=  6.44D-07    CP:  1.00D+00  1.05D+00  6.84D-01
 E= -2348.42263706069     Delta-E=       -0.000000256722 Rises=F Damp=F
 DIIS: error= 1.26D-06 at cycle   4 NSaved=   4.
 NSaved= 4 IEnMin= 4 EnMin= -2348.42263706069     IErMin= 4 ErrMin= 1.26D-06
 ErrMax= 1.26D-06  0.00D+00 EMaxC= 1.00D-01 BMatC= 1.22D-08 BMatP= 5.67D-07
 IDIUse=1 WtCom= 1.00D+00 WtEn= 0.00D+00
 Coeff-Com: -0.698D-02 0.151D+00 0.143D+00 0.713D+00
 Coeff:     -0.698D-02 0.151D+00 0.143D+00 0.713D+00
 Gap=     0.300 Goal=   None    Shift=    0.000
 Gap=     0.300 Goal=   None    Shift=    0.000
 RMSDP=1.96D-07 MaxDP=9.42D-06 DE=-2.57D-07 OVMax= 2.25D-05

 Cycle  13  Pass 1  IDiag  1:
 RMSU=  1.64D-07    CP:  1.00D+00  1.05D+00  7.27D-01  1.07D+00
 E= -2348.42263706850     Delta-E=       -0.000000007805 Rises=F Damp=F
 DIIS: error= 1.13D-06 at cycle   5 NSaved=   5.
 NSaved= 5 IEnMin= 5 EnMin= -2348.42263706850     IErMin= 5 ErrMin= 1.13D-06
 ErrMax= 1.13D-06  0.00D+00 EMaxC= 1.00D-01 BMatC= 3.96D-09 BMatP= 1.22D-08
 IDIUse=1 WtCom= 1.00D+00 WtEn= 0.00D+00
 Coeff-Com:  0.499D-02-0.149D+00-0.100D+00 0.306D+00 0.938D+00
 Coeff:      0.499D-02-0.149D+00-0.100D+00 0.306D+00 0.938D+00
 Gap=     0.300 Goal=   None    Shift=    0.000
 Gap=     0.300 Goal=   None    Shift=    0.000
 RMSDP=1.70D-07 MaxDP=8.43D-06 DE=-7.81D-09 OVMax= 2.46D-05

 Cycle  14  Pass 1  IDiag  1:
 RMSU=  1.15D-07    CP:  1.00D+00  1.05D+00  7.55D-01  1.21D+00  1.30D+00
 E= -2348.42263707198     Delta-E=       -0.000000003489 Rises=F Damp=F
 DIIS: error= 2.47D-07 at cycle   6 NSaved=   6.
 NSaved= 6 IEnMin= 6 EnMin= -2348.42263707198     IErMin= 6 ErrMin= 2.47D-07
 ErrMax= 2.47D-07  0.00D+00 EMaxC= 1.00D-01 BMatC= 4.45D-10 BMatP= 3.96D-09
 IDIUse=1 WtCom= 1.00D+00 WtEn= 0.00D+00
 Coeff-Com:  0.249D-02-0.671D-01-0.498D-01 0.591D-02 0.302D+00 0.807D+00
 Coeff:      0.249D-02-0.671D-01-0.498D-01 0.591D-02 0.302D+00 0.807D+00
 Gap=     0.300 Goal=   None    Shift=    0.000
 Gap=     0.300 Goal=   None    Shift=    0.000
 RMSDP=5.29D-08 MaxDP=2.48D-06 DE=-3.49D-09 OVMax= 8.80D-06

 Cycle  15  Pass 1  IDiag  1:
 RMSU=  2.89D-08    CP:  1.00D+00  1.05D+00  7.59D-01  1.23D+00  1.49D+00
                    CP:  1.23D+00
 E= -2348.42263707231     Delta-E=       -0.000000000329 Rises=F Damp=F
 DIIS: error= 1.86D-07 at cycle   7 NSaved=   7.
 NSaved= 7 IEnMin= 7 EnMin= -2348.42263707231     IErMin= 7 ErrMin= 1.86D-07
 ErrMax= 1.86D-07  0.00D+00 EMaxC= 1.00D-01 BMatC= 1.06D-10 BMatP= 4.45D-10
 IDIUse=1 WtCom= 1.00D+00 WtEn= 0.00D+00
 Coeff-Com: -0.604D-04 0.475D-02 0.147D-02-0.655D-01-0.816D-01 0.352D+00
 Coeff-Com:  0.789D+00
 Coeff:     -0.604D-04 0.475D-02 0.147D-02-0.655D-01-0.816D-01 0.352D+00
 Coeff:      0.789D+00
 Gap=     0.300 Goal=   None    Shift=    0.000
 Gap=     0.300 Goal=   None    Shift=    0.000
 RMSDP=2.44D-08 MaxDP=1.28D-06 DE=-3.29D-10 OVMax= 3.60D-06

 Cycle  16  Pass 1  IDiag  1:
 RMSU=  9.82D-09    CP:  1.00D+00  1.05D+00  7.58D-01  1.24D+00  1.56D+00
                    CP:  1.38D+00  9.12D-01
 E= -2348.42263707221     Delta-E=        0.000000000104 Rises=F Damp=F
 DIIS: error= 3.71D-08 at cycle   8 NSaved=   8.
 NSaved= 8 IEnMin= 7 EnMin= -2348.42263707231     IErMin= 8 ErrMin= 3.71D-08
 ErrMax= 3.71D-08  0.00D+00 EMaxC= 1.00D-01 BMatC= 1.24D-11 BMatP= 1.06D-10
 IDIUse=1 WtCom= 1.00D+00 WtEn= 0.00D+00
 Coeff-Com: -0.218D-03 0.744D-02 0.449D-02-0.338D-01-0.652D-01 0.112D+00
 Coeff-Com:  0.390D+00 0.586D+00
 Coeff:     -0.218D-03 0.744D-02 0.449D-02-0.338D-01-0.652D-01 0.112D+00
 Coeff:      0.390D+00 0.586D+00
 Gap=     0.300 Goal=   None    Shift=    0.000
 Gap=     0.300 Goal=   None    Shift=    0.000
 RMSDP=5.32D-09 MaxDP=2.68D-07 DE= 1.04D-10 OVMax= 4.85D-07

 SCF Done:  E(ULC-wPBE) =  -2348.42263707     A.U. after   16 cycles
            NFock= 16  Conv=0.53D-08     -V/T= 2.0042
 <Sx>= 0.0000 <Sy>= 0.0000 <Sz>= 0.0000 <S**2>=-0.0000 S=-0.0000
 <L.S>= 0.000000000000E+00
 KE= 2.338617689484D+03 PE=-1.165761907601D+04 EE= 3.899710624030D+03
 Annihilation of the first spin contaminant:
 S**2 before annihilation    -0.0000,   after     0.0000
 Leave Link  502 at Sun Jul 26 12:27:30 2020, MaxMem=  4026531840 cpu:            2903.9 elap:             364.3
 (Enter /opt/ohpc/pub/libs/gaussian/g16-A.03/sandybridge/g16/l601.exe)
 Copying SCF densities to generalized density rwf, IOpCl= 1 IROHF=0.

 **********************************************************************

            Population analysis using the SCF density.

 **********************************************************************

 Orbital symmetries:
 Alpha Orbitals:
       Occupied  (A) (A) (A) (A) (A) (A) (A) (A) (A) (A) (A) (A)
                 (A) (A) (A) (A) (A) (A) (A) (A) (A) (A) (A) (A)
                 (A) (A) (A) (A) (A) (A) (A) (A) (A) (A) (A) (A)
                 (A) (A) (A) (A) (A) (A) (A) (A) (A) (A) (A) (A)
                 (A) (A) (A) (A) (A) (A) (A) (A) (A) (A) (A) (A)
                 (A) (A) (A) (A) (A) (A) (A) (A) (A) (A) (A) (A)
                 (A) (A) (A) (A) (A) (A) (A) (A) (A) (A) (A) (A)
                 (A) (A) (A) (A) (A) (A) (A) (A) (A) (A) (A) (A)
                 (A) (A) (A) (A) (A) (A) (A) (A) (A) (A) (A) (A)
                 (A) (A) (A) (A) (A) (A) (A) (A) (A) (A) (A) (A)
                 (A) (A) (A) (A)
       Virtual   (A) (A) (A) (A) (A) (A) (A) (A) (A) (A) (A) (A)
                 (A) (A) (A) (A) (A) (A) (A) (A) (A) (A) (A) (A)
                 (A) (A) (A) (A) (A) (A) (A) (A) (A) (A) (A) (A)
                 (A) (A) (A) (A) (A) (A) (A) (A) (A) (A) (A) (A)
                 (A) (A) (A) (A) (A) (A) (A) (A) (A) (A) (A) (A)
                 (A) (A) (A) (A) (A) (A) (A) (A) (A) (A) (A) (A)
                 (A) (A) (A) (A) (A) (A) (A) (A) (A) (A) (A) (A)
                 (A) (A) (A) (A) (A) (A) (A) (A) (A) (A) (A) (A)
                 (A) (A) (A) (A) (A) (A) (A) (A) (A) (A) (A) (A)
                 (A) (A) (A) (A) (A) (A) (A) (A) (A) (A) (A) (A)
                 (A) (A) (A) (A) (A) (A) (A) (A) (A) (A) (A) (A)
                 (A) (A) (A) (A) (A) (A) (A) (A) (A) (A) (A) (A)
                 (A) (A) (A) (A) (A) (A) (A) (A) (A) (A) (A) (A)
                 (A) (A) (A) (A) (A) (A) (A) (A) (A) (A) (A) (A)
                 (A) (A) (A) (A) (A) (A) (A) (A) (A) (A) (A) (A)
                 (A) (A) (A) (A) (A) (A) (A) (A) (A) (A) (A) (A)
                 (A) (A) (A) (A) (A) (A) (A) (A) (A) (A) (A) (A)
                 (A) (A) (A) (A) (A) (A) (A) (A) (A) (A) (A) (A)
                 (A) (A) (A) (A) (A) (A) (A) (A) (A) (A) (A) (A)
                 (A) (A) (A) (A) (A) (A) (A) (A) (A) (A) (A) (A)
                 (A) (A) (A) (A) (A) (A) (A) (A) (A) (A) (A) (A)
                 (A) (A) (A) (A) (A) (A) (A) (A) (A) (A) (A) (A)
                 (A) (A) (A) (A) (A) (A) (A) (A) (A) (A) (A) (A)
                 (A) (A) (A) (A) (A) (A) (A) (A) (A) (A) (A) (A)
                 (A) (A) (A) (A) (A) (A) (A) (A) (A) (A) (A) (A)
                 (A) (A) (A) (A) (A) (A) (A) (A) (A) (A) (A) (A)
                 (A) (A) (A) (A) (A) (A) (A) (A) (A) (A) (A) (A)
                 (A) (A) (A) (A) (A) (A) (A) (A) (A) (A) (A) (A)
                 (A) (A) (A) (A) (A) (A) (A) (A) (A) (A) (A) (A)
                 (A) (A) (A) (A) (A) (A) (A) (A) (A) (A) (A) (A)
                 (A) (A) (A) (A) (A) (A) (A) (A) (A) (A) (A) (A)
                 (A) (A) (A) (A) (A) (A) (A) (A) (A) (A) (A) (A)
                 (A) (A) (A) (A) (A) (A) (A) (A) (A) (A) (A) (A)
                 (A) (A) (A) (A) (A) (A) (A) (A) (A) (A) (A) (A)
                 (A) (A) (A) (A) (A) (A) (A) (A) (A) (A) (A) (A)
                 (A) (A) (A) (A) (A) (A) (A) (A) (A) (A) (A) (A)
                 (A) (A) (A) (A) (A) (A) (A) (A) (A) (A) (A) (A)
                 (A) (A) (A) (A) (A) (A)
 Beta  Orbitals:
       Occupied  (A) (A) (A) (A) (A) (A) (A) (A) (A) (A) (A) (A)
                 (A) (A) (A) (A) (A) (A) (A) (A) (A) (A) (A) (A)
                 (A) (A) (A) (A) (A) (A) (A) (A) (A) (A) (A) (A)
                 (A) (A) (A) (A) (A) (A) (A) (A) (A) (A) (A) (A)
                 (A) (A) (A) (A) (A) (A) (A) (A) (A) (A) (A) (A)
                 (A) (A) (A) (A) (A) (A) (A) (A) (A) (A) (A) (A)
                 (A) (A) (A) (A) (A) (A) (A) (A) (A) (A) (A) (A)
                 (A) (A) (A) (A) (A) (A) (A) (A) (A) (A) (A) (A)
                 (A) (A) (A) (A) (A) (A) (A) (A) (A) (A) (A) (A)
                 (A) (A) (A) (A) (A) (A) (A) (A) (A) (A) (A) (A)
                 (A) (A) (A) (A)
       Virtual   (A) (A) (A) (A) (A) (A) (A) (A) (A) (A) (A) (A)
                 (A) (A) (A) (A) (A) (A) (A) (A) (A) (A) (A) (A)
                 (A) (A) (A) (A) (A) (A) (A) (A) (A) (A) (A) (A)
                 (A) (A) (A) (A) (A) (A) (A) (A) (A) (A) (A) (A)
                 (A) (A) (A) (A) (A) (A) (A) (A) (A) (A) (A) (A)
                 (A) (A) (A) (A) (A) (A) (A) (A) (A) (A) (A) (A)
                 (A) (A) (A) (A) (A) (A) (A) (A) (A) (A) (A) (A)
                 (A) (A) (A) (A) (A) (A) (A) (A) (A) (A) (A) (A)
                 (A) (A) (A) (A) (A) (A) (A) (A) (A) (A) (A) (A)
                 (A) (A) (A) (A) (A) (A) (A) (A) (A) (A) (A) (A)
                 (A) (A) (A) (A) (A) (A) (A) (A) (A) (A) (A) (A)
                 (A) (A) (A) (A) (A) (A) (A) (A) (A) (A) (A) (A)
                 (A) (A) (A) (A) (A) (A) (A) (A) (A) (A) (A) (A)
                 (A) (A) (A) (A) (A) (A) (A) (A) (A) (A) (A) (A)
                 (A) (A) (A) (A) (A) (A) (A) (A) (A) (A) (A) (A)
                 (A) (A) (A) (A) (A) (A) (A) (A) (A) (A) (A) (A)
                 (A) (A) (A) (A) (A) (A) (A) (A) (A) (A) (A) (A)
                 (A) (A) (A) (A) (A) (A) (A) (A) (A) (A) (A) (A)
                 (A) (A) (A) (A) (A) (A) (A) (A) (A) (A) (A) (A)
                 (A) (A) (A) (A) (A) (A) (A) (A) (A) (A) (A) (A)
                 (A) (A) (A) (A) (A) (A) (A) (A) (A) (A) (A) (A)
                 (A) (A) (A) (A) (A) (A) (A) (A) (A) (A) (A) (A)
                 (A) (A) (A) (A) (A) (A) (A) (A) (A) (A) (A) (A)
                 (A) (A) (A) (A) (A) (A) (A) (A) (A) (A) (A) (A)
                 (A) (A) (A) (A) (A) (A) (A) (A) (A) (A) (A) (A)
                 (A) (A) (A) (A) (A) (A) (A) (A) (A) (A) (A) (A)
                 (A) (A) (A) (A) (A) (A) (A) (A) (A) (A) (A) (A)
                 (A) (A) (A) (A) (A) (A) (A) (A) (A) (A) (A) (A)
                 (A) (A) (A) (A) (A) (A) (A) (A) (A) (A) (A) (A)
                 (A) (A) (A) (A) (A) (A) (A) (A) (A) (A) (A) (A)
                 (A) (A) (A) (A) (A) (A) (A) (A) (A) (A) (A) (A)
                 (A) (A) (A) (A) (A) (A) (A) (A) (A) (A) (A) (A)
                 (A) (A) (A) (A) (A) (A) (A) (A) (A) (A) (A) (A)
                 (A) (A) (A) (A) (A) (A) (A) (A) (A) (A) (A) (A)
                 (A) (A) (A) (A) (A) (A) (A) (A) (A) (A) (A) (A)
                 (A) (A) (A) (A) (A) (A) (A) (A) (A) (A) (A) (A)
                 (A) (A) (A) (A) (A) (A) (A) (A) (A) (A) (A) (A)
                 (A) (A) (A) (A) (A) (A)
 The electronic state is 1-A.
 Alpha  occ. eigenvalues --  -88.24537 -88.24361 -88.24166 -10.08014 -10.07871
 Alpha  occ. eigenvalues --  -10.07793 -10.07685 -10.07676 -10.07188 -10.07074
 Alpha  occ. eigenvalues --  -10.06954 -10.06880 -10.06768 -10.06673 -10.06593
 Alpha  occ. eigenvalues --  -10.06574 -10.06066 -10.05960 -10.05709 -10.05675
 Alpha  occ. eigenvalues --  -10.05640 -10.05313 -10.05311 -10.05236 -10.05192
 Alpha  occ. eigenvalues --  -10.05067 -10.04973 -10.04916 -10.04818 -10.04812
 Alpha  occ. eigenvalues --  -10.04792 -10.04708 -10.04586  -7.85110  -7.84989
 Alpha  occ. eigenvalues --   -7.84663  -5.86997  -5.86891  -5.86570  -5.86495
 Alpha  occ. eigenvalues --   -5.86390  -5.86175  -5.86085  -5.86009  -5.85692
 Alpha  occ. eigenvalues --   -0.97856  -0.97526  -0.97011  -0.94854  -0.94088
 Alpha  occ. eigenvalues --   -0.93371  -0.88643  -0.87060  -0.85026  -0.83290
 Alpha  occ. eigenvalues --   -0.83142  -0.82836  -0.82334  -0.81785  -0.81221
 Alpha  occ. eigenvalues --   -0.80703  -0.79114  -0.77402  -0.71743  -0.71090
 Alpha  occ. eigenvalues --   -0.70502  -0.69828  -0.69433  -0.67943  -0.65114
 Alpha  occ. eigenvalues --   -0.64433  -0.64011  -0.63431  -0.63157  -0.62685
 Alpha  occ. eigenvalues --   -0.61497  -0.60450  -0.59697  -0.58495  -0.56121
 Alpha  occ. eigenvalues --   -0.55285  -0.54751  -0.54457  -0.54063  -0.53726
 Alpha  occ. eigenvalues --   -0.53435  -0.52345  -0.50990  -0.50607  -0.50403
 Alpha  occ. eigenvalues --   -0.49927  -0.49823  -0.49378  -0.48768  -0.48582
 Alpha  occ. eigenvalues --   -0.48040  -0.47794  -0.46940  -0.46483  -0.46248
 Alpha  occ. eigenvalues --   -0.45982  -0.45378  -0.45200  -0.44754  -0.44158
 Alpha  occ. eigenvalues --   -0.43355  -0.42524  -0.42156  -0.41947  -0.41505
 Alpha  occ. eigenvalues --   -0.41168  -0.40835  -0.37833  -0.36872  -0.35132
 Alpha  occ. eigenvalues --   -0.34110  -0.33982  -0.33616  -0.33423  -0.33309
 Alpha  occ. eigenvalues --   -0.33125  -0.31396  -0.29916  -0.28654
 Alpha virt. eigenvalues --    0.01344   0.02702   0.03736   0.04007   0.04908
 Alpha virt. eigenvalues --    0.05827   0.06790   0.08474   0.09827   0.11391
 Alpha virt. eigenvalues --    0.11749   0.11895   0.12453   0.12993   0.13724
 Alpha virt. eigenvalues --    0.14052   0.14357   0.15332   0.15643   0.16329
 Alpha virt. eigenvalues --    0.16947   0.17613   0.17934   0.18012   0.18635
 Alpha virt. eigenvalues --    0.19177   0.19530   0.19722   0.20439   0.20895
 Alpha virt. eigenvalues --    0.21468   0.21807   0.22213   0.22757   0.22893
 Alpha virt. eigenvalues --    0.23164   0.23765   0.24035   0.24608   0.25065
 Alpha virt. eigenvalues --    0.25401   0.28982   0.29488   0.30304   0.30380
 Alpha virt. eigenvalues --    0.30896   0.31565   0.32544   0.32707   0.33964
 Alpha virt. eigenvalues --    0.34206   0.34927   0.35387   0.35959   0.36530
 Alpha virt. eigenvalues --    0.37365   0.37968   0.38408   0.38506   0.39330
 Alpha virt. eigenvalues --    0.39830   0.40278   0.41888   0.43919   0.46719
 Alpha virt. eigenvalues --    0.46920   0.47822   0.47925   0.48387   0.48910
 Alpha virt. eigenvalues --    0.49077   0.50152   0.50828   0.51232   0.51500
 Alpha virt. eigenvalues --    0.51745   0.52314   0.52754   0.52813   0.53134
 Alpha virt. eigenvalues --    0.53495   0.53528   0.53842   0.53989   0.54189
 Alpha virt. eigenvalues --    0.54325   0.54494   0.54902   0.55268   0.55564
 Alpha virt. eigenvalues --    0.55903   0.55998   0.56365   0.56644   0.56815
 Alpha virt. eigenvalues --    0.57006   0.57336   0.57649   0.57859   0.58056
 Alpha virt. eigenvalues --    0.58376   0.58871   0.58983   0.59182   0.59554
 Alpha virt. eigenvalues --    0.59581   0.59925   0.60121   0.60378   0.60670
 Alpha virt. eigenvalues --    0.61166   0.61318   0.61757   0.61876   0.61992
 Alpha virt. eigenvalues --    0.62330   0.62547   0.63026   0.63460   0.63966
 Alpha virt. eigenvalues --    0.64063   0.64522   0.64927   0.65108   0.65857
 Alpha virt. eigenvalues --    0.66351   0.66682   0.66986   0.67416   0.67960
 Alpha virt. eigenvalues --    0.68247   0.68628   0.69250   0.69755   0.70444
 Alpha virt. eigenvalues --    0.70609   0.70767   0.71690   0.71965   0.72240
 Alpha virt. eigenvalues --    0.72771   0.73023   0.73173   0.73194   0.74085
 Alpha virt. eigenvalues --    0.74327   0.75340   0.75515   0.75714   0.76105
 Alpha virt. eigenvalues --    0.76471   0.76787   0.77120   0.77260   0.77801
 Alpha virt. eigenvalues --    0.78232   0.78361   0.78509   0.79167   0.79876
 Alpha virt. eigenvalues --    0.80447   0.80741   0.81397   0.82315   0.82836
 Alpha virt. eigenvalues --    0.82894   0.83648   0.84461   0.85090   0.85383
 Alpha virt. eigenvalues --    0.87273   0.87972   0.88706   0.89600   0.90057
 Alpha virt. eigenvalues --    0.90754   0.91043   0.92001   0.92787   0.93539
 Alpha virt. eigenvalues --    0.94136   0.94850   0.95183   0.95709   0.96148
 Alpha virt. eigenvalues --    0.96612   0.96889   0.97631   0.98448   0.98724
 Alpha virt. eigenvalues --    0.99258   1.00020   1.00208   1.00637   1.00971
 Alpha virt. eigenvalues --    1.01693   1.02027   1.02440   1.02712   1.04046
 Alpha virt. eigenvalues --    1.04198   1.04835   1.05352   1.05690   1.05780
 Alpha virt. eigenvalues --    1.06001   1.06131   1.06390   1.07070   1.07471
 Alpha virt. eigenvalues --    1.07874   1.08917   1.09042   1.09826   1.10236
 Alpha virt. eigenvalues --    1.10720   1.11135   1.11434   1.11505   1.12178
 Alpha virt. eigenvalues --    1.12584   1.13071   1.13335   1.13460   1.14364
 Alpha virt. eigenvalues --    1.14885   1.15532   1.16364   1.16793   1.17182
 Alpha virt. eigenvalues --    1.17327   1.18051   1.19022   1.19188   1.20691
 Alpha virt. eigenvalues --    1.21098   1.21606   1.22516   1.23974   1.24447
 Alpha virt. eigenvalues --    1.25597   1.26716   1.27336   1.27663   1.28548
 Alpha virt. eigenvalues --    1.28702   1.29752   1.30665   1.31919   1.32301
 Alpha virt. eigenvalues --    1.32711   1.33719   1.36866   1.37048   1.38353
 Alpha virt. eigenvalues --    1.38963   1.39179   1.39943   1.41447   1.42943
 Alpha virt. eigenvalues --    1.43489   1.44321   1.45228   1.46399   1.48335
 Alpha virt. eigenvalues --    1.48503   1.49374   1.50362   1.50672   1.51483
 Alpha virt. eigenvalues --    1.51822   1.52077   1.52687   1.53046   1.53877
 Alpha virt. eigenvalues --    1.54309   1.54747   1.55666   1.55954   1.56413
 Alpha virt. eigenvalues --    1.57004   1.57644   1.58104   1.58784   1.59072
 Alpha virt. eigenvalues --    1.59482   1.59739   1.61319   1.62166   1.62605
 Alpha virt. eigenvalues --    1.64078   1.64829   1.64846   1.65225   1.65625
 Alpha virt. eigenvalues --    1.66260   1.66484   1.66669   1.66891   1.67398
 Alpha virt. eigenvalues --    1.67553   1.68019   1.68502   1.68928   1.69233
 Alpha virt. eigenvalues --    1.69723   1.70198   1.70665   1.70704   1.70938
 Alpha virt. eigenvalues --    1.72308   1.72798   1.73352   1.73773   1.74621
 Alpha virt. eigenvalues --    1.74928   1.76122   1.76462   1.76637   1.77129
 Alpha virt. eigenvalues --    1.78100   1.78338   1.78541   1.78809   1.79362
 Alpha virt. eigenvalues --    1.79751   1.80349   1.80874   1.81858   1.82002
 Alpha virt. eigenvalues --    1.82719   1.83120   1.83411   1.83950   1.84635
 Alpha virt. eigenvalues --    1.84957   1.85341   1.86895   1.87521   1.87983
 Alpha virt. eigenvalues --    1.88240   1.88425   1.89364   1.89725   1.89819
 Alpha virt. eigenvalues --    1.90666   1.91131   1.91812   1.92510   1.92908
 Alpha virt. eigenvalues --    1.93005   1.93584   1.94113   1.94429   1.95213
 Alpha virt. eigenvalues --    1.95630   1.96210   1.96733   1.97644   1.98391
 Alpha virt. eigenvalues --    1.98527   1.99709   1.99827   2.00525   2.01623
 Alpha virt. eigenvalues --    2.02228   2.02635   2.03599   2.04118   2.04579
 Alpha virt. eigenvalues --    2.04769   2.05439   2.05554   2.06282   2.07033
 Alpha virt. eigenvalues --    2.08007   2.08345   2.09749   2.10237   2.11705
 Alpha virt. eigenvalues --    2.11826   2.12367   2.12910   2.13680   2.14448
 Alpha virt. eigenvalues --    2.15569   2.16378   2.18028   2.20347   2.21057
 Alpha virt. eigenvalues --    2.22039   2.23264   2.25264   2.25955   2.27424
 Alpha virt. eigenvalues --    2.28511   2.29048   2.31353   2.31653   2.33445
 Alpha virt. eigenvalues --    2.34174   2.36124   2.37485   2.39412   2.40564
 Alpha virt. eigenvalues --    2.42817   2.43466   2.44309   2.44948   2.46679
 Alpha virt. eigenvalues --    2.47885   2.48626   2.49269   2.50094   2.51441
 Alpha virt. eigenvalues --    2.52526   2.56987   2.57500   2.57747   2.59242
 Alpha virt. eigenvalues --    2.60521   2.62289   2.65370   2.67693   2.68244
 Alpha virt. eigenvalues --    2.68623   2.69834   2.72912   2.74263   2.74994
 Alpha virt. eigenvalues --    2.76232   2.77114   2.77354   2.77994   2.78499
 Alpha virt. eigenvalues --    2.81429   2.82651   2.83705   2.84624   2.86261
 Alpha virt. eigenvalues --    2.90677   2.97289   2.99405   3.00264   3.13819
 Alpha virt. eigenvalues --    3.26107   3.26847   3.50564   3.55225   3.62897
  Beta  occ. eigenvalues --  -88.24537 -88.24361 -88.24166 -10.08014 -10.07871
  Beta  occ. eigenvalues --  -10.07793 -10.07685 -10.07676 -10.07188 -10.07074
  Beta  occ. eigenvalues --  -10.06954 -10.06880 -10.06768 -10.06673 -10.06593
  Beta  occ. eigenvalues --  -10.06574 -10.06066 -10.05960 -10.05709 -10.05675
  Beta  occ. eigenvalues --  -10.05640 -10.05313 -10.05311 -10.05236 -10.05192
  Beta  occ. eigenvalues --  -10.05067 -10.04973 -10.04916 -10.04818 -10.04812
  Beta  occ. eigenvalues --  -10.04792 -10.04708 -10.04586  -7.85110  -7.84989
  Beta  occ. eigenvalues --   -7.84663  -5.86997  -5.86891  -5.86570  -5.86495
  Beta  occ. eigenvalues --   -5.86390  -5.86175  -5.86085  -5.86009  -5.85692
  Beta  occ. eigenvalues --   -0.97856  -0.97526  -0.97011  -0.94854  -0.94088
  Beta  occ. eigenvalues --   -0.93371  -0.88643  -0.87060  -0.85026  -0.83290
  Beta  occ. eigenvalues --   -0.83142  -0.82836  -0.82334  -0.81785  -0.81221
  Beta  occ. eigenvalues --   -0.80703  -0.79114  -0.77402  -0.71743  -0.71090
  Beta  occ. eigenvalues --   -0.70502  -0.69828  -0.69433  -0.67943  -0.65114
  Beta  occ. eigenvalues --   -0.64433  -0.64011  -0.63431  -0.63157  -0.62685
  Beta  occ. eigenvalues --   -0.61497  -0.60450  -0.59697  -0.58495  -0.56121
  Beta  occ. eigenvalues --   -0.55285  -0.54751  -0.54457  -0.54063  -0.53726
  Beta  occ. eigenvalues --   -0.53435  -0.52345  -0.50990  -0.50607  -0.50403
  Beta  occ. eigenvalues --   -0.49927  -0.49823  -0.49378  -0.48768  -0.48582
  Beta  occ. eigenvalues --   -0.48040  -0.47794  -0.46940  -0.46483  -0.46248
  Beta  occ. eigenvalues --   -0.45982  -0.45378  -0.45200  -0.44754  -0.44158
  Beta  occ. eigenvalues --   -0.43355  -0.42524  -0.42156  -0.41947  -0.41505
  Beta  occ. eigenvalues --   -0.41168  -0.40835  -0.37833  -0.36872  -0.35132
  Beta  occ. eigenvalues --   -0.34110  -0.33982  -0.33616  -0.33423  -0.33309
  Beta  occ. eigenvalues --   -0.33125  -0.31396  -0.29916  -0.28654
  Beta virt. eigenvalues --    0.01344   0.02702   0.03736   0.04007   0.04908
  Beta virt. eigenvalues --    0.05827   0.06790   0.08474   0.09827   0.11391
  Beta virt. eigenvalues --    0.11749   0.11895   0.12453   0.12993   0.13724
  Beta virt. eigenvalues --    0.14052   0.14357   0.15332   0.15643   0.16329
  Beta virt. eigenvalues --    0.16947   0.17613   0.17934   0.18012   0.18635
  Beta virt. eigenvalues --    0.19177   0.19530   0.19722   0.20439   0.20895
  Beta virt. eigenvalues --    0.21468   0.21807   0.22213   0.22757   0.22893
  Beta virt. eigenvalues --    0.23164   0.23765   0.24035   0.24608   0.25065
  Beta virt. eigenvalues --    0.25401   0.28982   0.29488   0.30304   0.30380
  Beta virt. eigenvalues --    0.30896   0.31565   0.32544   0.32707   0.33964
  Beta virt. eigenvalues --    0.34206   0.34927   0.35387   0.35959   0.36530
  Beta virt. eigenvalues --    0.37365   0.37968   0.38408   0.38506   0.39330
  Beta virt. eigenvalues --    0.39830   0.40278   0.41888   0.43919   0.46719
  Beta virt. eigenvalues --    0.46920   0.47822   0.47925   0.48387   0.48910
  Beta virt. eigenvalues --    0.49077   0.50152   0.50828   0.51232   0.51500
  Beta virt. eigenvalues --    0.51745   0.52314   0.52754   0.52813   0.53134
  Beta virt. eigenvalues --    0.53495   0.53528   0.53842   0.53989   0.54189
  Beta virt. eigenvalues --    0.54325   0.54494   0.54902   0.55268   0.55564
  Beta virt. eigenvalues --    0.55903   0.55998   0.56365   0.56644   0.56815
  Beta virt. eigenvalues --    0.57006   0.57336   0.57649   0.57859   0.58056
  Beta virt. eigenvalues --    0.58376   0.58871   0.58983   0.59182   0.59554
  Beta virt. eigenvalues --    0.59581   0.59925   0.60121   0.60378   0.60670
  Beta virt. eigenvalues --    0.61166   0.61318   0.61757   0.61876   0.61992
  Beta virt. eigenvalues --    0.62330   0.62547   0.63026   0.63460   0.63966
  Beta virt. eigenvalues --    0.64063   0.64522   0.64927   0.65108   0.65857
  Beta virt. eigenvalues --    0.66351   0.66682   0.66986   0.67416   0.67960
  Beta virt. eigenvalues --    0.68247   0.68628   0.69250   0.69755   0.70444
  Beta virt. eigenvalues --    0.70609   0.70767   0.71690   0.71965   0.72240
  Beta virt. eigenvalues --    0.72771   0.73023   0.73173   0.73194   0.74085
[...]
     5   Atom        0.000000      0.000000     -0.000000
     6   Atom       -0.000000     -0.000000      0.000000
     7   Atom       -0.000000     -0.000000      0.000000
     8   Atom       -0.000000     -0.000000     -0.000000
     9   Atom        0.000000      0.000000      0.000000
    10   Atom        0.000000      0.000000      0.000000
    11   Atom        0.000000      0.000000     -0.000000
    12   Atom        0.000000      0.000000      0.000000
    13   Atom        0.000000     -0.000000     -0.000000
    14   Atom       -0.000000      0.000000      0.000000
    15   Atom        0.000000      0.000000      0.000000
    16   Atom        0.000000     -0.000000      0.000000
    17   Atom       -0.000000      0.000000     -0.000000
    18   Atom        0.000000      0.000000      0.000000
    19   Atom       -0.000000      0.000000     -0.000000
    20   Atom        0.000000     -0.000000     -0.000000
    21   Atom       -0.000000     -0.000000     -0.000000
    22   Atom       -0.000000     -0.000000      0.000000
    23   Atom       -0.000000      0.000000      0.000000
    24   Atom       -0.000000      0.000000      0.000000
    25   Atom       -0.000000     -0.000000     -0.000000
    26   Atom        0.000000     -0.000000     -0.000000
    27   Atom        0.000000      0.000000      0.000000
    28   Atom       -0.000000      0.000000      0.000000
    29   Atom        0.000000     -0.000000     -0.000000
    30   Atom        0.000000     -0.000000      0.000000
    31   Atom        0.000000      0.000000      0.000000
    32   Atom       -0.000000      0.000000     -0.000000
    33   Atom        0.000000      0.000000     -0.000000
    34   Atom        0.000000      0.000000     -0.000000
    35   Atom       -0.000000      0.000000      0.000000
    36   Atom       -0.000000      0.000000     -0.000000
    37   Atom       -0.000000      0.000000     -0.000000
    38   Atom       -0.000000      0.000000     -0.000000
    39   Atom        0.000000      0.000000      0.000000
    40   Atom       -0.000000     -0.000000      0.000000
    41   Atom       -0.000000      0.000000      0.000000
    42   Atom        0.000000     -0.000000     -0.000000
    43   Atom        0.000000      0.000000     -0.000000
    44   Atom        0.000000     -0.000000     -0.000000
    45   Atom        0.000000      0.000000      0.000000
    46   Atom       -0.000000     -0.000000     -0.000000
    47   Atom        0.000000     -0.000000     -0.000000
    48   Atom       -0.000000      0.000000     -0.000000
    49   Atom       -0.000000      0.000000      0.000000
    50   Atom        0.000000     -0.000000      0.000000
    51   Atom       -0.000000      0.000000      0.000000
    52   Atom        0.000000      0.000000     -0.000000
    53   Atom        0.000000     -0.000000      0.000000
 --------------------------------------------------------


 ---------------------------------------------------------------------------------
              Anisotropic Spin Dipole Couplings in Principal Axis System
 ---------------------------------------------------------------------------------

       Atom             a.u.   MegaHertz   Gauss  10(-4) cm-1        Axes

              Baa    -0.0000    -0.000    -0.000    -0.000  0.9674 -0.2504 -0.0385
     1 C(13)  Bbb     0.0000     0.000     0.000     0.000 -0.0372 -0.2909  0.9560
              Bcc     0.0000     0.000     0.000     0.000  0.2506  0.9234  0.2908
 
              Baa    -0.0000    -0.000    -0.000    -0.000  0.9188  0.1218 -0.3755
     2 C(13)  Bbb    -0.0000    -0.000    -0.000    -0.000  0.3370  0.2535  0.9067
              Bcc     0.0000     0.000     0.000     0.000 -0.2057  0.9596 -0.1918
 
              Baa    -0.0000    -0.000    -0.000    -0.000  0.9202 -0.3650  0.1412
     3 C(13)  Bbb     0.0000     0.000     0.000     0.000  0.3905  0.8315 -0.3951
              Bcc     0.0000     0.000     0.000     0.000  0.0268  0.4187  0.9077
 
              Baa    -0.0000    -0.000    -0.000    -0.000  0.1747  0.2424  0.9543
     4 C(13)  Bbb     0.0000     0.000     0.000     0.000  0.9519  0.2061 -0.2266
              Bcc     0.0000     0.000     0.000     0.000 -0.2517  0.9480 -0.1948
 
              Baa    -0.0000    -0.000    -0.000    -0.000 -0.3703  0.5860  0.7208
     5 C(13)  Bbb    -0.0000    -0.000    -0.000    -0.000  0.0845  0.7940 -0.6020
              Bcc     0.0000     0.000     0.000     0.000  0.9251  0.1620  0.3435
 
              Baa    -0.0000    -0.000    -0.000    -0.000  0.1779  0.8288 -0.5306
     6 C(13)  Bbb    -0.0000    -0.000    -0.000    -0.000  0.8586  0.1327  0.4952
              Bcc     0.0000     0.000     0.000     0.000 -0.4808  0.5436  0.6880
 
              Baa    -0.0000    -0.000    -0.000    -0.000  0.1525 -0.3195  0.9352
     7 C(13)  Bbb    -0.0000    -0.000    -0.000    -0.000  0.2603  0.9259  0.2739
              Bcc     0.0000     0.000     0.000     0.000  0.9534 -0.2017 -0.2243
 
              Baa    -0.0000    -0.000    -0.000    -0.000  0.5911  0.7782  0.2123
     8 C(13)  Bbb     0.0000     0.000     0.000     0.000  0.8040 -0.5897 -0.0771
              Bcc     0.0000     0.000     0.000     0.000 -0.0651 -0.2162  0.9742
 
              Baa    -0.0000    -0.000    -0.000    -0.000  0.0194 -0.1522  0.9882
     9 C(13)  Bbb    -0.0000    -0.000    -0.000    -0.000  0.9056 -0.4162 -0.0819
              Bcc     0.0000     0.000     0.000     0.000  0.4238  0.8964  0.1297
 
              Baa    -0.0000    -0.000    -0.000    -0.000 -0.4235 -0.1323  0.8962
    10 C(13)  Bbb    -0.0000    -0.000    -0.000    -0.000  0.9018 -0.1558  0.4032
              Bcc     0.0000     0.000     0.000     0.000  0.0863  0.9789  0.1853
 
              Baa    -0.0000    -0.000    -0.000    -0.000 -0.1426  0.9467  0.2887
    11 S(33)  Bbb    -0.0000    -0.000    -0.000    -0.000  0.0266 -0.2879  0.9573
              Bcc     0.0000     0.000     0.000     0.000  0.9894  0.1442  0.0159
 
              Baa    -0.0000    -0.000    -0.000    -0.000 -0.1631  0.9673 -0.1945
    12 C(13)  Bbb     0.0000     0.000     0.000     0.000  0.9339  0.0878 -0.3466
              Bcc     0.0000     0.000     0.000     0.000  0.3182  0.2382  0.9176
 
              Baa    -0.0000    -0.000    -0.000    -0.000 -0.1312  0.6196  0.7738
    13 C(13)  Bbb    -0.0000    -0.000    -0.000    -0.000 -0.2305  0.7401 -0.6317
              Bcc     0.0000     0.000     0.000     0.000  0.9642  0.2612 -0.0458
 
              Baa    -0.0000    -0.000    -0.000    -0.000  0.2106  0.8005 -0.5612
    14 C(13)  Bbb     0.0000     0.000     0.000     0.000 -0.0655  0.5843  0.8089
              Bcc     0.0000     0.000     0.000     0.000  0.9754 -0.1336  0.1755
 
              Baa    -0.0000    -0.000    -0.000    -0.000 -0.2937  0.9474 -0.1271
    15 C(13)  Bbb     0.0000     0.000     0.000     0.000 -0.4237 -0.0098  0.9058
              Bcc     0.0000     0.000     0.000     0.000  0.8569  0.3199  0.4043
 
              Baa    -0.0000    -0.000    -0.000    -0.000  0.5157 -0.2231  0.8272
    16 C(13)  Bbb     0.0000     0.000     0.000     0.000 -0.5674  0.6345  0.5249
              Bcc     0.0000     0.000     0.000     0.000  0.6420  0.7400 -0.2006
 
              Baa    -0.0000    -0.000    -0.000    -0.000 -0.2555  0.3539  0.8997
    17 C(13)  Bbb     0.0000     0.000     0.000     0.000  0.8025  0.5966 -0.0068
              Bcc     0.0000     0.000     0.000     0.000 -0.5392  0.7203 -0.4364
 
              Baa    -0.0000    -0.000    -0.000    -0.000  0.0765 -0.2579  0.9631
    18 C(13)  Bbb    -0.0000    -0.000    -0.000    -0.000 -0.4109  0.8720  0.2661
              Bcc     0.0000     0.000     0.000     0.000  0.9085  0.4161  0.0392
 
              Baa    -0.0000    -0.000    -0.000    -0.000  0.1774  0.9835  0.0359
    19 C(13)  Bbb    -0.0000    -0.000    -0.000    -0.000 -0.1467 -0.0096  0.9891
              Bcc     0.0000     0.000     0.000     0.000  0.9731 -0.1807  0.1426
 
              Baa    -0.0000    -0.000    -0.000    -0.000 -0.2092  0.9339  0.2899
    20 C(13)  Bbb     0.0000     0.000     0.000     0.000  0.8931  0.0617  0.4456
              Bcc     0.0000     0.000     0.000     0.000 -0.3983 -0.3521  0.8470
 
              Baa    -0.0000    -0.000    -0.000    -0.000  0.5462  0.8326  0.0917
    21 C(13)  Bbb    -0.0000    -0.000    -0.000    -0.000  0.0107 -0.1164  0.9931
              Bcc     0.0000     0.000     0.000     0.000  0.8376 -0.5415 -0.0725
 
              Baa    -0.0000    -0.000    -0.000    -0.000  0.8960  0.4440  0.0102
    22 S(33)  Bbb    -0.0000    -0.000    -0.000    -0.000  0.1138 -0.2517  0.9611
              Bcc     0.0000     0.000     0.000     0.000 -0.4293  0.8600  0.2760
 
              Baa    -0.0000    -0.000    -0.000    -0.000  0.4784  0.8457 -0.2365
    23 C(13)  Bbb     0.0000     0.000     0.000     0.000 -0.3513  0.4311  0.8311
              Bcc     0.0000     0.000     0.000     0.000  0.8048 -0.3145  0.5034
 
              Baa    -0.0000    -0.000    -0.000    -0.000  0.0217  0.9094 -0.4153
    24 C(13)  Bbb     0.0000     0.000     0.000     0.000 -0.0091  0.4156  0.9095
              Bcc     0.0000     0.000     0.000     0.000  0.9997 -0.0160  0.0174
 
              Baa    -0.0000    -0.000    -0.000    -0.000  0.7145  0.2569  0.6508
    25 C(13)  Bbb    -0.0000    -0.000    -0.000    -0.000  0.6972 -0.3391 -0.6315
              Bcc     0.0000     0.000     0.000     0.000  0.0585  0.9050 -0.4214
 
              Baa    -0.0000    -0.000    -0.000    -0.000  0.1235  0.2913  0.9486
    26 C(13)  Bbb    -0.0000    -0.000    -0.000    -0.000  0.7577 -0.6449  0.0994
              Bcc     0.0000     0.000     0.000     0.000  0.6408  0.7065 -0.3004
 
              Baa    -0.0000    -0.000    -0.000    -0.000  0.8338 -0.5485  0.0633
    27 C(13)  Bbb    -0.0000    -0.000    -0.000    -0.000  0.5487  0.8105 -0.2050
              Bcc     0.0000     0.000     0.000     0.000  0.0611  0.2057  0.9767
 
              Baa    -0.0000    -0.000    -0.000    -0.000  0.6828  0.6674 -0.2973
    28 C(13)  Bbb     0.0000     0.000     0.000     0.000 -0.7037  0.7101 -0.0221
              Bcc     0.0000     0.000     0.000     0.000  0.1964  0.2243  0.9545
 
              Baa    -0.0000    -0.000    -0.000    -0.000  0.9757 -0.0671  0.2084
    29 C(13)  Bbb    -0.0000    -0.000    -0.000    -0.000 -0.0537  0.8496  0.5248
              Bcc     0.0000     0.000     0.000     0.000 -0.2122 -0.5232  0.8254
 
              Baa    -0.0000    -0.000    -0.000    -0.000  0.9957 -0.0562  0.0740
    30 C(13)  Bbb    -0.0000    -0.000    -0.000    -0.000 -0.0843 -0.2121  0.9736
              Bcc     0.0000     0.000     0.000     0.000  0.0390  0.9756  0.2159
 
              Baa    -0.0000    -0.000    -0.000    -0.000 -0.1009 -0.0949  0.9904
    31 C(13)  Bbb    -0.0000    -0.000    -0.000    -0.000  0.7272 -0.6864  0.0083
              Bcc     0.0000     0.000     0.000     0.000  0.6790  0.7210  0.1383
 
              Baa    -0.0000    -0.000    -0.000    -0.000  0.9853  0.1455 -0.0894
    32 C(13)  Bbb    -0.0000    -0.000    -0.000    -0.000 -0.0903  0.8883  0.4504
              Bcc     0.0000     0.000     0.000     0.000  0.1450 -0.4357  0.8883
 
              Baa    -0.0000    -0.000    -0.000    -0.000  0.5910 -0.5787 -0.5619
    33 S(33)  Bbb     0.0000     0.000     0.000     0.000  0.6445  0.7577 -0.1025
              Bcc     0.0000     0.000     0.000     0.000  0.4851 -0.3016  0.8208
 
              Baa    -0.0000    -0.000    -0.000    -0.000  0.9877 -0.0991 -0.1208
    34 H(1)   Bbb     0.0000     0.000     0.000     0.000  0.1110  0.9892  0.0958
              Bcc     0.0000     0.000     0.000     0.000  0.1100 -0.1080  0.9880
 
              Baa    -0.0000    -0.000    -0.000    -0.000  0.3640  0.8995 -0.2415
    35 H(1)   Bbb     0.0000     0.000     0.000     0.000  0.8277 -0.4313 -0.3589
              Bcc     0.0000     0.000     0.000     0.000  0.4270  0.0692  0.9016
 
              Baa    -0.0000    -0.000    -0.000    -0.000 -0.0470  0.4219  0.9054
    36 H(1)   Bbb    -0.0000    -0.000    -0.000    -0.000  0.3796  0.8460 -0.3744
              Bcc     0.0000     0.000     0.000     0.000  0.9239 -0.3261  0.1999
 
              Baa    -0.0000    -0.000    -0.000    -0.000  0.9740  0.2253  0.0247
    37 H(1)   Bbb    -0.0000    -0.000    -0.000    -0.000 -0.1111  0.3798  0.9184
              Bcc     0.0000     0.000     0.000     0.000 -0.1975  0.8972 -0.3950
 
              Baa    -0.0000    -0.000    -0.000    -0.000  0.8117  0.5761 -0.0968
    38 H(1)   Bbb     0.0000     0.000     0.000     0.000 -0.2731  0.5206  0.8089
              Bcc     0.0000     0.000     0.000     0.000 -0.5164  0.6302 -0.5799
 
              Baa    -0.0000    -0.000    -0.000    -0.000 -0.3858  0.9013  0.1972
    39 H(1)   Bbb    -0.0000    -0.000    -0.000    -0.000 -0.0317 -0.2265  0.9735
              Bcc     0.0000     0.000     0.000     0.000  0.9220  0.3694  0.1160
 
              Baa    -0.0000    -0.000    -0.000    -0.000  0.6956  0.7177  0.0320
    40 H(1)   Bbb    -0.0000    -0.000    -0.000    -0.000  0.0924 -0.1336  0.9867
              Bcc     0.0000     0.000     0.000     0.000  0.7124 -0.6834 -0.1592
 
              Baa    -0.0000    -0.000    -0.000    -0.000  0.5623  0.7873 -0.2530
    41 H(1)   Bbb     0.0000     0.000     0.000     0.000 -0.0442  0.3341  0.9415
              Bcc     0.0000     0.000     0.000     0.000  0.8258 -0.5182  0.2227
 
              Baa    -0.0000    -0.000    -0.000    -0.000  0.9506 -0.1707  0.2593
    42 H(1)   Bbb     0.0000     0.000     0.000     0.000 -0.0687  0.6988  0.7120
              Bcc     0.0000     0.000     0.000     0.000  0.3027  0.6946 -0.6526
 
              Baa    -0.0000    -0.000    -0.000    -0.000 -0.3973  0.3852  0.8329
    43 H(1)   Bbb     0.0000     0.000     0.000     0.000  0.9150  0.2357  0.3275
              Bcc     0.0000     0.000     0.000     0.000 -0.0702  0.8923 -0.4460
 
              Baa    -0.0000    -0.000    -0.000    -0.000  0.9350 -0.2222  0.2764
    44 H(1)   Bbb    -0.0000    -0.000    -0.000    -0.000 -0.0101  0.7623  0.6471
              Bcc     0.0000     0.000     0.000     0.000 -0.3545 -0.6079  0.7105
 
              Baa    -0.0000    -0.000    -0.000    -0.000  0.8677 -0.4010 -0.2938
    45 H(1)   Bbb     0.0000     0.000     0.000     0.000 -0.0550 -0.6649  0.7449
              Bcc     0.0000     0.000     0.000     0.000  0.4940  0.6302  0.5990
 
              Baa    -0.0000    -0.000    -0.000    -0.000  0.7880  0.6017  0.1303
    46 H(1)   Bbb     0.0000     0.000     0.000     0.000 -0.0663 -0.1275  0.9896
              Bcc     0.0000     0.000     0.000     0.000 -0.6121  0.7884  0.0606
 
              Baa    -0.0000    -0.000    -0.000    -0.000 -0.6832  0.6997 -0.2092
    47 H(1)   Bbb    -0.0000    -0.000    -0.000    -0.000  0.0589  0.3383  0.9392
              Bcc     0.0000     0.000     0.000     0.000  0.7279  0.6293 -0.2724
 
              Baa    -0.0000    -0.000    -0.000    -0.000  0.9099  0.4075 -0.0778
    48 H(1)   Bbb    -0.0000    -0.000    -0.000    -0.000 -0.0622  0.3193  0.9456
              Bcc     0.0000     0.000     0.000     0.000 -0.4102  0.8555 -0.3159
 
              Baa    -0.0000    -0.000    -0.000    -0.000  0.6845  0.6212 -0.3815
    49 H(1)   Bbb     0.0000     0.000     0.000     0.000 -0.0014  0.5244  0.8515
              Bcc     0.0000     0.000     0.000     0.000  0.7290 -0.5823  0.3598
 
              Baa    -0.0000    -0.000    -0.000    -0.000  0.7445 -0.5987  0.2956
    50 H(1)   Bbb     0.0000     0.000     0.000     0.000  0.6667  0.6907 -0.2801
              Bcc     0.0000     0.000     0.000     0.000 -0.0365  0.4056  0.9133
 
              Baa    -0.0000    -0.000    -0.000    -0.000 -0.5640 -0.3314  0.7564
    51 H(1)   Bbb    -0.0000    -0.000    -0.000    -0.000  0.7829  0.0766  0.6174
              Bcc     0.0000     0.000     0.000     0.000 -0.2625  0.9404  0.2163
 
              Baa    -0.0000    -0.000    -0.000    -0.000 -0.1788  0.3020  0.9364
    52 H(1)   Bbb    -0.0000    -0.000    -0.000    -0.000 -0.4065  0.8441 -0.3498
              Bcc     0.0000     0.000     0.000     0.000  0.8960  0.4432  0.0282
 
              Baa    -0.0000    -0.000    -0.000    -0.000  0.9198 -0.2053  0.3344
    53 H(1)   Bbb     0.0000     0.000     0.000     0.000 -0.3923 -0.4715  0.7898
              Bcc     0.0000     0.000     0.000     0.000  0.0045  0.8577  0.5142
 

 ---------------------------------------------------------------------------------

 No NMR shielding tensors so no spin-rotation constants.
 Leave Link  601 at Sun Jul 26 13:55:28 2020, MaxMem=  4026531840 cpu:               5.0 elap:               0.7
 (Enter /opt/ohpc/pub/libs/gaussian/g16-A.03/sandybridge/g16/l9999.exe)

 Test job not archived.
 1\1\GINC-SKYLAKE005\FOpt\ULC-wPBE\CC-pVDZ\C30H20S3\RDU230\26-Jul-2020\
 0\\#P uLC-wPBE/cc-pVDZ iop(3/107=0263700000, 3/108=0263700000) opt\\H2
 0 C30 S3\\0,1\C,-11.5245376357,0.2724493473,0.0218737386\C,-10.6103312
 841,1.197076654,-0.4865894245\C,-9.2505249158,0.8907804675,-0.52907228
 79\C,-8.7781768153,-0.3439338611,-0.0550746467\C,-9.7059314556,-1.2628
 818401,0.4629536086\C,-11.0662814378,-0.9592184183,0.4946381808\C,-7.3
 432084591,-0.6875479377,-0.1018672293\C,-6.7653074199,-1.924818528,-0.
 2782037423\C,-5.3432795009,-1.8886608348,-0.2711488204\C,-4.8309081341
 ,-0.6233846776,-0.0891016831\S,-6.1185841233,0.5293923899,0.0897112531
 \C,-3.4176167557,-0.2077557,-0.0278665823\C,-2.439445793,-1.0860141598
 ,0.4663836769\C,-1.1000483613,-0.7121827107,0.5161501542\C,-0.68509913
 48,0.5559628106,0.0778784423\C,-1.6631812385,1.434301049,-0.4163400914
 \C,-3.0025472511,1.0603637827,-0.4661955382\C,0.7281227396,0.971716724
 4,0.1392870259\C,1.2405252002,2.2370370479,0.3219286442\C,2.6622421561
 ,2.2732776996,0.3293478856\C,3.2404331366,1.0357964393,0.1525301226\S,
 2.0155408935,-0.1810361192,-0.0402426716\C,4.6738145321,0.6930306535,0
 .107023764\C,5.1486536919,-0.5514376942,0.5505613332\C,6.5065294601,-0
 .8554232198,0.51426222\C,7.4430984776,0.0727787039,0.0328741867\C,6.96
 72586856,1.3149233511,-0.4184763336\C,5.6100871031,1.6190622697,-0.382
 2487789\C,8.8870522494,-0.2291587963,0.001386659\C,9.9443313274,0.6399
 95871,0.1542876428\C,11.2158417561,0.0008644395,0.066662683\C,11.11047
 02926,-1.3475278007,-0.1535652043\S,9.4658138824,-1.8472275095,-0.2614
 223881\H,-12.5936840577,0.5124019473,0.0522123136\H,-10.9592770407,2.1
 658143759,-0.8630407662\H,-8.5426227669,1.6142877952,-0.9515406207\H,-
 9.3504426436,-2.2193593084,0.8632063452\H,-11.7747426452,-1.6889812908
 ,0.9040258895\H,-7.3503145106,-2.8341377851,-0.4451606806\H,-4.7117090
 524,-2.7673358899,-0.4326269222\H,-2.7384052241,-2.0700323218,0.844823
 5285\H,-0.3626256519,-1.4105363864,0.9299869525\H,-1.3642612078,2.4183
 540997,-0.7947578221\H,-3.740044297,1.7586576543,-0.879969748\H,0.6088
 759161,3.1155496293,0.4837308964\H,3.2465950303,3.1828196242,0.4973329
 018\H,4.4440497211,-1.2878988869,0.9553108446\H,6.8498766561,-1.826526
 8774,0.8906928927\H,7.6722916689,2.0439773989,-0.8337930343\H,5.263432
 7081,2.5837931497,-0.7698161457\H,9.810154679,1.7074770822,0.353232362
 4\H,12.1724385861,0.5212909079,0.1704452571\H,11.9127642641,-2.0805718
 113,-0.2637052434\\Version=EM64L-G16RevA.03\State=1-A\HF=-2348.52335\S
 2=0.\S2-1=0.\S2A=0.\RMSD=3.532e-09\RMSF=2.481e-06\Dipole=0.008225,0.16
 02074,0.0339566\Quadrupole=17.3076461,2.8065665,-20.1142127,4.446166,0
 .6688477,-4.0555103\PG=C01 [X(C30H20S3)]\\@


 Not by the face shall a man be known, but by the mask.
                               -- Karen Blixen
 Job cpu time:       0 days 12 hours 28 minutes 57.0 seconds.
 Elapsed time:       0 days  1 hours 34 minutes  8.8 seconds.
 File lengths (MBytes):  RWF=    420 Int=      0 D2E=      0 Chk=     40 Scr=      8
 Normal termination of Gaussian 16 at Sun Jul 26 13:55:28 2020.
