 Entering Gaussian System, Link 0=g16
 Input=mols_65_3_05_c-n-N_opt_0.gjf
 Output=mols_65_3_05_c-n-N_opt_0.log
 Initial command:
 /opt/ohpc/pub/libs/gaussian/g16-A.03/sandybridge/g16/l1.exe "/mnt/gpfs2_4m/scratch/rdu230/ondemand/projects/dihedral_energies/7trial/wtuning/mols_65_3_05_c-n-N/Gau-142008.inp" -scrdir="/mnt/gpfs2_4m/scratch/rdu230/ondemand/projects/dihedral_energies/7trial/wtuning/mols_65_3_05_c-n-N/"
 Entering Link 1 = /opt/ohpc/pub/libs/gaussian/g16-A.03/sandybridge/g16/l1.exe PID=    142009.
  
 Copyright (c) 1988,1990,1992,1993,1995,1998,2003,2009,2016,
            Gaussian, Inc.  All Rights Reserved.
  
 This is part of the Gaussian(R) 16 program.  It is based on
 the Gaussian(R) 09 system (copyright 2009, Gaussian, Inc.),
 the Gaussian(R) 03 system (copyright 2003, Gaussian, Inc.),
 the Gaussian(R) 98 system (copyright 1998, Gaussian, Inc.),
 the Gaussian(R) 94 system (copyright 1995, Gaussian, Inc.),
 the Gaussian 92(TM) system (copyright 1992, Gaussian, Inc.),
 the Gaussian 90(TM) system (copyright 1990, Gaussian, Inc.),
 the Gaussian 88(TM) system (copyright 1988, Gaussian, Inc.),
 the Gaussian 86(TM) system (copyright 1986, Carnegie Mellon
 University), and the Gaussian 82(TM) system (copyright 1983,
 Carnegie Mellon University). Gaussian is a federally registered
 trademark of Gaussian, Inc.
  
 This software contains proprietary and confidential information,
 including trade secrets, belonging to Gaussian, Inc.
  
 This software is provided under written license and may be
 used, copied, transmitted, or stored only in accord with that
 written license.
  
 The following legend is applicable only to US Government
 contracts under FAR:
  
                    RESTRICTED RIGHTS LEGEND
  
 Use, reproduction and disclosure by the US Government is
 subject to restrictions as set forth in subparagraphs (a)
 and (c) of the Commercial Computer Software - Restricted
 Rights clause in FAR 52.227-19.
  
 Gaussian, Inc.
 340 Quinnipiac St., Bldg. 40, Wallingford CT 06492
  
  
 ---------------------------------------------------------------
 Warning -- This program may not be used in any manner that
 competes with the business of Gaussian, Inc. or will provide
 assistance to any competitor of Gaussian, Inc.  The licensee
 of this program is prohibited from giving any competitor of
 Gaussian, Inc. access to this program.  By using this program,
 the user acknowledges that Gaussian, Inc. is engaged in the
 business of creating and licensing software in the field of
 computational chemistry and represents and warrants to the
 licensee that it is not a competitor of Gaussian, Inc. and that
 it will not use this program in any manner prohibited above.
 ---------------------------------------------------------------
  

 Cite this work as:
 Gaussian 16, Revision A.03,
 M. J. Frisch, G. W. Trucks, H. B. Schlegel, G. E. Scuseria, 
 M. A. Robb, J. R. Cheeseman, G. Scalmani, V. Barone, 
 G. A. Petersson, H. Nakatsuji, X. Li, M. Caricato, A. V. Marenich, 
 J. Bloino, B. G. Janesko, R. Gomperts, B. Mennucci, H. P. Hratchian, 
 J. V. Ortiz, A. F. Izmaylov, J. L. Sonnenberg, D. Williams-Young, 
 F. Ding, F. Lipparini, F. Egidi, J. Goings, B. Peng, A. Petrone, 
 T. Henderson, D. Ranasinghe, V. G. Zakrzewski, J. Gao, N. Rega, 
 G. Zheng, W. Liang, M. Hada, M. Ehara, K. Toyota, R. Fukuda, 
 J. Hasegawa, M. Ishida, T. Nakajima, Y. Honda, O. Kitao, H. Nakai, 
 T. Vreven, K. Throssell, J. A. Montgomery, Jr., J. E. Peralta, 
 F. Ogliaro, M. J. Bearpark, J. J. Heyd, E. N. Brothers, K. N. Kudin, 
 V. N. Staroverov, T. A. Keith, R. Kobayashi, J. Normand, 
 K. Raghavachari, A. P. Rendell, J. C. Burant, S. S. Iyengar, 
 J. Tomasi, M. Cossi, J. M. Millam, M. Klene, C. Adamo, R. Cammi, 
 J. W. Ochterski, R. L. Martin, K. Morokuma, O. Farkas, 
 J. B. Foresman, and D. J. Fox, Gaussian, Inc., Wallingford CT, 2016.
 
 ******************************************
 Gaussian 16:  EM64L-G16RevA.03 25-Dec-2016
                24-Jul-2020 
 ******************************************
 %mem=30GB
 %nproc=8
 Will use up to    8 processors via shared memory.
 ---------------------------------------------------------------
 #P uLC-wPBE/cc-pVDZ iop(3/107=0455200000, 3/108=0455200000) opt
 ---------------------------------------------------------------
 1/18=20,19=15,26=3,38=1/1,3;
 2/9=110,12=2,17=6,18=5,40=1/2;
 3/5=16,11=2,25=1,30=1,71=1,74=-41,107=455200000,108=455200000,116=2/1,2,3;
 4//1;
 5/5=2,38=5/2;
 6/7=2,8=2,9=2,10=2,28=1/1;
 7//1,2,3,16;
 1/18=20,19=15,26=3/3(2);
 2/9=110/2;
 99//99;
 2/9=110/2;
 3/5=16,11=2,25=1,30=1,71=1,74=-41,107=455200000,108=455200000,116=2/1,2,3;
 4/5=5,16=3,69=1/1;
 5/5=2,38=5/2;
 7//1,2,3,16;
 1/18=20,19=15,26=3/3(-5);
 2/9=110/2;
 6/7=2,8=2,9=2,10=2,19=2,28=1/1;
 99/9=1/99;
 Leave Link    1 at Fri Jul 24 20:32:46 2020, MaxMem=  4026531840 cpu:               1.6 elap:               0.3
 (Enter /opt/ohpc/pub/libs/gaussian/g16-A.03/sandybridge/g16/l101.exe)
 -------------
 H14 C24 S3 N6
 -------------
 Symbolic Z-matrix:
 Charge =  0 Multiplicity = 1
 C                     10.78144   2.37375   0.01045 
 C                     10.87988   0.92272   0.03823 
 C                     9.79514   0.12358   0.02751 
 C                     8.48753   0.71597   0.01891 
 N                     8.38685   2.12542  -0.03926 
 C                     9.47063   2.90372   0.01121 
 C                     7.2754   -0.01097   0.00617 
 N                     7.28312  -1.42143   0.01583 
 C                     5.91456  -1.84018   0.03159 
 C                     4.91489  -0.89987   0.00909 
 S                     5.75172   0.63902  -0.02272 
 C                     3.48722  -1.04501  -0.04709 
 C                     2.85657  -2.29558  -0.02724 
 C                     1.47654  -2.47226  -0.01756 
 C                     0.71314  -1.33571   0.03265 
 N                     1.20372  -0.0282   -0.00992 
 C                     2.5911    0.09053   0.02428 
 C                    -0.80276  -1.3842    0.00711 
 N                    -1.38552  -2.52366   0.0128 
 C                    -2.80693  -2.35578   0.01775 
 C                    -3.20741  -0.94944   0.02149 
 S                    -1.73896  -0.04896  -0.0239 
 C                    -4.53952  -0.38093   0.04237 
 C                    -4.82032   1.00909  -0.00731 
 C                    -6.13559   1.48421  -0.02351 
 C                    -7.20878   0.57308   0.00405 
 N                    -6.9189   -0.78139  -0.03006 
 C                    -5.66603  -1.19964  -0.04398 
 C                    -8.57414   1.02621  -0.04492 
 N                    -8.91703   2.31503   0.04919 
 C                    -10.25478   2.42805  -0.04066 
 C                    -10.97074   1.24787  -0.04869 
 S                    -9.84421  -0.07     -0.02569 
 H                     11.60302   2.97044   0.03949 
 H                     11.90328   0.46291  -0.0391 
 H                     9.83733  -0.90787  -0.04032 
 H                     9.33165   3.97849  -0.01751 
 H                     5.82167  -2.9354    0.02822 
 H                     3.49091  -3.15576  -0.01368 
 H                     1.09366  -3.4202    0.03324 
 H                     2.90755   1.07184   0.03109 
 H                    -3.43816  -3.16016  -0.0478 
 H                    -3.96162   1.69324  -0.04493 
 H                    -6.33255   2.52198   0.01989 
 H                    -5.64446  -2.31211   0.01461 
 H                    -10.76405   3.4539   -0.01632 
 H                    -12.05293   1.13333  -0.03498 
 
 ITRead=  0  0  0  0  0  0  0  0  0  0  0  0  0  0  0  0  0  0  0  0
 ITRead=  0  0  0  0  0  0  0  0  0  0  0  0  0  0  0  0  0  0  0  0
 ITRead=  0  0  0  0  0  0  0
 MicOpt= -1 -1 -1 -1 -1 -1 -1 -1 -1 -1 -1 -1 -1 -1 -1 -1 -1 -1 -1 -1
 MicOpt= -1 -1 -1 -1 -1 -1 -1 -1 -1 -1 -1 -1 -1 -1 -1 -1 -1 -1 -1 -1
 MicOpt= -1 -1 -1 -1 -1 -1 -1
 NAtoms=     47 NQM=       47 NQMF=       0 NMMI=      0 NMMIF=      0
                NMic=       0 NMicF=      0.
                    Isotopes and Nuclear Properties:
 (Nuclear quadrupole moments (NQMom) in fm**2, nuclear magnetic moments (NMagM)
  in nuclear magnetons)

  Atom         1           2           3           4           5           6           7           8           9          10
 IAtWgt=          12          12          12          12          14          12          12          14          12          12
 AtmWgt=  12.0000000  12.0000000  12.0000000  12.0000000  14.0030740  12.0000000  12.0000000  14.0030740  12.0000000  12.0000000
 NucSpn=           0           0           0           0           2           0           0           2           0           0
 AtZEff=  -0.0000000  -0.0000000  -0.0000000  -0.0000000  -0.0000000  -0.0000000  -0.0000000  -0.0000000  -0.0000000  -0.0000000
 NQMom=    0.0000000   0.0000000   0.0000000   0.0000000   2.0440000   0.0000000   0.0000000   2.0440000   0.0000000   0.0000000
 NMagM=    0.0000000   0.0000000   0.0000000   0.0000000   0.4037610   0.0000000   0.0000000   0.4037610   0.0000000   0.0000000
 AtZNuc=   6.0000000   6.0000000   6.0000000   6.0000000   7.0000000   6.0000000   6.0000000   7.0000000   6.0000000   6.0000000

  Atom        11          12          13          14          15          16          17          18          19          20
 IAtWgt=          32          12          12          12          12          14          12          12          14          12
 AtmWgt=  31.9720718  12.0000000  12.0000000  12.0000000  12.0000000  14.0030740  12.0000000  12.0000000  14.0030740  12.0000000
 NucSpn=           0           0           0           0           0           2           0           0           2           0
 AtZEff=  -0.0000000  -0.0000000  -0.0000000  -0.0000000  -0.0000000  -0.0000000  -0.0000000  -0.0000000  -0.0000000  -0.0000000
 NQMom=    0.0000000   0.0000000   0.0000000   0.0000000   0.0000000   2.0440000   0.0000000   0.0000000   2.0440000   0.0000000
 NMagM=    0.0000000   0.0000000   0.0000000   0.0000000   0.0000000   0.4037610   0.0000000   0.0000000   0.4037610   0.0000000
 AtZNuc=  16.0000000   6.0000000   6.0000000   6.0000000   6.0000000   7.0000000   6.0000000   6.0000000   7.0000000   6.0000000

  Atom        21          22          23          24          25          26          27          28          29          30
 IAtWgt=          12          32          12          12          12          12          14          12          12          14
 AtmWgt=  12.0000000  31.9720718  12.0000000  12.0000000  12.0000000  12.0000000  14.0030740  12.0000000  12.0000000  14.0030740
 NucSpn=           0           0           0           0           0           0           2           0           0           2
 AtZEff=  -0.0000000  -0.0000000  -0.0000000  -0.0000000  -0.0000000  -0.0000000  -0.0000000  -0.0000000  -0.0000000  -0.0000000
 NQMom=    0.0000000   0.0000000   0.0000000   0.0000000   0.0000000   0.0000000   2.0440000   0.0000000   0.0000000   2.0440000
 NMagM=    0.0000000   0.0000000   0.0000000   0.0000000   0.0000000   0.0000000   0.4037610   0.0000000   0.0000000   0.4037610
 AtZNuc=   6.0000000  16.0000000   6.0000000   6.0000000   6.0000000   6.0000000   7.0000000   6.0000000   6.0000000   7.0000000

  Atom        31          32          33          34          35          36          37          38          39          40
 IAtWgt=          12          12          32           1           1           1           1           1           1           1
 AtmWgt=  12.0000000  12.0000000  31.9720718   1.0078250   1.0078250   1.0078250   1.0078250   1.0078250   1.0078250   1.0078250
 NucSpn=           0           0           0           1           1           1           1           1           1           1
 AtZEff=  -0.0000000  -0.0000000  -0.0000000  -0.0000000  -0.0000000  -0.0000000  -0.0000000  -0.0000000  -0.0000000  -0.0000000
 NQMom=    0.0000000   0.0000000   0.0000000   0.0000000   0.0000000   0.0000000   0.0000000   0.0000000   0.0000000   0.0000000
 NMagM=    0.0000000   0.0000000   0.0000000   2.7928460   2.7928460   2.7928460   2.7928460   2.7928460   2.7928460   2.7928460
 AtZNuc=   6.0000000   6.0000000  16.0000000   1.0000000   1.0000000   1.0000000   1.0000000   1.0000000   1.0000000   1.0000000

  Atom        41          42          43          44          45          46          47
 IAtWgt=           1           1           1           1           1           1           1
 AtmWgt=   1.0078250   1.0078250   1.0078250   1.0078250   1.0078250   1.0078250   1.0078250
 NucSpn=           1           1           1           1           1           1           1
 AtZEff=  -0.0000000  -0.0000000  -0.0000000  -0.0000000  -0.0000000  -0.0000000  -0.0000000
 NQMom=    0.0000000   0.0000000   0.0000000   0.0000000   0.0000000   0.0000000   0.0000000
 NMagM=    2.7928460   2.7928460   2.7928460   2.7928460   2.7928460   2.7928460   2.7928460
 AtZNuc=   1.0000000   1.0000000   1.0000000   1.0000000   1.0000000   1.0000000   1.0000000
 Leave Link  101 at Fri Jul 24 20:32:47 2020, MaxMem=  4026531840 cpu:               2.5 elap:               0.4
 (Enter /opt/ohpc/pub/libs/gaussian/g16-A.03/sandybridge/g16/l103.exe)

 GradGradGradGradGradGradGradGradGradGradGradGradGradGradGradGradGradGrad
 Berny optimization.
 Initialization pass.
                           ----------------------------
                           !    Initial Parameters    !
                           ! (Angstroms and Degrees)  !
 --------------------------                            --------------------------
 ! Name  Definition              Value          Derivative Info.                !
 --------------------------------------------------------------------------------
 ! R1    R(1,2)                  1.4546         estimate D2E/DX2                !
 ! R2    R(1,6)                  1.4139         estimate D2E/DX2                !
 ! R3    R(1,34)                 1.0158         estimate D2E/DX2                !
 ! R4    R(2,3)                  1.3474         estimate D2E/DX2                !
 ! R5    R(2,35)                 1.1246         estimate D2E/DX2                !
 ! R6    R(3,4)                  1.4356         estimate D2E/DX2                !
 ! R7    R(3,36)                 1.0345         estimate D2E/DX2                !
 ! R8    R(4,5)                  1.4142         estimate D2E/DX2                !
 ! R9    R(4,7)                  1.4135         estimate D2E/DX2                !
 ! R10   R(5,6)                  1.3352         estimate D2E/DX2                !
 ! R11   R(6,37)                 1.0841         estimate D2E/DX2                !
 ! R12   R(7,8)                  1.4105         estimate D2E/DX2                !
 ! R13   R(7,11)                 1.6568         estimate D2E/DX2                !
 ! R14   R(8,9)                  1.4313         estimate D2E/DX2                !
 ! R15   R(9,10)                 1.3726         estimate D2E/DX2                !
 ! R16   R(9,38)                 1.0992         estimate D2E/DX2                !
 ! R17   R(10,11)                1.752          estimate D2E/DX2                !
 ! R18   R(10,12)                1.4361         estimate D2E/DX2                !
 ! R19   R(12,13)                1.4007         estimate D2E/DX2                !
 ! R20   R(12,17)                1.4483         estimate D2E/DX2                !
 ! R21   R(13,14)                1.3913         estimate D2E/DX2                !
 ! R22   R(13,39)                1.0689         estimate D2E/DX2                !
 ! R23   R(14,15)                1.3701         estimate D2E/DX2                !
 ! R24   R(14,40)                1.0236         estimate D2E/DX2                !
 ! R25   R(15,16)                1.3972         estimate D2E/DX2                !
 ! R26   R(15,18)                1.5169         estimate D2E/DX2                !
 ! R27   R(16,17)                1.3929         estimate D2E/DX2                !
 ! R28   R(17,41)                1.0311         estimate D2E/DX2                !
 ! R29   R(18,19)                1.2799         estimate D2E/DX2                !
 ! R30   R(18,22)                1.631          estimate D2E/DX2                !
 ! R31   R(19,20)                1.4313         estimate D2E/DX2                !
 ! R32   R(20,21)                1.4623         estimate D2E/DX2                !
 ! R33   R(20,42)                1.0246         estimate D2E/DX2                !
 ! R34   R(21,22)                1.7232         estimate D2E/DX2                !
 ! R35   R(21,23)                1.4485         estimate D2E/DX2                !
 ! R36   R(23,24)                1.419          estimate D2E/DX2                !
 ! R37   R(23,28)                1.3953         estimate D2E/DX2                !
 ! R38   R(24,25)                1.3985         estimate D2E/DX2                !
 ! R39   R(24,43)                1.0986         estimate D2E/DX2                !
 ! R40   R(25,26)                1.4081         estimate D2E/DX2                !
 ! R41   R(25,44)                1.0572         estimate D2E/DX2                !
 ! R42   R(26,27)                1.3856         estimate D2E/DX2                !
 ! R43   R(26,29)                1.4394         estimate D2E/DX2                !
 ! R44   R(27,28)                1.3209         estimate D2E/DX2                !
 ! R45   R(28,45)                1.1142         estimate D2E/DX2                !
 ! R46   R(29,30)                1.337          estimate D2E/DX2                !
 ! R47   R(29,33)                1.6778         estimate D2E/DX2                !
 ! R48   R(30,31)                1.3455         estimate D2E/DX2                !
 ! R49   R(31,32)                1.3804         estimate D2E/DX2                !
 ! R50   R(31,46)                1.1456         estimate D2E/DX2                !
 ! R51   R(32,33)                1.7339         estimate D2E/DX2                !
 ! R52   R(32,47)                1.0883         estimate D2E/DX2                !
 ! A1    A(2,1,6)              115.8888         estimate D2E/DX2                !
 ! A2    A(2,1,34)             122.0507         estimate D2E/DX2                !
 ! A3    A(6,1,34)             121.981          estimate D2E/DX2                !
 ! A4    A(1,2,3)              122.4805         estimate D2E/DX2                !
 ! A5    A(1,2,35)             117.9125         estimate D2E/DX2                !
 ! A6    A(3,2,35)             119.3124         estimate D2E/DX2                !
 ! A7    A(2,3,4)              119.25           estimate D2E/DX2                !
 ! A8    A(2,3,36)             123.9891         estimate D2E/DX2                !
 ! A9    A(4,3,36)             116.6263         estimate D2E/DX2                !
 ! A10   A(3,4,5)              118.4472         estimate D2E/DX2                !
 ! A11   A(3,4,7)              124.6775         estimate D2E/DX2                !
 ! A12   A(5,4,7)              116.8164         estimate D2E/DX2                !
 ! A13   A(4,5,6)              121.438          estimate D2E/DX2                !
 ! A14   A(1,6,5)              122.2757         estimate D2E/DX2                !
 ! A15   A(1,6,37)             119.3691         estimate D2E/DX2                !
 ! A16   A(5,6,37)             118.2177         estimate D2E/DX2                !
 ! A17   A(4,7,8)              120.6321         estimate D2E/DX2                !
 ! A18   A(4,7,11)             125.9483         estimate D2E/DX2                !
 ! A19   A(8,7,11)             113.4195         estimate D2E/DX2                !
 ! A20   A(7,8,9)              106.7027         estimate D2E/DX2                !
 ! A21   A(8,9,10)             119.7213         estimate D2E/DX2                !
 ! A22   A(8,9,38)             111.8576         estimate D2E/DX2                !
 ! A23   A(10,9,38)            128.3892         estimate D2E/DX2                !
 ! A24   A(9,10,11)            104.7235         estimate D2E/DX2                !
 ! A25   A(9,10,12)            130.9516         estimate D2E/DX2                !
 ! A26   A(11,10,12)           124.2563         estimate D2E/DX2                !
 ! A27   A(7,11,10)             95.4141         estimate D2E/DX2                !
 ! A28   A(10,12,13)           122.4973         estimate D2E/DX2                !
 ! A29   A(10,12,17)           122.2711         estimate D2E/DX2                !
 ! A30   A(13,12,17)           114.8802         estimate D2E/DX2                !
 ! A31   A(12,13,14)           124.0593         estimate D2E/DX2                !
 ! A32   A(12,13,39)           116.8378         estimate D2E/DX2                !
 ! A33   A(14,13,39)           119.1021         estimate D2E/DX2                !
 ! A34   A(13,14,15)           116.5892         estimate D2E/DX2                !
 ! A35   A(13,14,40)           119.2721         estimate D2E/DX2                !
 ! A36   A(15,14,40)           123.9179         estimate D2E/DX2                !
 ! A37   A(14,15,16)           125.4202         estimate D2E/DX2                !
 ! A38   A(14,15,18)           121.9855         estimate D2E/DX2                !
 ! A39   A(16,15,18)           112.3523         estimate D2E/DX2                !
 ! A40   A(15,16,17)           115.389          estimate D2E/DX2                !
 ! A41   A(12,17,16)           123.2478         estimate D2E/DX2                !
 ! A42   A(12,17,41)           123.8227         estimate D2E/DX2                !
 ! A43   A(16,17,41)           112.7666         estimate D2E/DX2                !
 ! A44   A(15,18,19)           118.9093         estimate D2E/DX2                !
 ! A45   A(15,18,22)           123.214          estimate D2E/DX2                !
 ! A46   A(19,18,22)           117.8766         estimate D2E/DX2                !
 ! A47   A(18,19,20)           110.3515         estimate D2E/DX2                !
 ! A48   A(19,20,21)           112.6315         estimate D2E/DX2                !
 ! A49   A(19,20,42)           121.3005         estimate D2E/DX2                !
 ! A50   A(21,20,42)           125.908          estimate D2E/DX2                !
 ! A51   A(20,21,22)           105.6124         estimate D2E/DX2                !
 ! A52   A(20,21,23)           129.0044         estimate D2E/DX2                !
 ! A53   A(22,21,23)           125.3797         estimate D2E/DX2                !
 ! A54   A(18,22,21)            93.4884         estimate D2E/DX2                !
 ! A55   A(21,23,24)           124.4688         estimate D2E/DX2                !
 ! A56   A(21,23,28)           120.7518         estimate D2E/DX2                !
 ! A57   A(24,23,28)           114.3847         estimate D2E/DX2                !
 ! A58   A(23,24,25)           121.2858         estimate D2E/DX2                !
 ! A59   A(23,24,43)           117.1663         estimate D2E/DX2                !
 ! A60   A(25,24,43)           121.5437         estimate D2E/DX2                !
 ! A61   A(24,25,26)           119.7841         estimate D2E/DX2                !
 ! A62   A(24,25,44)           120.5453         estimate D2E/DX2                !
 ! A63   A(26,25,44)           119.498          estimate D2E/DX2                !
 ! A64   A(25,26,27)           118.2042         estimate D2E/DX2                !
 ! A65   A(25,26,29)           121.2378         estimate D2E/DX2                !
 ! A66   A(27,26,29)           120.3547         estimate D2E/DX2                !
 ! A67   A(26,27,28)           120.546          estimate D2E/DX2                !
 ! A68   A(23,28,27)           125.4047         estimate D2E/DX2                !
 ! A69   A(23,28,45)           124.5391         estimate D2E/DX2                !
 ! A70   A(27,28,45)           109.5084         estimate D2E/DX2                !
 ! A71   A(26,29,30)           122.9798         estimate D2E/DX2                !
 ! A72   A(26,29,33)           120.7944         estimate D2E/DX2                !
 ! A73   A(30,29,33)           115.7771         estimate D2E/DX2                !
 ! A74   A(29,30,31)           109.3454         estimate D2E/DX2                !
 ! A75   A(30,31,32)           116.3749         estimate D2E/DX2                !
 ! A76   A(30,31,46)           121.0505         estimate D2E/DX2                !
 ! A77   A(32,31,46)           122.3547         estimate D2E/DX2                !
 ! A78   A(31,32,33)           108.226          estimate D2E/DX2                !
 ! A79   A(31,32,47)           127.2759         estimate D2E/DX2                !
 ! A80   A(33,32,47)           124.4638         estimate D2E/DX2                !
 ! A81   A(29,33,32)            89.7177         estimate D2E/DX2                !
 ! D1    D(6,1,2,3)              1.8021         estimate D2E/DX2                !
 ! D2    D(6,1,2,35)           175.5197         estimate D2E/DX2                !
 ! D3    D(34,1,2,3)           178.6182         estimate D2E/DX2                !
 ! D4    D(34,1,2,35)           -7.6642         estimate D2E/DX2                !
 ! D5    D(2,1,6,5)             -3.8124         estimate D2E/DX2                !
 ! D6    D(2,1,6,37)          -179.4721         estimate D2E/DX2                !
 ! D7    D(34,1,6,5)           179.3691         estimate D2E/DX2                !
 ! D8    D(34,1,6,37)            3.7094         estimate D2E/DX2                !
 ! D9    D(1,2,3,4)             -1.449          estimate D2E/DX2                !
 ! D10   D(1,2,3,36)           174.1854         estimate D2E/DX2                !
 ! D11   D(35,2,3,4)          -175.082          estimate D2E/DX2                !
 ! D12   D(35,2,3,36)            0.5525         estimate D2E/DX2                !
 ! D13   D(2,3,4,5)              2.825          estimate D2E/DX2                !
 ! D14   D(2,3,4,7)            179.9396         estimate D2E/DX2                !
 ! D15   D(36,3,4,5)          -173.1265         estimate D2E/DX2                !
 ! D16   D(36,3,4,7)             3.9881         estimate D2E/DX2                !
 ! D17   D(3,4,5,6)             -4.872          estimate D2E/DX2                !
 ! D18   D(7,4,5,6)            177.7866         estimate D2E/DX2                !
 ! D19   D(3,4,7,8)              0.7021         estimate D2E/DX2                !
 ! D20   D(3,4,7,11)          -179.201          estimate D2E/DX2                !
 ! D21   D(5,4,7,8)            177.8594         estimate D2E/DX2                !
 ! D22   D(5,4,7,11)            -2.0437         estimate D2E/DX2                !
 ! D23   D(4,5,6,1)              5.497          estimate D2E/DX2                !
 ! D24   D(4,5,6,37)          -178.7955         estimate D2E/DX2                !
 ! D25   D(4,7,8,9)            178.6263         estimate D2E/DX2                !
 ! D26   D(11,7,8,9)            -1.4592         estimate D2E/DX2                !
 ! D27   D(4,7,11,10)         -178.9466         estimate D2E/DX2                !
 ! D28   D(8,7,11,10)            1.1443         estimate D2E/DX2                !
 ! D29   D(7,8,9,10)             1.2214         estimate D2E/DX2                !
 ! D30   D(7,8,9,38)           179.337          estimate D2E/DX2                !
 ! D31   D(8,9,10,11)           -0.4343         estimate D2E/DX2                !
 ! D32   D(8,9,10,12)          176.5839         estimate D2E/DX2                !
 ! D33   D(38,9,10,11)        -178.2028         estimate D2E/DX2                !
 ! D34   D(38,9,10,12)          -1.1846         estimate D2E/DX2                !
 ! D35   D(9,10,11,7)           -0.404          estimate D2E/DX2                !
 ! D36   D(12,10,11,7)        -177.6795         estimate D2E/DX2                !
 ! D37   D(9,10,12,13)           3.0948         estimate D2E/DX2                !
 ! D38   D(9,10,12,17)         175.9382         estimate D2E/DX2                !
 ! D39   D(11,10,12,13)        179.6051         estimate D2E/DX2                !
 ! D40   D(11,10,12,17)         -7.5515         estimate D2E/DX2                !
 ! D41   D(10,12,13,14)        176.8913         estimate D2E/DX2                !
 ! D42   D(10,12,13,39)         -2.7732         estimate D2E/DX2                !
 ! D43   D(17,12,13,14)          3.5592         estimate D2E/DX2                !
 ! D44   D(17,12,13,39)       -176.1053         estimate D2E/DX2                !
 ! D45   D(10,12,17,16)       -179.0964         estimate D2E/DX2                !
 ! D46   D(10,12,17,41)          5.8817         estimate D2E/DX2                !
 ! D47   D(13,12,17,16)         -5.7475         estimate D2E/DX2                !
 ! D48   D(13,12,17,41)        179.2305         estimate D2E/DX2                !
 ! D49   D(12,13,14,15)         -2.8599         estimate D2E/DX2                !
 ! D50   D(12,13,14,40)       -177.6734         estimate D2E/DX2                !
 ! D51   D(39,13,14,15)        176.7975         estimate D2E/DX2                !
 ! D52   D(39,13,14,40)          1.984          estimate D2E/DX2                !
 ! D53   D(13,14,15,16)          4.2463         estimate D2E/DX2                !
 ! D54   D(13,14,15,18)        178.1545         estimate D2E/DX2                !
 ! D55   D(40,14,15,16)        178.7936         estimate D2E/DX2                !
 ! D56   D(40,14,15,18)         -7.2983         estimate D2E/DX2                !
 ! D57   D(14,15,16,17)         -6.2106         estimate D2E/DX2                !
 ! D58   D(18,15,16,17)        179.3745         estimate D2E/DX2                !
 ! D59   D(14,15,18,19)          3.9041         estimate D2E/DX2                !
 ! D60   D(14,15,18,22)       -176.2496         estimate D2E/DX2                !
 ! D61   D(16,15,18,19)        178.5386         estimate D2E/DX2                !
 ! D62   D(16,15,18,22)         -1.6151         estimate D2E/DX2                !
 ! D63   D(15,16,17,12)          6.9056         estimate D2E/DX2                !
 ! D64   D(15,16,17,41)       -177.5783         estimate D2E/DX2                !
 ! D65   D(15,18,19,20)        178.6403         estimate D2E/DX2                !
 ! D66   D(22,18,19,20)         -1.2142         estimate D2E/DX2                !
 ! D67   D(15,18,22,21)       -177.9809         estimate D2E/DX2                !
 ! D68   D(19,18,22,21)          1.8668         estimate D2E/DX2                !
 ! D69   D(18,19,20,21)         -0.2746         estimate D2E/DX2                !
 ! D70   D(18,19,20,42)        175.3874         estimate D2E/DX2                !
 ! D71   D(19,20,21,22)          1.4548         estimate D2E/DX2                !
 ! D72   D(19,20,21,23)       -179.2095         estimate D2E/DX2                !
 ! D73   D(42,20,21,22)       -173.9685         estimate D2E/DX2                !
 ! D74   D(42,20,21,23)          5.3673         estimate D2E/DX2                !
 ! D75   D(20,21,22,18)         -1.758          estimate D2E/DX2                !
 ! D76   D(23,21,22,18)        178.8751         estimate D2E/DX2                !
 ! D77   D(20,21,23,24)       -177.4788         estimate D2E/DX2                !
 ! D78   D(20,21,23,28)         -5.1028         estimate D2E/DX2                !
 ! D79   D(22,21,23,24)          1.7365         estimate D2E/DX2                !
 ! D80   D(22,21,23,28)        174.1125         estimate D2E/DX2                !
 ! D81   D(21,23,24,25)        178.0615         estimate D2E/DX2                !
 ! D82   D(21,23,24,43)         -1.2035         estimate D2E/DX2                !
 ! D83   D(28,23,24,25)          5.2528         estimate D2E/DX2                !
 ! D84   D(28,23,24,43)       -174.0122         estimate D2E/DX2                !
 ! D85   D(21,23,28,27)        179.8089         estimate D2E/DX2                !
 ! D86   D(21,23,28,45)          9.1989         estimate D2E/DX2                !
 ! D87   D(24,23,28,27)         -7.0885         estimate D2E/DX2                !
 ! D88   D(24,23,28,45)       -177.6985         estimate D2E/DX2                !
 ! D89   D(23,24,25,26)         -0.2713         estimate D2E/DX2                !
 ! D90   D(23,24,25,44)        174.9312         estimate D2E/DX2                !
 ! D91   D(43,24,25,26)        178.9614         estimate D2E/DX2                !
 ! D92   D(43,24,25,44)         -5.8361         estimate D2E/DX2                !
 ! D93   D(24,25,26,27)         -3.6104         estimate D2E/DX2                !
 ! D94   D(24,25,26,29)       -178.4455         estimate D2E/DX2                !
 ! D95   D(44,25,26,27)       -178.8634         estimate D2E/DX2                !
 ! D96   D(44,25,26,29)          6.3015         estimate D2E/DX2                !
 ! D97   D(25,26,27,28)          2.1616         estimate D2E/DX2                !
 ! D98   D(29,26,27,28)        177.0441         estimate D2E/DX2                !
 ! D99   D(25,26,29,30)         -8.5835         estimate D2E/DX2                !
 ! D100  D(25,26,29,33)        179.4315         estimate D2E/DX2                !
 ! D101  D(27,26,29,30)        176.6916         estimate D2E/DX2                !
 ! D102  D(27,26,29,33)          4.7065         estimate D2E/DX2                !
 ! D103  D(26,27,28,23)          3.5034         estimate D2E/DX2                !
 ! D104  D(26,27,28,45)        175.3061         estimate D2E/DX2                !
 ! D105  D(26,29,30,31)        179.4661         estimate D2E/DX2                !
 ! D106  D(33,29,30,31)         -8.1773         estimate D2E/DX2                !
 ! D107  D(26,29,33,32)        178.0953         estimate D2E/DX2                !
 ! D108  D(30,29,33,32)          5.5585         estimate D2E/DX2                !
 ! D109  D(29,30,31,32)          7.168          estimate D2E/DX2                !
 ! D110  D(29,30,31,46)       -178.0966         estimate D2E/DX2                !
 ! D111  D(30,31,32,33)         -3.199          estimate D2E/DX2                !
 ! D112  D(30,31,32,47)        174.7304         estimate D2E/DX2                !
 ! D113  D(46,31,32,33)       -177.8596         estimate D2E/DX2                !
 ! D114  D(46,31,32,47)          0.0698         estimate D2E/DX2                !
 ! D115  D(31,32,33,29)         -1.2541         estimate D2E/DX2                !
 ! D116  D(47,32,33,29)       -179.2557         estimate D2E/DX2                !
 --------------------------------------------------------------------------------
 Trust Radius=3.00D-01 FncErr=1.00D-07 GrdErr=1.00D-06 EigMax=2.50D+02 EigMin=1.00D-04
 Number of steps in this run=    259 maximum allowed number of steps=    282.
 GradGradGradGradGradGradGradGradGradGradGradGradGradGradGradGradGradGrad

 Leave Link  103 at Fri Jul 24 20:32:47 2020, MaxMem=  4026531840 cpu:               0.2 elap:               0.1
 (Enter /opt/ohpc/pub/libs/gaussian/g16-A.03/sandybridge/g16/l202.exe)
                          Input orientation:                          
 ---------------------------------------------------------------------
 Center     Atomic      Atomic             Coordinates (Angstroms)
 Number     Number       Type             X           Y           Z
 ---------------------------------------------------------------------
      1          6           0       10.781444    2.373754    0.010452
      2          6           0       10.879880    0.922723    0.038229
      3          6           0        9.795144    0.123583    0.027511
      4          6           0        8.487535    0.715970    0.018907
      5          7           0        8.386850    2.125423   -0.039259
      6          6           0        9.470625    2.903720    0.011205
      7          6           0        7.275397   -0.010973    0.006165
      8          7           0        7.283115   -1.421428    0.015833
      9          6           0        5.914563   -1.840179    0.031593
     10          6           0        4.914890   -0.899870    0.009089
     11         16           0        5.751722    0.639019   -0.022715
     12          6           0        3.487222   -1.045014   -0.047088
     13          6           0        2.856568   -2.295579   -0.027235
     14          6           0        1.476538   -2.472260   -0.017557
     15          6           0        0.713138   -1.335709    0.032651
     16          7           0        1.203721   -0.028198   -0.009924
     17          6           0        2.591103    0.090525    0.024279
     18          6           0       -0.802758   -1.384200    0.007107
     19          7           0       -1.385519   -2.523663    0.012799
     20          6           0       -2.806926   -2.355784    0.017746
     21          6           0       -3.207410   -0.949437    0.021488
     22         16           0       -1.738963   -0.048962   -0.023901
     23          6           0       -4.539518   -0.380933    0.042365
     24          6           0       -4.820321    1.009091   -0.007307
     25          6           0       -6.135592    1.484212   -0.023514
     26          6           0       -7.208783    0.573083    0.004050
     27          7           0       -6.918898   -0.781392   -0.030060
     28          6           0       -5.666032   -1.199638   -0.043979
     29          6           0       -8.574135    1.026211   -0.044918
     30          7           0       -8.917029    2.315034    0.049185
     31          6           0      -10.254779    2.428054   -0.040664
     32          6           0      -10.970740    1.247873   -0.048688
     33         16           0       -9.844210   -0.070001   -0.025685
     34          1           0       11.603015    2.970436    0.039491
     35          1           0       11.903277    0.462906   -0.039098
     36          1           0        9.837330   -0.907867   -0.040316
     37          1           0        9.331651    3.978494   -0.017511
     38          1           0        5.821669   -2.935404    0.028224
     39          1           0        3.490910   -3.155762   -0.013682
     40          1           0        1.093657   -3.420204    0.033236
     41          1           0        2.907554    1.071844    0.031086
     42          1           0       -3.438155   -3.160157   -0.047795
     43          1           0       -3.961619    1.693238   -0.044931
     44          1           0       -6.332549    2.521975    0.019888
     45          1           0       -5.644463   -2.312113    0.014607
     46          1           0      -10.764049    3.453898   -0.016321
     47          1           0      -12.052932    1.133326   -0.034978
 ---------------------------------------------------------------------
                    Distance matrix (angstroms):
                    1          2          3          4          5
     1  C    0.000000
     2  C    1.454631   0.000000
     3  C    2.456898   1.347365   0.000000
     4  C    2.830254   2.401340   1.435562   0.000000
     5  N    2.407949   2.769059   2.448492   1.414241   0.000000
     6  C    1.413899   2.431271   2.799061   2.398494   1.335238
     7  C    4.240201   3.723589   2.523427   1.413466   2.408647
     8  N    5.161564   4.293281   2.949150   2.453387   3.715026
     9  C    6.437718   5.682257   4.349171   3.626878   4.673673
    10  C    6.718115   6.237291   4.986449   3.921075   4.605349
    11  S    5.320574   5.136361   4.076452   2.737211   3.025487
    12  C    8.055865   7.650533   6.415689   5.301750   5.835931
    13  C    9.198247   8.644957   7.348413   6.385871   7.080213
    14  C   10.491230   9.997593   8.714335   7.701962   8.300095
    15  C   10.729930  10.414566   9.198499   8.040574   8.418460
    16  N    9.874339   9.722892   8.592845   7.321787   7.499086
    17  C    8.502647   8.330461   7.204118   5.929513   6.142925
    18  C   12.178504  11.908270  10.704642   9.524726   9.837098
    19  N   13.115628  12.740417  11.489793  10.390979  10.822010
    20  C   14.387925  14.074007  12.843657  11.704722  12.057574
    21  C   14.378169  14.211158  13.046755  11.812930  11.995221
    22  S   12.752699  12.656351  11.535512  10.255156  10.356654
    23  C   15.566669  15.474410  14.343545  13.073173  13.167364
    24  C   15.661344  15.700505  14.642307  13.311110  13.254304
    25  C   16.940441  17.024846  15.988817  14.643355  14.536599
    26  C   18.080120  18.092074  17.009883  15.696975  15.672760
    27  N   17.979396  17.880301  16.738623  15.479104  15.579332
    28  C   16.831267  16.681678  15.517860  14.282751  14.440898
    29  C   19.402510  19.454468  18.391585  17.064610  16.996568
    30  N   19.698599  19.845812  18.840073  17.477894  17.305144
    31  C   21.036355  21.188347  20.182038  18.820444  18.644085
    32  C   21.781382  21.853212  20.796437  19.465661  19.377473
    33  S   20.769951  20.747952  19.640380  18.348641  18.362778
    34  H    1.015801   2.171648   3.372405   3.845680   3.326254
    35  H    2.216372   1.124612   2.136306   3.425595   3.889630
    36  H    3.415108   2.108113   1.034538   2.112416   3.362252
    37  H    2.162839   3.426056   3.882936   3.370151   2.080143
    38  H    7.265455   6.361662   5.014569   4.521002   5.674212
    39  H    9.150301   8.440001   7.106277   6.321205   7.201514
    40  H   11.288210  10.706596   9.395442   8.472165   9.162418
    41  H    7.980823   7.973724   6.952561   5.591331   5.580113
    42  H   15.258590  14.889037  13.634839  12.539972  12.952535
    43  H   14.758864  14.861719  13.846212  12.487616  12.356031
    44  H   17.114637  17.286574  16.305055  14.929720  14.724859
    45  H   17.081212  16.838012  15.630555  14.452774  14.716398
    46  H   21.572568  21.791500  20.827226  19.445333  19.196935
    47  H   22.868088  22.933896  21.871486  20.544777  20.463845
                    6          7          8          9         10
     6  C    0.000000
     7  C    3.648902   0.000000
     8  N    4.846868   1.410509   0.000000
     9  C    5.928792   2.280024   1.431271   0.000000
    10  C    5.934814   2.522328   2.424986   1.372601   0.000000
    11  S    4.354338   1.656777   2.567507   2.485134   1.751993
    12  C    7.169171   3.927130   3.815030   2.555477   1.436126
    13  C    8.413081   4.974594   4.512240   3.092278   2.487170
    14  C    9.633661   6.299624   5.900991   4.483080   3.780924
    15  C    9.729686   6.694690   6.570558   5.225831   4.224362
    16  N    8.771448   6.071722   6.237049   5.047478   3.812211
    17  C    7.432500   4.685429   4.929609   3.843574   2.526084
    18  C   11.132326   8.194043   8.085963   6.732824   5.738125
    19  N   12.137230   9.018044   8.738429   7.332033   6.506295
    20  C   13.356672  10.351401  10.133210   8.736728   7.857875
    21  C   13.250641  10.524742  10.501139   9.165365   8.122461
    22  S   11.591998   9.014490   9.125959   7.860534   6.708121
    23  C   14.390067  11.820761  11.868361  10.555441   9.468698
    24  C   14.416002  12.138662  12.345085  11.106646   9.920622
    25  C   15.670680  13.494113  13.729748  12.500434  11.304781
    26  C   16.841454  14.495951  14.628511  13.343418  12.212824
    27  N   16.798756  14.215234  14.216502  12.877211  11.834446
    28  C   15.683079  12.996000  12.951184  11.598542  10.585301
    29  C   18.142259  15.883514  16.045155  14.769713  13.625950
    30  N   18.397114  16.358692  16.625490  15.402669  14.200676
    31  C   19.731207  17.699099  17.955485  16.723357  15.530499
    32  C   20.508409  18.289593  18.448104  17.165546  16.030264
    33  S   19.542447  17.119738  17.180609  15.857987  14.782453
    34  H    2.133621   5.255301   6.160403   7.449870   7.727303
    35  H    3.446433   4.652299   4.989953   6.416689   7.120185
    36  H    3.829533   2.714789   2.605938   4.032676   4.922694
    37  H    1.084102   4.488272   5.775532   6.748026   6.580799
    38  H    6.885531   3.265901   2.104305   1.099163   2.228455
    39  H    8.513221   4.920613   4.170084   2.758061   2.667824
    40  H   10.496004   7.059568   6.504214   5.073225   4.577607
    41  H    6.813961   4.500130   5.036087   4.185927   2.813812
    42  H   14.262212  11.166936  10.861531   9.445739   8.653640
    43  H   13.486793  11.365627  11.668285  10.489512   9.247678
    44  H   15.807786  13.841684  14.175216  13.000780  11.756446
    45  H   15.989710  13.123189  12.958225  11.568669  10.653375
    46  H   20.242171  18.369198  18.694116  17.498733  16.272218
    47  H   21.596294  19.362216  19.504155  18.212003  17.089260
                   11         12         13         14         15
    11  S    0.000000
    12  C    2.822148   0.000000
    13  C    4.122354   1.400725   0.000000
    14  C    5.287465   2.465918   1.391328   0.000000
    15  C    5.412019   2.790413   2.349304   1.370054   0.000000
    16  N    4.596700   2.499935   2.805926   2.459253   1.397165
    17  C    3.208203   1.448299   2.401378   2.794973   2.358170
    18  C    6.859702   4.303709   3.771267   2.525801   1.516886
    19  N    7.806666   5.092504   4.248403   2.862680   2.411636
    20  C    9.067576   6.429512   5.663993   4.285193   3.664918
    21  C    9.098967   6.695665   6.211787   4.925432   3.939547
    22  S    7.522213   5.320307   5.115291   4.026395   2.769786
    23  C   10.341864   8.054661   7.640210   6.369472   5.338735
    24  C   10.578529   8.557815   8.357982   7.195161   6.009896
    25  C   11.917323   9.949678   9.754270   8.578941   7.406768
    26  C   12.960700  10.817827  10.466207   9.203770   8.148689
    27  N   12.749990  10.409473   9.892043   8.564026   7.652397
    28  C   11.564870   9.154560   8.592792   7.255107   6.381081
    29  C   14.331106  12.237905  11.903595  10.642184   9.583221
    30  N   14.764364  12.851639  12.644413  11.443289  10.298947
    31  C   16.106180  14.174090  13.936295  12.713670  11.595969
    32  C   16.733562  14.638647  14.274136  12.991347  11.966391
    33  S   15.612041  13.367056  12.894300  11.572824  10.633109
    34  H    6.298969   9.055243  10.209589  11.496596  11.710352
    35  H    6.154097   8.550080   9.457924  10.832015  11.333992
    36  H    4.368679   6.351592   7.117370   8.505921   9.134509
    37  H    4.895714   7.706741   9.016140  10.164400  10.125317
    38  H    3.575470   3.004811   3.033855   4.369984   5.353142
    39  H    4.417207   2.111016   1.068872   2.127178   3.321258
    40  H    6.178834   3.373001   2.091959   1.023609   2.118942
    41  H    2.877416   2.196182   3.368314   3.822414   3.257572
    42  H    9.944255   7.241179   6.353854   4.962693   4.535230
    43  H    9.770408   7.936199   7.899281   6.850232   5.570807
    44  H   12.230165  10.447765  10.375496   9.269608   8.032658
    45  H   11.772154   9.219383   8.501150   7.122874   6.432168
    46  H   16.753933  14.944560  14.784377  13.599681  12.436581
    47  H   17.811519  15.692090  15.298714  14.001682  13.002817
                   16         17         18         19         20
    16  N    0.000000
    17  C    1.392873   0.000000
    18  C    2.421774   3.700460   0.000000
    19  N    3.596113   4.758953   1.279851   0.000000
    20  C    4.637209   5.926482   2.227280   1.431295   0.000000
    21  C    4.506412   5.891034   2.443681   2.407810   1.462263
    22  S    2.942790   4.332580   1.631043   2.500083   2.542382
    23  C    5.754298   7.146213   3.869259   3.813119   2.627264
    24  C    6.112696   7.468197   4.676416   4.927334   3.921323
    25  C    7.493536   8.837412   6.055398   6.215109   5.082056
    26  C    8.433976   9.811781   6.698367   6.595477   5.287229
    27  N    8.157490   9.550042   6.145887   5.801347   4.403329
    28  C    6.968998   8.357599   4.867043   4.480966   3.084635
    29  C    9.834606  11.204590   8.136774   8.017552   6.685994
    30  N   10.388639  11.721184   8.917819   8.951981   7.690961
    31  C   11.718846  13.056988  10.191971  10.158058   8.852064
    32  C   12.241216  13.611332  10.503275  10.300715   8.924047
    33  S   11.048021  12.436449   9.136523   8.807462   7.399328
    34  H   10.823103   9.460903  13.147894  14.102760  15.362796
    35  H   10.710861   9.319832  12.839675  13.620367  14.977928
    36  H    8.678361   7.314969  10.650850  11.338693  12.727020
    37  H    9.061837   7.781583  11.465834  12.535418  13.691946
    38  H    5.456991   4.426378   6.803654   7.218956   8.648047
    39  H    3.874649   3.368898   4.644830   4.917297   6.348519
    40  H    3.394066   3.816758   2.782514   2.636383   4.043239
    41  H    2.028502   1.031104   4.449623   5.599864   6.663640
    42  H    5.599787   6.850115   3.178420   2.149909   1.024579
    43  H    5.444750   6.746232   4.410412   4.941850   4.210917
    44  H    7.956107   9.248975   6.770299   7.066231   6.018518
    45  H    7.219037   8.578887   4.929826   4.264195   2.837875
    46  H   12.464050  13.772219  11.074071  11.121552   9.852379
    47  H   13.307465  14.681237  11.528492  11.276948   9.882575
                   21         22         23         24         25
    21  C    0.000000
    22  S    1.723152   0.000000
    23  C    1.448497   2.820940   0.000000
    24  C    2.537350   3.257993   1.418973   0.000000
    25  C    3.807745   4.656283   2.455719   1.398549   0.000000
    26  C    4.281280   5.505148   2.834888   2.427959   1.408068
    27  N    3.715648   5.231464   2.413931   2.758690   2.397201
    28  C    2.472187   4.092228   1.395266   2.365387   2.724694
    29  C    5.719207   6.919250   4.273852   3.754041   2.481273
    30  N    6.577027   7.557675   5.141098   4.300197   2.903781
    31  C    7.815160   8.868766   6.368792   5.616752   4.225971
    32  C    8.068605   9.322452   6.634901   6.155192   4.840986
    33  S    6.694979   8.105275   5.314232   5.138505   4.021123
    34  H   15.320392  13.679516  16.486754  16.540104  17.800871
    35  H   15.176668  13.651848  16.464635  16.732545  18.067764
    36  H   13.044953  11.608124  14.386739  14.782508  16.151055
    37  H   13.472716  11.780447  14.540204  14.460144  15.667070
    38  H    9.244911   8.093048  10.671444  11.349549  12.748011
    39  H    7.052418   6.083082   8.496505   9.296376  10.686393
    40  H    4.960242   4.403666   6.400774   7.388872   8.736049
    41  H    6.440377   4.780099   7.587461   7.728225   9.052708
    42  H    2.223809   3.545047   2.990855   4.392568   5.370933
    43  H    2.748995   2.824164   2.154942   1.098564   2.184104
    44  H    4.670888   5.264282   3.412087   2.139250   1.057179
    45  H    2.792161   4.514008   2.225114   3.422000   3.828152
    46  H    8.746061   9.681026   7.311235   6.426902   5.030142
    47  H    9.087593  10.381516   7.664878   7.233731   5.927745
                   26         27         28         29         30
    26  C    0.000000
    27  N    1.385568   0.000000
    28  C    2.350516   1.320908   0.000000
    29  C    1.439413   2.451012   3.662167   0.000000
    30  N    2.440192   3.686009   4.788589   1.336973   0.000000
    31  C    3.566652   4.629121   5.849509   2.188549   1.345519
    32  C    3.822361   4.531632   5.842111   2.406837   2.316493
    33  S    2.712917   3.010572   4.328231   1.677838   2.560012
    34  H   18.963974  18.898209  17.765598  20.270780  20.530510
    35  H   19.112426  18.863261  17.647796  20.485159  20.902711
    36  H   17.110381  16.756708  15.506108  18.512772  19.029479
    37  H   16.887369  16.933311  15.866450  18.147559  18.324461
    38  H   13.494545  12.921502  11.618320  14.931139  15.645982
    39  H   11.330844  10.677172   9.363596  12.769306  13.560624
    40  H    9.212910   8.436135   7.115495  10.641566  11.537203
    41  H   10.128661   9.999869   8.869704  11.482031  11.889769
    42  H    5.306355   4.215971   2.967673   6.626008   7.746301
    43  H    3.435290   3.856101   3.357641   4.660497   4.995155
    44  H    2.136871   3.355374   3.781366   2.695592   2.592917
    45  H    3.282006   1.992307   1.114225   4.441951   5.667572
    46  H    4.575962   5.720407   6.902604   3.269588   2.170895
    47  H    4.876595   5.479459   6.799654   3.480460   3.352224
                   31         32         33         34         35
    31  C    0.000000
    32  C    1.380395   0.000000
    33  S    2.531614   1.733895   0.000000
    34  H   21.864669  22.639554  21.661763   0.000000
    35  H   22.245028  22.887484  21.754019   2.526666   0.000000
    36  H   20.367160  20.919442  19.699372   4.262071   2.479346
    37  H   19.647713  20.485223  19.598572   2.485664   4.355811
    38  H   16.947673  17.305800  15.925866   8.264565   6.966994
    39  H   14.836566  15.117293  13.687494  10.165598   9.157692
    40  H   12.766933  12.936280  11.439592  12.299875  11.486151
    41  H   13.232213  13.879640  12.802911   8.900324   9.016583
    42  H    8.814449   8.727575   7.112460  16.242801  15.763445
    43  H    6.335916   7.023257   6.141194  15.617176  15.912532
    44  H    3.923822   4.810494   4.364880  17.941180  18.351801
    45  H    6.612658   6.406772   4.760942  18.038333  17.765888
    46  H    1.145559   2.215923   3.641985  22.372358  22.863819
    47  H    2.215786   1.088324   2.515260  23.727291  23.965588
                   36         37         38         39         40
    36  H    0.000000
    37  H    4.912510   0.000000
    38  H    4.499015   7.753970   0.000000
    39  H    6.732814   9.220189   2.341528   0.000000
    40  H    9.097751  11.072843   4.752805   2.412251   0.000000
    41  H    7.207368   7.051241   4.954807   4.267899   4.844453
    42  H   13.465191  14.629737   9.262863   6.929150   4.539990
    43  H   14.041964  13.488298  10.823234   8.891230   7.190912
    44  H   16.529744  15.731815  13.323215  11.346284   9.510952
    45  H   15.545444  16.243668  11.483068   9.174289   6.828651
    46  H   21.058072  20.102546  17.773891  15.712780  13.706237
    47  H   21.985224  21.573031  18.331937  16.124756  13.913019
                   41         42         43         44         45
    41  H    0.000000
    42  H    7.627849   0.000000
    43  H    6.897641   4.881543   0.000000
    44  H    9.353208   6.377203   2.512432   0.000000
    45  H    9.197197   2.364502   4.344922   4.882817   0.000000
    46  H   13.877650   9.869926   7.026649   4.528574   7.710901
    47  H   14.960758   9.625411   8.110669   5.886777   7.276124
                   46         47
    46  H    0.000000
    47  H    2.654547   0.000000
 Stoichiometry    C24H14N6S3
 Framework group  C1[X(C24H14N6S3)]
 Deg. of freedom   135
 Full point group                 C1      NOp   1
 Largest Abelian subgroup         C1      NOp   1
 Largest concise Abelian subgroup C1      NOp   1
                         Standard orientation:                         
 ---------------------------------------------------------------------
 Center     Atomic      Atomic             Coordinates (Angstroms)
 Number     Number       Type             X           Y           Z
 ---------------------------------------------------------------------
      1          6           0       10.780701    2.377608    0.005351
      2          6           0       10.879634    0.926562    0.030478
      3          6           0        9.795138    0.127096    0.019805
      4          6           0        8.487331    0.719079    0.013957
      5          7           0        8.386122    2.128598   -0.041629
      6          6           0        9.469716    2.907153    0.008755
      7          6           0        7.275408   -0.008229    0.001553
      8          7           0        7.283586   -1.418696    0.008762
      9          6           0        5.915189   -1.837911    0.025602
     10          6           0        4.915189   -0.897884    0.006051
     11         16           0        5.751490    0.641326   -0.024186
     12          6           0        3.487494   -1.043386   -0.048493
     13          6           0        2.857264   -2.294185   -0.029978
     14          6           0        1.477304   -2.471324   -0.018785
     15          6           0        0.713611   -1.335106    0.034405
     16          7           0        1.203722   -0.027366   -0.006547
     17          6           0        2.591110    0.091741    0.026029
     18          6           0       -0.802302   -1.384037    0.010779
     19          7           0       -1.384694   -2.523694    0.015262
     20          6           0       -2.806146   -2.356279    0.022377
     21          6           0       -3.207071   -0.950068    0.029090
     22         16           0       -1.738971   -0.049047   -0.016674
     23          6           0       -4.539331   -0.382027    0.052714
     24          6           0       -4.820640    1.007991    0.005826
     25          6           0       -6.136082    1.482719   -0.007819
     26          6           0       -7.208947    0.571201    0.019580
     27          7           0       -6.918677   -0.783120   -0.017264
     28          6           0       -5.665698   -1.200941   -0.033564
     29          6           0       -8.574506    1.023976   -0.026798
     30          7           0       -8.917684    2.312525    0.069996
     31          6           0      -10.255588    2.425273   -0.017890
     32          6           0      -10.971184    1.244879   -0.027018
     33         16           0       -9.844206   -0.072673   -0.007791
     34          1           0       11.602120    2.974501    0.034341
     35          1           0       11.903074    0.467208   -0.048999
     36          1           0        9.837562   -0.904222   -0.049869
     37          1           0        9.330363    3.981931   -0.017911
     38          1           0        5.822639   -2.933158    0.020454
     39          1           0        3.491896   -3.154188   -0.018757
     40          1           0        1.094791   -3.419477    0.030868
     41          1           0        2.907258    1.073147    0.034122
     42          1           0       -3.437206   -3.160738   -0.043726
     43          1           0       -3.962206    1.692477   -0.031744
     44          1           0       -6.333311    2.520342    0.037645
     45          1           0       -5.643699   -2.313509    0.023062
     46          1           0      -10.765151    3.450910    0.008907
     47          1           0      -12.053321    1.129962   -0.012078
 ---------------------------------------------------------------------
 Rotational constants (GHZ):           0.4838180           0.0228631           0.0218320
 Leave Link  202 at Fri Jul 24 20:32:47 2020, MaxMem=  4026531840 cpu:               0.3 elap:               0.1
 (Enter /opt/ohpc/pub/libs/gaussian/g16-A.03/sandybridge/g16/l301.exe)
 Standard basis: CC-pVDZ (5D, 7F)
 Ernie: Thresh=  0.10000D-02 Tol=  0.10000D-05 Strict=F.
 Ernie:  90 primitive shells out of 880 were deleted.
 There are   577 symmetry adapted cartesian basis functions of A   symmetry.
 There are   544 symmetry adapted basis functions of A   symmetry.
   544 basis functions,  1301 primitive gaussians,   577 cartesian basis functions
   124 alpha electrons      124 beta electrons
       nuclear repulsion energy      3104.0493124463 Hartrees.
 IExCor=32609 DFT=T Ex+Corr=LC-wPBE ExCW=0 ScaHFX=  1.000000
 ScaDFX=  1.000000  0.000000  1.000000  1.000000 ScalE2=  1.000000  1.000000
 IRadAn=      5 IRanWt=     -1 IRanGd=            0 ICorTp=0 IEmpDi=  4
 HFx  wShort=  0.000000 wLong=  0.455200 cFull=  0.000000 cShort=  0.000000 cLong=  1.000000
 DFx  wShort=  0.000000 wLong=  0.455200 cFull=  0.000000 cShort=  0.000000 cLong=  1.000000
 NAtoms=   47 NActive=   47 NUniq=   47 SFac= 1.00D+00 NAtFMM=   60 NAOKFM=F Big=F
 Integral buffers will be    131072 words long.
 Raffenetti 2 integral format.
 Two-electron integral symmetry is turned on.
 Leave Link  301 at Fri Jul 24 20:32:47 2020, MaxMem=  4026531840 cpu:               0.5 elap:               0.1
 (Enter /opt/ohpc/pub/libs/gaussian/g16-A.03/sandybridge/g16/l302.exe)
 NPDir=0 NMtPBC=     1 NCelOv=     1 NCel=       1 NClECP=     1 NCelD=      1
         NCelK=      1 NCelE2=     1 NClLst=     1 CellRange=     0.0.
 One-electron integrals computed using PRISM.
 One-electron integral symmetry used in STVInt
 NBasis=   544 RedAO= T EigKep=  3.89D-04  NBF=   544
 NBsUse=   544 1.00D-06 EigRej= -1.00D+00 NBFU=   544
 Precomputing XC quadrature grid using
 IXCGrd= 4 IRadAn=           5 IRanWt=          -1 IRanGd=           0 AccXCQ= 0.00D+00.
 Generated NRdTot=       0 NPtTot=           0 NUsed=           0 NTot=          32
 NSgBfM=   491   491   491   491   491 MxSgAt=    47 MxSgA2=    47.
 Leave Link  302 at Fri Jul 24 20:32:48 2020, MaxMem=  4026531840 cpu:               7.1 elap:               0.9
 (Enter /opt/ohpc/pub/libs/gaussian/g16-A.03/sandybridge/g16/l303.exe)
 DipDrv:  MaxL=1.
 Leave Link  303 at Fri Jul 24 20:32:48 2020, MaxMem=  4026531840 cpu:               0.9 elap:               0.1
 (Enter /opt/ohpc/pub/libs/gaussian/g16-A.03/sandybridge/g16/l401.exe)
 ExpMin= 1.22D-01 ExpMax= 1.11D+05 ExpMxC= 1.07D+03 IAcc=3 IRadAn=         5 AccDes= 0.00D+00
 Harris functional with IExCor=32609 and IRadAn=       5 diagonalized for initial guess.
 HarFok:  IExCor=32609 AccDes= 0.00D+00 IRadAn=         5 IDoV= 1 UseB2=F ITyADJ=14
 ICtDFT=  3500011 ScaDFX=  1.000000  1.000000  1.000000  1.000000
 FoFCou: FMM=F IPFlag=           0 FMFlag=      100000 FMFlg1=           0
         NFxFlg=           0 DoJE=T BraDBF=F KetDBF=T FulRan=T
         wScrn=  0.000000 ICntrl=       500 IOpCl=  0 I1Cent=   200000004 NGrid=           0
         NMat0=    1 NMatS0=      1 NMatT0=    0 NMatD0=    1 NMtDS0=    0 NMtDT0=    0
 Petite list used in FoFCou.
 Harris En= -2444.41030164613    
 JPrj=0 DoOrth=F DoCkMO=F.
 Initial guess <Sx>= 0.0000 <Sy>= 0.0000 <Sz>= 0.0000 <S**2>=-0.0000 S=-0.0000
 Leave Link  401 at Fri Jul 24 20:32:52 2020, MaxMem=  4026531840 cpu:              33.5 elap:               4.2
 (Enter /opt/ohpc/pub/libs/gaussian/g16-A.03/sandybridge/g16/l502.exe)
 Integral symmetry usage will be decided dynamically.
 UHF open shell SCF:
 Using DIIS extrapolation, IDIIS=  1040.
 NGot=  4026531840 LenX=  4025855579 LenY=  4025522073
 Requested convergence on RMS density matrix=1.00D-08 within 128 cycles.
 Requested convergence on MAX density matrix=1.00D-06.
 Requested convergence on             energy=1.00D-06.
 No special actions if energy rises.
 Fock matrices will be formed incrementally for  20 cycles.
 Integral accuracy reduced to 1.0D-05 until final iterations.

 Cycle   1  Pass 0  IDiag  1:
 FoFJK:  IHMeth= 1 ICntrl=       0 DoSepK=T KAlg= 0 I1Cent=           0 FoldK=F
 IRaf=         1 NMat=       1 IRICut=       1 DoRegI=T DoRafI=F ISym2E= 0 IDoP0=0 IntGTp=1.
 FoFCou: FMM=F IPFlag=           0 FMFlag=      100000 FMFlg1=           0
         NFxFlg=           0 DoJE=T BraDBF=F KetDBF=F FulRan=T
         wScrn=  0.000000 ICntrl=       500 IOpCl=  0 I1Cent=           0 NGrid=           0
         NMat0=    1 NMatS0=      1 NMatT0=    0 NMatD0=    1 NMtDS0=    0 NMtDT0=    0
 Symmetry not used in FoFCou.
 E= -2444.19145197355    
 DIIS: error= 1.85D-02 at cycle   1 NSaved=   1.
 NSaved= 1 IEnMin= 1 EnMin= -2444.19145197355     IErMin= 1 ErrMin= 1.85D-02
 ErrMax= 1.85D-02  0.00D+00 EMaxC= 1.00D-01 BMatC= 2.04D+00 BMatP= 2.04D+00
 IDIUse=3 WtCom= 8.15D-01 WtEn= 1.85D-01
 Coeff-Com:  0.100D+01
 Coeff-En:   0.100D+01
 Coeff:      0.100D+01
 Gap=     0.247 Goal=   None    Shift=    0.000
 Gap=     0.247 Goal=   None    Shift=    0.000
 GapD=    0.247 DampG=1.000 DampE=0.500 DampFc=0.5000 IDamp=-1.
 Damping current iteration by 5.00D-01
 RMSDP=2.88D-03 MaxDP=1.43D-01              OVMax= 2.11D-01

 Cycle   2  Pass 0  IDiag  1:
 RMSU=  1.42D-03    CP:  9.87D-01
 E= -2444.49646946746     Delta-E=       -0.305017493904 Rises=F Damp=T
 DIIS: error= 6.65D-03 at cycle   2 NSaved=   2.
 NSaved= 2 IEnMin= 2 EnMin= -2444.49646946746     IErMin= 2 ErrMin= 6.65D-03
 ErrMax= 6.65D-03  0.00D+00 EMaxC= 1.00D-01 BMatC= 1.49D-01 BMatP= 2.04D+00
 IDIUse=3 WtCom= 9.33D-01 WtEn= 6.65D-02
 Coeff-Com: -0.106D+00 0.111D+01
 Coeff-En:   0.000D+00 0.100D+01
 Coeff:     -0.990D-01 0.110D+01
 Gap=     0.272 Goal=   None    Shift=    0.000
 Gap=     0.272 Goal=   None    Shift=    0.000
 RMSDP=1.03D-03 MaxDP=2.64D-02 DE=-3.05D-01 OVMax= 1.15D-01

 Cycle   3  Pass 0  IDiag  1:
 RMSU=  9.31D-04    CP:  9.74D-01  1.27D+00
 E= -2444.78169277438     Delta-E=       -0.285223306925 Rises=F Damp=F
 DIIS: error= 3.37D-03 at cycle   3 NSaved=   3.
 NSaved= 3 IEnMin= 3 EnMin= -2444.78169277438     IErMin= 3 ErrMin= 3.37D-03
 ErrMax= 3.37D-03  0.00D+00 EMaxC= 1.00D-01 BMatC= 5.40D-02 BMatP= 1.49D-01
 IDIUse=3 WtCom= 9.66D-01 WtEn= 3.37D-02
 Coeff-Com: -0.803D-01 0.416D+00 0.665D+00
 Coeff-En:   0.000D+00 0.000D+00 0.100D+01
 Coeff:     -0.776D-01 0.402D+00 0.676D+00
 Gap=     0.270 Goal=   None    Shift=    0.000
 Gap=     0.270 Goal=   None    Shift=    0.000
 RMSDP=2.71D-04 MaxDP=1.68D-02 DE=-2.85D-01 OVMax= 2.41D-02

 Cycle   4  Pass 0  IDiag  1:
 RMSU=  2.38D-04    CP:  9.73D-01  1.32D+00  8.91D-01
 E= -2444.79462138858     Delta-E=       -0.012928614204 Rises=F Damp=F
 DIIS: error= 1.25D-03 at cycle   4 NSaved=   4.
 NSaved= 4 IEnMin= 4 EnMin= -2444.79462138858     IErMin= 4 ErrMin= 1.25D-03
 ErrMax= 1.25D-03  0.00D+00 EMaxC= 1.00D-01 BMatC= 6.94D-03 BMatP= 5.40D-02
 IDIUse=3 WtCom= 9.87D-01 WtEn= 1.25D-02
 Coeff-Com: -0.629D-02-0.221D-02 0.245D+00 0.763D+00
 Coeff-En:   0.000D+00 0.000D+00 0.000D+00 0.100D+01
 Coeff:     -0.621D-02-0.218D-02 0.242D+00 0.766D+00
 Gap=     0.274 Goal=   None    Shift=    0.000
 Gap=     0.274 Goal=   None    Shift=    0.000
 RMSDP=1.09D-04 MaxDP=5.34D-03 DE=-1.29D-02 OVMax= 1.14D-02

 Cycle   5  Pass 0  IDiag  1:
 RMSU=  8.29D-05    CP:  9.73D-01  1.32D+00  9.65D-01  9.63D-01
 E= -2444.79697262005     Delta-E=       -0.002351231468 Rises=F Damp=F
 DIIS: error= 5.33D-04 at cycle   5 NSaved=   5.
 NSaved= 5 IEnMin= 5 EnMin= -2444.79697262005     IErMin= 5 ErrMin= 5.33D-04
 ErrMax= 5.33D-04  0.00D+00 EMaxC= 1.00D-01 BMatC= 5.72D-04 BMatP= 6.94D-03
 IDIUse=3 WtCom= 9.95D-01 WtEn= 5.33D-03
 Coeff-Com:  0.955D-02-0.429D-01-0.152D-01 0.158D+00 0.891D+00
 Coeff-En:   0.000D+00 0.000D+00 0.000D+00 0.000D+00 0.100D+01
 Coeff:      0.950D-02-0.427D-01-0.151D-01 0.157D+00 0.891D+00
 Gap=     0.276 Goal=   None    Shift=    0.000
 Gap=     0.276 Goal=   None    Shift=    0.000
 RMSDP=4.74D-05 MaxDP=2.56D-03 DE=-2.35D-03 OVMax= 7.67D-03

 Cycle   6  Pass 0  IDiag  1:
 RMSU=  3.20D-05    CP:  9.72D-01  1.32D+00  9.85D-01  1.07D+00  1.19D+00
 E= -2444.79736576045     Delta-E=       -0.000393140401 Rises=F Damp=F
 DIIS: error= 2.50D-04 at cycle   6 NSaved=   6.
 NSaved= 6 IEnMin= 6 EnMin= -2444.79736576045     IErMin= 6 ErrMin= 2.50D-04
 ErrMax= 2.50D-04  0.00D+00 EMaxC= 1.00D-01 BMatC= 1.51D-04 BMatP= 5.72D-04
 IDIUse=3 WtCom= 9.97D-01 WtEn= 2.50D-03
 Coeff-Com:  0.583D-02-0.187D-01-0.462D-01-0.607D-01 0.299D+00 0.820D+00
 Coeff-En:   0.000D+00 0.000D+00 0.000D+00 0.000D+00 0.000D+00 0.100D+01
 Coeff:      0.581D-02-0.186D-01-0.460D-01-0.605D-01 0.298D+00 0.821D+00
 Gap=     0.278 Goal=   None    Shift=    0.000
 Gap=     0.278 Goal=   None    Shift=    0.000
 RMSDP=2.58D-05 MaxDP=1.43D-03 DE=-3.93D-04 OVMax= 3.73D-03

 Cycle   7  Pass 0  IDiag  1:
 RMSU=  1.58D-05    CP:  9.72D-01  1.32D+00  9.92D-01  1.11D+00  1.37D+00
                    CP:  1.21D+00
 E= -2444.79748351654     Delta-E=       -0.000117756089 Rises=F Damp=F
 DIIS: error= 1.24D-04 at cycle   7 NSaved=   7.
 NSaved= 7 IEnMin= 7 EnMin= -2444.79748351654     IErMin= 7 ErrMin= 1.24D-04
 ErrMax= 1.24D-04  0.00D+00 EMaxC= 1.00D-01 BMatC= 3.16D-05 BMatP= 1.51D-04
 IDIUse=3 WtCom= 9.99D-01 WtEn= 1.24D-03
 Coeff-Com: -0.391D-03 0.518D-02-0.524D-02-0.434D-01-0.180D+00 0.204D+00
 Coeff-Com:  0.102D+01
 Coeff-En:   0.000D+00 0.000D+00 0.000D+00 0.000D+00 0.000D+00 0.000D+00
 Coeff-En:   0.100D+01
 Coeff:     -0.391D-03 0.517D-02-0.523D-02-0.434D-01-0.180D+00 0.203D+00
 Coeff:      0.102D+01
 Gap=     0.278 Goal=   None    Shift=    0.000
 Gap=     0.278 Goal=   None    Shift=    0.000
 RMSDP=1.65D-05 MaxDP=9.89D-04 DE=-1.18D-04 OVMax= 2.97D-03

 Cycle   8  Pass 0  IDiag  1:
 RMSU=  6.05D-06    CP:  9.72D-01  1.32D+00  9.93D-01  1.13D+00  1.46D+00
                    CP:  1.56D+00  1.28D+00
 E= -2444.79751541722     Delta-E=       -0.000031900680 Rises=F Damp=F
 DIIS: error= 3.20D-05 at cycle   8 NSaved=   8.
 NSaved= 8 IEnMin= 8 EnMin= -2444.79751541722     IErMin= 8 ErrMin= 3.20D-05
 ErrMax= 3.20D-05  0.00D+00 EMaxC= 1.00D-01 BMatC= 5.82D-06 BMatP= 3.16D-05
 IDIUse=1 WtCom= 1.00D+00 WtEn= 0.00D+00
 Coeff-Com: -0.709D-03 0.392D-02 0.419D-02-0.496D-02-0.108D+00-0.421D-01
 Coeff-Com:  0.357D+00 0.790D+00
 Coeff:     -0.709D-03 0.392D-02 0.419D-02-0.496D-02-0.108D+00-0.421D-01
 Coeff:      0.357D+00 0.790D+00
 Gap=     0.278 Goal=   None    Shift=    0.000
 Gap=     0.278 Goal=   None    Shift=    0.000
 RMSDP=5.39D-06 MaxDP=2.80D-04 DE=-3.19D-05 OVMax= 8.76D-04

 Initial convergence to 1.0D-05 achieved.  Increase integral accuracy.
 Cycle   9  Pass 1  IDiag  1:
 E= -2444.79712693831     Delta-E=        0.000388478917 Rises=F Damp=F
 DIIS: error= 9.49D-05 at cycle   1 NSaved=   1.
 NSaved= 1 IEnMin= 1 EnMin= -2444.79712693831     IErMin= 1 ErrMin= 9.49D-05
 ErrMax= 9.49D-05  0.00D+00 EMaxC= 1.00D-01 BMatC= 1.87D-05 BMatP= 1.87D-05
 IDIUse=1 WtCom= 1.00D+00 WtEn= 0.00D+00
 Coeff-Com:  0.100D+01
 Coeff:      0.100D+01
 Gap=     0.278 Goal=   None    Shift=    0.000
 Gap=     0.278 Goal=   None    Shift=    0.000
 RMSDP=5.39D-06 MaxDP=2.80D-04 DE= 3.88D-04 OVMax= 2.61D-04

 Cycle  10  Pass 1  IDiag  1:
 RMSU=  6.17D-05    CP:  1.00D+00
 E= -2444.79713076926     Delta-E=       -0.000003830950 Rises=F Damp=F
 DIIS: error= 1.25D-05 at cycle   2 NSaved=   2.
 NSaved= 2 IEnMin= 2 EnMin= -2444.79713076926     IErMin= 2 ErrMin= 1.25D-05
 ErrMax= 1.25D-05  0.00D+00 EMaxC= 1.00D-01 BMatC= 7.24D-07 BMatP= 1.87D-05
 IDIUse=1 WtCom= 1.00D+00 WtEn= 0.00D+00
 Coeff-Com:  0.242D-01 0.976D+00
 Coeff:      0.242D-01 0.976D+00
 Gap=     0.278 Goal=   None    Shift=    0.000
 Gap=     0.278 Goal=   None    Shift=    0.000
 RMSDP=3.59D-06 MaxDP=1.40D-04 DE=-3.83D-06 OVMax= 2.38D-04

 Cycle  11  Pass 1  IDiag  1:
 RMSU=  1.86D-06    CP:  1.00D+00  1.05D+00
 E= -2444.79713097244     Delta-E=       -0.000000203186 Rises=F Damp=F
 DIIS: error= 1.29D-05 at cycle   3 NSaved=   3.
 NSaved= 3 IEnMin= 3 EnMin= -2444.79713097244     IErMin= 2 ErrMin= 1.25D-05
 ErrMax= 1.29D-05  0.00D+00 EMaxC= 1.00D-01 BMatC= 7.94D-07 BMatP= 7.24D-07
 IDIUse=1 WtCom= 1.00D+00 WtEn= 0.00D+00
 Coeff-Com: -0.238D-01 0.521D+00 0.503D+00
 Coeff:     -0.238D-01 0.521D+00 0.503D+00
 Gap=     0.278 Goal=   None    Shift=    0.000
 Gap=     0.278 Goal=   None    Shift=    0.000
 RMSDP=8.31D-07 MaxDP=4.39D-05 DE=-2.03D-07 OVMax= 8.60D-05

 Cycle  12  Pass 1  IDiag  1:
 RMSU=  6.97D-07    CP:  1.00D+00  1.05D+00  7.98D-01
 E= -2444.79713113844     Delta-E=       -0.000000166002 Rises=F Damp=F
 DIIS: error= 3.58D-06 at cycle   4 NSaved=   4.
 NSaved= 4 IEnMin= 4 EnMin= -2444.79713113844     IErMin= 4 ErrMin= 3.58D-06
 ErrMax= 3.58D-06  0.00D+00 EMaxC= 1.00D-01 BMatC= 2.73D-08 BMatP= 7.24D-07
 IDIUse=1 WtCom= 1.00D+00 WtEn= 0.00D+00
 Coeff-Com:  0.238D-03-0.127D+00-0.640D-01 0.119D+01
 Coeff:      0.238D-03-0.127D+00-0.640D-01 0.119D+01
 Gap=     0.278 Goal=   None    Shift=    0.000
 Gap=     0.278 Goal=   None    Shift=    0.000
 RMSDP=5.05D-07 MaxDP=2.82D-05 DE=-1.66D-07 OVMax= 9.35D-05

 Cycle  13  Pass 1  IDiag  1:
 RMSU=  3.11D-07    CP:  1.00D+00  1.06D+00  9.45D-01  1.40D+00
 E= -2444.79713122388     Delta-E=       -0.000000085440 Rises=F Damp=F
 DIIS: error= 2.51D-06 at cycle   5 NSaved=   5.
 NSaved= 5 IEnMin= 5 EnMin= -2444.79713122388     IErMin= 5 ErrMin= 2.51D-06
 ErrMax= 2.51D-06  0.00D+00 EMaxC= 1.00D-01 BMatC= 1.33D-08 BMatP= 2.73D-08
 IDIUse=1 WtCom= 1.00D+00 WtEn= 0.00D+00
 Coeff-Com:  0.100D-01-0.280D+00-0.247D+00 0.591D+00 0.927D+00
 Coeff:      0.100D-01-0.280D+00-0.247D+00 0.591D+00 0.927D+00
 Gap=     0.278 Goal=   None    Shift=    0.000
 Gap=     0.278 Goal=   None    Shift=    0.000
 RMSDP=3.80D-07 MaxDP=2.15D-05 DE=-8.54D-08 OVMax= 7.23D-05

 Cycle  14  Pass 1  IDiag  1:
 RMSU=  1.67D-07    CP:  1.00D+00  1.06D+00  1.02D+00  1.76D+00  1.55D+00
 E= -2444.79713124071     Delta-E=       -0.000000016829 Rises=F Damp=F
 DIIS: error= 5.02D-07 at cycle   6 NSaved=   6.
 NSaved= 6 IEnMin= 6 EnMin= -2444.79713124071     IErMin= 6 ErrMin= 5.02D-07
 ErrMax= 5.02D-07  0.00D+00 EMaxC= 1.00D-01 BMatC= 7.36D-10 BMatP= 1.33D-08
 IDIUse=1 WtCom= 1.00D+00 WtEn= 0.00D+00
 Coeff-Com:  0.228D-02-0.535D-01-0.522D-01 0.388D-01 0.227D+00 0.838D+00
 Coeff:      0.228D-02-0.535D-01-0.522D-01 0.388D-01 0.227D+00 0.838D+00
 Gap=     0.278 Goal=   None    Shift=    0.000
 Gap=     0.278 Goal=   None    Shift=    0.000
 RMSDP=7.23D-08 MaxDP=3.24D-06 DE=-1.68D-08 OVMax= 1.33D-05

 Cycle  15  Pass 1  IDiag  1:
 RMSU=  3.91D-08    CP:  1.00D+00  1.06D+00  1.03D+00  1.79D+00  1.70D+00
                    CP:  1.12D+00
 E= -2444.79713124119     Delta-E=       -0.000000000477 Rises=F Damp=F
 DIIS: error= 2.45D-07 at cycle   7 NSaved=   7.
 NSaved= 7 IEnMin= 7 EnMin= -2444.79713124119     IErMin= 7 ErrMin= 2.45D-07
 ErrMax= 2.45D-07  0.00D+00 EMaxC= 1.00D-01 BMatC= 2.14D-10 BMatP= 7.36D-10
 IDIUse=1 WtCom= 1.00D+00 WtEn= 0.00D+00
 Coeff-Com: -0.102D-02 0.325D-01 0.270D-01-0.102D+00-0.960D-01 0.318D+00
 Coeff-Com:  0.821D+00
 Coeff:     -0.102D-02 0.325D-01 0.270D-01-0.102D+00-0.960D-01 0.318D+00
 Coeff:      0.821D+00
 Gap=     0.278 Goal=   None    Shift=    0.000
 Gap=     0.278 Goal=   None    Shift=    0.000
 RMSDP=3.88D-08 MaxDP=1.36D-06 DE=-4.77D-10 OVMax= 6.74D-06

 Cycle  16  Pass 1  IDiag  1:
 RMSU=  2.06D-08    CP:  1.00D+00  1.05D+00  1.03D+00  1.80D+00  1.77D+00
                    CP:  1.24D+00  1.11D+00
 E= -2444.79713124132     Delta-E=       -0.000000000127 Rises=F Damp=F
 DIIS: error= 1.08D-07 at cycle   8 NSaved=   8.
 NSaved= 8 IEnMin= 8 EnMin= -2444.79713124132     IErMin= 8 ErrMin= 1.08D-07
 ErrMax= 1.08D-07  0.00D+00 EMaxC= 1.00D-01 BMatC= 2.68D-11 BMatP= 2.14D-10
 IDIUse=1 WtCom= 1.00D+00 WtEn= 0.00D+00
 Coeff-Com: -0.565D-03 0.155D-01 0.141D-01-0.315D-01-0.572D-01-0.236D-01
 Coeff-Com:  0.206D+00 0.877D+00
 Coeff:     -0.565D-03 0.155D-01 0.141D-01-0.315D-01-0.572D-01-0.236D-01
 Coeff:      0.206D+00 0.877D+00
 Gap=     0.278 Goal=   None    Shift=    0.000
 Gap=     0.278 Goal=   None    Shift=    0.000
 RMSDP=1.30D-08 MaxDP=5.02D-07 DE=-1.27D-10 OVMax= 2.65D-06

 Cycle  17  Pass 1  IDiag  1:
 RMSU=  7.73D-09    CP:  1.00D+00  1.05D+00  1.03D+00  1.81D+00  1.79D+00
                    CP:  1.25D+00  1.28D+00  1.25D+00
 E= -2444.79713124138     Delta-E=       -0.000000000066 Rises=F Damp=F
 DIIS: error= 5.75D-08 at cycle   9 NSaved=   9.
 NSaved= 9 IEnMin= 9 EnMin= -2444.79713124138     IErMin= 9 ErrMin= 5.75D-08
 ErrMax= 5.75D-08  0.00D+00 EMaxC= 1.00D-01 BMatC= 7.62D-12 BMatP= 2.68D-11
 IDIUse=1 WtCom= 1.00D+00 WtEn= 0.00D+00
 Coeff-Com:  0.163D-03-0.595D-02-0.448D-02 0.253D-01 0.124D-01-0.108D+00
 Coeff-Com: -0.204D+00 0.317D+00 0.967D+00
 Coeff:      0.163D-03-0.595D-02-0.448D-02 0.253D-01 0.124D-01-0.108D+00
 Coeff:     -0.204D+00 0.317D+00 0.967D+00
 Gap=     0.278 Goal=   None    Shift=    0.000
 Gap=     0.278 Goal=   None    Shift=    0.000
 RMSDP=8.10D-09 MaxDP=4.24D-07 DE=-6.64D-11 OVMax= 1.75D-06

 SCF Done:  E(ULC-wPBE) =  -2444.79713124     A.U. after   17 cycles
            NFock= 17  Conv=0.81D-08     -V/T= 2.0049
 <Sx>= 0.0000 <Sy>= 0.0000 <Sz>= 0.0000 <S**2>=-0.0000 S=-0.0000
 <L.S>= 0.000000000000E+00
 KE= 2.432891448462D+03 PE=-1.195100647857D+04 EE= 3.969268586417D+03
 Annihilation of the first spin contaminant:
 S**2 before annihilation    -0.0000,   after    -0.0000
 Leave Link  502 at Fri Jul 24 20:38:11 2020, MaxMem=  4026531840 cpu:            2544.4 elap:             319.2
 (Enter /opt/ohpc/pub/libs/gaussian/g16-A.03/sandybridge/g16/l601.exe)
 Copying SCF densities to generalized density rwf, IOpCl= 1 IROHF=0.

 **********************************************************************

            Population analysis using the SCF density.

 **********************************************************************

 Orbital symmetries:
 Alpha Orbitals:
       Occupied  (A) (A) (A) (A) (A) (A) (A) (A) (A) (A) (A) (A)
                 (A) (A) (A) (A) (A) (A) (A) (A) (A) (A) (A) (A)
                 (A) (A) (A) (A) (A) (A) (A) (A) (A) (A) (A) (A)
                 (A) (A) (A) (A) (A) (A) (A) (A) (A) (A) (A) (A)
                 (A) (A) (A) (A) (A) (A) (A) (A) (A) (A) (A) (A)
                 (A) (A) (A) (A) (A) (A) (A) (A) (A) (A) (A) (A)
                 (A) (A) (A) (A) (A) (A) (A) (A) (A) (A) (A) (A)
                 (A) (A) (A) (A) (A) (A) (A) (A) (A) (A) (A) (A)
                 (A) (A) (A) (A) (A) (A) (A) (A) (A) (A) (A) (A)
                 (A) (A) (A) (A) (A) (A) (A) (A) (A) (A) (A) (A)
                 (A) (A) (A) (A)
       Virtual   (A) (A) (A) (A) (A) (A) (A) (A) (A) (A) (A) (A)
                 (A) (A) (A) (A) (A) (A) (A) (A) (A) (A) (A) (A)
                 (A) (A) (A) (A) (A) (A) (A) (A) (A) (A) (A) (A)
                 (A) (A) (A) (A) (A) (A) (A) (A) (A) (A) (A) (A)
                 (A) (A) (A) (A) (A) (A) (A) (A) (A) (A) (A) (A)
                 (A) (A) (A) (A) (A) (A) (A) (A) (A) (A) (A) (A)
                 (A) (A) (A) (A) (A) (A) (A) (A) (A) (A) (A) (A)
                 (A) (A) (A) (A) (A) (A) (A) (A) (A) (A) (A) (A)
                 (A) (A) (A) (A) (A) (A) (A) (A) (A) (A) (A) (A)
                 (A) (A) (A) (A) (A) (A) (A) (A) (A) (A) (A) (A)
                 (A) (A) (A) (A) (A) (A) (A) (A) (A) (A) (A) (A)
                 (A) (A) (A) (A) (A) (A) (A) (A) (A) (A) (A) (A)
                 (A) (A) (A) (A) (A) (A) (A) (A) (A) (A) (A) (A)
                 (A) (A) (A) (A) (A) (A) (A) (A) (A) (A) (A) (A)
                 (A) (A) (A) (A) (A) (A) (A) (A) (A) (A) (A) (A)
                 (A) (A) (A) (A) (A) (A) (A) (A) (A) (A) (A) (A)
                 (A) (A) (A) (A) (A) (A) (A) (A) (A) (A) (A) (A)
                 (A) (A) (A) (A) (A) (A) (A) (A) (A) (A) (A) (A)
                 (A) (A) (A) (A) (A) (A) (A) (A) (A) (A) (A) (A)
                 (A) (A) (A) (A) (A) (A) (A) (A) (A) (A) (A) (A)
                 (A) (A) (A) (A) (A) (A) (A) (A) (A) (A) (A) (A)
                 (A) (A) (A) (A) (A) (A) (A) (A) (A) (A) (A) (A)
                 (A) (A) (A) (A) (A) (A) (A) (A) (A) (A) (A) (A)
                 (A) (A) (A) (A) (A) (A) (A) (A) (A) (A) (A) (A)
                 (A) (A) (A) (A) (A) (A) (A) (A) (A) (A) (A) (A)
                 (A) (A) (A) (A) (A) (A) (A) (A) (A) (A) (A) (A)
                 (A) (A) (A) (A) (A) (A) (A) (A) (A) (A) (A) (A)
                 (A) (A) (A) (A) (A) (A) (A) (A) (A) (A) (A) (A)
                 (A) (A) (A) (A) (A) (A) (A) (A) (A) (A) (A) (A)
                 (A) (A) (A) (A) (A) (A) (A) (A) (A) (A) (A) (A)
                 (A) (A) (A) (A) (A) (A) (A) (A) (A) (A) (A) (A)
                 (A) (A) (A) (A) (A) (A) (A) (A) (A) (A) (A) (A)
                 (A) (A) (A) (A) (A) (A) (A) (A) (A) (A) (A) (A)
                 (A) (A) (A) (A) (A) (A) (A) (A) (A) (A) (A) (A)
                 (A) (A) (A) (A) (A) (A) (A) (A) (A) (A) (A) (A)
 Beta  Orbitals:
       Occupied  (A) (A) (A) (A) (A) (A) (A) (A) (A) (A) (A) (A)
                 (A) (A) (A) (A) (A) (A) (A) (A) (A) (A) (A) (A)
                 (A) (A) (A) (A) (A) (A) (A) (A) (A) (A) (A) (A)
                 (A) (A) (A) (A) (A) (A) (A) (A) (A) (A) (A) (A)
                 (A) (A) (A) (A) (A) (A) (A) (A) (A) (A) (A) (A)
                 (A) (A) (A) (A) (A) (A) (A) (A) (A) (A) (A) (A)
                 (A) (A) (A) (A) (A) (A) (A) (A) (A) (A) (A) (A)
                 (A) (A) (A) (A) (A) (A) (A) (A) (A) (A) (A) (A)
                 (A) (A) (A) (A) (A) (A) (A) (A) (A) (A) (A) (A)
                 (A) (A) (A) (A) (A) (A) (A) (A) (A) (A) (A) (A)
                 (A) (A) (A) (A)
       Virtual   (A) (A) (A) (A) (A) (A) (A) (A) (A) (A) (A) (A)
                 (A) (A) (A) (A) (A) (A) (A) (A) (A) (A) (A) (A)
                 (A) (A) (A) (A) (A) (A) (A) (A) (A) (A) (A) (A)
                 (A) (A) (A) (A) (A) (A) (A) (A) (A) (A) (A) (A)
                 (A) (A) (A) (A) (A) (A) (A) (A) (A) (A) (A) (A)
[...]
    20   Atom        0.000000      0.000000     -0.000000
    21   Atom       -0.000000      0.000000      0.000000
    22   Atom       -0.000000     -0.000000      0.000000
    23   Atom        0.000000     -0.000000     -0.000000
    24   Atom       -0.000000      0.000000      0.000000
    25   Atom        0.000000     -0.000000     -0.000000
    26   Atom       -0.000000      0.000000     -0.000000
    27   Atom       -0.000000      0.000000     -0.000000
    28   Atom       -0.000000      0.000000      0.000000
    29   Atom       -0.000000      0.000000      0.000000
    30   Atom       -0.000000      0.000000      0.000000
    31   Atom        0.000000     -0.000000     -0.000000
    32   Atom       -0.000000      0.000000      0.000000
    33   Atom       -0.000000     -0.000000      0.000000
    34   Atom       -0.000000      0.000000     -0.000000
    35   Atom        0.000000     -0.000000     -0.000000
    36   Atom        0.000000     -0.000000     -0.000000
    37   Atom       -0.000000      0.000000     -0.000000
    38   Atom        0.000000     -0.000000      0.000000
    39   Atom       -0.000000      0.000000     -0.000000
    40   Atom       -0.000000      0.000000     -0.000000
    41   Atom       -0.000000      0.000000     -0.000000
    42   Atom        0.000000      0.000000     -0.000000
    43   Atom        0.000000     -0.000000     -0.000000
    44   Atom       -0.000000      0.000000      0.000000
    45   Atom       -0.000000      0.000000      0.000000
    46   Atom        0.000000      0.000000     -0.000000
    47   Atom        0.000000     -0.000000     -0.000000
 --------------------------------------------------------
                        XY            XZ            YZ
 --------------------------------------------------------
     1   Atom       -0.000000     -0.000000     -0.000000
     2   Atom       -0.000000      0.000000     -0.000000
     3   Atom        0.000000     -0.000000      0.000000
     4   Atom       -0.000000      0.000000     -0.000000
     5   Atom        0.000000      0.000000     -0.000000
     6   Atom       -0.000000      0.000000      0.000000
     7   Atom        0.000000     -0.000000      0.000000
     8   Atom       -0.000000      0.000000     -0.000000
     9   Atom       -0.000000      0.000000      0.000000
    10   Atom       -0.000000      0.000000      0.000000
    11   Atom       -0.000000      0.000000     -0.000000
    12   Atom        0.000000      0.000000      0.000000
    13   Atom        0.000000     -0.000000     -0.000000
    14   Atom       -0.000000      0.000000      0.000000
    15   Atom       -0.000000     -0.000000      0.000000
    16   Atom        0.000000      0.000000      0.000000
    17   Atom        0.000000      0.000000      0.000000
    18   Atom        0.000000      0.000000     -0.000000
    19   Atom       -0.000000     -0.000000     -0.000000
    20   Atom        0.000000      0.000000      0.000000
    21   Atom        0.000000      0.000000      0.000000
    22   Atom       -0.000000     -0.000000     -0.000000
    23   Atom       -0.000000     -0.000000     -0.000000
    24   Atom        0.000000      0.000000     -0.000000
    25   Atom       -0.000000     -0.000000      0.000000
    26   Atom       -0.000000     -0.000000     -0.000000
    27   Atom        0.000000     -0.000000     -0.000000
    28   Atom        0.000000      0.000000      0.000000
    29   Atom       -0.000000     -0.000000     -0.000000
    30   Atom        0.000000      0.000000      0.000000
    31   Atom        0.000000      0.000000      0.000000
    32   Atom        0.000000     -0.000000     -0.000000
    33   Atom       -0.000000      0.000000     -0.000000
    34   Atom        0.000000     -0.000000     -0.000000
    35   Atom       -0.000000      0.000000      0.000000
    36   Atom       -0.000000      0.000000      0.000000
    37   Atom       -0.000000      0.000000      0.000000
    38   Atom       -0.000000     -0.000000      0.000000
    39   Atom       -0.000000     -0.000000      0.000000
    40   Atom        0.000000     -0.000000      0.000000
    41   Atom        0.000000      0.000000      0.000000
    42   Atom        0.000000      0.000000      0.000000
    43   Atom        0.000000     -0.000000     -0.000000
    44   Atom        0.000000      0.000000      0.000000
    45   Atom       -0.000000     -0.000000      0.000000
    46   Atom        0.000000      0.000000     -0.000000
    47   Atom       -0.000000      0.000000      0.000000
 --------------------------------------------------------


 ---------------------------------------------------------------------------------
              Anisotropic Spin Dipole Couplings in Principal Axis System
 ---------------------------------------------------------------------------------

       Atom             a.u.   MegaHertz   Gauss  10(-4) cm-1        Axes

              Baa    -0.0000    -0.000    -0.000    -0.000  0.5012  0.8448  0.1874
     1 C(13)  Bbb     0.0000     0.000     0.000     0.000 -0.6397  0.2159  0.7377
              Bcc     0.0000     0.000     0.000     0.000  0.5827 -0.4896  0.6487
 
              Baa    -0.0000    -0.000    -0.000    -0.000 -0.0542  0.4875  0.8714
     2 C(13)  Bbb     0.0000     0.000     0.000     0.000  0.5090  0.7643 -0.3959
              Bcc     0.0000     0.000     0.000     0.000  0.8590 -0.4221  0.2896
 
              Baa    -0.0000    -0.000    -0.000    -0.000 -0.5295  0.7872 -0.3162
     3 C(13)  Bbb     0.0000     0.000     0.000     0.000  0.8409  0.5361 -0.0734
              Bcc     0.0000     0.000     0.000     0.000 -0.1118  0.3048  0.9458
 
              Baa    -0.0000    -0.000    -0.000    -0.000  0.1358  0.5732  0.8081
     4 C(13)  Bbb    -0.0000    -0.000    -0.000    -0.000  0.4945  0.6676 -0.5567
              Bcc     0.0000     0.000     0.000     0.000  0.8585 -0.4752  0.1928
 
              Baa    -0.0000    -0.000    -0.000    -0.000 -0.5806  0.8141  0.0133
     5 N(14)  Bbb    -0.0000    -0.000    -0.000    -0.000  0.8140  0.5807 -0.0094
              Bcc     0.0000     0.000     0.000     0.000  0.0154 -0.0054  0.9999
 
              Baa    -0.0000    -0.000    -0.000    -0.000  0.6052  0.7543 -0.2546
     6 C(13)  Bbb    -0.0000    -0.000    -0.000    -0.000  0.1324  0.2200  0.9665
              Bcc     0.0000     0.000     0.000     0.000  0.7850 -0.6186  0.0333
 
              Baa    -0.0000    -0.000    -0.000    -0.000  0.7714 -0.5737  0.2753
     7 C(13)  Bbb     0.0000     0.000     0.000     0.000  0.5355  0.8190  0.2062
              Bcc     0.0000     0.000     0.000     0.000 -0.3438 -0.0116  0.9390
 
              Baa    -0.0000    -0.000    -0.000    -0.000  0.9993  0.0357  0.0149
     8 N(14)  Bbb    -0.0000    -0.000    -0.000    -0.000 -0.0240  0.2707  0.9624
              Bcc     0.0000     0.000     0.000     0.000 -0.0303  0.9620 -0.2714
 
              Baa    -0.0000    -0.000    -0.000    -0.000  0.4078  0.8972 -0.1696
     9 C(13)  Bbb    -0.0000    -0.000    -0.000    -0.000  0.8485 -0.4410 -0.2924
              Bcc     0.0000     0.000     0.000     0.000  0.3372  0.0247  0.9411
 
              Baa    -0.0000    -0.000    -0.000    -0.000  0.9646  0.1234 -0.2330
    10 C(13)  Bbb     0.0000     0.000     0.000     0.000 -0.1324  0.9909 -0.0231
              Bcc     0.0000     0.000     0.000     0.000  0.2281  0.0532  0.9722
 
              Baa    -0.0000    -0.000    -0.000    -0.000  0.9900  0.0827 -0.1142
    11 S(33)  Bbb    -0.0000    -0.000    -0.000    -0.000  0.0998  0.1611  0.9819
              Bcc     0.0000     0.000     0.000     0.000 -0.0996  0.9835 -0.1512
 
              Baa    -0.0000    -0.000    -0.000    -0.000 -0.4014  0.8951  0.1942
    12 C(13)  Bbb    -0.0000    -0.000    -0.000    -0.000 -0.1705 -0.2813  0.9443
              Bcc     0.0000     0.000     0.000     0.000  0.8999  0.3460  0.2656
 
              Baa    -0.0000    -0.000    -0.000    -0.000  0.0174  0.0926  0.9956
    13 C(13)  Bbb    -0.0000    -0.000    -0.000    -0.000 -0.1408  0.9860 -0.0892
              Bcc     0.0000     0.000     0.000     0.000  0.9899  0.1387 -0.0302
 
              Baa    -0.0000    -0.000    -0.000    -0.000 -0.2485 -0.2285  0.9413
    14 C(13)  Bbb    -0.0000    -0.000    -0.000    -0.000  0.9468  0.1480  0.2858
              Bcc     0.0000     0.000     0.000     0.000 -0.2046  0.9622  0.1795
 
              Baa    -0.0000    -0.000    -0.000    -0.000  0.6750  0.3707  0.6380
    15 C(13)  Bbb    -0.0000    -0.000    -0.000    -0.000 -0.4589 -0.4661  0.7564
              Bcc     0.0000     0.000     0.000     0.000 -0.5778  0.8033  0.1445
 
              Baa    -0.0000    -0.000    -0.000    -0.000  0.0125 -0.1208  0.9926
    16 N(14)  Bbb     0.0000     0.000     0.000     0.000  0.9602 -0.2757 -0.0457
              Bcc     0.0000     0.000     0.000     0.000  0.2792  0.9536  0.1125
 
              Baa    -0.0000    -0.000    -0.000    -0.000  0.8267 -0.5318 -0.1835
    17 C(13)  Bbb    -0.0000    -0.000    -0.000    -0.000  0.0598 -0.2412  0.9686
              Bcc     0.0000     0.000     0.000     0.000  0.5594  0.8118  0.1676
 
              Baa    -0.0000    -0.000    -0.000    -0.000 -0.1381  0.9627  0.2324
    18 C(13)  Bbb     0.0000     0.000     0.000     0.000  0.0453 -0.2283  0.9725
              Bcc     0.0000     0.000     0.000     0.000  0.9894  0.1449 -0.0121
 
              Baa    -0.0000    -0.000    -0.000    -0.000  0.2810  0.9395  0.1959
    19 N(14)  Bbb     0.0000     0.000     0.000     0.000  0.9594 -0.2803 -0.0317
              Bcc     0.0000     0.000     0.000     0.000 -0.0251 -0.1969  0.9801
 
              Baa    -0.0000    -0.000    -0.000    -0.000 -0.0306 -0.1074  0.9937
    20 C(13)  Bbb     0.0000     0.000     0.000     0.000 -0.6364  0.7688  0.0635
              Bcc     0.0000     0.000     0.000     0.000  0.7708  0.6304  0.0919
 
              Baa    -0.0000    -0.000    -0.000    -0.000  0.9991 -0.0056 -0.0430
    21 C(13)  Bbb     0.0000     0.000     0.000     0.000  0.0427 -0.0477  0.9979
              Bcc     0.0000     0.000     0.000     0.000  0.0076  0.9988  0.0475
 
              Baa    -0.0000    -0.000    -0.000    -0.000  0.7314  0.6674  0.1401
    22 S(33)  Bbb     0.0000     0.000     0.000     0.000 -0.6795  0.6956  0.2335
              Bcc     0.0000     0.000     0.000     0.000  0.0584 -0.2660  0.9622
 
              Baa    -0.0000    -0.000    -0.000    -0.000  0.2979  0.8788  0.3728
    23 C(13)  Bbb     0.0000     0.000     0.000     0.000  0.0473 -0.4036  0.9137
              Bcc     0.0000     0.000     0.000     0.000  0.9534 -0.2545 -0.1618
 
              Baa    -0.0000    -0.000    -0.000    -0.000  0.9952 -0.0936 -0.0296
    24 C(13)  Bbb     0.0000     0.000     0.000     0.000  0.0981  0.9360  0.3381
              Bcc     0.0000     0.000     0.000     0.000 -0.0039 -0.3394  0.9406
 
              Baa    -0.0000    -0.000    -0.000    -0.000  0.0405 -0.3898  0.9200
    25 C(13)  Bbb    -0.0000    -0.000    -0.000    -0.000  0.5901  0.7524  0.2928
              Bcc     0.0000     0.000     0.000     0.000  0.8063 -0.5310 -0.2605
 
              Baa    -0.0000    -0.000    -0.000    -0.000  0.4881  0.5601  0.6693
    26 C(13)  Bbb    -0.0000    -0.000    -0.000    -0.000  0.8692 -0.2428 -0.4307
              Bcc     0.0000     0.000     0.000     0.000 -0.0787  0.7920 -0.6054
 
              Baa    -0.0000    -0.000    -0.000    -0.000  0.3294  0.0984  0.9390
    27 N(14)  Bbb    -0.0000    -0.000    -0.000    -0.000  0.8063 -0.5469 -0.2256
              Bcc     0.0000     0.000     0.000     0.000  0.4913  0.8314 -0.2595
 
              Baa    -0.0000    -0.000    -0.000    -0.000  0.8757 -0.3719 -0.3080
    28 C(13)  Bbb    -0.0000    -0.000    -0.000    -0.000  0.0838 -0.5111  0.8554
              Bcc     0.0000     0.000     0.000     0.000  0.4755  0.7749  0.4164
 
              Baa    -0.0000    -0.000    -0.000    -0.000  0.9832  0.0485  0.1757
    29 C(13)  Bbb     0.0000     0.000     0.000     0.000 -0.1166  0.9082  0.4020
              Bcc     0.0000     0.000     0.000     0.000 -0.1401 -0.4157  0.8986
 
              Baa    -0.0000    -0.000    -0.000    -0.000  0.8228  0.1782 -0.5397
    30 N(14)  Bbb    -0.0000    -0.000    -0.000    -0.000 -0.5002  0.6779 -0.5388
              Bcc     0.0000     0.000     0.000     0.000  0.2698  0.7133  0.6469
 
              Baa    -0.0000    -0.000    -0.000    -0.000 -0.0630  0.7745 -0.6295
    31 C(13)  Bbb     0.0000     0.000     0.000     0.000  0.7754 -0.3591 -0.5194
              Bcc     0.0000     0.000     0.000     0.000  0.6283  0.5208  0.5779
 
              Baa    -0.0000    -0.000    -0.000    -0.000  0.8786 -0.4342  0.1987
    32 C(13)  Bbb     0.0000     0.000     0.000     0.000  0.1957  0.7069  0.6797
              Bcc     0.0000     0.000     0.000     0.000 -0.4356 -0.5583  0.7061
 
              Baa    -0.0000    -0.000    -0.000    -0.000  0.9472  0.3177  0.0441
    33 S(33)  Bbb    -0.0000    -0.000    -0.000    -0.000 -0.3114  0.8779  0.3638
              Bcc     0.0000     0.000     0.000     0.000  0.0769 -0.3583  0.9304
 
              Baa    -0.0000    -0.000    -0.000    -0.000  0.8102 -0.5851 -0.0344
    34 H(1)   Bbb    -0.0000    -0.000    -0.000    -0.000  0.1334  0.1269  0.9829
              Bcc     0.0000     0.000     0.000     0.000  0.5707  0.8010 -0.1809
 
              Baa    -0.0000    -0.000    -0.000    -0.000  0.3466  0.9043 -0.2493
    35 H(1)   Bbb    -0.0000    -0.000    -0.000    -0.000 -0.1429  0.3136  0.9387
              Bcc     0.0000     0.000     0.000     0.000  0.9271 -0.2897  0.2379
 
              Baa    -0.0000    -0.000    -0.000    -0.000  0.4642  0.7086 -0.5314
    36 H(1)   Bbb     0.0000     0.000     0.000     0.000  0.3143  0.4292  0.8468
              Bcc     0.0000     0.000     0.000     0.000  0.8281 -0.5601 -0.0235
 
              Baa    -0.0000    -0.000    -0.000    -0.000  0.7036  0.4005 -0.5869
    37 H(1)   Bbb    -0.0000    -0.000    -0.000    -0.000  0.6943 -0.2121  0.6877
              Bcc     0.0000     0.000     0.000     0.000 -0.1509  0.8914  0.4273
 
              Baa    -0.0000    -0.000    -0.000    -0.000 -0.0834  0.7819 -0.6178
    38 H(1)   Bbb     0.0000     0.000     0.000     0.000  0.9173  0.3025  0.2591
              Bcc     0.0000     0.000     0.000     0.000 -0.3895  0.5450  0.7425
 
              Baa    -0.0000    -0.000    -0.000    -0.000  0.2897 -0.0503  0.9558
    39 H(1)   Bbb    -0.0000    -0.000    -0.000    -0.000  0.8685  0.4334 -0.2405
              Bcc     0.0000     0.000     0.000     0.000 -0.4021  0.8998  0.1693
 
              Baa    -0.0000    -0.000    -0.000    -0.000  0.0700 -0.1262  0.9895
    40 H(1)   Bbb    -0.0000    -0.000    -0.000    -0.000  0.9975 -0.0016 -0.0708
              Bcc     0.0000     0.000     0.000     0.000  0.0105  0.9920  0.1258
 
              Baa    -0.0000    -0.000    -0.000    -0.000  0.9737  0.0248 -0.2264
    41 H(1)   Bbb    -0.0000    -0.000    -0.000    -0.000  0.2254 -0.2486  0.9420
              Bcc     0.0000     0.000     0.000     0.000  0.0329  0.9683  0.2477
 
              Baa    -0.0000    -0.000    -0.000    -0.000 -0.0512 -0.0053  0.9987
    42 H(1)   Bbb     0.0000     0.000     0.000     0.000  0.7241 -0.6889  0.0335
              Bcc     0.0000     0.000     0.000     0.000  0.6878  0.7249  0.0391
 
              Baa    -0.0000    -0.000    -0.000    -0.000  0.1901  0.6561  0.7304
    43 H(1)   Bbb     0.0000     0.000     0.000     0.000  0.8122 -0.5230  0.2584
              Bcc     0.0000     0.000     0.000     0.000 -0.5516 -0.5441  0.6323
 
              Baa    -0.0000    -0.000    -0.000    -0.000  0.8067  0.1548 -0.5703
    44 H(1)   Bbb    -0.0000    -0.000    -0.000    -0.000 -0.5051  0.6815 -0.5295
              Bcc     0.0000     0.000     0.000     0.000  0.3067  0.7152  0.6280
 
              Baa    -0.0000    -0.000    -0.000    -0.000  0.9188  0.3519  0.1790
    45 H(1)   Bbb    -0.0000    -0.000    -0.000    -0.000 -0.1348  0.7056 -0.6957
              Bcc     0.0000     0.000     0.000     0.000 -0.3711  0.6150  0.6957
 
              Baa    -0.0000    -0.000    -0.000    -0.000 -0.4983  0.5753  0.6486
    46 H(1)   Bbb     0.0000     0.000     0.000     0.000  0.8344  0.5215  0.1785
              Bcc     0.0000     0.000     0.000     0.000  0.2355 -0.6301  0.7399
 
              Baa    -0.0000    -0.000    -0.000    -0.000 -0.4410 -0.3102  0.8422
    47 H(1)   Bbb    -0.0000    -0.000    -0.000    -0.000  0.0393  0.9308  0.3635
              Bcc     0.0000     0.000     0.000     0.000  0.8966 -0.1934  0.3983
 

 ---------------------------------------------------------------------------------

 No NMR shielding tensors so no spin-rotation constants.
 Leave Link  601 at Fri Jul 24 22:43:45 2020, MaxMem=  4026531840 cpu:               4.2 elap:               0.6
 (Enter /opt/ohpc/pub/libs/gaussian/g16-A.03/sandybridge/g16/l9999.exe)

 Test job not archived.
 1\1\GINC-SKYLAKE018\FOpt\ULC-wPBE\CC-pVDZ\C24H14N6S3\RDU230\24-Jul-202
 0\0\\#P uLC-wPBE/cc-pVDZ iop(3/107=0455200000, 3/108=0455200000) opt\\
 H14 C24 S3 N6\\0,1\C,10.6728840229,2.1543541094,-0.5202508848\C,10.787
 7836918,0.9121130591,0.0837289226\C,9.644184105,0.1672052073,0.3047005
 091\C,8.428068714,0.7072676794,-0.0932555375\N,8.304217694,1.896511130
 7,-0.6728120452\C,9.4092069688,2.5986278614,-0.8783585202\C,7.17773195
 6,-0.0406836611,0.1164623236\N,7.1074629919,-1.2114189843,0.6656408407
 \C,5.813835606,-1.6357532797,0.7165483397\C,4.8820711905,-0.7854783155
 ,0.2009685986\S,5.6739206781,0.626702484,-0.3826278008\C,3.4298991643,
 -0.9776300609,0.1267784965\C,2.8729198685,-2.2457170817,-0.0242894621\
 C,1.5012419055,-2.3860334524,-0.0675398409\C,0.7205151802,-1.241263680
 5,0.0289255983\N,1.2311936752,-0.0224675752,0.165511395\C,2.5465834693
 ,0.0974809526,0.2157909227\C,-0.7460869629,-1.3306775827,-0.0216295199
 \N,-1.4063194652,-2.4377700601,-0.1478432417\C,-2.7467181783,-2.193761
 8875,-0.1611408649\C,-3.1199219344,-0.887979989,-0.0470598622\S,-1.709
 7627317,0.0893199136,0.0837692696\C,-4.4773665867,-0.3325977285,-0.028
 6159174\C,-4.8160740919,0.7871534446,0.7272911813\C,-6.1156386422,1.25
 0230545,0.7128423016\C,-7.0478328208,0.5689638983,-0.0591452684\N,-6.7
 439296241,-0.4968566131,-0.792216744\C,-5.493227697,-0.9241809332,-0.7
 785524702\C,-8.4494932164,1.0139929581,-0.1011458882\N,-8.9084990938,2
 .0315784515,0.5556703878\C,-10.2431407851,2.1913525241,0.3130433764\C,
 -10.7945081174,1.2865646277,-0.5336467427\S,-9.6063618355,0.1779851022
 ,-1.0609373801\H,11.5468458217,2.7733551362,-0.7128258481\H,11.7625177
 679,0.5268951293,0.380353521\H,9.6621808489,-0.8139092563,0.7730640407
 \H,9.2782037563,3.571217013,-1.3559662159\H,5.5878486636,-2.5964709762
 ,1.1739076263\H,3.5177500014,-3.1176609606,-0.1237505604\H,1.017144513
 9,-3.352292344,-0.1857958758\H,2.9314530934,1.1116364878,0.3432619147\
 H,-3.4388013912,-3.0293921953,-0.2365069566\H,-4.0623583421,1.28715681
 38,1.3353023732\H,-6.4325063833,2.1174113687,1.2868130786\H,-5.2712771
 778,-1.7847494715,-1.4121347075\H,-10.778891253,3.006592541,0.79308507
 63\H,-11.8258110183,1.2227426507,-0.8653519387\\Version=EM64L-G16RevA.
 03\State=1-A\HF=-2444.9096589\S2=0.\S2-1=0.\S2A=0.\RMSD=7.326e-09\RMSF
 =4.803e-06\Dipole=1.2004578,0.0230236,0.0998756\Quadrupole=30.2256599,
 -10.4359303,-19.7897296,2.248071,0.4340252,0.1016895\PG=C01 [X(C24H14N
 6S3)]\\@


 "ANNA, YOU MUSN'T SPEAK OF OXIDIZED MURIATIC ACID
 ANYMORE, FROM NOW ON YOU MUST SAY CHLORINE."
   -- JENS JACOB BERZELIUS, IN 1820, TO HIS COOK, WHO HAD
 COMPLAINED OF THE SMELL OF THE FLASK SHE WAS CLEANING.
 Job cpu time:       0 days 17 hours 20 minutes 17.5 seconds.
 Elapsed time:       0 days  2 hours 10 minutes 57.5 seconds.
 File lengths (MBytes):  RWF=    384 Int=      0 D2E=      0 Chk=     36 Scr=      8
 Normal termination of Gaussian 16 at Fri Jul 24 22:43:45 2020.
