 Entering Gaussian System, Link 0=g16
 Input=mols_65_7_29_cF-cF-N_opt_0.gjf
 Output=mols_65_7_29_cF-cF-N_opt_0.log
 Initial command:
 /opt/ohpc/pub/libs/gaussian/g16-A.03/sandybridge/g16/l1.exe "/mnt/gpfs2_4m/scratch/rdu230/ondemand/projects/dihedral_energies/7trial/wtuning/mols_65_7_29_cF-cF-N/Gau-220028.inp" -scrdir="/mnt/gpfs2_4m/scratch/rdu230/ondemand/projects/dihedral_energies/7trial/wtuning/mols_65_7_29_cF-cF-N/"
 Entering Link 1 = /opt/ohpc/pub/libs/gaussian/g16-A.03/sandybridge/g16/l1.exe PID=    220030.
  
 Copyright (c) 1988,1990,1992,1993,1995,1998,2003,2009,2016,
            Gaussian, Inc.  All Rights Reserved.
  
 This is part of the Gaussian(R) 16 program.  It is based on
 the Gaussian(R) 09 system (copyright 2009, Gaussian, Inc.),
 the Gaussian(R) 03 system (copyright 2003, Gaussian, Inc.),
 the Gaussian(R) 98 system (copyright 1998, Gaussian, Inc.),
 the Gaussian(R) 94 system (copyright 1995, Gaussian, Inc.),
 the Gaussian 92(TM) system (copyright 1992, Gaussian, Inc.),
 the Gaussian 90(TM) system (copyright 1990, Gaussian, Inc.),
 the Gaussian 88(TM) system (copyright 1988, Gaussian, Inc.),
 the Gaussian 86(TM) system (copyright 1986, Carnegie Mellon
 University), and the Gaussian 82(TM) system (copyright 1983,
 Carnegie Mellon University). Gaussian is a federally registered
 trademark of Gaussian, Inc.
  
 This software contains proprietary and confidential information,
 including trade secrets, belonging to Gaussian, Inc.
  
 This software is provided under written license and may be
 used, copied, transmitted, or stored only in accord with that
 written license.
  
 The following legend is applicable only to US Government
 contracts under FAR:
  
                    RESTRICTED RIGHTS LEGEND
  
 Use, reproduction and disclosure by the US Government is
 subject to restrictions as set forth in subparagraphs (a)
 and (c) of the Commercial Computer Software - Restricted
 Rights clause in FAR 52.227-19.
  
 Gaussian, Inc.
 340 Quinnipiac St., Bldg. 40, Wallingford CT 06492
  
  
 ---------------------------------------------------------------
 Warning -- This program may not be used in any manner that
 competes with the business of Gaussian, Inc. or will provide
 assistance to any competitor of Gaussian, Inc.  The licensee
 of this program is prohibited from giving any competitor of
 Gaussian, Inc. access to this program.  By using this program,
 the user acknowledges that Gaussian, Inc. is engaged in the
 business of creating and licensing software in the field of
 computational chemistry and represents and warrants to the
 licensee that it is not a competitor of Gaussian, Inc. and that
 it will not use this program in any manner prohibited above.
 ---------------------------------------------------------------
  

 Cite this work as:
 Gaussian 16, Revision A.03,
 M. J. Frisch, G. W. Trucks, H. B. Schlegel, G. E. Scuseria, 
 M. A. Robb, J. R. Cheeseman, G. Scalmani, V. Barone, 
 G. A. Petersson, H. Nakatsuji, X. Li, M. Caricato, A. V. Marenich, 
 J. Bloino, B. G. Janesko, R. Gomperts, B. Mennucci, H. P. Hratchian, 
 J. V. Ortiz, A. F. Izmaylov, J. L. Sonnenberg, D. Williams-Young, 
 F. Ding, F. Lipparini, F. Egidi, J. Goings, B. Peng, A. Petrone, 
 T. Henderson, D. Ranasinghe, V. G. Zakrzewski, J. Gao, N. Rega, 
 G. Zheng, W. Liang, M. Hada, M. Ehara, K. Toyota, R. Fukuda, 
 J. Hasegawa, M. Ishida, T. Nakajima, Y. Honda, O. Kitao, H. Nakai, 
 T. Vreven, K. Throssell, J. A. Montgomery, Jr., J. E. Peralta, 
 F. Ogliaro, M. J. Bearpark, J. J. Heyd, E. N. Brothers, K. N. Kudin, 
 V. N. Staroverov, T. A. Keith, R. Kobayashi, J. Normand, 
 K. Raghavachari, A. P. Rendell, J. C. Burant, S. S. Iyengar, 
 J. Tomasi, M. Cossi, J. M. Millam, M. Klene, C. Adamo, R. Cammi, 
 J. W. Ochterski, R. L. Martin, K. Morokuma, O. Farkas, 
 J. B. Foresman, and D. J. Fox, Gaussian, Inc., Wallingford CT, 2016.
 
 ******************************************
 Gaussian 16:  EM64L-G16RevA.03 25-Dec-2016
                24-Jul-2020 
 ******************************************
 %mem=30GB
 %nproc=8
 Will use up to    8 processors via shared memory.
 ---------------------------------------------------------------
 #P uLC-wPBE/cc-pVDZ iop(3/107=0311600000, 3/108=0311600000) opt
 ---------------------------------------------------------------
 1/18=20,19=15,26=3,38=1/1,3;
 2/9=110,12=2,17=6,18=5,40=1/2;
 3/5=16,11=2,25=1,30=1,71=1,74=-41,107=311600000,108=311600000,116=2/1,2,3;
 4//1;
 5/5=2,38=5/2;
 6/7=2,8=2,9=2,10=2,28=1/1;
 7//1,2,3,16;
 1/18=20,19=15,26=3/3(2);
 2/9=110/2;
 99//99;
 2/9=110/2;
 3/5=16,11=2,25=1,30=1,71=1,74=-41,107=311600000,108=311600000,116=2/1,2,3;
 4/5=5,16=3,69=1/1;
 5/5=2,38=5/2;
 7//1,2,3,16;
 1/18=20,19=15,26=3/3(-5);
 2/9=110/2;
 6/7=2,8=2,9=2,10=2,19=2,28=1/1;
 99/9=1/99;
 Leave Link    1 at Fri Jul 24 12:28:09 2020, MaxMem=  4026531840 cpu:               2.5 elap:               0.4
 (Enter /opt/ohpc/pub/libs/gaussian/g16-A.03/sandybridge/g16/l101.exe)
 -----------------
 H23 C63 S7 N7 F14
 -----------------
 Symbolic Z-matrix:
 Charge =  0 Multiplicity = 1
 C                    -26.16515   3.87993   0.63626 
 C                    -26.03562   3.02865   1.72379 
 C                    -24.95025   2.08499   1.82433 
 F                    -24.81391   1.35324   2.92225 
 C                    -23.9893   2.10065   0.7383 
 C                    -24.14637   2.91129  -0.28035 
 F                    -23.32271   2.93067  -1.30721 
 C                    -25.19962   3.83857  -0.38466 
 C                    -22.85773   1.18163   0.88323 
 N                    -22.94927  -0.14888   1.13542 
 C                    -21.76415  -0.74203   1.14493 
 C                    -20.62765   0.03491   0.82186 
 S                    -21.19622   1.63634   0.60426 
 C                    -19.2481  -0.2599    0.74996 
 C                    -18.37796   0.27219  -0.2088 
 C                    -17.01675  -0.11677  -0.30987 
 F                    -16.34845   0.48741  -1.23421 
 C                    -16.58962  -1.15164   0.44122 
 C                    -17.44136  -1.75978   1.36447 
 F                    -17.00253  -2.75199   2.19714 
 C                    -18.69228  -1.30913   1.49324 
 C                    -15.14838  -1.65603   0.24462 
 N                    -14.89157  -2.98499   0.14167 
 C                    -13.52586  -3.09196  -0.04042 
 C                    -12.80945  -1.95265  -0.07403 
 S                    -13.79294  -0.59137   0.19797 
 C                    -11.31353  -1.88608  -0.19675 
 C                    -10.52109  -2.89049   0.2803 
 C                    -9.11949  -2.84409   0.04702 
 F                    -8.31661  -3.77242   0.48219 
 C                    -8.51988  -1.69413  -0.68582 
 C                    -9.40984  -0.67906  -1.10903 
 F                    -8.92878   0.34651  -1.78727 
 C                    -10.75202  -0.75155  -0.83219 
 C                    -7.1471   -1.7393   -1.00296 
 N                    -6.4976   -2.71164  -1.68632 
 C                    -5.15707  -2.49226  -1.76587 
 C                    -4.70987  -1.37811  -1.0765 
 S                    -6.04241  -0.49573  -0.45559 
 C                    -3.40212  -0.83465  -0.97618 
 C                    -2.97476   0.45006  -1.47576 
 C                    -1.68002   0.82538  -1.27543 
 F                    -1.32848   2.06704  -1.87262 
 C                    -0.73431   0.05659  -0.70541 
 C                    -1.04981  -1.19015  -0.20639 
 F                    -0.20894  -1.90888   0.43432 
 C                    -2.35475  -1.64256  -0.30628 
 C                     0.67053   0.51305  -0.58044 
 N                     1.01763   1.70036  -0.12472 
 C                     2.37852   1.90373  -0.11616 
 C                     3.14651   0.73874  -0.56738 
 S                     1.97459  -0.44092  -1.12114 
 C                     4.60336   0.58783  -0.68819 
 C                     5.36906   1.61049  -1.19106 
 C                     6.78218   1.38966  -1.31725 
 F                     7.48541   2.39035  -1.76997 
 C                     7.35593   0.23283  -0.93784 
 C                     6.56786  -0.8182   -0.46126 
 F                     7.00493  -2.0313   -0.09571 
 C                     5.178    -0.6589   -0.31276 
 C                     8.78517  -0.01775  -1.0739 
 N                     9.32944  -1.05539  -1.76438 
 C                     10.72376  -1.04576  -1.71559 
 C                     11.19572  -0.0106   -0.87557 
 S                     9.92682   0.88714  -0.29484 
 C                     12.64185   0.21     -0.51429 
 C                     13.20773   1.4801   -0.61474 
 C                     14.51567   1.71942  -0.34643 
 F                     15.01467   2.89773  -0.44445 
 C                     15.28407   0.67289   0.12797 
 C                     14.78956  -0.5979    0.27661 
 F                     15.50932  -1.66522   0.71628 
 C                     13.3808  -0.80901  -0.09145 
 C                     16.68825   0.88582   0.52831 
 N                     17.09885   1.83902   1.37558 
 C                     18.41508   1.83197   1.53145 
 C                     19.16621   0.90011   0.84246 
 S                     18.02342   0.03898  -0.08432 
 C                     20.52787   0.55476   0.80497 
 C                     21.0922  -0.69435   0.93147 
 C                     22.39854  -0.91288   0.92156 
 F                     22.8341  -2.17411   1.08426 
 C                     23.38669   0.05111   0.79366 
 C                     22.86479   1.32883   0.66703 
 F                     23.72936   2.41144   0.53807 
 C                     21.45417   1.68251   0.6744 
 C                     24.76304  -0.22489   0.77002 
 N                     25.32051  -1.15889   0.1185 
 C                     26.68339  -1.22528   0.38998 
 C                     27.14074  -0.2666    1.26728 
 S                     25.80964   0.67121   1.87024 
 H                    -26.99821   4.52207   0.5884 
 H                    -26.76076   2.93138   2.56643 
 H                    -25.35111   4.42835  -1.23232 
 H                    -21.76229  -1.81786   1.25602 
 H                    -18.75455   1.06181  -0.85121 
 H                    -19.34902  -1.8857    2.27245 
 H                    -13.19571  -4.1178   -0.12366 
 H                    -10.87864  -3.71301   0.75437 
 H                    -11.39931   0.07908  -1.25856 
 H                    -4.5778   -3.22134  -2.23698 
 H                    -3.6946    1.11524  -1.93697 
 H                    -2.60589  -2.60499   0.07606 
 H                     2.86907   2.79228   0.31785 
 H                     5.00268   2.52622  -1.44138 
 H                     4.55719  -1.45734   0.06318 
 H                     11.23659  -1.77887  -2.1707 
 H                     12.63711   2.31369  -0.99767 
 H                     13.01753  -1.79365   0.00332 
 H                     18.89077   2.60025   2.27096 
 H                     20.37565  -1.5213    1.09711 
 H                     21.11124   2.64697   0.58952 
 H                     27.3357  -1.95473  -0.12674 
 H                     28.12018  -0.15667   1.68946 
 
 ITRead=  0  0  0  0  0  0  0  0  0  0  0  0  0  0  0  0  0  0  0  0
 ITRead=  0  0  0  0  0  0  0  0  0  0  0  0  0  0  0  0  0  0  0  0
 ITRead=  0  0  0  0  0  0  0  0  0  0  0  0  0  0  0  0  0  0  0  0
 ITRead=  0  0  0  0  0  0  0  0  0  0  0  0  0  0  0  0  0  0  0  0
 ITRead=  0  0  0  0  0  0  0  0  0  0  0  0  0  0  0  0  0  0  0  0
 ITRead=  0  0  0  0  0  0  0  0  0  0  0  0  0  0
 MicOpt= -1 -1 -1 -1 -1 -1 -1 -1 -1 -1 -1 -1 -1 -1 -1 -1 -1 -1 -1 -1
 MicOpt= -1 -1 -1 -1 -1 -1 -1 -1 -1 -1 -1 -1 -1 -1 -1 -1 -1 -1 -1 -1
 MicOpt= -1 -1 -1 -1 -1 -1 -1 -1 -1 -1 -1 -1 -1 -1 -1 -1 -1 -1 -1 -1
 MicOpt= -1 -1 -1 -1 -1 -1 -1 -1 -1 -1 -1 -1 -1 -1 -1 -1 -1 -1 -1 -1
 MicOpt= -1 -1 -1 -1 -1 -1 -1 -1 -1 -1 -1 -1 -1 -1 -1 -1 -1 -1 -1 -1
 MicOpt= -1 -1 -1 -1 -1 -1 -1 -1 -1 -1 -1 -1 -1 -1
 NAtoms=    114 NQM=      114 NQMF=       0 NMMI=      0 NMMIF=      0
                NMic=       0 NMicF=      0.
                    Isotopes and Nuclear Properties:
 (Nuclear quadrupole moments (NQMom) in fm**2, nuclear magnetic moments (NMagM)
  in nuclear magnetons)

  Atom         1           2           3           4           5           6           7           8           9          10
 IAtWgt=          12          12          12          19          12          12          19          12          12          14
 AtmWgt=  12.0000000  12.0000000  12.0000000  18.9984033  12.0000000  12.0000000  18.9984033  12.0000000  12.0000000  14.0030740
 NucSpn=           0           0           0           1           0           0           1           0           0           2
 AtZEff=  -0.0000000  -0.0000000  -0.0000000  -0.0000000  -0.0000000  -0.0000000  -0.0000000  -0.0000000  -0.0000000  -0.0000000
 NQMom=    0.0000000   0.0000000   0.0000000   0.0000000   0.0000000   0.0000000   0.0000000   0.0000000   0.0000000   2.0440000
 NMagM=    0.0000000   0.0000000   0.0000000   2.6288670   0.0000000   0.0000000   2.6288670   0.0000000   0.0000000   0.4037610
 AtZNuc=   6.0000000   6.0000000   6.0000000   9.0000000   6.0000000   6.0000000   9.0000000   6.0000000   6.0000000   7.0000000

  Atom        11          12          13          14          15          16          17          18          19          20
 IAtWgt=          12          12          32          12          12          12          19          12          12          19
 AtmWgt=  12.0000000  12.0000000  31.9720718  12.0000000  12.0000000  12.0000000  18.9984033  12.0000000  12.0000000  18.9984033
 NucSpn=           0           0           0           0           0           0           1           0           0           1
 AtZEff=  -0.0000000  -0.0000000  -0.0000000  -0.0000000  -0.0000000  -0.0000000  -0.0000000  -0.0000000  -0.0000000  -0.0000000
 NQMom=    0.0000000   0.0000000   0.0000000   0.0000000   0.0000000   0.0000000   0.0000000   0.0000000   0.0000000   0.0000000
 NMagM=    0.0000000   0.0000000   0.0000000   0.0000000   0.0000000   0.0000000   2.6288670   0.0000000   0.0000000   2.6288670
 AtZNuc=   6.0000000   6.0000000  16.0000000   6.0000000   6.0000000   6.0000000   9.0000000   6.0000000   6.0000000   9.0000000

  Atom        21          22          23          24          25          26          27          28          29          30
 IAtWgt=          12          12          14          12          12          32          12          12          12          19
 AtmWgt=  12.0000000  12.0000000  14.0030740  12.0000000  12.0000000  31.9720718  12.0000000  12.0000000  12.0000000  18.9984033
 NucSpn=           0           0           2           0           0           0           0           0           0           1
 AtZEff=  -0.0000000  -0.0000000  -0.0000000  -0.0000000  -0.0000000  -0.0000000  -0.0000000  -0.0000000  -0.0000000  -0.0000000
 NQMom=    0.0000000   0.0000000   2.0440000   0.0000000   0.0000000   0.0000000   0.0000000   0.0000000   0.0000000   0.0000000
 NMagM=    0.0000000   0.0000000   0.4037610   0.0000000   0.0000000   0.0000000   0.0000000   0.0000000   0.0000000   2.6288670
 AtZNuc=   6.0000000   6.0000000   7.0000000   6.0000000   6.0000000  16.0000000   6.0000000   6.0000000   6.0000000   9.0000000

  Atom        31          32          33          34          35          36          37          38          39          40
 IAtWgt=          12          12          19          12          12          14          12          12          32          12
 AtmWgt=  12.0000000  12.0000000  18.9984033  12.0000000  12.0000000  14.0030740  12.0000000  12.0000000  31.9720718  12.0000000
 NucSpn=           0           0           1           0           0           2           0           0           0           0
 AtZEff=  -0.0000000  -0.0000000  -0.0000000  -0.0000000  -0.0000000  -0.0000000  -0.0000000  -0.0000000  -0.0000000  -0.0000000
 NQMom=    0.0000000   0.0000000   0.0000000   0.0000000   0.0000000   2.0440000   0.0000000   0.0000000   0.0000000   0.0000000
 NMagM=    0.0000000   0.0000000   2.6288670   0.0000000   0.0000000   0.4037610   0.0000000   0.0000000   0.0000000   0.0000000
 AtZNuc=   6.0000000   6.0000000   9.0000000   6.0000000   6.0000000   7.0000000   6.0000000   6.0000000  16.0000000   6.0000000

  Atom        41          42          43          44          45          46          47          48          49          50
 IAtWgt=          12          12          19          12          12          19          12          12          14          12
 AtmWgt=  12.0000000  12.0000000  18.9984033  12.0000000  12.0000000  18.9984033  12.0000000  12.0000000  14.0030740  12.0000000
 NucSpn=           0           0           1           0           0           1           0           0           2           0
 AtZEff=  -0.0000000  -0.0000000  -0.0000000  -0.0000000  -0.0000000  -0.0000000  -0.0000000  -0.0000000  -0.0000000  -0.0000000
 NQMom=    0.0000000   0.0000000   0.0000000   0.0000000   0.0000000   0.0000000   0.0000000   0.0000000   2.0440000   0.0000000
 NMagM=    0.0000000   0.0000000   2.6288670   0.0000000   0.0000000   2.6288670   0.0000000   0.0000000   0.4037610   0.0000000
 AtZNuc=   6.0000000   6.0000000   9.0000000   6.0000000   6.0000000   9.0000000   6.0000000   6.0000000   7.0000000   6.0000000

  Atom        51          52          53          54          55          56          57          58          59          60
 IAtWgt=          12          32          12          12          12          19          12          12          19          12
 AtmWgt=  12.0000000  31.9720718  12.0000000  12.0000000  12.0000000  18.9984033  12.0000000  12.0000000  18.9984033  12.0000000
 NucSpn=           0           0           0           0           0           1           0           0           1           0
 AtZEff=  -0.0000000  -0.0000000  -0.0000000  -0.0000000  -0.0000000  -0.0000000  -0.0000000  -0.0000000  -0.0000000  -0.0000000
 NQMom=    0.0000000   0.0000000   0.0000000   0.0000000   0.0000000   0.0000000   0.0000000   0.0000000   0.0000000   0.0000000
 NMagM=    0.0000000   0.0000000   0.0000000   0.0000000   0.0000000   2.6288670   0.0000000   0.0000000   2.6288670   0.0000000
 AtZNuc=   6.0000000  16.0000000   6.0000000   6.0000000   6.0000000   9.0000000   6.0000000   6.0000000   9.0000000   6.0000000

  Atom        61          62          63          64          65          66          67          68          69          70
 IAtWgt=          12          14          12          12          32          12          12          12          19          12
 AtmWgt=  12.0000000  14.0030740  12.0000000  12.0000000  31.9720718  12.0000000  12.0000000  12.0000000  18.9984033  12.0000000
 NucSpn=           0           2           0           0           0           0           0           0           1           0
 AtZEff=  -0.0000000  -0.0000000  -0.0000000  -0.0000000  -0.0000000  -0.0000000  -0.0000000  -0.0000000  -0.0000000  -0.0000000
 NQMom=    0.0000000   2.0440000   0.0000000   0.0000000   0.0000000   0.0000000   0.0000000   0.0000000   0.0000000   0.0000000
 NMagM=    0.0000000   0.4037610   0.0000000   0.0000000   0.0000000   0.0000000   0.0000000   0.0000000   2.6288670   0.0000000
 AtZNuc=   6.0000000   7.0000000   6.0000000   6.0000000  16.0000000   6.0000000   6.0000000   6.0000000   9.0000000   6.0000000

  Atom        71          72          73          74          75          76          77          78          79          80
 IAtWgt=          12          19          12          12          14          12          12          32          12          12
 AtmWgt=  12.0000000  18.9984033  12.0000000  12.0000000  14.0030740  12.0000000  12.0000000  31.9720718  12.0000000  12.0000000
 NucSpn=           0           1           0           0           2           0           0           0           0           0
 AtZEff=  -0.0000000  -0.0000000  -0.0000000  -0.0000000  -0.0000000  -0.0000000  -0.0000000  -0.0000000  -0.0000000  -0.0000000
 NQMom=    0.0000000   0.0000000   0.0000000   0.0000000   2.0440000   0.0000000   0.0000000   0.0000000   0.0000000   0.0000000
 NMagM=    0.0000000   2.6288670   0.0000000   0.0000000   0.4037610   0.0000000   0.0000000   0.0000000   0.0000000   0.0000000
 AtZNuc=   6.0000000   9.0000000   6.0000000   6.0000000   7.0000000   6.0000000   6.0000000  16.0000000   6.0000000   6.0000000

  Atom        81          82          83          84          85          86          87          88          89          90
 IAtWgt=          12          19          12          12          19          12          12          14          12          12
 AtmWgt=  12.0000000  18.9984033  12.0000000  12.0000000  18.9984033  12.0000000  12.0000000  14.0030740  12.0000000  12.0000000
 NucSpn=           0           1           0           0           1           0           0           2           0           0
 AtZEff=  -0.0000000  -0.0000000  -0.0000000  -0.0000000  -0.0000000  -0.0000000  -0.0000000  -0.0000000  -0.0000000  -0.0000000
 NQMom=    0.0000000   0.0000000   0.0000000   0.0000000   0.0000000   0.0000000   0.0000000   2.0440000   0.0000000   0.0000000
 NMagM=    0.0000000   2.6288670   0.0000000   0.0000000   2.6288670   0.0000000   0.0000000   0.4037610   0.0000000   0.0000000
 AtZNuc=   6.0000000   9.0000000   6.0000000   6.0000000   9.0000000   6.0000000   6.0000000   7.0000000   6.0000000   6.0000000

  Atom        91          92          93          94          95          96          97          98          99         100
 IAtWgt=          32           1           1           1           1           1           1           1           1           1
 AtmWgt=  31.9720718   1.0078250   1.0078250   1.0078250   1.0078250   1.0078250   1.0078250   1.0078250   1.0078250   1.0078250
 NucSpn=           0           1           1           1           1           1           1           1           1           1
 AtZEff=  -0.0000000  -0.0000000  -0.0000000  -0.0000000  -0.0000000  -0.0000000  -0.0000000  -0.0000000  -0.0000000  -0.0000000
 NQMom=    0.0000000   0.0000000   0.0000000   0.0000000   0.0000000   0.0000000   0.0000000   0.0000000   0.0000000   0.0000000
 NMagM=    0.0000000   2.7928460   2.7928460   2.7928460   2.7928460   2.7928460   2.7928460   2.7928460   2.7928460   2.7928460
 AtZNuc=  16.0000000   1.0000000   1.0000000   1.0000000   1.0000000   1.0000000   1.0000000   1.0000000   1.0000000   1.0000000

  Atom       101         102         103         104         105         106         107         108         109         110
 IAtWgt=           1           1           1           1           1           1           1           1           1           1
 AtmWgt=   1.0078250   1.0078250   1.0078250   1.0078250   1.0078250   1.0078250   1.0078250   1.0078250   1.0078250   1.0078250
 NucSpn=           1           1           1           1           1           1           1           1           1           1
 AtZEff=  -0.0000000  -0.0000000  -0.0000000  -0.0000000  -0.0000000  -0.0000000  -0.0000000  -0.0000000  -0.0000000  -0.0000000
 NQMom=    0.0000000   0.0000000   0.0000000   0.0000000   0.0000000   0.0000000   0.0000000   0.0000000   0.0000000   0.0000000
 NMagM=    2.7928460   2.7928460   2.7928460   2.7928460   2.7928460   2.7928460   2.7928460   2.7928460   2.7928460   2.7928460
 AtZNuc=   1.0000000   1.0000000   1.0000000   1.0000000   1.0000000   1.0000000   1.0000000   1.0000000   1.0000000   1.0000000

  Atom       111         112         113         114
 IAtWgt=           1           1           1           1
 AtmWgt=   1.0078250   1.0078250   1.0078250   1.0078250
 NucSpn=           1           1           1           1
 AtZEff=  -0.0000000  -0.0000000  -0.0000000  -0.0000000
 NQMom=    0.0000000   0.0000000   0.0000000   0.0000000
 NMagM=    2.7928460   2.7928460   2.7928460   2.7928460
 AtZNuc=   1.0000000   1.0000000   1.0000000   1.0000000
 Leave Link  101 at Fri Jul 24 12:28:09 2020, MaxMem=  4026531840 cpu:               2.9 elap:               0.4
 (Enter /opt/ohpc/pub/libs/gaussian/g16-A.03/sandybridge/g16/l103.exe)

 GradGradGradGradGradGradGradGradGradGradGradGradGradGradGradGradGradGrad
 Berny optimization.
 Initialization pass.
                           ----------------------------
                           !    Initial Parameters    !
                           ! (Angstroms and Degrees)  !
 --------------------------                            --------------------------
 ! Name  Definition              Value          Derivative Info.                !
 --------------------------------------------------------------------------------
 ! R1    R(1,2)                  1.3871         estimate D2E/DX2                !
 ! R2    R(1,8)                  1.4058         estimate D2E/DX2                !
 ! R3    R(1,92)                 1.0529         estimate D2E/DX2                !
 ! R4    R(2,3)                  1.4417         estimate D2E/DX2                !
 ! R5    R(2,93)                 1.1159         estimate D2E/DX2                !
 ! R6    R(3,4)                  1.3265         estimate D2E/DX2                !
 ! R7    R(3,5)                  1.4502         estimate D2E/DX2                !
 ! R8    R(5,6)                  1.3113         estimate D2E/DX2                !
 ! R9    R(5,9)                  1.4649         estimate D2E/DX2                !
 ! R10   R(6,7)                  1.3165         estimate D2E/DX2                !
 ! R11   R(6,8)                  1.4072         estimate D2E/DX2                !
 ! R12   R(8,94)                 1.0437         estimate D2E/DX2                !
 ! R13   R(9,10)                 1.3573         estimate D2E/DX2                !
 ! R14   R(9,13)                 1.745          estimate D2E/DX2                !
 ! R15   R(10,11)                1.3253         estimate D2E/DX2                !
 ! R16   R(11,12)                1.4141         estimate D2E/DX2                !
 ! R17   R(11,95)                1.0815         estimate D2E/DX2                !
 ! R18   R(12,13)                1.7132         estimate D2E/DX2                !
 ! R19   R(12,14)                1.4125         estimate D2E/DX2                !
 ! R20   R(14,15)                1.3998         estimate D2E/DX2                !
 ! R21   R(14,21)                1.4008         estimate D2E/DX2                !
 ! R22   R(15,16)                1.4193         estimate D2E/DX2                !
 ! R23   R(15,96)                1.0854         estimate D2E/DX2                !
 ! R24   R(16,17)                1.2908         estimate D2E/DX2                !
 ! R25   R(16,18)                1.3482         estimate D2E/DX2                !
 ! R26   R(18,19)                1.3956         estimate D2E/DX2                !
 ! R27   R(18,22)                1.5396         estimate D2E/DX2                !
 ! R28   R(19,20)                1.3676         estimate D2E/DX2                !
 ! R29   R(19,21)                1.3358         estimate D2E/DX2                !
 ! R30   R(21,97)                1.1709         estimate D2E/DX2                !
 ! R31   R(22,23)                1.3575         estimate D2E/DX2                !
 ! R32   R(22,26)                1.7242         estimate D2E/DX2                !
 ! R33   R(23,24)                1.3819         estimate D2E/DX2                !
 ! R34   R(24,25)                1.3463         estimate D2E/DX2                !
 ! R35   R(24,98)                1.0809         estimate D2E/DX2                !
 ! R36   R(25,26)                1.7013         estimate D2E/DX2                !
 ! R37   R(25,27)                1.5024         estimate D2E/DX2                !
 ! R38   R(27,28)                1.3654         estimate D2E/DX2                !
 ! R39   R(27,34)                1.4164         estimate D2E/DX2                !
 ! R40   R(28,29)                1.4216         estimate D2E/DX2                !
 ! R41   R(28,99)                1.0145         estimate D2E/DX2                !
 ! R42   R(29,30)                1.3022         estimate D2E/DX2                !
 ! R43   R(29,31)                1.4896         estimate D2E/DX2                !
 ! R44   R(31,32)                1.4148         estimate D2E/DX2                !
 ! R45   R(31,35)                1.4097         estimate D2E/DX2                !
 ! R46   R(32,33)                1.3203         estimate D2E/DX2                !
 ! R47   R(32,34)                1.3724         estimate D2E/DX2                !
 ! R48   R(34,100)               1.1361         estimate D2E/DX2                !
 ! R49   R(35,36)                1.3544         estimate D2E/DX2                !
 ! R50   R(35,39)                1.7511         estimate D2E/DX2                !
 ! R51   R(36,37)                1.3607         estimate D2E/DX2                !
 ! R52   R(37,38)                1.3844         estimate D2E/DX2                !
 ! R53   R(37,101)               1.0436         estimate D2E/DX2                !
 ! R54   R(38,39)                1.7146         estimate D2E/DX2                !
 ! R55   R(38,40)                1.4197         estimate D2E/DX2                !
 ! R56   R(40,41)                1.4432         estimate D2E/DX2                !
 ! R57   R(40,47)                1.4827         estimate D2E/DX2                !
 ! R58   R(41,42)                1.3628         estimate D2E/DX2                !
 ! R59   R(41,102)               1.0832         estimate D2E/DX2                !
 ! R60   R(42,43)                1.4219         estimate D2E/DX2                !
 ! R61   R(42,44)                1.3455         estimate D2E/DX2                !
 ! R62   R(44,45)                1.3795         estimate D2E/DX2                !
 ! R63   R(44,48)                1.4824         estimate D2E/DX2                !
 ! R64   R(45,46)                1.2783         estimate D2E/DX2                !
 ! R65   R(45,47)                1.3847         estimate D2E/DX2                !
 ! R66   R(47,103)               1.0656         estimate D2E/DX2                !
 ! R67   R(48,49)                1.3183         estimate D2E/DX2                !
 ! R68   R(48,52)                1.7038         estimate D2E/DX2                !
 ! R69   R(49,50)                1.376          estimate D2E/DX2                !
 ! R70   R(50,51)                1.4665         estimate D2E/DX2                !
 ! R71   R(50,104)               1.1039         estimate D2E/DX2                !
 ! R72   R(51,52)                1.7526         estimate D2E/DX2                !
 ! R73   R(51,53)                1.4696         estimate D2E/DX2                !
 ! R74   R(53,54)                1.373          estimate D2E/DX2                !
 ! R75   R(53,60)                1.4232         estimate D2E/DX2                !
 ! R76   R(54,55)                1.4358         estimate D2E/DX2                !
 ! R77   R(54,105)               1.0176         estimate D2E/DX2                !
 ! R78   R(55,56)                1.3042         estimate D2E/DX2                !
 ! R79   R(55,57)                1.3459         estimate D2E/DX2                !
 ! R80   R(57,58)                1.3974         estimate D2E/DX2                !
 ! R81   R(57,61)                1.4574         estimate D2E/DX2                !
 ! R82   R(58,59)                1.3402         estimate D2E/DX2                !
 ! R83   R(58,60)                1.4068         estimate D2E/DX2                !
 ! R84   R(60,106)               1.079          estimate D2E/DX2                !
 ! R85   R(61,62)                1.36           estimate D2E/DX2                !
 ! R86   R(61,65)                1.652          estimate D2E/DX2                !
 ! R87   R(62,63)                1.3952         estimate D2E/DX2                !
 ! R88   R(63,64)                1.4142         estimate D2E/DX2                !
 ! R89   R(63,107)               1.0038         estimate D2E/DX2                !
 ! R90   R(64,65)                1.6593         estimate D2E/DX2                !
 ! R91   R(64,66)                1.5068         estimate D2E/DX2                !
 ! R92   R(66,67)                1.3941         estimate D2E/DX2                !
 ! R93   R(66,73)                1.3279         estimate D2E/DX2                !
 ! R94   R(67,68)                1.3565         estimate D2E/DX2                !
 ! R95   R(67,108)               1.0803         estimate D2E/DX2                !
 ! R96   R(68,69)                1.2834         estimate D2E/DX2                !
 ! R97   R(68,70)                1.3823         estimate D2E/DX2                !
 ! R98   R(70,71)                1.3717         estimate D2E/DX2                !
 ! R99   R(70,74)                1.4756         estimate D2E/DX2                !
 ! R100  R(71,72)                1.3603         estimate D2E/DX2                !
 ! R101  R(71,73)                1.4713         estimate D2E/DX2                !
 ! R102  R(73,109)               1.0538         estimate D2E/DX2                !
 ! R103  R(74,75)                1.3398         estimate D2E/DX2                !
 ! R104  R(74,78)                1.6956         estimate D2E/DX2                !
 ! R105  R(75,76)                1.3254         estimate D2E/DX2                !
 ! R106  R(76,77)                1.381          estimate D2E/DX2                !
 ! R107  R(76,110)               1.1677         estimate D2E/DX2                !
 ! R108  R(77,78)                1.7048         estimate D2E/DX2                !
 ! R109  R(77,79)                1.4053         estimate D2E/DX2                !
 ! R110  R(79,80)                1.3765         estimate D2E/DX2                !
 ! R111  R(79,86)                1.4652         estimate D2E/DX2                !
 ! R112  R(80,81)                1.3245         estimate D2E/DX2                !
 ! R113  R(80,111)               1.1067         estimate D2E/DX2                !
 ! R114  R(81,82)                1.3442         estimate D2E/DX2                !
 ! R115  R(81,83)                1.3864         estimate D2E/DX2                !
 ! R116  R(83,84)                1.386          estimate D2E/DX2                !
 ! R117  R(83,87)                1.4039         estimate D2E/DX2                !
 ! R118  R(84,85)                1.3915         estimate D2E/DX2                !
 ! R119  R(84,86)                1.4543         estimate D2E/DX2                !
 ! R120  R(86,112)               1.0271         estimate D2E/DX2                !
 ! R121  R(87,88)                1.2679         estimate D2E/DX2                !
 ! R122  R(87,91)                1.7632         estimate D2E/DX2                !
 ! R123  R(88,89)                1.3912         estimate D2E/DX2                !
 ! R124  R(89,90)                1.3776         estimate D2E/DX2                !
 ! R125  R(89,113)               1.1066         estimate D2E/DX2                !
 ! R126  R(90,91)                1.7363         estimate D2E/DX2                !
 ! R127  R(90,114)               1.0722         estimate D2E/DX2                !
 ! A1    A(2,1,8)              119.1552         estimate D2E/DX2                !
 ! A2    A(2,1,92)             118.9329         estimate D2E/DX2                !
 ! A3    A(8,1,92)             121.894          estimate D2E/DX2                !
 ! A4    A(1,2,3)              121.7787         estimate D2E/DX2                !
 ! A5    A(1,2,93)             125.7895         estimate D2E/DX2                !
 ! A6    A(3,2,93)             112.3015         estimate D2E/DX2                !
 ! A7    A(2,3,4)              119.7471         estimate D2E/DX2                !
 ! A8    A(2,3,5)              116.0753         estimate D2E/DX2                !
 ! A9    A(4,3,5)              123.8966         estimate D2E/DX2                !
 ! A10   A(3,5,6)              120.601          estimate D2E/DX2                !
 ! A11   A(3,5,9)              115.5297         estimate D2E/DX2                !
 ! A12   A(6,5,9)              123.8623         estimate D2E/DX2                !
 ! A13   A(5,6,7)              122.689          estimate D2E/DX2                !
 ! A14   A(5,6,8)              123.6849         estimate D2E/DX2                !
 ! A15   A(7,6,8)              113.6261         estimate D2E/DX2                !
 ! A16   A(1,8,6)              118.6622         estimate D2E/DX2                !
 ! A17   A(1,8,94)             118.2623         estimate D2E/DX2                !
 ! A18   A(6,8,94)             122.7665         estimate D2E/DX2                !
 ! A19   A(5,9,10)             125.5378         estimate D2E/DX2                !
 ! A20   A(5,9,13)             123.7921         estimate D2E/DX2                !
 ! A21   A(10,9,13)            110.4477         estimate D2E/DX2                !
 ! A22   A(9,10,11)            112.3179         estimate D2E/DX2                !
 ! A23   A(10,11,12)           118.1085         estimate D2E/DX2                !
 ! A24   A(10,11,95)           116.5809         estimate D2E/DX2                !
 ! A25   A(12,11,95)           124.6536         estimate D2E/DX2                !
 ! A26   A(11,12,13)           106.014          estimate D2E/DX2                !
 ! A27   A(11,12,14)           132.9913         estimate D2E/DX2                !
 ! A28   A(13,12,14)           120.8468         estimate D2E/DX2                !
 ! A29   A(9,13,12)             92.9873         estimate D2E/DX2                !
 ! A30   A(12,14,15)           124.2379         estimate D2E/DX2                !
 ! A31   A(12,14,21)           121.1203         estimate D2E/DX2                !
 ! A32   A(15,14,21)           113.671          estimate D2E/DX2                !
 ! A33   A(14,15,16)           122.7365         estimate D2E/DX2                !
 ! A34   A(14,15,96)           117.791          estimate D2E/DX2                !
 ! A35   A(16,15,96)           119.3408         estimate D2E/DX2                !
 ! A36   A(15,16,17)           114.7894         estimate D2E/DX2                !
 ! A37   A(15,16,18)           118.3304         estimate D2E/DX2                !
 ! A38   A(17,16,18)           126.458          estimate D2E/DX2                !
 ! A39   A(16,18,19)           120.6436         estimate D2E/DX2                !
 ! A40   A(16,18,22)           118.4856         estimate D2E/DX2                !
 ! A41   A(19,18,22)           120.8669         estimate D2E/DX2                !
 ! A42   A(18,19,20)           121.5401         estimate D2E/DX2                !
 ! A43   A(18,19,21)           119.2274         estimate D2E/DX2                !
 ! A44   A(20,19,21)           119.1125         estimate D2E/DX2                !
 ! A45   A(14,21,19)           124.9659         estimate D2E/DX2                !
 ! A46   A(14,21,97)           119.9606         estimate D2E/DX2                !
 ! A47   A(19,21,97)           115.0417         estimate D2E/DX2                !
 ! A48   A(18,22,23)           120.4994         estimate D2E/DX2                !
 ! A49   A(18,22,26)           122.4852         estimate D2E/DX2                !
 ! A50   A(23,22,26)           116.9839         estimate D2E/DX2                !
 ! A51   A(22,23,24)           105.8271         estimate D2E/DX2                !
 ! A52   A(23,24,25)           117.6251         estimate D2E/DX2                !
 ! A53   A(23,24,98)           112.6732         estimate D2E/DX2                !
 ! A54   A(25,24,98)           129.6969         estimate D2E/DX2                !
 ! A55   A(24,25,26)           111.4401         estimate D2E/DX2                !
 ! A56   A(24,25,27)           124.7075         estimate D2E/DX2                !
 ! A57   A(26,25,27)           123.5866         estimate D2E/DX2                !
 ! A58   A(22,26,25)            87.9772         estimate D2E/DX2                !
 ! A59   A(25,27,28)           121.1126         estimate D2E/DX2                !
 ! A60   A(25,27,34)           117.8299         estimate D2E/DX2                !
 ! A61   A(28,27,34)           121.056          estimate D2E/DX2                !
 ! A62   A(27,28,29)           119.3959         estimate D2E/DX2                !
 ! A63   A(27,28,99)           123.7204         estimate D2E/DX2                !
 ! A64   A(29,28,99)           116.7846         estimate D2E/DX2                !
 ! A65   A(28,29,30)           121.9883         estimate D2E/DX2                !
 ! A66   A(28,29,31)           120.1836         estimate D2E/DX2                !
 ! A67   A(30,29,31)           117.8114         estimate D2E/DX2                !
 ! A68   A(29,31,32)           116.6058         estimate D2E/DX2                !
 ! A69   A(29,31,35)           118.5507         estimate D2E/DX2                !
 ! A70   A(32,31,35)           124.6308         estimate D2E/DX2                !
 ! A71   A(31,32,33)           118.8026         estimate D2E/DX2                !
 ! A72   A(31,32,34)           121.13           estimate D2E/DX2                !
 ! A73   A(33,32,34)           120.0664         estimate D2E/DX2                !
 ! A74   A(27,34,32)           121.3675         estimate D2E/DX2                !
 ! A75   A(27,34,100)          121.8786         estimate D2E/DX2                !
 ! A76   A(32,34,100)          116.2887         estimate D2E/DX2                !
 ! A77   A(31,35,36)           127.1238         estimate D2E/DX2                !
 ! A78   A(31,35,39)           121.417          estimate D2E/DX2                !
 ! A79   A(36,35,39)           111.4095         estimate D2E/DX2                !
 ! A80   A(35,36,37)           112.7189         estimate D2E/DX2                !
 ! A81   A(36,37,38)           114.764          estimate D2E/DX2                !
 ! A82   A(36,37,101)          117.4264         estimate D2E/DX2                !
 ! A83   A(38,37,101)          127.427          estimate D2E/DX2                !
 ! A84   A(37,38,39)           110.0873         estimate D2E/DX2                !
 ! A85   A(37,38,40)           129.8515         estimate D2E/DX2                !
 ! A86   A(39,38,40)           119.5578         estimate D2E/DX2                !
 ! A87   A(35,39,38)            90.6656         estimate D2E/DX2                !
 ! A88   A(38,40,41)           126.0914         estimate D2E/DX2                !
 ! A89   A(38,40,47)           118.2954         estimate D2E/DX2                !
 ! A90   A(41,40,47)           115.6125         estimate D2E/DX2                !
 ! A91   A(40,41,42)           118.3985         estimate D2E/DX2                !
 ! A92   A(40,41,102)          119.8189         estimate D2E/DX2                !
 ! A93   A(42,41,102)          121.6556         estimate D2E/DX2                !
 ! A94   A(41,42,43)           114.4317         estimate D2E/DX2                !
 ! A95   A(41,42,44)           124.9369         estimate D2E/DX2                !
 ! A96   A(43,42,44)           120.2051         estimate D2E/DX2                !
 ! A97   A(42,44,45)           120.5915         estimate D2E/DX2                !
 ! A98   A(42,44,48)           121.7272         estimate D2E/DX2                !
 ! A99   A(45,44,48)           117.6799         estimate D2E/DX2                !
 ! A100  A(44,45,46)           122.6166         estimate D2E/DX2                !
 ! A101  A(44,45,47)           118.9934         estimate D2E/DX2                !
 ! A102  A(46,45,47)           118.1863         estimate D2E/DX2                !
 ! A103  A(40,47,45)           121.3485         estimate D2E/DX2                !
 ! A104  A(40,47,103)          119.1928         estimate D2E/DX2                !
 ! A105  A(45,47,103)          119.4255         estimate D2E/DX2                !
 ! A106  A(44,48,49)           123.7785         estimate D2E/DX2                !
 ! A107  A(44,48,52)           121.747          estimate D2E/DX2                !
 ! A108  A(49,48,52)           114.3595         estimate D2E/DX2                !
 ! A109  A(48,49,50)           113.3073         estimate D2E/DX2                !
 ! A110  A(49,50,51)           113.4911         estimate D2E/DX2                !
 ! A111  A(49,50,104)          124.1192         estimate D2E/DX2                !
 ! A112  A(51,50,104)          121.85           estimate D2E/DX2                !
 ! A113  A(50,51,52)           106.3642         estimate D2E/DX2                !
 ! A114  A(50,51,53)           128.7561         estimate D2E/DX2                !
 ! A115  A(52,51,53)           124.5952         estimate D2E/DX2                !
 ! A116  A(48,52,51)            91.9858         estimate D2E/DX2                !
 ! A117  A(51,53,54)           120.4296         estimate D2E/DX2                !
 ! A118  A(51,53,60)           117.9388         estimate D2E/DX2                !
 ! A119  A(54,53,60)           121.5967         estimate D2E/DX2                !
 ! A120  A(53,54,55)           117.808          estimate D2E/DX2                !
 ! A121  A(53,54,105)          124.0286         estimate D2E/DX2                !
 ! A122  A(55,54,105)          118.1091         estimate D2E/DX2                !
 ! A123  A(54,55,56)           116.3069         estimate D2E/DX2                !
 ! A124  A(54,55,57)           121.8015         estimate D2E/DX2                !
 ! A125  A(56,55,57)           121.8379         estimate D2E/DX2                !
 ! A126  A(55,57,58)           120.1459         estimate D2E/DX2                !
 ! A127  A(55,57,61)           122.6511         estimate D2E/DX2                !
 ! A128  A(58,57,61)           117.1012         estimate D2E/DX2                !
 ! A129  A(57,58,59)           126.1477         estimate D2E/DX2                !
 ! A130  A(57,58,60)           120.5288         estimate D2E/DX2                !
 ! A131  A(59,58,60)           113.321          estimate D2E/DX2                !
 ! A132  A(53,60,58)           118.0506         estimate D2E/DX2                !
 ! A133  A(53,60,106)          120.5191         estimate D2E/DX2                !
 ! A134  A(58,60,106)          121.4266         estimate D2E/DX2                !
 ! A135  A(57,61,62)           124.8222         estimate D2E/DX2                !
 ! A136  A(57,61,65)           122.6503         estimate D2E/DX2                !
 ! A137  A(62,61,65)           112.3813         estimate D2E/DX2                !
 ! A138  A(61,62,63)           112.1429         estimate D2E/DX2                !
 ! A139  A(62,63,64)           111.0596         estimate D2E/DX2                !
 ! A140  A(62,63,107)          119.3194         estimate D2E/DX2                !
 ! A141  A(64,63,107)          129.3027         estimate D2E/DX2                !
 ! A142  A(63,64,65)           110.4082         estimate D2E/DX2                !
 ! A143  A(63,64,66)           124.7413         estimate D2E/DX2                !
 ! A144  A(65,64,66)           124.8059         estimate D2E/DX2                !
 ! A145  A(61,65,64)            93.8459         estimate D2E/DX2                !
 ! A146  A(64,66,67)           120.3764         estimate D2E/DX2                !
 ! A147  A(64,66,73)           119.8732         estimate D2E/DX2                !
 ! A148  A(67,66,73)           119.7496         estimate D2E/DX2                !
 ! A149  A(66,67,68)           122.54           estimate D2E/DX2                !
 ! A150  A(66,67,108)          120.9383         estimate D2E/DX2                !
 ! A151  A(68,67,108)          116.3134         estimate D2E/DX2                !
 ! A152  A(67,68,69)           121.4527         estimate D2E/DX2                !
 ! A153  A(67,68,70)           118.0548         estimate D2E/DX2                !
 ! A154  A(69,68,70)           120.3447         estimate D2E/DX2                !
 ! A155  A(68,70,71)           122.5612         estimate D2E/DX2                !
 ! A156  A(68,70,74)           120.8543         estimate D2E/DX2                !
 ! A157  A(71,70,74)           116.5735         estimate D2E/DX2                !
 ! A158  A(70,71,72)           124.8313         estimate D2E/DX2                !
 ! A159  A(70,71,73)           116.8089         estimate D2E/DX2                !
 ! A160  A(72,71,73)           118.3523         estimate D2E/DX2                !
 ! A161  A(66,73,71)           120.1585         estimate D2E/DX2                !
 ! A162  A(66,73,109)          123.6317         estimate D2E/DX2                !
 ! A163  A(71,73,109)          116.2098         estimate D2E/DX2                !
 ! A164  A(70,74,75)           124.4627         estimate D2E/DX2                !
 ! A165  A(70,74,78)           125.3965         estimate D2E/DX2                !
 ! A166  A(75,74,78)           110.0283         estimate D2E/DX2                !
 ! A167  A(74,75,76)           112.019          estimate D2E/DX2                !
 ! A168  A(75,76,77)           119.0145         estimate D2E/DX2                !
 ! A169  A(75,76,110)          118.3939         estimate D2E/DX2                !
 ! A170  A(77,76,110)          122.5719         estimate D2E/DX2                !
 ! A171  A(76,77,78)           104.3265         estimate D2E/DX2                !
 ! A172  A(76,77,79)           134.9222         estimate D2E/DX2                !
 ! A173  A(78,77,79)           120.7228         estimate D2E/DX2                !
 ! A174  A(74,78,77)            94.5399         estimate D2E/DX2                !
 ! A175  A(77,79,80)           128.1568         estimate D2E/DX2                !
 ! A176  A(77,79,86)           115.201          estimate D2E/DX2                !
 ! A177  A(80,79,86)           116.58           estimate D2E/DX2                !
 ! A178  A(79,80,81)           123.5993         estimate D2E/DX2                !
 ! A179  A(79,80,111)          115.2381         estimate D2E/DX2                !
 ! A180  A(81,80,111)          121.0929         estimate D2E/DX2                !
 ! A181  A(80,81,82)           118.2602         estimate D2E/DX2                !
 ! A182  A(80,81,83)           126.0812         estimate D2E/DX2                !
 ! A183  A(82,81,83)           115.634          estimate D2E/DX2                !
 ! A184  A(81,83,84)           112.3986         estimate D2E/DX2                !
 ! A185  A(81,83,87)           124.3047         estimate D2E/DX2                !
 ! A186  A(84,83,87)           123.2879         estimate D2E/DX2                !
 ! A187  A(83,84,85)           119.4562         estimate D2E/DX2                !
 ! A188  A(83,84,86)           126.0843         estimate D2E/DX2                !
 ! A189  A(85,84,86)           114.4522         estimate D2E/DX2                !
 ! A190  A(79,86,84)           115.2438         estimate D2E/DX2                !
 ! A191  A(79,86,112)          121.2657         estimate D2E/DX2                !
 ! A192  A(84,86,112)          123.4895         estimate D2E/DX2                !
 ! A193  A(83,87,88)           125.768          estimate D2E/DX2                !
 ! A194  A(83,87,91)           118.131          estimate D2E/DX2                !
 ! A195  A(88,87,91)           115.7241         estimate D2E/DX2                !
 ! A196  A(87,88,89)           111.4442         estimate D2E/DX2                !
 ! A197  A(88,89,90)           114.5993         estimate D2E/DX2                !
 ! A198  A(88,89,113)          121.184          estimate D2E/DX2                !
 ! A199  A(90,89,113)          124.0812         estimate D2E/DX2                !
 ! A200  A(89,90,91)           110.0288         estimate D2E/DX2                !
 ! A201  A(89,90,114)          128.7079         estimate D2E/DX2                !
 ! A202  A(91,90,114)          120.5425         estimate D2E/DX2                !
 ! A203  A(87,91,90)            87.929          estimate D2E/DX2                !
 ! D1    D(8,1,2,3)             -1.138          estimate D2E/DX2                !
 ! D2    D(8,1,2,93)          -176.6626         estimate D2E/DX2                !
 ! D3    D(92,1,2,3)           177.3514         estimate D2E/DX2                !
 ! D4    D(92,1,2,93)            1.8268         estimate D2E/DX2                !
 ! D5    D(2,1,8,6)              1.3183         estimate D2E/DX2                !
 ! D6    D(2,1,8,94)           175.1127         estimate D2E/DX2                !
 ! D7    D(92,1,8,6)          -177.1246         estimate D2E/DX2                !
 ! D8    D(92,1,8,94)           -3.3302         estimate D2E/DX2                !
 ! D9    D(1,2,3,4)            175.4804         estimate D2E/DX2                !
 ! D10   D(1,2,3,5)              1.3325         estimate D2E/DX2                !
 ! D11   D(93,2,3,4)            -8.4425         estimate D2E/DX2                !
 ! D12   D(93,2,3,5)           177.4096         estimate D2E/DX2                !
 ! D13   D(2,3,5,6)             -1.8351         estimate D2E/DX2                !
 ! D14   D(2,3,5,9)            177.2361         estimate D2E/DX2                !
 ! D15   D(4,3,5,6)           -175.7129         estimate D2E/DX2                !
 ! D16   D(4,3,5,9)              3.3584         estimate D2E/DX2                !
 ! D17   D(3,5,6,7)           -177.846          estimate D2E/DX2                !
 ! D18   D(3,5,6,8)              2.2092         estimate D2E/DX2                !
 ! D19   D(9,5,6,7)              3.1633         estimate D2E/DX2                !
 ! D20   D(9,5,6,8)           -176.7815         estimate D2E/DX2                !
 ! D21   D(3,5,9,10)            52.7042         estimate D2E/DX2                !
 ! D22   D(3,5,9,13)          -133.2395         estimate D2E/DX2                !
 ! D23   D(6,5,9,10)          -128.2585         estimate D2E/DX2                !
 ! D24   D(6,5,9,13)            45.7978         estimate D2E/DX2                !
 ! D25   D(5,6,8,1)             -1.9272         estimate D2E/DX2                !
 ! D26   D(5,6,8,94)          -175.4259         estimate D2E/DX2                !
 ! D27   D(7,6,8,1)            178.1235         estimate D2E/DX2                !
 ! D28   D(7,6,8,94)             4.6249         estimate D2E/DX2                !
 ! D29   D(5,9,10,11)          176.6515         estimate D2E/DX2                !
 ! D30   D(13,9,10,11)           1.9212         estimate D2E/DX2                !
 ! D31   D(5,9,13,12)         -174.6546         estimate D2E/DX2                !
 ! D32   D(10,9,13,12)           0.1859         estimate D2E/DX2                !
 ! D33   D(9,10,11,12)          -3.825          estimate D2E/DX2                !
 ! D34   D(9,10,11,95)        -174.9733         estimate D2E/DX2                !
 ! D35   D(10,11,12,13)          3.7634         estimate D2E/DX2                !
 ! D36   D(10,11,12,14)        179.2139         estimate D2E/DX2                !
 ! D37   D(95,11,12,13)        174.1332         estimate D2E/DX2                !
 ! D38   D(95,11,12,14)        -10.4163         estimate D2E/DX2                !
 ! D39   D(11,12,13,9)          -2.03           estimate D2E/DX2                !
 ! D40   D(14,12,13,9)        -178.1551         estimate D2E/DX2                !
 ! D41   D(11,12,14,15)        142.7378         estimate D2E/DX2                !
 ! D42   D(11,12,14,21)        -25.2646         estimate D2E/DX2                !
 ! D43   D(13,12,14,15)        -42.357          estimate D2E/DX2                !
 ! D44   D(13,12,14,21)        149.6406         estimate D2E/DX2                !
 ! D45   D(12,14,15,16)       -175.4911         estimate D2E/DX2                !
 ! D46   D(12,14,15,96)          8.7138         estimate D2E/DX2                !
 ! D47   D(21,14,15,16)         -6.6951         estimate D2E/DX2                !
 ! D48   D(21,14,15,96)        177.5098         estimate D2E/DX2                !
 ! D49   D(12,14,21,19)        171.4116         estimate D2E/DX2                !
 ! D50   D(12,14,21,97)         -6.4317         estimate D2E/DX2                !
 ! D51   D(15,14,21,19)          2.2264         estimate D2E/DX2                !
 ! D52   D(15,14,21,97)       -175.6169         estimate D2E/DX2                !
 ! D53   D(14,15,16,17)       -178.8823         estimate D2E/DX2                !
 ! D54   D(14,15,16,18)          8.0907         estimate D2E/DX2                !
 ! D55   D(96,15,16,17)         -3.1497         estimate D2E/DX2                !
 ! D56   D(96,15,16,18)       -176.1768         estimate D2E/DX2                !
 ! D57   D(15,16,18,19)         -4.5735         estimate D2E/DX2                !
 ! D58   D(15,16,18,22)        174.7145         estimate D2E/DX2                !
 ! D59   D(17,16,18,19)       -176.6973         estimate D2E/DX2                !
 ! D60   D(17,16,18,22)          2.5907         estimate D2E/DX2                !
 ! D61   D(16,18,19,20)       -175.6516         estimate D2E/DX2                !
 ! D62   D(16,18,19,21)          0.3292         estimate D2E/DX2                !
 ! D63   D(22,18,19,20)          5.0774         estimate D2E/DX2                !
 ! D64   D(22,18,19,21)       -178.9418         estimate D2E/DX2                !
 ! D65   D(16,18,22,23)       -134.1109         estimate D2E/DX2                !
 ! D66   D(16,18,22,26)         47.9951         estimate D2E/DX2                !
 ! D67   D(19,18,22,23)         45.1755         estimate D2E/DX2                !
 ! D68   D(19,18,22,26)       -132.7185         estimate D2E/DX2                !
 ! D69   D(18,19,21,14)          0.8848         estimate D2E/DX2                !
 ! D70   D(18,19,21,97)        178.8224         estimate D2E/DX2                !
 ! D71   D(20,19,21,14)        176.9642         estimate D2E/DX2                !
 ! D72   D(20,19,21,97)         -5.0982         estimate D2E/DX2                !
 ! D73   D(18,22,23,24)        179.3107         estimate D2E/DX2                !
 ! D74   D(26,22,23,24)         -2.6828         estimate D2E/DX2                !
 ! D75   D(18,22,26,25)       -178.4482         estimate D2E/DX2                !
 ! D76   D(23,22,26,25)          3.5881         estimate D2E/DX2                !
 ! D77   D(22,23,24,25)         -0.0401         estimate D2E/DX2                !
 ! D78   D(22,23,24,98)        179.2446         estimate D2E/DX2                !
 ! D79   D(23,24,25,26)          2.6659         estimate D2E/DX2                !
 ! D80   D(23,24,25,27)        176.9101         estimate D2E/DX2                !
 ! D81   D(98,24,25,26)       -176.4763         estimate D2E/DX2                !
 ! D82   D(98,24,25,27)         -2.2321         estimate D2E/DX2                !
 ! D83   D(24,25,26,22)         -3.3089         estimate D2E/DX2                !
 ! D84   D(27,25,26,22)       -177.6292         estimate D2E/DX2                !
 ! D85   D(24,25,27,28)        -28.8233         estimate D2E/DX2                !
 ! D86   D(24,25,27,34)        150.7357         estimate D2E/DX2                !
 ! D87   D(26,25,27,28)        144.7428         estimate D2E/DX2                !
 ! D88   D(26,25,27,34)        -35.6982         estimate D2E/DX2                !
 ! D89   D(25,27,28,29)        174.8061         estimate D2E/DX2                !
 ! D90   D(25,27,28,99)         -1.455          estimate D2E/DX2                !
 ! D91   D(34,27,28,29)         -4.7386         estimate D2E/DX2                !
 ! D92   D(34,27,28,99)        179.0003         estimate D2E/DX2                !
 ! D93   D(25,27,34,32)       -173.0851         estimate D2E/DX2                !
 ! D94   D(25,27,34,100)        -1.2021         estimate D2E/DX2                !
 ! D95   D(28,27,34,32)          6.4741         estimate D2E/DX2                !
 ! D96   D(28,27,34,100)       178.3571         estimate D2E/DX2                !
 ! D97   D(27,28,29,30)        179.7957         estimate D2E/DX2                !
 ! D98   D(27,28,29,31)          1.3176         estimate D2E/DX2                !
 ! D99   D(99,28,29,30)         -3.6876         estimate D2E/DX2                !
 ! D100  D(99,28,29,31)        177.8344         estimate D2E/DX2                !
 ! D101  D(28,29,31,32)          0.5397         estimate D2E/DX2                !
 ! D102  D(28,29,31,35)       -174.4089         estimate D2E/DX2                !
 ! D103  D(30,29,31,32)       -178.0009         estimate D2E/DX2                !
 ! D104  D(30,29,31,35)          7.0505         estimate D2E/DX2                !
 ! D105  D(29,31,32,33)       -178.5787         estimate D2E/DX2                !
 ! D106  D(29,31,32,34)          1.0598         estimate D2E/DX2                !
 ! D107  D(35,31,32,33)         -3.9723         estimate D2E/DX2                !
 ! D108  D(35,31,32,34)        175.6662         estimate D2E/DX2                !
 ! D109  D(29,31,35,36)         55.029          estimate D2E/DX2                !
 ! D110  D(29,31,35,39)       -122.1812         estimate D2E/DX2                !
 ! D111  D(32,31,35,36)       -119.4807         estimate D2E/DX2                !
 ! D112  D(32,31,35,39)         63.3091         estimate D2E/DX2                !
 ! D113  D(31,32,34,27)         -4.5034         estimate D2E/DX2                !
 ! D114  D(31,32,34,100)      -176.8182         estimate D2E/DX2                !
 ! D115  D(33,32,34,27)        175.1305         estimate D2E/DX2                !
 ! D116  D(33,32,34,100)         2.8157         estimate D2E/DX2                !
 ! D117  D(31,35,36,37)       -176.7729         estimate D2E/DX2                !
 ! D118  D(39,35,36,37)          0.67           estimate D2E/DX2                !
 ! D119  D(31,35,39,38)        174.0592         estimate D2E/DX2                !
 ! D120  D(36,35,39,38)         -3.5518         estimate D2E/DX2                !
 ! D121  D(35,36,37,38)          3.6314         estimate D2E/DX2                !
 ! D122  D(35,36,37,101)       177.064          estimate D2E/DX2                !
 ! D123  D(36,37,38,39)         -6.2524         estimate D2E/DX2                !
 ! D124  D(36,37,38,40)       -177.9133         estimate D2E/DX2                !
 ! D125  D(101,37,38,39)      -178.9079         estimate D2E/DX2                !
 ! D126  D(101,37,38,40)         9.4312         estimate D2E/DX2                !
 ! D127  D(37,38,39,35)          5.3911         estimate D2E/DX2                !
 ! D128  D(40,38,39,35)        178.0371         estimate D2E/DX2                !
 ! D129  D(37,38,40,41)        115.0061         estimate D2E/DX2                !
 ! D130  D(37,38,40,47)        -64.6788         estimate D2E/DX2                !
 ! D131  D(39,38,40,41)        -55.985          estimate D2E/DX2                !
 ! D132  D(39,38,40,47)        124.33           estimate D2E/DX2                !
 ! D133  D(38,40,41,42)        179.0486         estimate D2E/DX2                !
 ! D134  D(38,40,41,102)         3.0778         estimate D2E/DX2                !
 ! D135  D(47,40,41,42)         -1.259          estimate D2E/DX2                !
 ! D136  D(47,40,41,102)      -177.2299         estimate D2E/DX2                !
 ! D137  D(38,40,47,45)        178.1791         estimate D2E/DX2                !
 ! D138  D(38,40,47,103)         0.2881         estimate D2E/DX2                !
 ! D139  D(41,40,47,45)         -1.5386         estimate D2E/DX2                !
 ! D140  D(41,40,47,103)      -179.4296         estimate D2E/DX2                !
 ! D141  D(40,41,42,43)        176.3006         estimate D2E/DX2                !
 ! D142  D(40,41,42,44)          3.8182         estimate D2E/DX2                !
 ! D143  D(102,41,42,43)        -7.8062         estimate D2E/DX2                !
 ! D144  D(102,41,42,44)       179.7114         estimate D2E/DX2                !
 ! D145  D(41,42,44,45)         -3.4041         estimate D2E/DX2                !
 ! D146  D(41,42,44,48)        177.0434         estimate D2E/DX2                !
 ! D147  D(43,42,44,45)       -175.4819         estimate D2E/DX2                !
 ! D148  D(43,42,44,48)          4.9656         estimate D2E/DX2                !
 ! D149  D(42,44,45,46)       -174.4156         estimate D2E/DX2                !
 ! D150  D(42,44,45,47)          0.2992         estimate D2E/DX2                !
 ! D151  D(48,44,45,46)          5.1545         estimate D2E/DX2                !
 ! D152  D(48,44,45,47)        179.8693         estimate D2E/DX2                !
 ! D153  D(42,44,48,49)         47.7365         estimate D2E/DX2                !
 ! D154  D(42,44,48,52)       -128.144          estimate D2E/DX2                !
 ! D155  D(45,44,48,49)       -131.8285         estimate D2E/DX2                !
 ! D156  D(45,44,48,52)         52.2911         estimate D2E/DX2                !
 ! D157  D(44,45,47,40)          2.054          estimate D2E/DX2                !
 ! D158  D(44,45,47,103)       179.9402         estimate D2E/DX2                !
 ! D159  D(46,45,47,40)        177.004          estimate D2E/DX2                !
 ! D160  D(46,45,47,103)        -5.1098         estimate D2E/DX2                !
 ! D161  D(44,48,49,50)       -179.2382         estimate D2E/DX2                !
 ! D162  D(52,48,49,50)         -3.0833         estimate D2E/DX2                !
 ! D163  D(44,48,52,51)       -177.9745         estimate D2E/DX2                !
 ! D164  D(49,48,52,51)          5.7838         estimate D2E/DX2                !
 ! D165  D(48,49,50,51)         -2.1789         estimate D2E/DX2                !
 ! D166  D(48,49,50,104)      -173.8659         estimate D2E/DX2                !
 ! D167  D(49,50,51,52)          6.0525         estimate D2E/DX2                !
 ! D168  D(49,50,51,53)       -179.9346         estimate D2E/DX2                !
 ! D169  D(104,50,51,52)       177.9519         estimate D2E/DX2                !
 ! D170  D(104,50,51,53)        -8.0352         estimate D2E/DX2                !
 ! D171  D(50,51,52,48)         -6.3583         estimate D2E/DX2                !
 ! D172  D(53,51,52,48)        179.3124         estimate D2E/DX2                !
 ! D173  D(50,51,53,54)        -41.446          estimate D2E/DX2                !
 ! D174  D(50,51,53,60)        140.6688         estimate D2E/DX2                !
 ! D175  D(52,51,53,54)        131.571          estimate D2E/DX2                !
 ! D176  D(52,51,53,60)        -46.3142         estimate D2E/DX2                !
 ! D177  D(51,53,54,55)       -178.3887         estimate D2E/DX2                !
 ! D178  D(51,53,54,105)         4.3481         estimate D2E/DX2                !
 ! D179  D(60,53,54,55)         -0.5823         estimate D2E/DX2                !
 ! D180  D(60,53,54,105)      -177.8454         estimate D2E/DX2                !
 ! D181  D(51,53,60,58)        178.3278         estimate D2E/DX2                !
 ! D182  D(51,53,60,106)        -0.9816         estimate D2E/DX2                !
 ! D183  D(54,53,60,58)          0.4687         estimate D2E/DX2                !
 ! D184  D(54,53,60,106)      -178.8408         estimate D2E/DX2                !
 ! D185  D(53,54,55,56)       -178.5249         estimate D2E/DX2                !
 ! D186  D(53,54,55,57)         -1.1474         estimate D2E/DX2                !
 ! D187  D(105,54,55,56)        -1.0963         estimate D2E/DX2                !
 ! D188  D(105,54,55,57)       176.2812         estimate D2E/DX2                !
 ! D189  D(54,55,57,58)          2.9454         estimate D2E/DX2                !
 ! D190  D(54,55,57,61)        179.1675         estimate D2E/DX2                !
 ! D191  D(56,55,57,58)       -179.8219         estimate D2E/DX2                !
 ! D192  D(56,55,57,61)         -3.5998         estimate D2E/DX2                !
 ! D193  D(55,57,58,59)        177.5882         estimate D2E/DX2                !
 ! D194  D(55,57,58,60)         -3.0272         estimate D2E/DX2                !
 ! D195  D(61,57,58,59)          1.161          estimate D2E/DX2                !
 ! D196  D(61,57,58,60)       -179.4544         estimate D2E/DX2                !
 ! D197  D(55,57,61,62)       -122.8737         estimate D2E/DX2                !
 ! D198  D(55,57,61,65)         61.8599         estimate D2E/DX2                !
 ! D199  D(58,57,61,62)         53.4566         estimate D2E/DX2                !
 ! D200  D(58,57,61,65)       -121.8097         estimate D2E/DX2                !
 ! D201  D(57,58,60,53)          1.3184         estimate D2E/DX2                !
 ! D202  D(57,58,60,106)      -179.3787         estimate D2E/DX2                !
 ! D203  D(59,58,60,53)       -179.2227         estimate D2E/DX2                !
 ! D204  D(59,58,60,106)         0.0802         estimate D2E/DX2                !
 ! D205  D(57,61,62,63)       -179.6589         estimate D2E/DX2                !
 ! D206  D(65,61,62,63)         -3.9684         estimate D2E/DX2                !
 ! D207  D(57,61,65,64)        177.7735         estimate D2E/DX2                !
 ! D208  D(62,61,65,64)          1.975          estimate D2E/DX2                !
 ! D209  D(61,62,63,64)          4.3247         estimate D2E/DX2                !
 ! D210  D(61,62,63,107)       178.4396         estimate D2E/DX2                !
 ! D211  D(62,63,64,65)         -2.8317         estimate D2E/DX2                !
 ! D212  D(62,63,64,66)        174.8368         estimate D2E/DX2                !
 ! D213  D(107,63,64,65)      -176.1974         estimate D2E/DX2                !
 ! D214  D(107,63,64,66)         1.471          estimate D2E/DX2                !
 ! D215  D(63,64,65,61)          0.5345         estimate D2E/DX2                !
 ! D216  D(66,64,65,61)       -177.1321         estimate D2E/DX2                !
 ! D217  D(63,64,66,67)        131.6755         estimate D2E/DX2                !
 ! D218  D(63,64,66,73)        -48.655          estimate D2E/DX2                !
 ! D219  D(65,64,66,67)        -50.9861         estimate D2E/DX2                !
 ! D220  D(65,64,66,73)        128.6835         estimate D2E/DX2                !
 ! D221  D(64,66,67,68)       -177.6177         estimate D2E/DX2                !
 ! D222  D(64,66,67,108)        -3.0565         estimate D2E/DX2                !
 ! D223  D(73,66,67,68)          2.7123         estimate D2E/DX2                !
 ! D224  D(73,66,67,108)       177.2735         estimate D2E/DX2                !
 ! D225  D(64,66,73,71)       -179.3493         estimate D2E/DX2                !
 ! D226  D(64,66,73,109)         0.6204         estimate D2E/DX2                !
 ! D227  D(67,66,73,71)          0.3224         estimate D2E/DX2                !
 ! D228  D(67,66,73,109)      -179.708          estimate D2E/DX2                !
 ! D229  D(66,67,68,69)       -179.9311         estimate D2E/DX2                !
 ! D230  D(66,67,68,70)         -4.3385         estimate D2E/DX2                !
 ! D231  D(108,67,68,69)         5.2724         estimate D2E/DX2                !
 ! D232  D(108,67,68,70)      -179.1349         estimate D2E/DX2                !
 ! D233  D(67,68,70,71)          3.0182         estimate D2E/DX2                !
 ! D234  D(67,68,70,74)       -175.7286         estimate D2E/DX2                !
 ! D235  D(69,68,70,71)        178.6617         estimate D2E/DX2                !
 ! D236  D(69,68,70,74)         -0.0851         estimate D2E/DX2                !
 ! D237  D(68,70,71,72)        178.7999         estimate D2E/DX2                !
 ! D238  D(68,70,71,73)         -0.1812         estimate D2E/DX2                !
 ! D239  D(74,70,71,72)         -2.403          estimate D2E/DX2                !
 ! D240  D(74,70,71,73)        178.6159         estimate D2E/DX2                !
 ! D241  D(68,70,74,75)         51.4127         estimate D2E/DX2                !
 ! D242  D(68,70,74,78)       -124.3416         estimate D2E/DX2                !
 ! D243  D(71,70,74,75)       -127.4063         estimate D2E/DX2                !
 ! D244  D(71,70,74,78)         56.8394         estimate D2E/DX2                !
 ! D245  D(70,71,73,66)         -1.5192         estimate D2E/DX2                !
 ! D246  D(70,71,73,109)       178.5089         estimate D2E/DX2                !
 ! D247  D(72,71,73,66)        179.4311         estimate D2E/DX2                !
 ! D248  D(72,71,73,109)        -0.5407         estimate D2E/DX2                !
 ! D249  D(70,74,75,76)       -178.2088         estimate D2E/DX2                !
 ! D250  D(78,74,75,76)         -1.8916         estimate D2E/DX2                !
 ! D251  D(70,74,78,77)        178.7777         estimate D2E/DX2                !
 ! D252  D(75,74,78,77)          2.5028         estimate D2E/DX2                !
 ! D253  D(74,75,76,77)          0.0851         estimate D2E/DX2                !
 ! D254  D(74,75,76,110)      -178.345          estimate D2E/DX2                !
 ! D255  D(75,76,77,78)          1.7019         estimate D2E/DX2                !
 ! D256  D(75,76,77,79)       -176.2767         estimate D2E/DX2                !
 ! D257  D(110,76,77,78)      -179.937          estimate D2E/DX2                !
 ! D258  D(110,76,77,79)         2.0845         estimate D2E/DX2                !
 ! D259  D(76,77,78,74)         -2.2786         estimate D2E/DX2                !
 ! D260  D(79,77,78,74)        176.0565         estimate D2E/DX2                !
 ! D261  D(76,77,79,80)        129.3701         estimate D2E/DX2                !
 ! D262  D(76,77,79,86)        -47.6351         estimate D2E/DX2                !
 ! D263  D(78,77,79,80)        -48.3514         estimate D2E/DX2                !
 ! D264  D(78,77,79,86)        134.6434         estimate D2E/DX2                !
 ! D265  D(77,79,80,81)       -177.9146         estimate D2E/DX2                !
 ! D266  D(77,79,80,111)        -0.9272         estimate D2E/DX2                !
 ! D267  D(86,79,80,81)         -0.9446         estimate D2E/DX2                !
 ! D268  D(86,79,80,111)       176.0428         estimate D2E/DX2                !
 ! D269  D(77,79,86,84)        178.6208         estimate D2E/DX2                !
 ! D270  D(77,79,86,112)        -1.7344         estimate D2E/DX2                !
 ! D271  D(80,79,86,84)          1.2537         estimate D2E/DX2                !
 ! D272  D(80,79,86,112)      -179.1015         estimate D2E/DX2                !
 ! D273  D(79,80,81,82)        178.49           estimate D2E/DX2                !
 ! D274  D(79,80,81,83)          0.3813         estimate D2E/DX2                !
 ! D275  D(111,80,81,82)         1.6724         estimate D2E/DX2                !
 ! D276  D(111,80,81,83)      -176.4363         estimate D2E/DX2                !
 ! D277  D(80,81,83,84)         -0.1632         estimate D2E/DX2                !
 ! D278  D(80,81,83,87)       -179.1119         estimate D2E/DX2                !
 ! D279  D(82,81,83,84)       -178.3155         estimate D2E/DX2                !
 ! D280  D(82,81,83,87)          2.7359         estimate D2E/DX2                !
 ! D281  D(81,83,84,85)        179.5804         estimate D2E/DX2                !
 ! D282  D(81,83,84,86)          0.6189         estimate D2E/DX2                !
 ! D283  D(87,83,84,85)         -1.4585         estimate D2E/DX2                !
 ! D284  D(87,83,84,86)        179.58           estimate D2E/DX2                !
 ! D285  D(81,83,87,88)         44.1587         estimate D2E/DX2                !
 ! D286  D(81,83,87,91)       -128.468          estimate D2E/DX2                !
 ! D287  D(84,83,87,88)       -134.6785         estimate D2E/DX2                !
 ! D288  D(84,83,87,91)         52.6948         estimate D2E/DX2                !
 ! D289  D(83,84,86,79)         -1.1882         estimate D2E/DX2                !
 ! D290  D(83,84,86,112)       179.1758         estimate D2E/DX2                !
 ! D291  D(85,84,86,79)        179.8051         estimate D2E/DX2                !
 ! D292  D(85,84,86,112)         0.1692         estimate D2E/DX2                !
 ! D293  D(83,87,88,89)       -175.3726         estimate D2E/DX2                !
 ! D294  D(91,87,88,89)         -2.5894         estimate D2E/DX2                !
 ! D295  D(83,87,91,90)        177.7386         estimate D2E/DX2                !
 ! D296  D(88,87,91,90)          4.3759         estimate D2E/DX2                !
 ! D297  D(87,88,89,90)         -1.3323         estimate D2E/DX2                !
 ! D298  D(87,88,89,113)      -177.2669         estimate D2E/DX2                !
 ! D299  D(88,89,90,91)          4.5437         estimate D2E/DX2                !
 ! D300  D(88,89,90,114)       174.7001         estimate D2E/DX2                !
 ! D301  D(113,89,90,91)      -179.6557         estimate D2E/DX2                !
 ! D302  D(113,89,90,114)       -9.4993         estimate D2E/DX2                !
 ! D303  D(89,90,91,87)         -4.7253         estimate D2E/DX2                !
 ! D304  D(114,90,91,87)      -175.8144         estimate D2E/DX2                !
 --------------------------------------------------------------------------------
 Trust Radius=3.00D-01 FncErr=1.00D-07 GrdErr=1.00D-06 EigMax=2.50D+02 EigMin=1.00D-04
 Number of steps in this run=    644 maximum allowed number of steps=    684.
 GradGradGradGradGradGradGradGradGradGradGradGradGradGradGradGradGradGrad

 Leave Link  103 at Fri Jul 24 12:28:09 2020, MaxMem=  4026531840 cpu:               0.2 elap:               0.0
 (Enter /opt/ohpc/pub/libs/gaussian/g16-A.03/sandybridge/g16/l202.exe)
 Stoichiometry    C63H23F14N7S7
 Framework group  C1[X(C63H23F14N7S7)]
 Deg. of freedom   336
 Full point group                 C1      NOp   1
 Largest Abelian subgroup         C1      NOp   1
 Largest concise Abelian subgroup C1      NOp   1
                         Standard orientation:                         
 ---------------------------------------------------------------------
 Center     Atomic      Atomic             Coordinates (Angstroms)
 Number     Number       Type             X           Y           Z
 ---------------------------------------------------------------------
      1          6           0      -26.167851    3.883240    0.643498
      2          6           0      -26.038461    3.030803    1.730141
      3          6           0      -24.953211    2.086908    1.829714
      4          9           0      -24.816985    1.353989    2.926878
      5          6           0      -23.992237    2.103576    0.743727
      6          6           0      -24.149174    2.915301   -0.274072
      7          9           0      -23.325492    2.935650   -1.300895
      8          6           0      -25.202309    3.842826   -0.377435
      9          6           0      -22.860779    1.184267    0.887719
     10          7           0      -22.952503   -0.146497    1.138519
     11          6           0      -21.767452   -0.739810    1.147438
     12          6           0      -20.630851    0.037329    0.825202
     13         16           0      -21.199211    1.639050    0.609267
     14          6           0      -19.251337   -0.257581    0.753026
     15          6           0      -18.381100    0.275399   -0.205155
     16          6           0      -17.019940   -0.113628   -0.306599
     17          9           0      -16.351543    0.491435   -1.230287
     18          6           0      -16.592958   -1.149340    0.443411
     19          6           0      -17.444796   -1.758340    1.366004
     20          9           0      -17.006114   -2.751477    2.197649
     21          6           0      -18.695667   -1.307664    1.495225
     22          6           0      -15.151781   -1.653706    0.246318
     23          7           0      -14.895141   -2.982587    0.141987
     24          6           0      -13.529437   -3.089542   -0.040185
     25          6           0      -12.812877   -1.950290   -0.072588
     26         16           0      -13.796200   -0.589174    0.200816
     27          6           0      -11.316952   -1.883783   -0.195202
     28          6           0      -10.524647   -2.888796    0.280814
     29          6           0       -9.123033   -2.842326    0.047615
     30          9           0       -8.320288   -3.771212    0.481837
     31          6           0       -8.523266   -1.691681   -0.684000
     32          6           0       -9.413088   -0.676047   -1.106175
[...]
  Beta virt. eigenvalues --    1.80723   1.80907   1.81110   1.81330   1.81522
  Beta virt. eigenvalues --    1.81560   1.81690   1.81851   1.82182   1.82256
  Beta virt. eigenvalues --    1.82497   1.82615   1.82768   1.83223   1.83393
  Beta virt. eigenvalues --    1.83579   1.83875   1.84234   1.84477   1.84907
  Beta virt. eigenvalues --    1.85139   1.85470   1.86311   1.86433   1.86577
  Beta virt. eigenvalues --    1.86936   1.87121   1.87367   1.88544   1.88892
  Beta virt. eigenvalues --    1.89082   1.89617   1.90018   1.90357   1.90709
  Beta virt. eigenvalues --    1.91228   1.91718   1.91994   1.92116   1.92319
  Beta virt. eigenvalues --    1.92405   1.92486   1.92649   1.92881   1.93168
  Beta virt. eigenvalues --    1.93373   1.93968   1.94562   1.94581   1.94858
  Beta virt. eigenvalues --    1.94957   1.95215   1.95623   1.95691   1.95786
  Beta virt. eigenvalues --    1.95877   1.95931   1.96508   1.96766   1.96994
  Beta virt. eigenvalues --    1.97104   1.97237   1.97989   1.98575   1.98718
  Beta virt. eigenvalues --    1.99146   1.99366   1.99583   1.99704   1.99919
  Beta virt. eigenvalues --    2.00067   2.00239   2.00854   2.01338   2.02029
  Beta virt. eigenvalues --    2.02272   2.02390   2.02408   2.03043   2.03171
  Beta virt. eigenvalues --    2.03201   2.03531   2.03954   2.04514   2.04992
  Beta virt. eigenvalues --    2.05167   2.05481   2.05548   2.05906   2.06129
  Beta virt. eigenvalues --    2.06632   2.07124   2.07203   2.07631   2.08151
  Beta virt. eigenvalues --    2.08211   2.08753   2.09023   2.09111   2.10236
  Beta virt. eigenvalues --    2.10530   2.10832   2.11119   2.11261   2.11622
  Beta virt. eigenvalues --    2.12015   2.14574   2.14667   2.14811   2.14923
  Beta virt. eigenvalues --    2.15139   2.15330   2.15632   2.15972   2.18948
  Beta virt. eigenvalues --    2.19450   2.19850   2.20070   2.20307   2.20471
  Beta virt. eigenvalues --    2.20510   2.20960   2.21694   2.22186   2.22817
  Beta virt. eigenvalues --    2.23225   2.23907   2.24181   2.25864   2.26275
  Beta virt. eigenvalues --    2.26525   2.26542   2.26796   2.26888   2.27341
  Beta virt. eigenvalues --    2.27458   2.28054   2.28198   2.28452   2.28750
  Beta virt. eigenvalues --    2.29477   2.31976   2.32511   2.33141   2.33512
  Beta virt. eigenvalues --    2.33825   2.33993   2.34607   2.34829   2.35030
  Beta virt. eigenvalues --    2.35275   2.35673   2.35690   2.36054   2.36271
  Beta virt. eigenvalues --    2.37304   2.37708   2.38002   2.38219   2.38393
  Beta virt. eigenvalues --    2.38438   2.40853   2.41001   2.41429   2.41659
  Beta virt. eigenvalues --    2.42371   2.42396   2.43001   2.43580   2.43847
  Beta virt. eigenvalues --    2.43968   2.44037   2.44139   2.44429   2.44465
  Beta virt. eigenvalues --    2.46876   2.47174   2.47545   2.47782   2.47869
  Beta virt. eigenvalues --    2.48217   2.48671   2.49089   2.49853   2.49916
  Beta virt. eigenvalues --    2.50167   2.50517   2.50617   2.50841   2.52186
  Beta virt. eigenvalues --    2.52552   2.54328   2.54477   2.54616   2.54683
  Beta virt. eigenvalues --    2.54808   2.55752   2.56267   2.56311   2.56338
  Beta virt. eigenvalues --    2.56514   2.56579   2.56791   2.56982   2.57494
  Beta virt. eigenvalues --    2.57857   2.57895   2.58070   2.58321   2.58615
  Beta virt. eigenvalues --    2.58776   2.59507   2.63302   2.64168   2.64905
  Beta virt. eigenvalues --    2.65862   2.66880   2.67710   2.68352   2.70052
  Beta virt. eigenvalues --    2.72175   2.72305   2.72472   2.72705   2.72970
  Beta virt. eigenvalues --    2.73141   2.75858   2.75940   2.76010   2.76149
  Beta virt. eigenvalues --    2.76181   2.76495   2.78635   2.79337   2.79486
  Beta virt. eigenvalues --    2.79722   2.80192   2.80509   2.81514   2.81904
  Beta virt. eigenvalues --    2.82933   2.87541   2.88281   2.89217   2.90227
  Beta virt. eigenvalues --    2.91170   2.91910   2.94418   2.94560   2.94986
  Beta virt. eigenvalues --    2.95135   2.95228   2.95365   2.95467   3.06929
  Beta virt. eigenvalues --    3.08008   3.08345   3.08806   3.09388   3.10421
  Beta virt. eigenvalues --    3.15280   3.30169   3.30625   3.31179   3.31754
  Beta virt. eigenvalues --    3.32258   3.32561   3.38905   3.60866   3.60882
  Beta virt. eigenvalues --    3.60904   3.60974   3.61149   3.61217   3.61671
  Beta virt. eigenvalues --    3.62662   3.62671   3.62684   3.62751   3.62898
  Beta virt. eigenvalues --    3.62939   3.63326   3.65117   3.65132   3.65171
  Beta virt. eigenvalues --    3.65181   3.65231   3.65377   3.65791   3.66831
  Beta virt. eigenvalues --    3.66898   3.66923   3.66968   3.67086   3.67127
  Beta virt. eigenvalues --    3.67357   3.79486   3.79506   3.79527   3.79596
  Beta virt. eigenvalues --    3.79740   3.79766   3.80307   3.82939   3.82947
  Beta virt. eigenvalues --    3.82970   3.83036   3.83168   3.83177   3.83614
  Beta virt. eigenvalues --    4.02667   4.02712   4.02753   4.02808   4.02880
  Beta virt. eigenvalues --    4.03053   4.03601   4.05443   4.05559   4.05597
  Beta virt. eigenvalues --    4.05617   4.05669   4.05790   4.06114   4.16309
  Beta virt. eigenvalues --    4.16548   4.16562   4.16587   4.16650   4.16798
  Beta virt. eigenvalues --    4.17223   4.29686   4.29715   4.29737   4.29798
  Beta virt. eigenvalues --    4.29942   4.30382   4.30423
          Condensed to atoms (all electrons):
          Atomic-Atomic Spin Densities.
 Mulliken charges and spin densities:
               1          2
     1  C    0.040454   0.000000
     2  C    0.001537  -0.000000
     3  C    0.119331   0.000000
     4  F   -0.094864   0.000000
     5  C   -0.069613  -0.000000
     6  C    0.105755   0.000000
     7  F   -0.121848  -0.000000
     8  C    0.008973  -0.000000
     9  C    0.000178  -0.000000
    10  N   -0.159433   0.000000
    11  C    0.122438  -0.000000
    12  C   -0.212803   0.000000
    13  S    0.179721  -0.000000
    14  C    0.069539  -0.000000
    15  C    0.004435   0.000000
    16  C    0.107574   0.000000
    17  F   -0.119354   0.000000
    18  C   -0.061525   0.000000
    19  C    0.128816  -0.000000
    20  F   -0.091558  -0.000000
    21  C   -0.009822   0.000000
    22  C   -0.000082   0.000000
    23  N   -0.162140   0.000000
    24  C    0.123363  -0.000000
    25  C   -0.213076  -0.000000
    26  S    0.179180  -0.000000
    27  C    0.069603   0.000000
    28  C   -0.009827  -0.000000
    29  C    0.128741   0.000000
    30  F   -0.091586   0.000000
    31  C   -0.061339  -0.000000
    32  C    0.107710   0.000000
    33  F   -0.118889   0.000000
    34  C    0.004404  -0.000000
    35  C   -0.000501   0.000000
    36  N   -0.162438  -0.000000
    37  C    0.122796  -0.000000
    38  C   -0.213279   0.000000
    39  S    0.181937   0.000000
    40  C    0.069814  -0.000000
    41  C   -0.005359   0.000000
    42  C    0.125145  -0.000000
    43  F   -0.091070  -0.000000
    44  C   -0.061061  -0.000000
    45  C    0.111245   0.000000
    46  F   -0.119248  -0.000000
    47  C   -0.000300  -0.000000
    48  C   -0.000482   0.000000
    49  N   -0.162599  -0.000000
    50  C    0.122752   0.000000
    51  C   -0.213203   0.000000
    52  S    0.181933  -0.000000
    53  C    0.069645  -0.000000
    54  C   -0.000461  -0.000000
    55  C    0.111455   0.000000
    56  F   -0.119207   0.000000
    57  C   -0.061170  -0.000000
    58  C    0.125243  -0.000000
    59  F   -0.091099  -0.000000
    60  C   -0.005438   0.000000
    61  C   -0.000870   0.000000
    62  N   -0.162503  -0.000000
    63  C    0.122589  -0.000000
    64  C   -0.212960   0.000000
    65  S    0.181801  -0.000000
    66  C    0.069317   0.000000
    67  C   -0.005742   0.000000
    68  C    0.125258  -0.000000
    69  F   -0.091500  -0.000000
    70  C   -0.061291  -0.000000
    71  C    0.111907   0.000000
    72  F   -0.119008  -0.000000
    73  C   -0.000856  -0.000000
    74  C   -0.002237  -0.000000
    75  N   -0.162623  -0.000000
    76  C    0.121698  -0.000000
    77  C   -0.211723  -0.000000
    78  S    0.181791   0.000000
    79  C    0.067224   0.000000
    80  C   -0.008068   0.000000
    81  C    0.126563  -0.000000
    82  F   -0.093253   0.000000
    83  C   -0.058426  -0.000000
    84  C    0.116216   0.000000
    85  F   -0.119177   0.000000
    86  C   -0.003888   0.000000
    87  C   -0.023208   0.000000
    88  N   -0.165672   0.000000
    89  C    0.110376   0.000000
    90  C   -0.176284  -0.000000
    91  S    0.175875   0.000000
    92  H    0.014923   0.000000
    93  H    0.016741  -0.000000
    94  H    0.016688  -0.000000
    95  H    0.018557   0.000000
    96  H    0.014804  -0.000000
    97  H    0.009551   0.000000
    98  H    0.018856   0.000000
    99  H    0.009498  -0.000000
   100  H    0.015009  -0.000000
   101  H    0.017611  -0.000000
   102  H    0.014317  -0.000000
   103  H    0.010011  -0.000000
   104  H    0.017512   0.000000
   105  H    0.009852   0.000000
   106  H    0.014236   0.000000
   107  H    0.017528  -0.000000
   108  H    0.013807   0.000000
   109  H    0.009607  -0.000000
   110  H    0.016743   0.000000
   111  H    0.012627  -0.000000
   112  H    0.008015  -0.000000
   113  H    0.013481   0.000000
   114  H    0.039661   0.000000
 Sum of Mulliken charges =  -0.00000  -0.00000
 Mulliken charges and spin densities with hydrogens summed into heavy atoms:
               1          2
     1  C    0.055378   0.000000
     2  C    0.018278  -0.000000
     3  C    0.119331   0.000000
     4  F   -0.094864   0.000000
     5  C   -0.069613  -0.000000
     6  C    0.105755   0.000000
     7  F   -0.121848  -0.000000
     8  C    0.025662  -0.000000
     9  C    0.000178  -0.000000
    10  N   -0.159433   0.000000
    11  C    0.140996  -0.000000
    12  C   -0.212803   0.000000
    13  S    0.179721  -0.000000
    14  C    0.069539  -0.000000
    15  C    0.019239   0.000000
    16  C    0.107574   0.000000
    17  F   -0.119354   0.000000
    18  C   -0.061525   0.000000
    19  C    0.128816  -0.000000
    20  F   -0.091558  -0.000000
    21  C   -0.000271   0.000000
    22  C   -0.000082   0.000000
    23  N   -0.162140   0.000000
    24  C    0.142219  -0.000000
    25  C   -0.213076  -0.000000
    26  S    0.179180  -0.000000
    27  C    0.069603   0.000000
    28  C   -0.000329  -0.000000
    29  C    0.128741   0.000000
    30  F   -0.091586   0.000000
    31  C   -0.061339  -0.000000
    32  C    0.107710   0.000000
    33  F   -0.118889   0.000000
    34  C    0.019413  -0.000000
    35  C   -0.000501   0.000000
    36  N   -0.162438  -0.000000
    37  C    0.140407  -0.000000
    38  C   -0.213279   0.000000
    39  S    0.181937   0.000000
    40  C    0.069814  -0.000000
    41  C    0.008957   0.000000
    42  C    0.125145  -0.000000
    43  F   -0.091070  -0.000000
    44  C   -0.061061  -0.000000
    45  C    0.111245   0.000000
    46  F   -0.119248  -0.000000
    47  C    0.009710  -0.000000
    48  C   -0.000482   0.000000
    49  N   -0.162599  -0.000000
    50  C    0.140264   0.000000
    51  C   -0.213203   0.000000
    52  S    0.181933  -0.000000
    53  C    0.069645  -0.000000
    54  C    0.009391  -0.000000
    55  C    0.111455   0.000000
    56  F   -0.119207   0.000000
    57  C   -0.061170  -0.000000
    58  C    0.125243  -0.000000
    59  F   -0.091099  -0.000000
    60  C    0.008798   0.000000
    61  C   -0.000870   0.000000
    62  N   -0.162503  -0.000000
    63  C    0.140117  -0.000000
    64  C   -0.212960   0.000000
    65  S    0.181801  -0.000000
    66  C    0.069317   0.000000
    67  C    0.008064   0.000000
    68  C    0.125258  -0.000000
    69  F   -0.091500  -0.000000
    70  C   -0.061291  -0.000000
    71  C    0.111907   0.000000
    72  F   -0.119008  -0.000000
    73  C    0.008750  -0.000000
    74  C   -0.002237  -0.000000
    75  N   -0.162623  -0.000000
    76  C    0.138441  -0.000000
    77  C   -0.211723  -0.000000
    78  S    0.181791   0.000000
    79  C    0.067224   0.000000
    80  C    0.004559   0.000000
    81  C    0.126563  -0.000000
    82  F   -0.093253   0.000000
    83  C   -0.058426  -0.000000
    84  C    0.116216   0.000000
    85  F   -0.119177   0.000000
    86  C    0.004127   0.000000
    87  C   -0.023208   0.000000
    88  N   -0.165672   0.000000
    89  C    0.123857   0.000000
    90  C   -0.136623  -0.000000
    91  S    0.175875   0.000000
 Electronic spatial extent (au):  <R**2>=         643903.8682
 Charge=              0.0000 electrons
 Dipole moment (field-independent basis, Debye):
    X=             -6.1391    Y=              3.6568    Z=              0.5546  Tot=              7.1672
 Quadrupole moment (field-independent basis, Debye-Ang):
   XX=           -436.9980   YY=           -530.9454   ZZ=           -554.5828
   XY=            -60.1734   XZ=            -21.2070   YZ=              1.4372
 Traceless Quadrupole moment (field-independent basis, Debye-Ang):
   XX=             70.5107   YY=            -23.4367   ZZ=            -47.0740
   XY=            -60.1734   XZ=            -21.2070   YZ=              1.4372
 Octapole moment (field-independent basis, Debye-Ang**2):
  XXX=          -2487.0230  YYY=            173.6287  ZZZ=             -0.1600  XYY=           -491.4445
  XXY=           2415.8262  XXZ=            380.8218  XZZ=            -30.5317  YZZ=              2.3351
  YYZ=             27.4940  XYZ=            -97.3551
 Hexadecapole moment (field-independent basis, Debye-Ang**3):
 XXXX=        -687209.4356 YYYY=         -15194.6358 ZZZZ=          -1883.5811 XXXY=         -34048.2127
 XXXZ=         -13370.9948 YYYX=          -3992.1655 YYYZ=            -74.1077 ZZZX=            -70.1665
 ZZZY=           -216.6243 XXYY=        -128717.3885 XXZZ=        -142776.2552 YYZZ=          -3065.6656
 XXYZ=           2328.3466 YYXZ=           -689.6967 ZZXY=            -62.5663
 N-N= 1.339273665413D+04 E-N=-4.323061701308D+04  KE= 6.948549678689D+03
 Leave Link  601 at Fri Jul 24 21:37:05 2020, MaxMem=  4026531840 cpu:              11.0 elap:               1.5
 (Enter /opt/ohpc/pub/libs/gaussian/g16-A.03/sandybridge/g16/l9999.exe)

 Test job not archived.
 1\1\GINC-SKYLAKE017\FOpt\ULC-wPBE\CC-pVDZ\C63H23F14N7S7\RDU230\24-Jul-
 2020\0\\#P uLC-wPBE/cc-pVDZ iop(3/107=0311600000, 3/108=0311600000) op
 t\\H23 C63 S7 N7 F14\\0,1\C,-25.3846171564,5.2582002576,1.8090431062\C
 ,-25.7702122608,3.9218426235,1.8056731608\C,-24.8494561172,2.948305848
 8,1.4421409694\F,-25.2471901505,1.6741364582,1.4733861197\C,-23.530406
 8268,3.2543745506,1.0692479797\C,-23.1968507813,4.6141894112,1.1041616
 293\F,-21.939343858,4.9722797554,0.7766267376\C,-24.0860071192,5.61537
 92189,1.4587516497\C,-22.5772264943,2.2060225746,0.6572430799\N,-22.94
 51972876,1.0575466069,0.1528101704\C,-21.8630710394,0.2649599712,-0.09
 37002388\C,-20.6347737429,0.787992242,0.2222552091\S,-20.8551015073,2.
 379081597,0.8559752354\C,-19.3097756379,0.1717037776,0.0501665152\C,-1
 8.1704692431,0.9493822014,-0.1828591067\C,-16.9474794614,0.3258094246,
 -0.3510082872\F,-15.8732668683,1.1095963157,-0.5674677275\C,-16.761534
 3554,-1.0616363493,-0.3158010178\C,-17.9285511406,-1.8041893902,-0.068
 7784388\F,-17.8584261794,-3.1331120072,0.0276006535\C,-19.1712896983,-
 1.2186381679,0.1149748482\C,-15.4533565988,-1.706060748,-0.5298975427\
 N,-15.3187896996,-2.950272203,-0.9092975228\C,-14.0024599292,-3.296308
 0985,-0.9881497855\C,-13.091707135,-2.322353351,-0.6653589075\S,-13.94
 44008412,-0.879903619,-0.248867291\C,-11.6228550758,-2.4076577309,-0.6
 770370461\C,-10.9913283897,-3.6312668856,-0.4312969137\C,-9.6085367124
 ,-3.7202004608,-0.4632163642\F,-9.06617027,-4.910091077,-0.1981521092\
 C,-8.7765754696,-2.6192094316,-0.7278803508\C,-9.4540444519,-1.4134364
 559,-0.9470368167\F,-8.7264212874,-0.3066215321,-1.1924511571\C,-10.83
 0938585,-1.2834259321,-0.9339399561\C,-7.3084910955,-2.740456592,-0.77
 84995777\N,-6.688180977,-3.8724882257,-0.9886917028\C,-5.3363089482,-3
 .7029903956,-0.9429427586\C,-4.8853657572,-2.4319103828,-0.6911136358\
 S,-6.2461400118,-1.3843925565,-0.5130676979\C,-3.4952611461,-1.9579955
 311,-0.6011529123\C,-3.1477179003,-0.6501644426,-0.9534618943\C,-1.828
 5580004,-0.2320956437,-0.8687333346\F,-1.558965649,1.0197814508,-1.242
 7636121\C,-0.7868717499,-1.0704179002,-0.4381309094\C,-1.1826572243,-2
 .3730622135,-0.1085621455\F,-0.2397463526,-3.2421140715,0.3046715864\C
 ,-2.487231146,-2.8272365719,-0.1696090913\C,0.6055065661,-0.5990413237
 ,-0.3299624135\N,0.9308869425,0.6637186194,-0.2296407371\C,2.284927148
 6,0.8160578787,-0.1876566407\C,3.0340687172,-0.3311188003,-0.259600277
 \S,1.9685117127,-1.68453247,-0.3750529389\C,4.4985939902,-0.4686553186
 ,-0.2220176957\C,5.3100841335,0.5626088302,-0.7077059363\C,6.684884655
 7,0.4268732042,-0.6479435506\F,7.4319294111,1.4444374452,-1.1185991614
 \C,7.342630064,-0.701040049,-0.1407726533\C,6.4914805795,-1.7104442455
 ,0.338616929\F,7.0119272821,-2.8142186553,0.8776911486\C,5.1090602548,
 -1.610469515,0.3060750447\C,8.8101233841,-0.838159373,-0.1214254122\N,
 9.4229362131,-1.9915244578,-0.0538980291\C,10.7749884897,-1.8228195751
 ,-0.0086736765\C,11.2334009418,-0.5299572707,-0.0359295139\S,9.8803167
 141,0.5374955248,-0.1368680048\C,12.6259483738,-0.054832074,-0.0145673
 398\C,12.998312745,1.1368148068,-0.6443271899\C,14.3195448029,1.556245
 265,-0.6174813056\F,14.6147069405,2.6886273096,-1.2583561548\C,15.3387
 458033,0.8326256794,0.0231040441\C,14.9190235819,-0.3588609065,0.62808
 77979\F,15.8396843571,-1.115857941,1.2558650132\C,13.611235893,-0.8083
 078482,0.6329145406\C,16.7329738029,1.3097792199,0.0629615826\N,17.068
 0923537,2.5632909026,-0.0998349208\C,18.4225923593,2.7145081897,-0.057
 2887123\C,19.1618171065,1.5748984425,0.1351503471\S,18.0856586511,0.23
 3230245,0.28330889\C,20.6240595405,1.4406209879,0.2372520437\C,21.2095
 288694,0.440579587,1.0198092633\C,22.5901145134,0.3437073799,1.1060809
 695\F,23.0899452196,-0.6145908032,1.8893405887\C,23.4611146141,1.21684
 05208,0.43620105\C,22.8290751117,2.2078658397,-0.3240734837\F,23.59740
 28054,3.0907056029,-0.9903996436\C,21.4566630677,2.3341778867,-0.44508
 92677\C,24.9275033422,1.0762380503,0.5205329504\N,25.5247262187,-0.058
 8518243,0.76926402\C,26.8812895674,0.1086462359,0.8320923804\C,27.3342
 286302,1.3814698688,0.6366854707\S,26.0113083939,2.4307619503,0.343539
 0595\H,-26.1039217161,6.0316580396,2.0933791881\H,-26.7782358647,3.606
 6487323,2.0854744057\H,-23.7443786532,6.6529203783,1.4533262192\H,-22.
 0184668625,-0.7171848724,-0.5476578393\H,-18.2144312431,2.0389113375,-
 0.2552163074\H,-20.0193340928,-1.870986131,0.334634098\H,-13.738771576
 8,-4.3023817371,-1.3244577088\H,-11.5585490157,-4.5316546808,-0.185207
 827\H,-11.2637574947,-0.3022024665,-1.1439682504\H,-4.6886921437,-4.56
 28888519,-1.1327721375\H,-3.888653535,0.0643858352,-1.321192941\H,-2.6
 993065497,-3.8515458211,0.1439165144\H,2.7009492203,1.8203574507,-0.07
 28283643\H,4.8930651414,1.46706809,-1.1555230478\H,4.5260315293,-2.435
 922483,0.7226106619\H,11.417815635,-2.7065081755,0.0182102135\H,12.276
 3178468,1.7526450763,-1.1867981982\H,13.3783457674,-1.7333402696,1.164
 5045492\H,18.8463758056,3.717950374,-0.1485039238\H,20.6081020123,-0.2
 68322888,1.5947818325\H,21.0584462064,3.1184738842,-1.0923344314\H,27.
 5164406233,-0.7588946922,1.0270645836\H,28.3624334245,1.7444325301,0.6
 333424384\\Version=EM64L-G16RevA.03\State=1-A\HF=-6979.2354304\S2=0.\S
 2-1=0.\S2A=0.\RMSD=6.126e-09\RMSF=2.227e-06\Dipole=-2.423788,1.3768385
 ,0.4252022\Quadrupole=52.9243591,-18.6214277,-34.3029314,-41.5394621,-
 22.1373864,3.4213848\PG=C01 [X(C63H23F14N7S7)]\\@


 DEPRESSION IS WAITING FOR YOUR SHIP TO COME IN,
 AND FINDING OUT IT'S THE TITANIC.
 Job cpu time:       2 days 23 hours 51 minutes  7.5 seconds.
 Elapsed time:       0 days  9 hours  8 minutes 52.8 seconds.
 File lengths (MBytes):  RWF=   2240 Int=      0 D2E=      0 Chk=    200 Scr=      8
 Normal termination of Gaussian 16 at Fri Jul 24 21:37:05 2020.
