 Entering Gaussian System, Link 0=g16
 Input=mols_55_1_04_CF-CF_opt_0.gjf
 Output=mols_55_1_04_CF-CF_opt_0.log
 Initial command:
 /opt/ohpc/pub/libs/gaussian/g16-A.03/sandybridge/g16/l1.exe "/mnt/gpfs2_4m/scratch/rdu230/ondemand/projects/dihedral_energies/7trial/wtuning/mols_55_1_04_CF-CF/Gau-320935.inp" -scrdir="/mnt/gpfs2_4m/scratch/rdu230/ondemand/projects/dihedral_energies/7trial/wtuning/mols_55_1_04_CF-CF/"
 Entering Link 1 = /opt/ohpc/pub/libs/gaussian/g16-A.03/sandybridge/g16/l1.exe PID=    320936.
  
 Copyright (c) 1988,1990,1992,1993,1995,1998,2003,2009,2016,
            Gaussian, Inc.  All Rights Reserved.
  
 This is part of the Gaussian(R) 16 program.  It is based on
 the Gaussian(R) 09 system (copyright 2009, Gaussian, Inc.),
 the Gaussian(R) 03 system (copyright 2003, Gaussian, Inc.),
 the Gaussian(R) 98 system (copyright 1998, Gaussian, Inc.),
 the Gaussian(R) 94 system (copyright 1995, Gaussian, Inc.),
 the Gaussian 92(TM) system (copyright 1992, Gaussian, Inc.),
 the Gaussian 90(TM) system (copyright 1990, Gaussian, Inc.),
 the Gaussian 88(TM) system (copyright 1988, Gaussian, Inc.),
 the Gaussian 86(TM) system (copyright 1986, Carnegie Mellon
 University), and the Gaussian 82(TM) system (copyright 1983,
 Carnegie Mellon University). Gaussian is a federally registered
 trademark of Gaussian, Inc.
  
 This software contains proprietary and confidential information,
 including trade secrets, belonging to Gaussian, Inc.
  
 This software is provided under written license and may be
 used, copied, transmitted, or stored only in accord with that
 written license.
  
 The following legend is applicable only to US Government
 contracts under FAR:
  
                    RESTRICTED RIGHTS LEGEND
  
 Use, reproduction and disclosure by the US Government is
 subject to restrictions as set forth in subparagraphs (a)
 and (c) of the Commercial Computer Software - Restricted
 Rights clause in FAR 52.227-19.
  
 Gaussian, Inc.
 340 Quinnipiac St., Bldg. 40, Wallingford CT 06492
  
  
 ---------------------------------------------------------------
 Warning -- This program may not be used in any manner that
 competes with the business of Gaussian, Inc. or will provide
 assistance to any competitor of Gaussian, Inc.  The licensee
 of this program is prohibited from giving any competitor of
 Gaussian, Inc. access to this program.  By using this program,
 the user acknowledges that Gaussian, Inc. is engaged in the
 business of creating and licensing software in the field of
 computational chemistry and represents and warrants to the
 licensee that it is not a competitor of Gaussian, Inc. and that
 it will not use this program in any manner prohibited above.
 ---------------------------------------------------------------
  

 Cite this work as:
 Gaussian 16, Revision A.03,
 M. J. Frisch, G. W. Trucks, H. B. Schlegel, G. E. Scuseria, 
 M. A. Robb, J. R. Cheeseman, G. Scalmani, V. Barone, 
 G. A. Petersson, H. Nakatsuji, X. Li, M. Caricato, A. V. Marenich, 
 J. Bloino, B. G. Janesko, R. Gomperts, B. Mennucci, H. P. Hratchian, 
 J. V. Ortiz, A. F. Izmaylov, J. L. Sonnenberg, D. Williams-Young, 
 F. Ding, F. Lipparini, F. Egidi, J. Goings, B. Peng, A. Petrone, 
 T. Henderson, D. Ranasinghe, V. G. Zakrzewski, J. Gao, N. Rega, 
 G. Zheng, W. Liang, M. Hada, M. Ehara, K. Toyota, R. Fukuda, 
 J. Hasegawa, M. Ishida, T. Nakajima, Y. Honda, O. Kitao, H. Nakai, 
 T. Vreven, K. Throssell, J. A. Montgomery, Jr., J. E. Peralta, 
 F. Ogliaro, M. J. Bearpark, J. J. Heyd, E. N. Brothers, K. N. Kudin, 
 V. N. Staroverov, T. A. Keith, R. Kobayashi, J. Normand, 
 K. Raghavachari, A. P. Rendell, J. C. Burant, S. S. Iyengar, 
 J. Tomasi, M. Cossi, J. M. Millam, M. Klene, C. Adamo, R. Cammi, 
 J. W. Ochterski, R. L. Martin, K. Morokuma, O. Farkas, 
 J. B. Foresman, and D. J. Fox, Gaussian, Inc., Wallingford CT, 2016.
 
 ******************************************
 Gaussian 16:  EM64L-G16RevA.03 25-Dec-2016
                24-Jul-2020 
 ******************************************
 %mem=30GB
 %nproc=8
 Will use up to    8 processors via shared memory.
 ---------------------------------------------------------------
 #P uLC-wPBE/cc-pVDZ iop(3/107=0220900000, 3/108=0220900000) opt
 ---------------------------------------------------------------
 1/18=20,19=15,26=3,38=1/1,3;
 2/9=110,12=2,17=6,18=5,40=1/2;
 3/5=16,11=2,25=1,30=1,71=1,74=-41,107=220900000,108=220900000,116=2/1,2,3;
 4//1;
 5/5=2,38=5/2;
 6/7=2,8=2,9=2,10=2,28=1/1;
 7//1,2,3,16;
 1/18=20,19=15,26=3/3(2);
 2/9=110/2;
 99//99;
 2/9=110/2;
 3/5=16,11=2,25=1,30=1,71=1,74=-41,107=220900000,108=220900000,116=2/1,2,3;
 4/5=5,16=3,69=1/1;
 5/5=2,38=5/2;
 7//1,2,3,16;
 1/18=20,19=15,26=3/3(-5);
 2/9=110/2;
 6/7=2,8=2,9=2,10=2,19=2,28=1/1;
 99/9=1/99;
 Leave Link    1 at Fri Jul 24 19:58:04 2020, MaxMem=  4026531840 cpu:               2.0 elap:               0.3
 (Enter /opt/ohpc/pub/libs/gaussian/g16-A.03/sandybridge/g16/l101.exe)
 -----------
 H4 C8 S2 F2
 -----------
 Symbolic Z-matrix:
 Charge =  0 Multiplicity = 1
 C                    -3.1077    0.5846    0.02024 
 C                    -2.95632  -0.70018   0.01471 
 C                    -1.6359   -1.08344   0.01736 
 F                    -1.15966  -2.33663  -0.0128 
 C                    -0.70233   0.02606  -0.02918 
 S                    -1.65965   1.43473  -0.04642 
 C                     0.73909   0.05541   0.00214 
 C                     1.63088   1.09635  -0.02555 
 F                     1.23928   2.35235  -0.01657 
 C                     2.97375   0.70914   0.03071 
 C                     3.15749  -0.66147   0.01079 
 S                     1.68089  -1.44768  -0.04029 
 H                    -4.10168   1.12837   0.02118 
 H                    -3.72669  -1.45745  -0.01462 
 H                     3.77166   1.41968  -0.0219 
 H                     4.07865  -1.1986    0.03566 
 
 ITRead=  0  0  0  0  0  0  0  0  0  0  0  0  0  0  0  0
 MicOpt= -1 -1 -1 -1 -1 -1 -1 -1 -1 -1 -1 -1 -1 -1 -1 -1
 NAtoms=     16 NQM=       16 NQMF=       0 NMMI=      0 NMMIF=      0
                NMic=       0 NMicF=      0.
                    Isotopes and Nuclear Properties:
 (Nuclear quadrupole moments (NQMom) in fm**2, nuclear magnetic moments (NMagM)
  in nuclear magnetons)

  Atom         1           2           3           4           5           6           7           8           9          10
 IAtWgt=          12          12          12          19          12          32          12          12          19          12
 AtmWgt=  12.0000000  12.0000000  12.0000000  18.9984033  12.0000000  31.9720718  12.0000000  12.0000000  18.9984033  12.0000000
 NucSpn=           0           0           0           1           0           0           0           0           1           0
 AtZEff=  -0.0000000  -0.0000000  -0.0000000  -0.0000000  -0.0000000  -0.0000000  -0.0000000  -0.0000000  -0.0000000  -0.0000000
 NQMom=    0.0000000   0.0000000   0.0000000   0.0000000   0.0000000   0.0000000   0.0000000   0.0000000   0.0000000   0.0000000
 NMagM=    0.0000000   0.0000000   0.0000000   2.6288670   0.0000000   0.0000000   0.0000000   0.0000000   2.6288670   0.0000000
 AtZNuc=   6.0000000   6.0000000   6.0000000   9.0000000   6.0000000  16.0000000   6.0000000   6.0000000   9.0000000   6.0000000

  Atom        11          12          13          14          15          16
 IAtWgt=          12          32           1           1           1           1
 AtmWgt=  12.0000000  31.9720718   1.0078250   1.0078250   1.0078250   1.0078250
 NucSpn=           0           0           1           1           1           1
 AtZEff=  -0.0000000  -0.0000000  -0.0000000  -0.0000000  -0.0000000  -0.0000000
 NQMom=    0.0000000   0.0000000   0.0000000   0.0000000   0.0000000   0.0000000
 NMagM=    0.0000000   0.0000000   2.7928460   2.7928460   2.7928460   2.7928460
 AtZNuc=   6.0000000  16.0000000   1.0000000   1.0000000   1.0000000   1.0000000
 Leave Link  101 at Fri Jul 24 19:58:04 2020, MaxMem=  4026531840 cpu:               2.8 elap:               0.4
 (Enter /opt/ohpc/pub/libs/gaussian/g16-A.03/sandybridge/g16/l103.exe)

 GradGradGradGradGradGradGradGradGradGradGradGradGradGradGradGradGradGrad
 Berny optimization.
 Initialization pass.
                           ----------------------------
                           !    Initial Parameters    !
                           ! (Angstroms and Degrees)  !
 --------------------------                            --------------------------
 ! Name  Definition              Value          Derivative Info.                !
 --------------------------------------------------------------------------------
 ! R1    R(1,2)                  1.2937         estimate D2E/DX2                !
 ! R2    R(1,6)                  1.6805         estimate D2E/DX2                !
 ! R3    R(1,13)                 1.133          estimate D2E/DX2                !
 ! R4    R(2,3)                  1.3749         estimate D2E/DX2                !
 ! R5    R(2,14)                 1.0806         estimate D2E/DX2                !
 ! R6    R(3,4)                  1.341          estimate D2E/DX2                !
 ! R7    R(3,5)                  1.4508         estimate D2E/DX2                !
 ! R8    R(5,6)                  1.7033         estimate D2E/DX2                !
 ! R9    R(5,7)                  1.4421         estimate D2E/DX2                !
 ! R10   R(7,8)                  1.371          estimate D2E/DX2                !
 ! R11   R(7,12)                 1.7743         estimate D2E/DX2                !
 ! R12   R(8,9)                  1.3157         estimate D2E/DX2                !
 ! R13   R(8,10)                 1.3987         estimate D2E/DX2                !
 ! R14   R(10,11)                1.383          estimate D2E/DX2                !
 ! R15   R(10,15)                1.0697         estimate D2E/DX2                !
 ! R16   R(11,12)                1.6737         estimate D2E/DX2                !
 ! R17   R(11,16)                1.0666         estimate D2E/DX2                !
 ! A1    A(2,1,6)              113.6657         estimate D2E/DX2                !
 ! A2    A(2,1,13)             125.4012         estimate D2E/DX2                !
 ! A3    A(6,1,13)             120.8776         estimate D2E/DX2                !
 ! A4    A(1,2,3)              112.9051         estimate D2E/DX2                !
 ! A5    A(1,2,14)             127.7803         estimate D2E/DX2                !
 ! A6    A(3,2,14)             119.2971         estimate D2E/DX2                !
 ! A7    A(2,3,4)              126.9797         estimate D2E/DX2                !
 ! A8    A(2,3,5)              113.8754         estimate D2E/DX2                !
 ! A9    A(4,3,5)              119.042          estimate D2E/DX2                !
 ! A10   A(3,5,6)              105.7324         estimate D2E/DX2                !
 ! A11   A(3,5,7)              131.1537         estimate D2E/DX2                !
 ! A12   A(6,5,7)              123.0377         estimate D2E/DX2                !
 ! A13   A(1,6,5)               93.7571         estimate D2E/DX2                !
 ! A14   A(5,7,8)              131.6972         estimate D2E/DX2                !
 ! A15   A(5,7,12)             120.8515         estimate D2E/DX2                !
 ! A16   A(8,7,12)             107.3048         estimate D2E/DX2                !
 ! A17   A(7,8,9)              122.0786         estimate D2E/DX2                !
 ! A18   A(7,8,10)             114.4249         estimate D2E/DX2                !
 ! A19   A(9,8,10)             123.3511         estimate D2E/DX2                !
 ! A20   A(8,10,11)            113.6609         estimate D2E/DX2                !
 ! A21   A(8,10,15)            122.0236         estimate D2E/DX2                !
 ! A22   A(11,10,15)           123.9499         estimate D2E/DX2                !
 ! A23   A(10,11,12)           110.4122         estimate D2E/DX2                !
 ! A24   A(10,11,16)           127.8412         estimate D2E/DX2                !
 ! A25   A(12,11,16)           121.7421         estimate D2E/DX2                !
 ! A26   A(7,12,11)             93.9924         estimate D2E/DX2                !
 ! D1    D(6,1,2,3)              2.8133         estimate D2E/DX2                !
 ! D2    D(6,1,2,14)          -175.6326         estimate D2E/DX2                !
 ! D3    D(13,1,2,3)          -179.8922         estimate D2E/DX2                !
 ! D4    D(13,1,2,14)            1.6619         estimate D2E/DX2                !
 ! D5    D(2,1,6,5)             -1.9957         estimate D2E/DX2                !
 ! D6    D(13,1,6,5)          -179.4263         estimate D2E/DX2                !
 ! D7    D(1,2,3,4)           -178.616          estimate D2E/DX2                !
 ! D8    D(1,2,3,5)             -2.3722         estimate D2E/DX2                !
 ! D9    D(14,2,3,4)            -0.0244         estimate D2E/DX2                !
 ! D10   D(14,2,3,5)           176.2194         estimate D2E/DX2                !
 ! D11   D(2,3,5,6)              0.8502         estimate D2E/DX2                !
 ! D12   D(2,3,5,7)            177.6725         estimate D2E/DX2                !
 ! D13   D(4,3,5,6)            177.4184         estimate D2E/DX2                !
 ! D14   D(4,3,5,7)             -5.7592         estimate D2E/DX2                !
 ! D15   D(3,5,6,1)              0.5699         estimate D2E/DX2                !
 ! D16   D(7,5,6,1)           -176.5762         estimate D2E/DX2                !
 ! D17   D(3,5,7,8)           -179.1286         estimate D2E/DX2                !
 ! D18   D(3,5,7,12)             5.8723         estimate D2E/DX2                !
 ! D19   D(6,5,7,8)             -2.7778         estimate D2E/DX2                !
 ! D20   D(6,5,7,12)          -177.7769         estimate D2E/DX2                !
 ! D21   D(5,7,8,9)              3.8866         estimate D2E/DX2                !
 ! D22   D(5,7,8,10)           179.6403         estimate D2E/DX2                !
 ! D23   D(12,7,8,9)           179.3908         estimate D2E/DX2                !
 ! D24   D(12,7,8,10)           -4.8554         estimate D2E/DX2                !
 ! D25   D(5,7,12,11)          179.5802         estimate D2E/DX2                !
 ! D26   D(8,7,12,11)            3.4894         estimate D2E/DX2                !
 ! D27   D(7,8,10,11)            4.233          estimate D2E/DX2                !
 ! D28   D(7,8,10,15)          177.5461         estimate D2E/DX2                !
 ! D29   D(9,8,10,11)          179.9256         estimate D2E/DX2                !
 ! D30   D(9,8,10,15)           -6.7613         estimate D2E/DX2                !
 ! D31   D(8,10,11,12)          -1.3201         estimate D2E/DX2                !
 ! D32   D(8,10,11,16)         179.4545         estimate D2E/DX2                !
 ! D33   D(15,10,11,12)       -174.485          estimate D2E/DX2                !
 ! D34   D(15,10,11,16)          6.2897         estimate D2E/DX2                !
 ! D35   D(10,11,12,7)          -1.2667         estimate D2E/DX2                !
 ! D36   D(16,11,12,7)         178.0139         estimate D2E/DX2                !
 --------------------------------------------------------------------------------
 Trust Radius=3.00D-01 FncErr=1.00D-07 GrdErr=1.00D-06 EigMax=2.50D+02 EigMin=1.00D-04
 Number of steps in this run=     89 maximum allowed number of steps=    100.
 GradGradGradGradGradGradGradGradGradGradGradGradGradGradGradGradGradGrad

 Leave Link  103 at Fri Jul 24 19:58:04 2020, MaxMem=  4026531840 cpu:               0.1 elap:               0.0
 (Enter /opt/ohpc/pub/libs/gaussian/g16-A.03/sandybridge/g16/l202.exe)
                          Input orientation:                          
 ---------------------------------------------------------------------
 Center     Atomic      Atomic             Coordinates (Angstroms)
 Number     Number       Type             X           Y           Z
 ---------------------------------------------------------------------
      1          6           0       -3.107698    0.584604    0.020241
      2          6           0       -2.956317   -0.700176    0.014707
      3          6           0       -1.635902   -1.083439    0.017361
      4          9           0       -1.159661   -2.336628   -0.012802
      5          6           0       -0.702334    0.026063   -0.029177
      6         16           0       -1.659645    1.434725   -0.046417
      7          6           0        0.739088    0.055406    0.002142
      8          6           0        1.630884    1.096353   -0.025554
      9          9           0        1.239284    2.352346   -0.016574
     10          6           0        2.973753    0.709143    0.030708
     11          6           0        3.157495   -0.661465    0.010790
     12         16           0        1.680886   -1.447681   -0.040291
     13          1           0       -4.101683    1.128374    0.021181
     14          1           0       -3.726689   -1.457446   -0.014621
     15          1           0        3.771663    1.419683   -0.021899
     16          1           0        4.078654   -1.198600    0.035663
 ---------------------------------------------------------------------
                    Distance matrix (angstroms):
                    1          2          3          4          5
     1  C    0.000000
     2  C    1.293679   0.000000
     3  C    2.224536   1.374916   0.000000
     4  F    3.511344   2.430371   1.340969   0.000000
     5  C    2.469855   2.368499   1.450762   2.406600   0.000000
     6  S    1.680478   2.498579   2.519083   3.804500   1.703253
     7  C    3.883058   3.771880   2.633966   3.054062   1.442061
     8  C    4.766355   4.926617   3.927496   4.424100   2.566990
     9  F    4.692816   5.188635   4.480230   5.267013   3.030121
    10  C    6.082735   6.095258   4.945953   5.134562   3.739492
    11  C    6.387912   6.113936   4.811939   4.630828   3.920787
    12  S    5.202344   4.697387   3.337226   2.976523   2.802103
    13  H    1.133002   2.157661   3.312432   4.545645   3.573961
    14  H    2.134088   1.080644   2.124216   2.713411   3.368640
    15  H    6.929988   7.054138   5.958936   6.199025   4.686030
    16  H    7.404303   7.052637   5.715746   5.360728   4.935772
                    6          7          8          9         10
     6  S    0.000000
     7  C    2.767454   0.000000
     8  C    3.307947   1.370999   0.000000
     9  F    3.040840   2.350847   1.315656   0.000000
    10  C    4.690500   2.328501   1.398712   2.389714   0.000000
    11  C    5.253772   2.522434   2.328473   3.572582   1.383013
    12  S    4.412193   1.774276   2.544568   3.825674   2.515638
    13  H    2.462107   4.958295   5.732847   5.479549   7.087852
    14  H    3.555044   4.715100   5.935116   6.259026   7.042165
    15  H    5.431384   3.325408   2.165061   2.698672   1.069717
    16  H    6.314207   3.567402   3.355910   4.546864   2.204612
                   11         12         13         14         15
    11  C    0.000000
    12  S    1.673654   0.000000
    13  H    7.476583   6.330714   0.000000
    14  H    6.930095   5.407645   2.613114   0.000000
    15  H    2.170126   3.548727   7.878851   8.031389   0.000000
    16  H    1.066615   2.411867   8.504877   7.809796   2.636847
                   16
    16  H    0.000000
 Stoichiometry    C8H4F2S2
 Framework group  C1[X(C8H4F2S2)]
 Deg. of freedom    42
 Full point group                 C1      NOp   1
 Largest Abelian subgroup         C1      NOp   1
 Largest concise Abelian subgroup C1      NOp   1
                         Standard orientation:                         
 ---------------------------------------------------------------------
 Center     Atomic      Atomic             Coordinates (Angstroms)
 Number     Number       Type             X           Y           Z
 ---------------------------------------------------------------------
      1          6           0       -3.128836    0.558745    0.034892
      2          6           0       -2.966805   -0.724721    0.026561
      3          6           0       -1.643256   -1.097024    0.028460
      4          9           0       -1.156637   -2.346151   -0.004411
      5          6           0       -0.718920    0.020281   -0.015595
      6         16           0       -1.687881    1.420990   -0.029817
      7          6           0        0.722207    0.061509    0.015878
      8          6           0        1.605341    1.109875   -0.009488
      9          9           0        1.203337    2.362554    0.002212
     10          6           0        2.951372    0.733693    0.046012
     11          6           0        3.146476   -0.635297    0.023111
     12         16           0        1.676441   -1.433619   -0.029780
     13          1           0       -4.127297    1.094249    0.036958
     14          1           0       -3.730868   -1.488288   -0.004470
     15          1           0        3.743364    1.450940   -0.004992
     16          1           0        4.072057   -1.164827    0.046868
 ---------------------------------------------------------------------
 Rotational constants (GHZ):           1.2680885           0.6176050           0.4154166
 Leave Link  202 at Fri Jul 24 19:58:04 2020, MaxMem=  4026531840 cpu:               0.1 elap:               0.0
 (Enter /opt/ohpc/pub/libs/gaussian/g16-A.03/sandybridge/g16/l301.exe)
 Standard basis: CC-pVDZ (5D, 7F)
 Ernie: Thresh=  0.10000D-02 Tol=  0.10000D-05 Strict=F.
 Ernie:  40 primitive shells out of 340 were deleted.
 There are   208 symmetry adapted cartesian basis functions of A   symmetry.
 There are   196 symmetry adapted basis functions of A   symmetry.
   196 basis functions,   500 primitive gaussians,   208 cartesian basis functions
    51 alpha electrons       51 beta electrons
       nuclear repulsion energy       872.6116731044 Hartrees.
 IExCor=32609 DFT=T Ex+Corr=LC-wPBE ExCW=0 ScaHFX=  1.000000
 ScaDFX=  1.000000  0.000000  1.000000  1.000000 ScalE2=  1.000000  1.000000
 IRadAn=      5 IRanWt=     -1 IRanGd=            0 ICorTp=0 IEmpDi=  4
 HFx  wShort=  0.000000 wLong=  0.220900 cFull=  0.000000 cShort=  0.000000 cLong=  1.000000
 DFx  wShort=  0.000000 wLong=  0.220900 cFull=  0.000000 cShort=  0.000000 cLong=  1.000000
 NAtoms=   16 NActive=   16 NUniq=   16 SFac= 1.00D+00 NAtFMM=   60 NAOKFM=F Big=F
 Integral buffers will be    131072 words long.
 Raffenetti 2 integral format.
 Two-electron integral symmetry is turned on.
 Leave Link  301 at Fri Jul 24 19:58:04 2020, MaxMem=  4026531840 cpu:               0.4 elap:               0.1
 (Enter /opt/ohpc/pub/libs/gaussian/g16-A.03/sandybridge/g16/l302.exe)
 NPDir=0 NMtPBC=     1 NCelOv=     1 NCel=       1 NClECP=     1 NCelD=      1
         NCelK=      1 NCelE2=     1 NClLst=     1 CellRange=     0.0.
 One-electron integrals computed using PRISM.
 One-electron integral symmetry used in STVInt
 NBasis=   196 RedAO= T EigKep=  5.56D-04  NBF=   196
 NBsUse=   196 1.00D-06 EigRej= -1.00D+00 NBFU=   196
 Precomputing XC quadrature grid using
 IXCGrd= 4 IRadAn=           5 IRanWt=          -1 IRanGd=           0 AccXCQ= 0.00D+00.
 Generated NRdTot=       0 NPtTot=           0 NUsed=           0 NTot=          32
 NSgBfM=   208   208   208   208   208 MxSgAt=    16 MxSgA2=    16.
 Leave Link  302 at Fri Jul 24 19:58:05 2020, MaxMem=  4026531840 cpu:               1.6 elap:               0.2
 (Enter /opt/ohpc/pub/libs/gaussian/g16-A.03/sandybridge/g16/l303.exe)
 DipDrv:  MaxL=1.
 Leave Link  303 at Fri Jul 24 19:58:05 2020, MaxMem=  4026531840 cpu:               0.6 elap:               0.1
 (Enter /opt/ohpc/pub/libs/gaussian/g16-A.03/sandybridge/g16/l401.exe)
 ExpMin= 1.22D-01 ExpMax= 1.11D+05 ExpMxC= 1.07D+03 IAcc=3 IRadAn=         5 AccDes= 0.00D+00
 Harris functional with IExCor=32609 and IRadAn=       5 diagonalized for initial guess.
 HarFok:  IExCor=32609 AccDes= 0.00D+00 IRadAn=         5 IDoV= 1 UseB2=F ITyADJ=14
 ICtDFT=  3500011 ScaDFX=  1.000000  1.000000  1.000000  1.000000
 FoFCou: FMM=F IPFlag=           0 FMFlag=      100000 FMFlg1=           0
         NFxFlg=           0 DoJE=T BraDBF=F KetDBF=T FulRan=T
         wScrn=  0.000000 ICntrl=       500 IOpCl=  0 I1Cent=   200000004 NGrid=           0
         NMat0=    1 NMatS0=      1 NMatT0=    0 NMatD0=    1 NMtDS0=    0 NMtDT0=    0
 Petite list used in FoFCou.
 Harris En= -1302.54844314856    
 JPrj=0 DoOrth=F DoCkMO=F.
 Initial guess <Sx>= 0.0000 <Sy>= 0.0000 <Sz>= 0.0000 <S**2>=-0.0000 S=-0.0000
 Leave Link  401 at Fri Jul 24 19:58:06 2020, MaxMem=  4026531840 cpu:               7.3 elap:               0.9
 (Enter /opt/ohpc/pub/libs/gaussian/g16-A.03/sandybridge/g16/l502.exe)
 Integral symmetry usage will be decided dynamically.
 UHF open shell SCF:
 Using DIIS extrapolation, IDIIS=  1040.
 NGot=  4026531840 LenX=  4026441480 LenY=  4026397775
 Requested convergence on RMS density matrix=1.00D-08 within 128 cycles.
 Requested convergence on MAX density matrix=1.00D-06.
 Requested convergence on             energy=1.00D-06.
 No special actions if energy rises.
 Fock matrices will be formed incrementally for  20 cycles.
 Integral accuracy reduced to 1.0D-05 until final iterations.

 Cycle   1  Pass 0  IDiag  1:
 FoFJK:  IHMeth= 1 ICntrl=       0 DoSepK=T KAlg= 0 I1Cent=           0 FoldK=F
 IRaf=         1 NMat=       1 IRICut=       1 DoRegI=T DoRafI=F ISym2E= 0 IDoP0=0 IntGTp=1.
 FoFCou: FMM=F IPFlag=           0 FMFlag=      100000 FMFlg1=           0
         NFxFlg=           0 DoJE=T BraDBF=F KetDBF=F FulRan=T
         wScrn=  0.000000 ICntrl=       500 IOpCl=  0 I1Cent=           0 NGrid=           0
         NMat0=    1 NMatS0=      1 NMatT0=    0 NMatD0=    1 NMtDS0=    0 NMtDT0=    0
 Symmetry not used in FoFCou.
 E= -1302.33136665431    
 DIIS: error= 2.23D-02 at cycle   1 NSaved=   1.
 NSaved= 1 IEnMin= 1 EnMin= -1302.33136665431     IErMin= 1 ErrMin= 2.23D-02
 ErrMax= 2.23D-02  0.00D+00 EMaxC= 1.00D-01 BMatC= 1.08D+00 BMatP= 1.08D+00
 IDIUse=3 WtCom= 7.77D-01 WtEn= 2.23D-01
 Coeff-Com:  0.100D+01
 Coeff-En:   0.100D+01
 Coeff:      0.100D+01
 Gap=     0.236 Goal=   None    Shift=    0.000
 Gap=     0.236 Goal=   None    Shift=    0.000
 GapD=    0.236 DampG=1.000 DampE=0.500 DampFc=0.5000 IDamp=-1.
 Damping current iteration by 5.00D-01
 RMSDP=5.16D-03 MaxDP=1.38D-01              OVMax= 1.95D-01

 Cycle   2  Pass 0  IDiag  1:
 RMSU=  2.57D-03    CP:  9.94D-01
 E= -1302.47307768074     Delta-E=       -0.141711026430 Rises=F Damp=T
 DIIS: error= 3.95D-03 at cycle   2 NSaved=   2.
 NSaved= 2 IEnMin= 2 EnMin= -1302.47307768074     IErMin= 2 ErrMin= 3.95D-03
 ErrMax= 3.95D-03  0.00D+00 EMaxC= 1.00D-01 BMatC= 2.78D-02 BMatP= 1.08D+00
 IDIUse=3 WtCom= 9.60D-01 WtEn= 3.95D-02
 Coeff-Com:  0.352D-01 0.965D+00
 Coeff-En:   0.441D-01 0.956D+00
 Coeff:      0.356D-01 0.964D+00
 Gap=     0.284 Goal=   None    Shift=    0.000
 Gap=     0.284 Goal=   None    Shift=    0.000
 RMSDP=1.21D-03 MaxDP=2.52D-02 DE=-1.42D-01 OVMax= 1.19D-01

 Cycle   3  Pass 0  IDiag  1:
 RMSU=  1.20D-03    CP:  9.94D-01  1.04D+00
 E= -1302.62475474760     Delta-E=       -0.151677066862 Rises=F Damp=F
 DIIS: error= 1.86D-03 at cycle   3 NSaved=   3.
 NSaved= 3 IEnMin= 3 EnMin= -1302.62475474760     IErMin= 3 ErrMin= 1.86D-03
 ErrMax= 1.86D-03  0.00D+00 EMaxC= 1.00D-01 BMatC= 8.75D-03 BMatP= 2.78D-02
 IDIUse=3 WtCom= 9.81D-01 WtEn= 1.86D-02
 Coeff-Com:  0.120D-01 0.305D+00 0.683D+00
 Coeff-En:   0.000D+00 0.000D+00 0.100D+01
 Coeff:      0.117D-01 0.299D+00 0.689D+00
 Gap=     0.276 Goal=   None    Shift=    0.000
 Gap=     0.276 Goal=   None    Shift=    0.000
 RMSDP=3.65D-04 MaxDP=1.02D-02 DE=-1.52D-01 OVMax= 1.85D-02

 Cycle   4  Pass 0  IDiag  1:
 RMSU=  3.24D-04    CP:  9.93D-01  1.04D+00  8.63D-01
 E= -1302.62613493004     Delta-E=       -0.001380182432 Rises=F Damp=F
 DIIS: error= 1.53D-03 at cycle   4 NSaved=   4.
 NSaved= 4 IEnMin= 4 EnMin= -1302.62613493004     IErMin= 4 ErrMin= 1.53D-03
 ErrMax= 1.53D-03  0.00D+00 EMaxC= 1.00D-01 BMatC= 3.39D-03 BMatP= 8.75D-03
 IDIUse=3 WtCom= 9.85D-01 WtEn= 1.53D-02
 Coeff-Com:  0.795D-02 0.589D-02 0.369D+00 0.617D+00
 Coeff-En:   0.000D+00 0.000D+00 0.214D+00 0.786D+00
 Coeff:      0.783D-02 0.580D-02 0.367D+00 0.620D+00
 Gap=     0.277 Goal=   None    Shift=    0.000
 Gap=     0.277 Goal=   None    Shift=    0.000
 RMSDP=1.60D-04 MaxDP=5.01D-03 DE=-1.38D-03 OVMax= 1.02D-02

 Cycle   5  Pass 0  IDiag  1:
 RMSU=  1.17D-04    CP:  9.93D-01  1.04D+00  9.39D-01  8.17D-01
 E= -1302.62696113907     Delta-E=       -0.000826209039 Rises=F Damp=F
 DIIS: error= 3.24D-04 at cycle   5 NSaved=   5.
 NSaved= 5 IEnMin= 5 EnMin= -1302.62696113907     IErMin= 5 ErrMin= 3.24D-04
 ErrMax= 3.24D-04  0.00D+00 EMaxC= 1.00D-01 BMatC= 1.93D-04 BMatP= 3.39D-03
 IDIUse=3 WtCom= 9.97D-01 WtEn= 3.24D-03
 Coeff-Com:  0.449D-02-0.345D-01 0.437D-01 0.199D+00 0.788D+00
 Coeff-En:   0.000D+00 0.000D+00 0.000D+00 0.000D+00 0.100D+01
 Coeff:      0.448D-02-0.344D-01 0.436D-01 0.198D+00 0.788D+00
 Gap=     0.278 Goal=   None    Shift=    0.000
 Gap=     0.278 Goal=   None    Shift=    0.000
 RMSDP=6.82D-05 MaxDP=1.51D-03 DE=-8.26D-04 OVMax= 4.15D-03

 Cycle   6  Pass 0  IDiag  1:
 RMSU=  4.70D-05    CP:  9.93D-01  1.04D+00  9.65D-01  9.32D-01  1.02D+00
 E= -1302.62703429848     Delta-E=       -0.000073159409 Rises=F Damp=F
 DIIS: error= 2.46D-04 at cycle   6 NSaved=   6.
 NSaved= 6 IEnMin= 6 EnMin= -1302.62703429848     IErMin= 6 ErrMin= 2.46D-04
 ErrMax= 2.46D-04  0.00D+00 EMaxC= 1.00D-01 BMatC= 7.38D-05 BMatP= 1.93D-04
 IDIUse=3 WtCom= 9.98D-01 WtEn= 2.46D-03
 Coeff-Com:  0.198D-02-0.229D-01-0.390D-01 0.724D-02 0.445D+00 0.608D+00
 Coeff-En:   0.000D+00 0.000D+00 0.000D+00 0.000D+00 0.000D+00 0.100D+01
 Coeff:      0.198D-02-0.229D-01-0.389D-01 0.722D-02 0.443D+00 0.609D+00
 Gap=     0.278 Goal=   None    Shift=    0.000
 Gap=     0.278 Goal=   None    Shift=    0.000
 RMSDP=3.09D-05 MaxDP=7.87D-04 DE=-7.32D-05 OVMax= 2.01D-03

 Cycle   7  Pass 0  IDiag  1:
 RMSU=  2.08D-05    CP:  9.93D-01  1.04D+00  9.70D-01  9.60D-01  1.19D+00
                    CP:  9.05D-01
 E= -1302.62705917711     Delta-E=       -0.000024878630 Rises=F Damp=F
 DIIS: error= 5.76D-05 at cycle   7 NSaved=   7.
 NSaved= 7 IEnMin= 7 EnMin= -1302.62705917711     IErMin= 7 ErrMin= 5.76D-05
 ErrMax= 5.76D-05  0.00D+00 EMaxC= 1.00D-01 BMatC= 4.68D-06 BMatP= 7.38D-05
 IDIUse=1 WtCom= 1.00D+00 WtEn= 0.00D+00
 Coeff-Com: -0.362D-03 0.187D-02-0.109D-01-0.373D-01-0.101D+00 0.122D+00
 Coeff-Com:  0.103D+01
 Coeff:     -0.362D-03 0.187D-02-0.109D-01-0.373D-01-0.101D+00 0.122D+00
 Coeff:      0.103D+01
 Gap=     0.278 Goal=   None    Shift=    0.000
 Gap=     0.278 Goal=   None    Shift=    0.000
 RMSDP=1.74D-05 MaxDP=4.53D-04 DE=-2.49D-05 OVMax= 1.30D-03

 Cycle   8  Pass 0  IDiag  1:
 RMSU=  6.30D-06    CP:  9.93D-01  1.04D+00  9.73D-01  9.82D-01  1.25D+00
                    CP:  1.14D+00  1.24D+00
 E= -1302.62706292107     Delta-E=       -0.000003743962 Rises=F Damp=F
 DIIS: error= 2.22D-05 at cycle   8 NSaved=   8.
 NSaved= 8 IEnMin= 8 EnMin= -1302.62706292107     IErMin= 8 ErrMin= 2.22D-05
 ErrMax= 2.22D-05  0.00D+00 EMaxC= 1.00D-01 BMatC= 5.00D-07 BMatP= 4.68D-06
 IDIUse=1 WtCom= 1.00D+00 WtEn= 0.00D+00
 Coeff-Com: -0.222D-03 0.222D-02-0.956D-03-0.138D-01-0.657D-01-0.685D-02
 Coeff-Com:  0.349D+00 0.737D+00
 Coeff:     -0.222D-03 0.222D-02-0.956D-03-0.138D-01-0.657D-01-0.685D-02
 Coeff:      0.349D+00 0.737D+00
 Gap=     0.278 Goal=   None    Shift=    0.000
 Gap=     0.278 Goal=   None    Shift=    0.000
 RMSDP=3.77D-06 MaxDP=1.00D-04 DE=-3.74D-06 OVMax= 2.88D-04

 Initial convergence to 1.0D-05 achieved.  Increase integral accuracy.
 Cycle   9  Pass 1  IDiag  1:
 E= -1302.62693730550     Delta-E=        0.000125615579 Rises=F Damp=F
 DIIS: error= 4.29D-05 at cycle   1 NSaved=   1.
 NSaved= 1 IEnMin= 1 EnMin= -1302.62693730550     IErMin= 1 ErrMin= 4.29D-05
 ErrMax= 4.29D-05  0.00D+00 EMaxC= 1.00D-01 BMatC= 9.91D-07 BMatP= 9.91D-07
 IDIUse=1 WtCom= 1.00D+00 WtEn= 0.00D+00
 Coeff-Com:  0.100D+01
 Coeff:      0.100D+01
 Gap=     0.278 Goal=   None    Shift=    0.000
 Gap=     0.278 Goal=   None    Shift=    0.000
 RMSDP=3.77D-06 MaxDP=1.00D-04 DE= 1.26D-04 OVMax= 1.05D-04

 Cycle  10  Pass 1  IDiag  1:
 RMSU=  2.22D-05    CP:  1.00D+00
 E= -1302.62693749716     Delta-E=       -0.000000191669 Rises=F Damp=F
 DIIS: error= 5.08D-06 at cycle   2 NSaved=   2.
 NSaved= 2 IEnMin= 2 EnMin= -1302.62693749716     IErMin= 2 ErrMin= 5.08D-06
 ErrMax= 5.08D-06  0.00D+00 EMaxC= 1.00D-01 BMatC= 4.96D-08 BMatP= 9.91D-07
 IDIUse=1 WtCom= 1.00D+00 WtEn= 0.00D+00
 Coeff-Com:  0.508D-01 0.949D+00
 Coeff:      0.508D-01 0.949D+00
 Gap=     0.278 Goal=   None    Shift=    0.000
 Gap=     0.278 Goal=   None    Shift=    0.000
 RMSDP=1.59D-06 MaxDP=3.77D-05 DE=-1.92D-07 OVMax= 7.34D-05

 Cycle  11  Pass 1  IDiag  1:
 RMSU=  1.12D-06    CP:  1.00D+00  1.05D+00
 E= -1302.62693750468     Delta-E=       -0.000000007520 Rises=F Damp=F
 DIIS: error= 4.90D-06 at cycle   3 NSaved=   3.
 NSaved= 3 IEnMin= 3 EnMin= -1302.62693750468     IErMin= 3 ErrMin= 4.90D-06
 ErrMax= 4.90D-06  0.00D+00 EMaxC= 1.00D-01 BMatC= 4.38D-08 BMatP= 4.96D-08
 IDIUse=1 WtCom= 1.00D+00 WtEn= 0.00D+00
 Coeff-Com: -0.227D-01 0.487D+00 0.535D+00
 Coeff:     -0.227D-01 0.487D+00 0.535D+00
 Gap=     0.278 Goal=   None    Shift=    0.000
 Gap=     0.278 Goal=   None    Shift=    0.000
 RMSDP=5.13D-07 MaxDP=1.70D-05 DE=-7.52D-09 OVMax= 2.07D-05

 Cycle  12  Pass 1  IDiag  1:
 RMSU=  3.83D-07    CP:  1.00D+00  1.06D+00  7.45D-01
 E= -1302.62693751501     Delta-E=       -0.000000010329 Rises=F Damp=F
 DIIS: error= 7.78D-07 at cycle   4 NSaved=   4.
 NSaved= 4 IEnMin= 4 EnMin= -1302.62693751501     IErMin= 4 ErrMin= 7.78D-07
 ErrMax= 7.78D-07  0.00D+00 EMaxC= 1.00D-01 BMatC= 8.91D-10 BMatP= 4.38D-08
 IDIUse=1 WtCom= 1.00D+00 WtEn= 0.00D+00
 Coeff-Com: -0.732D-02 0.877D-01 0.113D+00 0.806D+00
 Coeff:     -0.732D-02 0.877D-01 0.113D+00 0.806D+00
 Gap=     0.278 Goal=   None    Shift=    0.000
 Gap=     0.278 Goal=   None    Shift=    0.000
 RMSDP=1.76D-07 MaxDP=3.35D-06 DE=-1.03D-08 OVMax= 1.32D-05

 Cycle  13  Pass 1  IDiag  1:
 RMSU=  1.30D-07    CP:  1.00D+00  1.06D+00  8.07D-01  1.24D+00
 E= -1302.62693751557     Delta-E=       -0.000000000556 Rises=F Damp=F
 DIIS: error= 6.82D-07 at cycle   5 NSaved=   5.
 NSaved= 5 IEnMin= 5 EnMin= -1302.62693751557     IErMin= 5 ErrMin= 6.82D-07
 ErrMax= 6.82D-07  0.00D+00 EMaxC= 1.00D-01 BMatC= 4.97D-10 BMatP= 8.91D-10
 IDIUse=1 WtCom= 1.00D+00 WtEn= 0.00D+00
 Coeff-Com:  0.586D-02-0.165D+00-0.183D+00 0.467D+00 0.876D+00
 Coeff:      0.586D-02-0.165D+00-0.183D+00 0.467D+00 0.876D+00
 Gap=     0.278 Goal=   None    Shift=    0.000
 Gap=     0.278 Goal=   None    Shift=    0.000
 RMSDP=1.53D-07 MaxDP=3.69D-06 DE=-5.56D-10 OVMax= 1.22D-05

 Cycle  14  Pass 1  IDiag  1:
 RMSU=  7.67D-08    CP:  1.00D+00  1.06D+00  8.61D-01  1.53D+00  1.15D+00
 E= -1302.62693751587     Delta-E=       -0.000000000298 Rises=F Damp=F
 DIIS: error= 1.24D-07 at cycle   6 NSaved=   6.
 NSaved= 6 IEnMin= 6 EnMin= -1302.62693751587     IErMin= 6 ErrMin= 1.24D-07
 ErrMax= 1.24D-07  0.00D+00 EMaxC= 1.00D-01 BMatC= 1.83D-11 BMatP= 4.97D-10
 IDIUse=1 WtCom= 1.00D+00 WtEn= 0.00D+00
 Coeff-Com:  0.194D-02-0.470D-01-0.553D-01 0.751D-01 0.228D+00 0.797D+00
 Coeff:      0.194D-02-0.470D-01-0.553D-01 0.751D-01 0.228D+00 0.797D+00
 Gap=     0.278 Goal=   None    Shift=    0.000
 Gap=     0.278 Goal=   None    Shift=    0.000
 RMSDP=2.84D-08 MaxDP=6.39D-07 DE=-2.98D-10 OVMax= 2.51D-06

 Cycle  15  Pass 1  IDiag  1:
 RMSU=  1.83D-08    CP:  1.00D+00  1.06D+00  8.67D-01  1.57D+00  1.25D+00
                    CP:  1.10D+00
 E= -1302.62693751585     Delta-E=        0.000000000014 Rises=F Damp=F
 DIIS: error= 9.16D-08 at cycle   7 NSaved=   7.
 NSaved= 7 IEnMin= 6 EnMin= -1302.62693751587     IErMin= 7 ErrMin= 9.16D-08
 ErrMax= 9.16D-08  0.00D+00 EMaxC= 1.00D-01 BMatC= 1.23D-11 BMatP= 1.83D-11
 IDIUse=1 WtCom= 1.00D+00 WtEn= 0.00D+00
 Coeff-Com:  0.587D-04 0.328D-02 0.825D-03-0.510D-01-0.376D-01 0.490D+00
 Coeff-Com:  0.594D+00
 Coeff:      0.587D-04 0.328D-02 0.825D-03-0.510D-01-0.376D-01 0.490D+00
 Coeff:      0.594D+00
 Gap=     0.278 Goal=   None    Shift=    0.000
 Gap=     0.278 Goal=   None    Shift=    0.000
 RMSDP=1.38D-08 MaxDP=3.14D-07 DE= 1.41D-11 OVMax= 8.82D-07

 Cycle  16  Pass 1  IDiag  1:
 RMSU=  6.35D-09    CP:  1.00D+00  1.06D+00  8.68D-01  1.58D+00  1.28D+00
                    CP:  1.21D+00  7.33D-01
 E= -1302.62693751590     Delta-E=       -0.000000000043 Rises=F Damp=F
 DIIS: error= 1.35D-08 at cycle   8 NSaved=   8.
 NSaved= 8 IEnMin= 8 EnMin= -1302.62693751590     IErMin= 8 ErrMin= 1.35D-08
 ErrMax= 1.35D-08  0.00D+00 EMaxC= 1.00D-01 BMatC= 4.79D-13 BMatP= 1.23D-11
 IDIUse=1 WtCom= 1.00D+00 WtEn= 0.00D+00
 Coeff-Com: -0.172D-03 0.621D-02 0.590D-02-0.285D-01-0.383D-01 0.125D+00
 Coeff-Com:  0.233D+00 0.697D+00
 Coeff:     -0.172D-03 0.621D-02 0.590D-02-0.285D-01-0.383D-01 0.125D+00
 Coeff:      0.233D+00 0.697D+00
 Gap=     0.278 Goal=   None    Shift=    0.000
 Gap=     0.278 Goal=   None    Shift=    0.000
 RMSDP=2.98D-09 MaxDP=7.74D-08 DE=-4.27D-11 OVMax= 1.71D-07

 SCF Done:  E(ULC-wPBE) =  -1302.62693752     A.U. after   16 cycles
            NFock= 16  Conv=0.30D-08     -V/T= 2.0032
 <Sx>= 0.0000 <Sy>= 0.0000 <Sz>= 0.0000 <S**2>=-0.0000 S=-0.0000
 <L.S>= 0.000000000000E+00
 KE= 1.298519992106D+03 PE=-4.826716611316D+03 EE= 1.352958008589D+03
 Annihilation of the first spin contaminant:
 S**2 before annihilation    -0.0000,   after     0.0000
 Leave Link  502 at Fri Jul 24 19:58:47 2020, MaxMem=  4026531840 cpu:             325.9 elap:              40.9
 (Enter /opt/ohpc/pub/libs/gaussian/g16-A.03/sandybridge/g16/l601.exe)
 Copying SCF densities to generalized density rwf, IOpCl= 1 IROHF=0.

 **********************************************************************

            Population analysis using the SCF density.

 **********************************************************************

 Orbital symmetries:
 Alpha Orbitals:
       Occupied  (A) (A) (A) (A) (A) (A) (A) (A) (A) (A) (A) (A)
                 (A) (A) (A) (A) (A) (A) (A) (A) (A) (A) (A) (A)
                 (A) (A) (A) (A) (A) (A) (A) (A) (A) (A) (A) (A)
                 (A) (A) (A) (A) (A) (A) (A) (A) (A) (A) (A) (A)
                 (A) (A) (A)
       Virtual   (A) (A) (A) (A) (A) (A) (A) (A) (A) (A) (A) (A)
                 (A) (A) (A) (A) (A) (A) (A) (A) (A) (A) (A) (A)
                 (A) (A) (A) (A) (A) (A) (A) (A) (A) (A) (A) (A)
                 (A) (A) (A) (A) (A) (A) (A) (A) (A) (A) (A) (A)
                 (A) (A) (A) (A) (A) (A) (A) (A) (A) (A) (A) (A)
                 (A) (A) (A) (A) (A) (A) (A) (A) (A) (A) (A) (A)
                 (A) (A) (A) (A) (A) (A) (A) (A) (A) (A) (A) (A)
                 (A) (A) (A) (A) (A) (A) (A) (A) (A) (A) (A) (A)
                 (A) (A) (A) (A) (A) (A) (A) (A) (A) (A) (A) (A)
                 (A) (A) (A) (A) (A) (A) (A) (A) (A) (A) (A) (A)
                 (A) (A) (A) (A) (A) (A) (A) (A) (A) (A) (A) (A)
                 (A) (A) (A) (A) (A) (A) (A) (A) (A) (A) (A) (A)
                 (A)
 Beta  Orbitals:
       Occupied  (A) (A) (A) (A) (A) (A) (A) (A) (A) (A) (A) (A)
                 (A) (A) (A) (A) (A) (A) (A) (A) (A) (A) (A) (A)
                 (A) (A) (A) (A) (A) (A) (A) (A) (A) (A) (A) (A)
                 (A) (A) (A) (A) (A) (A) (A) (A) (A) (A) (A) (A)
                 (A) (A) (A)
       Virtual   (A) (A) (A) (A) (A) (A) (A) (A) (A) (A) (A) (A)
                 (A) (A) (A) (A) (A) (A) (A) (A) (A) (A) (A) (A)
                 (A) (A) (A) (A) (A) (A) (A) (A) (A) (A) (A) (A)
                 (A) (A) (A) (A) (A) (A) (A) (A) (A) (A) (A) (A)
                 (A) (A) (A) (A) (A) (A) (A) (A) (A) (A) (A) (A)
                 (A) (A) (A) (A) (A) (A) (A) (A) (A) (A) (A) (A)
                 (A) (A) (A) (A) (A) (A) (A) (A) (A) (A) (A) (A)
                 (A) (A) (A) (A) (A) (A) (A) (A) (A) (A) (A) (A)
                 (A) (A) (A) (A) (A) (A) (A) (A) (A) (A) (A) (A)
                 (A) (A) (A) (A) (A) (A) (A) (A) (A) (A) (A) (A)
                 (A) (A) (A) (A) (A) (A) (A) (A) (A) (A) (A) (A)
                 (A) (A) (A) (A) (A) (A) (A) (A) (A) (A) (A) (A)
                 (A)
 The electronic state is 1-A.
 Alpha  occ. eigenvalues --  -88.23016 -88.22948 -24.42432 -24.41988 -10.10810
 Alpha  occ. eigenvalues --  -10.10580 -10.07017 -10.06800 -10.05559 -10.05207
 Alpha  occ. eigenvalues --  -10.03114 -10.02699  -7.83586  -7.83405  -5.85554
 Alpha  occ. eigenvalues --   -5.85398  -5.85053  -5.84889  -5.84702  -5.84513
 Alpha  occ. eigenvalues --   -1.27229  -1.25809  -0.96896  -0.95008  -0.84295
 Alpha  occ. eigenvalues --   -0.80685  -0.80386  -0.76824  -0.67844  -0.66377
 Alpha  occ. eigenvalues --   -0.64236  -0.63710  -0.61244  -0.56387  -0.54437
 Alpha  occ. eigenvalues --   -0.53486  -0.53148  -0.52517  -0.51645  -0.51001
 Alpha  occ. eigenvalues --   -0.46816  -0.46587  -0.45133  -0.44131  -0.43731
 Alpha  occ. eigenvalues --   -0.42128  -0.39669  -0.36760  -0.32554  -0.32173
 Alpha  occ. eigenvalues --   -0.26943
 Alpha virt. eigenvalues --    0.00840   0.07257   0.08903   0.10455   0.12553
 Alpha virt. eigenvalues --    0.12982   0.14159   0.15262   0.16111   0.18882
 Alpha virt. eigenvalues --    0.19862   0.21494   0.22729   0.26600   0.28394
 Alpha virt. eigenvalues --    0.32748   0.34703   0.38216   0.39127   0.45180
 Alpha virt. eigenvalues --    0.47082   0.48167   0.49404   0.50609   0.50971
 Alpha virt. eigenvalues --    0.51487   0.52588   0.52811   0.52958   0.53387
 Alpha virt. eigenvalues --    0.53750   0.54203   0.55252   0.55552   0.55817
 Alpha virt. eigenvalues --    0.56676   0.58132   0.58907   0.62003   0.62122
 Alpha virt. eigenvalues --    0.63038   0.63269   0.63887   0.69362   0.69804
 Alpha virt. eigenvalues --    0.71160   0.72166   0.73482   0.73722   0.74577
 Alpha virt. eigenvalues --    0.75015   0.76382   0.77401   0.81174   0.84749
 Alpha virt. eigenvalues --    0.85339   0.85763   0.89266   0.91361   0.95369
 Alpha virt. eigenvalues --    0.97904   0.98697   1.00736   1.01557   1.02970
 Alpha virt. eigenvalues --    1.03524   1.04567   1.05763   1.07136   1.10025
 Alpha virt. eigenvalues --    1.10751   1.11816   1.13239   1.16378   1.19395
 Alpha virt. eigenvalues --    1.21518   1.22052   1.24118   1.27104   1.32999
 Alpha virt. eigenvalues --    1.33518   1.34985   1.35760   1.36008   1.38775
 Alpha virt. eigenvalues --    1.43179   1.43843   1.45958   1.47222   1.49117
 Alpha virt. eigenvalues --    1.52854   1.54372   1.57832   1.58938   1.59450
 Alpha virt. eigenvalues --    1.60691   1.61045   1.63330   1.66909   1.70286
 Alpha virt. eigenvalues --    1.71817   1.73634   1.75732   1.76563   1.77551
 Alpha virt. eigenvalues --    1.80245   1.80984   1.83863   1.88844   1.89942
 Alpha virt. eigenvalues --    1.92975   1.96905   1.98341   2.00112   2.00749
 Alpha virt. eigenvalues --    2.02860   2.03995   2.11109   2.12005   2.14469
 Alpha virt. eigenvalues --    2.14850   2.18856   2.22334   2.38476   2.43078
 Alpha virt. eigenvalues --    2.45824   2.50026   2.50546   2.52270   2.54694
 Alpha virt. eigenvalues --    2.57150   2.64583   2.66962   3.06500   3.07735
 Alpha virt. eigenvalues --    3.57778   3.58003   3.60062   3.60660   3.78416
 Alpha virt. eigenvalues --    3.80729   3.96286   4.01245   4.18332   4.20265
  Beta  occ. eigenvalues --  -88.23016 -88.22948 -24.42432 -24.41988 -10.10810
  Beta  occ. eigenvalues --  -10.10580 -10.07017 -10.06800 -10.05559 -10.05207
  Beta  occ. eigenvalues --  -10.03114 -10.02699  -7.83586  -7.83405  -5.85554
  Beta  occ. eigenvalues --   -5.85398  -5.85053  -5.84889  -5.84702  -5.84513
  Beta  occ. eigenvalues --   -1.27229  -1.25809  -0.96896  -0.95008  -0.84295
  Beta  occ. eigenvalues --   -0.80685  -0.80386  -0.76824  -0.67844  -0.66377
  Beta  occ. eigenvalues --   -0.64236  -0.63710  -0.61244  -0.56387  -0.54437
  Beta  occ. eigenvalues --   -0.53486  -0.53148  -0.52517  -0.51645  -0.51001
  Beta  occ. eigenvalues --   -0.46816  -0.46587  -0.45133  -0.44131  -0.43731
  Beta  occ. eigenvalues --   -0.42128  -0.39669  -0.36760  -0.32554  -0.32173
  Beta  occ. eigenvalues --   -0.26943
  Beta virt. eigenvalues --    0.00840   0.07257   0.08903   0.10455   0.12553
  Beta virt. eigenvalues --    0.12982   0.14159   0.15262   0.16111   0.18882
  Beta virt. eigenvalues --    0.19862   0.21494   0.22729   0.26600   0.28394
  Beta virt. eigenvalues --    0.32748   0.34703   0.38216   0.39127   0.45180
  Beta virt. eigenvalues --    0.47082   0.48167   0.49404   0.50609   0.50971
  Beta virt. eigenvalues --    0.51487   0.52588   0.52811   0.52958   0.53387
  Beta virt. eigenvalues --    0.53750   0.54203   0.55252   0.55552   0.55817
  Beta virt. eigenvalues --    0.56676   0.58132   0.58907   0.62003   0.62122
  Beta virt. eigenvalues --    0.63038   0.63269   0.63887   0.69362   0.69804
  Beta virt. eigenvalues --    0.71160   0.72166   0.73482   0.73722   0.74577
  Beta virt. eigenvalues --    0.75015   0.76382   0.77401   0.81174   0.84749
  Beta virt. eigenvalues --    0.85339   0.85763   0.89266   0.91361   0.95369
  Beta virt. eigenvalues --    0.97904   0.98697   1.00736   1.01557   1.02970
  Beta virt. eigenvalues --    1.03524   1.04567   1.05763   1.07136   1.10025
  Beta virt. eigenvalues --    1.10751   1.11816   1.13239   1.16378   1.19395
  Beta virt. eigenvalues --    1.21518   1.22052   1.24118   1.27104   1.32999
  Beta virt. eigenvalues --    1.33518   1.34985   1.35760   1.36008   1.38775
  Beta virt. eigenvalues --    1.43179   1.43843   1.45958   1.47222   1.49117
  Beta virt. eigenvalues --    1.52854   1.54372   1.57832   1.58938   1.59450
  Beta virt. eigenvalues --    1.60691   1.61045   1.63330   1.66909   1.70286
  Beta virt. eigenvalues --    1.71817   1.73634   1.75732   1.76563   1.77551
  Beta virt. eigenvalues --    1.80245   1.80984   1.83863   1.88844   1.89942
  Beta virt. eigenvalues --    1.92975   1.96905   1.98341   2.00112   2.00749
  Beta virt. eigenvalues --    2.02860   2.03995   2.11109   2.12005   2.14469
  Beta virt. eigenvalues --    2.14850   2.18856   2.22334   2.38476   2.43078
  Beta virt. eigenvalues --    2.45824   2.50026   2.50546   2.52270   2.54694
  Beta virt. eigenvalues --    2.57150   2.64583   2.66962   3.06500   3.07735
  Beta virt. eigenvalues --    3.57778   3.58003   3.60062   3.60660   3.78416
  Beta virt. eigenvalues --    3.80729   3.96286   4.01245   4.18332   4.20265
          Condensed to atoms (all electrons):
               1          2          3          4          5          6
     1  C    5.045955   0.515685  -0.002343   0.003874  -0.100473   0.352572
     2  C    0.515685   4.718065   0.457571  -0.048559  -0.061571  -0.083996
     3  C   -0.002343   0.457571   4.862239   0.431107   0.335809  -0.086858
     4  F    0.003874  -0.048559   0.431107   8.786280  -0.070557   0.002920
     5  C   -0.100473  -0.061571   0.335809  -0.070557   5.532268   0.357267
     6  S    0.352572  -0.083996  -0.086858   0.002920   0.357267  15.363766
     7  C    0.003670   0.007965  -0.050099  -0.003993   0.256128  -0.067560
     8  C    0.000561  -0.000518   0.006767   0.000131  -0.051902  -0.005767
     9  F    0.000220  -0.000019   0.000079  -0.000000  -0.003470   0.011237
    10  C    0.000014  -0.000009  -0.000452  -0.000023   0.008314   0.000509
    11  C   -0.000001   0.000013   0.000463   0.000266   0.003702  -0.000103
    12  S   -0.000100   0.000529  -0.004937   0.012305  -0.063089   0.003255
    13  H    0.388025  -0.017336   0.008666  -0.000041   0.001375  -0.043274
    14  H   -0.062004   0.387098  -0.030011   0.000807   0.013157   0.008695
    15  H   -0.000000   0.000000   0.000001  -0.000000  -0.000484  -0.000003
    16  H   -0.000000   0.000000   0.000001   0.000002  -0.000268   0.000004
               7          8          9         10         11         12
     1  C    0.003670   0.000561   0.000220   0.000014  -0.000001  -0.000100
     2  C    0.007965  -0.000518  -0.000019  -0.000009   0.000013   0.000529
     3  C   -0.050099   0.006767   0.000079  -0.000452   0.000463  -0.004937
     4  F   -0.003993   0.000131  -0.000000  -0.000023   0.000266   0.012305
     5  C    0.256128  -0.051902  -0.003470   0.008314   0.003702  -0.063089
     6  S   -0.067560  -0.005767   0.011237   0.000509  -0.000103   0.003255
     7  C    5.565746   0.300387  -0.074983  -0.074835  -0.086505   0.357204
     8  C    0.300387   4.851577   0.452254   0.456557  -0.003746  -0.080043
     9  F   -0.074983   0.452254   8.754367  -0.050824   0.003262   0.002537
    10  C   -0.074835   0.456557  -0.050824   4.805609   0.513532  -0.085793
    11  C   -0.086505  -0.003746   0.003262   0.513532   4.984983   0.335627
    12  S    0.357204  -0.080043   0.002537  -0.085793   0.335627  15.376418
    13  H   -0.000244  -0.000001   0.000001  -0.000000   0.000000   0.000004
    14  H   -0.000364  -0.000001  -0.000000   0.000000  -0.000000  -0.000011
    15  H    0.013663  -0.030484   0.000891   0.386403  -0.055734   0.008719
    16  H    0.000782   0.008604  -0.000030  -0.020804   0.401790  -0.042909
              13         14         15         16
     1  C    0.388025  -0.062004  -0.000000  -0.000000
     2  C   -0.017336   0.387098   0.000000   0.000000
     3  C    0.008666  -0.030011   0.000001   0.000001
     4  F   -0.000041   0.000807  -0.000000   0.000002
     5  C    0.001375   0.013157  -0.000484  -0.000268
     6  S   -0.043274   0.008695  -0.000003   0.000004
     7  C   -0.000244  -0.000364   0.013663   0.000782
     8  C   -0.000001  -0.000001  -0.030484   0.008604
     9  F    0.000001  -0.000000   0.000891  -0.000030
    10  C   -0.000000   0.000000   0.386403  -0.020804
    11  C    0.000000  -0.000000  -0.055734   0.401790
    12  S    0.000004  -0.000011   0.008719  -0.042909
    13  H    0.632920  -0.010594  -0.000000   0.000000
    14  H   -0.010594   0.702883   0.000000  -0.000000
    15  H   -0.000000   0.000000   0.701322  -0.009163
    16  H    0.000000  -0.000000  -0.009163   0.643409
          Atomic-Atomic Spin Densities.
               1          2          3          4          5          6
     1  C    0.000000  -0.000000   0.000000   0.000000  -0.000000  -0.000000
     2  C   -0.000000   0.000000  -0.000000  -0.000000   0.000000   0.000000
     3  C    0.000000  -0.000000   0.000000   0.000000  -0.000000  -0.000000
     4  F    0.000000  -0.000000   0.000000   0.000000  -0.000000  -0.000000
     5  C   -0.000000   0.000000  -0.000000  -0.000000   0.000000   0.000000
     6  S   -0.000000   0.000000  -0.000000  -0.000000   0.000000  -0.000000
     7  C    0.000000   0.000000  -0.000000   0.000000  -0.000000  -0.000000
     8  C    0.000000  -0.000000   0.000000   0.000000  -0.000000   0.000000
     9  F    0.000000  -0.000000   0.000000  -0.000000   0.000000  -0.000000
    10  C   -0.000000   0.000000  -0.000000  -0.000000   0.000000   0.000000
    11  C    0.000000  -0.000000   0.000000   0.000000   0.000000  -0.000000
    12  S   -0.000000   0.000000  -0.000000  -0.000000  -0.000000  -0.000000
    13  H    0.000000  -0.000000   0.000000   0.000000  -0.000000  -0.000000
    14  H   -0.000000   0.000000  -0.000000   0.000000   0.000000   0.000000
    15  H   -0.000000   0.000000  -0.000000  -0.000000  -0.000000   0.000000
    16  H    0.000000  -0.000000   0.000000   0.000000   0.000000  -0.000000
               7          8          9         10         11         12
     1  C    0.000000   0.000000   0.000000  -0.000000   0.000000  -0.000000
     2  C    0.000000  -0.000000  -0.000000   0.000000  -0.000000   0.000000
     3  C   -0.000000   0.000000   0.000000  -0.000000   0.000000  -0.000000
     4  F    0.000000   0.000000  -0.000000  -0.000000   0.000000  -0.000000
     5  C   -0.000000  -0.000000   0.000000   0.000000   0.000000  -0.000000
     6  S   -0.000000   0.000000  -0.000000   0.000000  -0.000000  -0.000000
     7  C   -0.000000  -0.000000  -0.000000   0.000000  -0.000000  -0.000000
     8  C   -0.000000   0.000000   0.000000  -0.000000   0.000000   0.000000
     9  F   -0.000000   0.000000  -0.000000  -0.000000   0.000000  -0.000000
    10  C    0.000000  -0.000000  -0.000000   0.000000  -0.000000   0.000000
    11  C   -0.000000   0.000000   0.000000  -0.000000   0.000000  -0.000000
    12  S   -0.000000   0.000000  -0.000000   0.000000  -0.000000   0.000000
    13  H   -0.000000   0.000000   0.000000  -0.000000   0.000000  -0.000000
    14  H    0.000000  -0.000000  -0.000000   0.000000  -0.000000   0.000000
    15  H    0.000000  -0.000000  -0.000000   0.000000  -0.000000   0.000000
    16  H    0.000000   0.000000   0.000000  -0.000000   0.000000  -0.000000
              13         14         15         16
     1  C    0.000000  -0.000000  -0.000000   0.000000
     2  C   -0.000000   0.000000   0.000000  -0.000000
     3  C    0.000000  -0.000000  -0.000000   0.000000
     4  F    0.000000   0.000000  -0.000000   0.000000
     5  C   -0.000000   0.000000  -0.000000   0.000000
     6  S   -0.000000   0.000000   0.000000  -0.000000
     7  C   -0.000000   0.000000   0.000000   0.000000
     8  C    0.000000  -0.000000  -0.000000   0.000000
     9  F    0.000000  -0.000000  -0.000000   0.000000
    10  C   -0.000000   0.000000   0.000000  -0.000000
    11  C    0.000000  -0.000000  -0.000000   0.000000
    12  S   -0.000000   0.000000   0.000000  -0.000000
    13  H    0.000000  -0.000000  -0.000000   0.000000
    14  H   -0.000000   0.000000   0.000000  -0.000000
    15  H   -0.000000   0.000000   0.000000  -0.000000
    16  H    0.000000  -0.000000  -0.000000   0.000000
 Mulliken charges and spin densities:
               1          2
     1  C   -0.145655   0.000000
     2  C    0.125081   0.000000
     3  C    0.071996  -0.000000
     4  F   -0.114518   0.000000
     5  C   -0.156206   0.000000
     6  S    0.187333  -0.000000
     7  C   -0.146962  -0.000000
     8  C    0.095624   0.000000
     9  F   -0.095523  -0.000000
    10  C    0.061801  -0.000000
    11  C   -0.097548   0.000000
    12  S    0.180285  -0.000000
    13  H    0.040499   0.000000
    14  H   -0.009656   0.000000
    15  H   -0.015131   0.000000
    16  H    0.018581   0.000000
 Sum of Mulliken charges =  -0.00000   0.00000
 Mulliken charges and spin densities with hydrogens summed into heavy atoms:
               1          2
     1  C   -0.105156   0.000000
     2  C    0.115425   0.000000
     3  C    0.071996  -0.000000
     4  F   -0.114518   0.000000
     5  C   -0.156206   0.000000
     6  S    0.187333  -0.000000
     7  C   -0.146962  -0.000000
     8  C    0.095624   0.000000
     9  F   -0.095523  -0.000000
    10  C    0.046671  -0.000000
    11  C   -0.078968   0.000000
    12  S    0.180285  -0.000000
 Electronic spatial extent (au):  <R**2>=           2438.1085
 Charge=             -0.0000 electrons
 Dipole moment (field-independent basis, Debye):
    X=             -0.1714    Y=              0.0057    Z=             -0.0766  Tot=              0.1878
 Quadrupole moment (field-independent basis, Debye-Ang):
   XX=            -62.8340   YY=            -80.6912   ZZ=            -83.3652
   XY=             -1.6878   XZ=             -0.0529   YZ=             -0.0496
 Traceless Quadrupole moment (field-independent basis, Debye-Ang):
   XX=             12.7961   YY=             -5.0610   ZZ=             -7.7351
   XY=             -1.6878   XZ=             -0.0529   YZ=             -0.0496
 Octapole moment (field-independent basis, Debye-Ang**2):
  XXX=             -2.2957  YYY=             -0.0517  ZZZ=             -0.5224  XYY=              0.4397
  XXY=             -2.7667  XXZ=             -0.2680  XZZ=             -0.3622  YZZ=              0.1921
  YYZ=             -0.4160  XYZ=             -0.3586
 Hexadecapole moment (field-independent basis, Debye-Ang**3):
 XXXX=          -1857.5634 YYYY=           -879.7983 ZZZZ=            -90.3970 XXXY=              1.0399
 XXXZ=              0.3978 YYYX=             19.9340 YYYZ=              0.3264 ZZZX=             -0.0086
 ZZZY=              0.1206 XXYY=           -452.8941 XXZZ=           -411.7549 YYZZ=           -160.8943
 XXYZ=             -0.3327 YYXZ=             -0.1532 ZZXY=             13.4890
 N-N= 8.726116731044D+02 E-N=-4.826716609981D+03  KE= 1.298519992106D+03
                          Isotropic Fermi Contact Couplings
        Atom                 a.u.       MegaHertz       Gauss      10(-4) cm-1
     1  C(13)              0.00000       0.00000       0.00000       0.00000
     2  C(13)              0.00000       0.00000       0.00000       0.00000
     3  C(13)             -0.00000      -0.00000      -0.00000      -0.00000
     4  F(19)              0.00000       0.00000       0.00000       0.00000
     5  C(13)             -0.00000      -0.00000      -0.00000      -0.00000
     6  S(33)              0.00000       0.00000       0.00000       0.00000
     7  C(13)             -0.00000      -0.00000      -0.00000      -0.00000
     8  C(13)              0.00000       0.00000       0.00000       0.00000
     9  F(19)              0.00000       0.00000       0.00000       0.00000
    10  C(13)              0.00000       0.00000       0.00000       0.00000
    11  C(13)              0.00000       0.00000       0.00000       0.00000
    12  S(33)              0.00000       0.00000       0.00000       0.00000
    13  H(1)              -0.00000      -0.00000      -0.00000      -0.00000
    14  H(1)              -0.00000      -0.00000      -0.00000      -0.00000
    15  H(1)              -0.00000      -0.00000      -0.00000      -0.00000
    16  H(1)               0.00000       0.00000       0.00000       0.00000
 --------------------------------------------------------
       Center         ----  Spin Dipole Couplings  ----
                      3XX-RR        3YY-RR        3ZZ-RR
 --------------------------------------------------------
     1   Atom        0.000000     -0.000000     -0.000000
     2   Atom        0.000000      0.000000     -0.000000
     3   Atom       -0.000000     -0.000000      0.000000
     4   Atom       -0.000000      0.000000     -0.000000
     5   Atom        0.000000     -0.000000     -0.000000
     6   Atom        0.000000     -0.000000      0.000000
     7   Atom       -0.000000      0.000000      0.000000
     8   Atom       -0.000000      0.000000      0.000000
     9   Atom        0.000000      0.000000     -0.000000
    10   Atom       -0.000000      0.000000      0.000000
    11   Atom        0.000000     -0.000000      0.000000
    12   Atom        0.000000     -0.000000      0.000000
    13   Atom        0.000000     -0.000000     -0.000000
    14   Atom        0.000000      0.000000     -0.000000
    15   Atom       -0.000000      0.000000     -0.000000
    16   Atom       -0.000000      0.000000      0.000000
 --------------------------------------------------------
                        XY            XZ            YZ
 --------------------------------------------------------
     1   Atom        0.000000      0.000000     -0.000000
     2   Atom        0.000000      0.000000      0.000000
     3   Atom       -0.000000      0.000000      0.000000
     4   Atom       -0.000000      0.000000     -0.000000
     5   Atom       -0.000000      0.000000     -0.000000
     6   Atom        0.000000     -0.000000     -0.000000
     7   Atom        0.000000     -0.000000      0.000000
     8   Atom       -0.000000      0.000000      0.000000
     9   Atom        0.000000     -0.000000      0.000000
    10   Atom        0.000000     -0.000000      0.000000
    11   Atom        0.000000      0.000000     -0.000000
    12   Atom        0.000000     -0.000000     -0.000000
    13   Atom        0.000000      0.000000      0.000000
    14   Atom        0.000000      0.000000      0.000000
    15   Atom        0.000000      0.000000      0.000000
    16   Atom        0.000000     -0.000000      0.000000
 --------------------------------------------------------


 ---------------------------------------------------------------------------------
              Anisotropic Spin Dipole Couplings in Principal Axis System
 ---------------------------------------------------------------------------------

       Atom             a.u.   MegaHertz   Gauss  10(-4) cm-1        Axes

              Baa    -0.0000    -0.000    -0.000    -0.000 -0.0939  0.1077  0.9897
     1 C(13)  Bbb    -0.0000    -0.000    -0.000    -0.000 -0.2797  0.9512 -0.1300
              Bcc     0.0000     0.000     0.000     0.000  0.9555  0.2891  0.0592
 
              Baa    -0.0000    -0.000    -0.000    -0.000  0.7098 -0.5120 -0.4838
     2 C(13)  Bbb    -0.0000    -0.000    -0.000    -0.000  0.3396 -0.3530  0.8718
              Bcc     0.0000     0.000     0.000     0.000  0.6171  0.7831  0.0767
 
              Baa    -0.0000    -0.000    -0.000    -0.000  0.6771  0.7347 -0.0431
     3 C(13)  Bbb     0.0000     0.000     0.000     0.000  0.2686 -0.1921  0.9439
              Bcc     0.0000     0.000     0.000     0.000  0.6852 -0.6507 -0.3274
 
              Baa    -0.0000    -0.000    -0.000    -0.000  0.9699  0.0701 -0.2333
     4 F(19)  Bbb    -0.0000    -0.000    -0.000    -0.000  0.2221  0.1390  0.9651
              Bcc     0.0000     0.000     0.000     0.000 -0.1001  0.9878 -0.1192
 
              Baa    -0.0000    -0.000    -0.000    -0.000 -0.4225 -0.5672  0.7070
     5 C(13)  Bbb    -0.0000    -0.000    -0.000    -0.000  0.2822  0.6589  0.6973
              Bcc     0.0000     0.000     0.000     0.000  0.8613 -0.4941  0.1183
 
              Baa    -0.0000    -0.000    -0.000    -0.000 -0.1070  0.9943  0.0015
     6 S(33)  Bbb     0.0000     0.000     0.000     0.000  0.0040 -0.0011  1.0000
              Bcc     0.0000     0.000     0.000     0.000  0.9943  0.1070 -0.0038
 
              Baa    -0.0000    -0.000    -0.000    -0.000  0.9882 -0.1506  0.0293
     7 C(13)  Bbb     0.0000     0.000     0.000     0.000  0.1533  0.9786 -0.1374
              Bcc     0.0000     0.000     0.000     0.000 -0.0080  0.1402  0.9901
 
              Baa    -0.0000    -0.000    -0.000    -0.000  0.9550  0.2960 -0.0200
     8 C(13)  Bbb     0.0000     0.000     0.000     0.000  0.0620 -0.1331  0.9892
              Bcc     0.0000     0.000     0.000     0.000 -0.2901  0.9459  0.1455
 
              Baa    -0.0000    -0.000    -0.000    -0.000  0.0488 -0.0757  0.9959
     9 F(19)  Bbb    -0.0000    -0.000    -0.000    -0.000 -0.6286  0.7726  0.0895
              Bcc     0.0000     0.000     0.000     0.000  0.7762  0.6304  0.0099
 
              Baa    -0.0000    -0.000    -0.000    -0.000  0.9885 -0.0659  0.1362
    10 C(13)  Bbb     0.0000     0.000     0.000     0.000  0.1392  0.7483 -0.6485
              Bcc     0.0000     0.000     0.000     0.000 -0.0592  0.6600  0.7489
 
              Baa    -0.0000    -0.000    -0.000    -0.000 -0.0894  0.9872  0.1321
    11 C(13)  Bbb     0.0000     0.000     0.000     0.000  0.9914  0.1009 -0.0832
              Bcc     0.0000     0.000     0.000     0.000  0.0954 -0.1235  0.9877
 
              Baa    -0.0000    -0.000    -0.000    -0.000 -0.4612  0.8873  0.0057
    12 S(33)  Bbb     0.0000     0.000     0.000     0.000  0.1237  0.0580  0.9906
              Bcc     0.0000     0.000     0.000     0.000  0.8786  0.4576 -0.1365
 
              Baa    -0.0000    -0.000    -0.000    -0.000 -0.1813  0.9834  0.0090
    13 H(1)   Bbb    -0.0000    -0.000    -0.000    -0.000 -0.0298 -0.0146  0.9994
              Bcc     0.0000     0.000     0.000     0.000  0.9830  0.1809  0.0320
 
              Baa    -0.0000    -0.000    -0.000    -0.000 -0.5141  0.5277  0.6762
    14 H(1)   Bbb    -0.0000    -0.000    -0.000    -0.000  0.4491 -0.5061  0.7364
              Bcc     0.0000     0.000     0.000     0.000  0.7308  0.6822  0.0232
 
              Baa    -0.0000    -0.000    -0.000    -0.000 -0.6214  0.3449  0.7035
    15 H(1)   Bbb    -0.0000    -0.000    -0.000    -0.000  0.5802 -0.4007  0.7091
              Bcc     0.0000     0.000     0.000     0.000  0.5265  0.8488  0.0489
 
              Baa    -0.0000    -0.000    -0.000    -0.000  0.9896 -0.1227  0.0754
    16 H(1)   Bbb     0.0000     0.000     0.000     0.000 -0.0798 -0.0315  0.9963
              Bcc     0.0000     0.000     0.000     0.000  0.1198  0.9919  0.0409
 

 ---------------------------------------------------------------------------------

 No NMR shielding tensors so no spin-rotation constants.
 Leave Link  601 at Fri Jul 24 19:58:47 2020, MaxMem=  4026531840 cpu:               4.5 elap:               0.7
 (Enter /opt/ohpc/pub/libs/gaussian/g16-A.03/sandybridge/g16/l701.exe)
 ... and contract with generalized density number  0.
 Compute integral first derivatives.
 Leave Link  701 at Fri Jul 24 19:58:48 2020, MaxMem=  4026531840 cpu:               1.2 elap:               0.2
 (Enter /opt/ohpc/pub/libs/gaussian/g16-A.03/sandybridge/g16/l702.exe)
 L702 exits ... SP integral derivatives will be done elsewhere.
 Leave Link  702 at Fri Jul 24 19:58:48 2020, MaxMem=  4026531840 cpu:               0.2 elap:               0.0
 (Enter /opt/ohpc/pub/libs/gaussian/g16-A.03/sandybridge/g16/l703.exe)
 Integral derivatives from FoFJK, PRISM(SPDF).
 Compute integral first derivatives, UseDBF=F ICtDFT=           0.
 Calling FoFJK, ICntrl=      2127 FMM=F ISym2X=0 I1Cent= 0 IOpClX= 1 NMat=1 NMatS=1 NMatT=0.
 FoFJK:  IHMeth= 1 ICntrl=    2127 DoSepK=T KAlg= 0 I1Cent=           0 FoldK=F
 IRaf=         1 NMat=       1 IRICut=       1 DoRegI=T DoRafI=F ISym2E= 0 IDoP0=0 IntGTp=1.
 FoFCou: FMM=F IPFlag=           0 FMFlag=      100000 FMFlg1=         800
         NFxFlg=           0 DoJE=F BraDBF=F KetDBF=F FulRan=T
         wScrn=  0.000000 ICntrl=      2527 IOpCl=  0 I1Cent=           0 NGrid=           0
         NMat0=    1 NMatS0=      1 NMatT0=    0 NMatD0=    1 NMtDS0=    0 NMtDT0=    0
 Symmetry not used in FoFCou.
 Leave Link  703 at Fri Jul 24 19:58:57 2020, MaxMem=  4026531840 cpu:              77.4 elap:               9.7
 (Enter /opt/ohpc/pub/libs/gaussian/g16-A.03/sandybridge/g16/l716.exe)
 Dipole        =-6.74155940D-02 2.24531659D-03-3.01477798D-02
 ***** Axes restored to original set *****
 -------------------------------------------------------------------
 Center     Atomic                   Forces (Hartrees/Bohr)
 Number     Number              X              Y              Z
 -------------------------------------------------------------------
      1        6          -0.058996905    0.096744767   -0.002455729
      2        6          -0.011331296   -0.096488170    0.001325028
      3        6           0.080512795    0.032245186   -0.007474941
      4        9          -0.005524823   -0.008652229    0.002074082
      5        6          -0.032679634   -0.040310983    0.004787237
      6       16           0.012380898    0.035942609    0.002246581
      7        6           0.005612414   -0.030554917   -0.008303740
      8        6          -0.002474388   -0.019859175    0.008752000
      9        9          -0.007040216    0.028667300   -0.001430623
     10        6           0.015631865   -0.011239433   -0.007359787
     11        6          -0.005294059    0.035823115    0.001184946
     12       16          -0.033395843   -0.012944030    0.003061006
     13        1           0.022969809   -0.008267004   -0.000557023
     14        1          -0.011094538   -0.003631873    0.001901307
     15        1           0.014409521    0.012319355    0.002685943
     16        1           0.016314399   -0.009794518   -0.000436288
 -------------------------------------------------------------------
 Cartesian Forces:  Max     0.096744767 RMS     0.029233056
 Leave Link  716 at Fri Jul 24 19:58:57 2020, MaxMem=  4026531840 cpu:               0.3 elap:               0.1
 (Enter /opt/ohpc/pub/libs/gaussian/g16-A.03/sandybridge/g16/l103.exe)

 GradGradGradGradGradGradGradGradGradGradGradGradGradGradGradGradGradGrad
 Berny optimization.
 FormGI is forming the generalized inverse of G from B-inverse, IUseBI=4.
 Internal  Forces:  Max     0.095324538 RMS     0.015708308
 Search for a local minimum.
 Step number   1 out of a maximum of   89
 All quantities printed in internal units (Hartrees-Bohrs-Radians)
 RMS Force = .15708D-01 SwitMx=.10000D-02 MixMth= 1
 Mixed Optimization -- RFO/linear search
 Second derivative matrix not updated -- first step.
 ITU=  0
     Eigenvalues ---    0.01504   0.01532   0.01699   0.01749   0.01828
     Eigenvalues ---    0.02002   0.02190   0.02243   0.02263   0.02331
     Eigenvalues ---    0.02731   0.02839   0.03144   0.15866   0.15985
     Eigenvalues ---    0.15994   0.15999   0.22504   0.22536   0.24703
     Eigenvalues ---    0.24707   0.24891   0.24927   0.24939   0.24962
     Eigenvalues ---    0.27842   0.30281   0.34385   0.35917   0.35960
     Eigenvalues ---    0.37266   0.37661   0.37806   0.38198   0.39304
     Eigenvalues ---    0.44249   0.46152   0.48362   0.49641   0.56988
     Eigenvalues ---    0.63026   0.65585
 RFO step:  Lambda=-3.87712135D-02 EMin= 1.50406711D-02
 Linear search not attempted -- first point.
 Iteration  1 RMS(Cart)=  0.03438350 RMS(Int)=  0.00075442
 Iteration  2 RMS(Cart)=  0.00088907 RMS(Int)=  0.00036676
 Iteration  3 RMS(Cart)=  0.00000098 RMS(Int)=  0.00036676
 ITry= 1 IFail=0 DXMaxC= 8.58D-02 DCOld= 1.00D+10 DXMaxT= 3.00D-01 DXLimC= 3.00D+00 Rises=F
 Variable       Old X    -DE/DX   Delta X   Delta X   Delta X     New X
                                 (Linear)    (Quad)   (Total)
    R1        2.44470   0.09532   0.00000   0.13929   0.13933   2.58403
    R2        3.17564   0.01997   0.00000   0.05462   0.05491   3.23055
    R3        2.14106  -0.02412   0.00000  -0.07061  -0.07061   2.07045
    R4        2.59821   0.03529   0.00000   0.06873   0.06847   2.66668
    R5        2.04212   0.01040   0.00000   0.02614   0.02614   2.06826
    R6        2.53406   0.00608   0.00000   0.00998   0.00998   2.54405
    R7        2.74154  -0.03703   0.00000  -0.09931  -0.09956   2.64198
    R8        3.21868   0.02933   0.00000   0.06141   0.06150   3.28018
    R9        2.72510   0.00357   0.00000   0.00826   0.00826   2.73336
   R10        2.59081   0.01545   0.00000   0.02885   0.02879   2.61960
   R11        3.35290  -0.01195   0.00000  -0.03747  -0.03755   3.31534
   R12        2.48623   0.02945   0.00000   0.04402   0.04402   2.53025
   R13        2.64318   0.01416   0.00000   0.02903   0.02904   2.67223
   R14        2.61352  -0.00636   0.00000  -0.01226  -0.01217   2.60135
   R15        2.02147   0.01880   0.00000   0.04569   0.04569   2.06716
   R16        3.16275   0.03171   0.00000   0.07273   0.07277   3.23552
   R17        2.01561   0.01901   0.00000   0.04577   0.04577   2.06138
    A1        1.98384  -0.01486   0.00000  -0.02229  -0.02225   1.96159
    A2        2.18866   0.01151   0.00000   0.03213   0.03188   2.22054
    A3        2.10971   0.00344   0.00000  -0.00850  -0.00876   2.10095
    A4        1.97057  -0.01321   0.00000  -0.02042  -0.02072   1.94984
    A5        2.23019   0.00133   0.00000  -0.01635  -0.01622   2.21397
    A6        2.08213   0.01187   0.00000   0.03669   0.03685   2.11898
    A7        2.21621  -0.01292   0.00000  -0.04020  -0.04009   2.17613
    A8        1.98750   0.00491   0.00000   0.00936   0.00864   1.99614
    A9        2.07767   0.00811   0.00000   0.03265   0.03281   2.11048
   A10        1.84538   0.02500   0.00000   0.05312   0.05285   1.89823
   A11        2.28906  -0.01721   0.00000  -0.04285  -0.04273   2.24633
   A12        2.14741  -0.00778   0.00000  -0.01006  -0.00992   2.13749
   A13        1.63637  -0.00174   0.00000  -0.01805  -0.01751   1.61885
   A14        2.29855  -0.00826   0.00000  -0.02896  -0.02898   2.26957
   A15        2.10926   0.00283   0.00000   0.00974   0.00981   2.11906
   A16        1.87282   0.00552   0.00000   0.02102   0.02067   1.89349
   A17        2.13067   0.00039   0.00000   0.00079   0.00058   2.13126
   A18        1.99709   0.00380   0.00000   0.01642   0.01600   2.01310
   A19        2.15288  -0.00403   0.00000  -0.01437  -0.01454   2.13834
   A20        1.98376  -0.01224   0.00000  -0.04539  -0.04560   1.93815
   A21        2.12971   0.00660   0.00000   0.02651   0.02637   2.15609
   A22        2.16333   0.00585   0.00000   0.02260   0.02241   2.18574
   A23        1.92706   0.01046   0.00000   0.03940   0.03940   1.96646
   A24        2.23125  -0.00496   0.00000  -0.01839  -0.01840   2.21285
   A25        2.12480  -0.00550   0.00000  -0.02110  -0.02112   2.10368
   A26        1.64048  -0.00730   0.00000  -0.02733  -0.02759   1.61289
    D1        0.04910  -0.00293   0.00000  -0.03906  -0.03867   0.01043
    D2       -3.06537  -0.00263   0.00000  -0.03612  -0.03575  -3.10111
    D3       -3.13971  -0.00070   0.00000  -0.00700  -0.00681   3.13666
    D4        0.02900  -0.00040   0.00000  -0.00406  -0.00388   0.02512
    D5       -0.03483   0.00241   0.00000   0.03320   0.03257  -0.00226
    D6       -3.13158   0.00001   0.00000   0.00151   0.00190  -3.12968
    D7       -3.11744  -0.00053   0.00000  -0.00909  -0.00846  -3.12589
    D8       -0.04140   0.00175   0.00000   0.02533   0.02550  -0.01590
    D9       -0.00043  -0.00094   0.00000  -0.01257  -0.01205  -0.01248
   D10        3.07561   0.00134   0.00000   0.02185   0.02191   3.09752
   D11        0.01484   0.00027   0.00000  -0.00070  -0.00106   0.01378
   D12        3.10097   0.00043   0.00000   0.00410   0.00353   3.10450
   D13        3.09654   0.00150   0.00000   0.02784   0.02854   3.12508
   D14       -0.10052   0.00166   0.00000   0.03264   0.03313  -0.06739
   D15        0.00995  -0.00073   0.00000  -0.01596  -0.01644  -0.00649
   D16       -3.08184  -0.00038   0.00000  -0.01873  -0.01919  -3.10103
   D17       -3.12638   0.00041   0.00000   0.01209   0.01226  -3.11412
   D18        0.10249  -0.00141   0.00000  -0.01972  -0.01960   0.08290
   D19       -0.04848   0.00137   0.00000   0.01898   0.01885  -0.02963
   D20       -3.10279  -0.00045   0.00000  -0.01283  -0.01301  -3.11580
   D21        0.06783  -0.00151   0.00000  -0.02205  -0.02164   0.04620
   D22        3.13531   0.00070   0.00000   0.01868   0.01956  -3.12831
   D23        3.13096   0.00011   0.00000   0.00648   0.00696   3.13792
   D24       -0.08474   0.00233   0.00000   0.04721   0.04816  -0.03659
   D25        3.13427  -0.00162   0.00000  -0.01757  -0.01618   3.11809
   D26        0.06090  -0.00241   0.00000  -0.04020  -0.03967   0.02123
   D27        0.07388  -0.00251   0.00000  -0.03793  -0.03736   0.03652
   D28        3.09876  -0.00025   0.00000  -0.00283  -0.00260   3.09616
   D29        3.14029  -0.00004   0.00000   0.00414   0.00476  -3.13813
   D30       -0.11801   0.00222   0.00000   0.03924   0.03952  -0.07849
   D31       -0.02304   0.00041   0.00000   0.00464   0.00451  -0.01853
   D32        3.13207   0.00079   0.00000   0.01238   0.01219  -3.13892
   D33       -3.04534  -0.00193   0.00000  -0.03141  -0.03115  -3.07648
   D34        0.10978  -0.00154   0.00000  -0.02367  -0.02346   0.08631
   D35       -0.02211   0.00110   0.00000   0.02059   0.02057  -0.00154
   D36        3.10693   0.00075   0.00000   0.01338   0.01341   3.12034
         Item               Value     Threshold  Converged?
 Maximum Force            0.095325     0.000450     NO 
 RMS     Force            0.015708     0.000300     NO 
 Maximum Displacement     0.085796     0.001800     NO 
 RMS     Displacement     0.034373     0.001200     NO 
 Predicted change in Energy=-2.131672D-02
 Lowest energy point so far.  Saving SCF results.
 GradGradGradGradGradGradGradGradGradGradGradGradGradGradGradGradGradGrad

 Leave Link  103 at Fri Jul 24 19:58:58 2020, MaxMem=  4026531840 cpu:               1.2 elap:               0.2
 (Enter /opt/ohpc/pub/libs/gaussian/g16-A.03/sandybridge/g16/l202.exe)
                          Input orientation:                          
 ---------------------------------------------------------------------
 Center     Atomic      Atomic             Coordinates (Angstroms)
 Number     Number       Type             X           Y           Z
 ---------------------------------------------------------------------
      1          6           0       -3.134234    0.625857   -0.003286
      2          6           0       -2.957870   -0.730032    0.013292
      3          6           0       -1.590501   -1.078799    0.012338
      4          9           0       -1.121810   -2.340827    0.009187
      5          6           0       -0.716916    0.012097   -0.025261
      6         16           0       -1.650944    1.475128   -0.036444
      7          6           0        0.729195    0.014274    0.005165
      8          6           0        1.619669    1.076656   -0.001417
      9          9           0        1.207859    2.350637    0.011906
     10          6           0        2.987823    0.719771    0.018949
     11          6           0        3.142424   -0.647879   -0.005332
     12         16           0        1.646649   -1.480860   -0.022811
     13          1           0       -4.084826    1.170592   -0.010776
     14          1           0       -3.741395   -1.494091   -0.000198
     15          1           0        3.803008    1.447901   -0.024748
     16          1           0        4.083647   -1.199163    0.004893
 ---------------------------------------------------------------------
                    Distance matrix (angstroms):
                    1          2          3          4          5
     1  C    0.000000
     2  C    1.367412   0.000000
     3  C    2.299828   1.411147   0.000000
     4  F    3.584860   2.442497   1.346253   0.000000
     5  C    2.494115   2.360956   1.398076   2.387755   0.000000
     6  S    1.709535   2.563837   2.555107   3.852736   1.735797
     7  C    3.911545   3.761449   2.564341   2.995452   1.446433
     8  C    4.775230   4.921199   3.866699   4.381211   2.567778
     9  F    4.672138   5.181102   4.426268   5.238053   3.029011
    10  C    6.122818   6.119904   4.918937   5.124103   3.771982
    11  C    6.404595   6.100875   4.752534   4.588025   3.915415
    12  S    5.224507   4.665472   3.262212   2.899125   2.795598
    13  H    1.095636   2.209747   3.358862   4.594554   3.561620
    14  H    2.205183   1.094477   2.190656   2.753049   3.378862
    15  H    6.985810   7.103119   5.956133   6.213649   4.742494
    16  H    7.445037   7.057132   5.675429   5.329183   4.951108
                    6          7          8          9         10
     6  S    0.000000
     7  C    2.793006   0.000000
     8  C    3.294983   1.386234   0.000000
     9  F    2.990252   2.384902   1.338952   0.000000
    10  C    4.700190   2.366288   1.414081   2.414134   0.000000
    11  C    5.242566   2.502445   2.300613   3.568464   1.376575
    12  S    4.428562   1.754403   2.557748   3.856697   2.577454
    13  H    2.452995   4.950972   5.705276   5.422687   7.087065
    14  H    3.631468   4.718196   5.945566   6.267153   7.084062
    15  H    5.454032   3.391830   2.214799   2.747921   1.093896
    16  H    6.327644   3.567181   3.354189   4.568510   2.209828
                   11         12         13         14         15
    11  C    0.000000
    12  S    1.712164   0.000000
    13  H    7.452517   6.315073   0.000000
    14  H    6.935638   5.388108   2.686744   0.000000
    15  H    2.197508   3.636968   7.892719   8.097774   0.000000
    16  H    1.090835   2.453382   8.505289   7.830600   2.662064
                   16
    16  H    0.000000
 Stoichiometry    C8H4F2S2
 Framework group  C1[X(C8H4F2S2)]
 Deg. of freedom    42
 Full point group                 C1      NOp   1
 RotChk:  IX=2 Diff= 1.70D-02
 Largest Abelian subgroup         C1      NOp   1
 Largest concise Abelian subgroup C1      NOp   1
                         Standard orientation:                         
 ---------------------------------------------------------------------
[...]
  Beta virt. eigenvalues --    2.54538   2.60207   2.61562   3.01278   3.03066
  Beta virt. eigenvalues --    3.57921   3.57968   3.60102   3.60689   3.77059
  Beta virt. eigenvalues --    3.78274   3.95408   3.97296   4.17434   4.17438
          Condensed to atoms (all electrons):
               1          2          3          4          5          6
     1  C    5.028779   0.505037  -0.010667   0.003344  -0.084526   0.336682
     2  C    0.505037   4.799629   0.444718  -0.048643  -0.067214  -0.080244
     3  C   -0.010667   0.444718   4.881366   0.430490   0.304320  -0.077425
     4  F    0.003344  -0.048643   0.430490   8.797299  -0.072007   0.002472
     5  C   -0.084526  -0.067214   0.304320  -0.072007   5.519961   0.350716
     6  S    0.336682  -0.080244  -0.077425   0.002472   0.350716  15.371636
     7  C    0.003647   0.007459  -0.047044  -0.002792   0.265643  -0.062048
     8  C    0.000504  -0.000608   0.008334   0.000157  -0.047048  -0.005537
     9  F    0.000255  -0.000022   0.000157  -0.000000  -0.002792   0.012493
    10  C    0.000011  -0.000007  -0.000608  -0.000022   0.007459   0.000610
    11  C   -0.000001   0.000011   0.000504   0.000255   0.003647  -0.000109
    12  S   -0.000109   0.000610  -0.005538   0.012494  -0.062048   0.002875
    13  H    0.397262  -0.021328   0.007914  -0.000032   0.000637  -0.039159
    14  H   -0.052722   0.392182  -0.032523   0.000679   0.012353   0.006885
    15  H   -0.000000   0.000000   0.000001  -0.000000  -0.000340  -0.000004
    16  H   -0.000000   0.000000   0.000002   0.000001  -0.000270   0.000003
               7          8          9         10         11         12
     1  C    0.003647   0.000504   0.000255   0.000011  -0.000001  -0.000109
     2  C    0.007459  -0.000608  -0.000022  -0.000007   0.000011   0.000610
     3  C   -0.047044   0.008334   0.000157  -0.000608   0.000504  -0.005538
     4  F   -0.002792   0.000157  -0.000000  -0.000022   0.000255   0.012494
     5  C    0.265643  -0.047048  -0.002792   0.007459   0.003647  -0.062048
     6  S   -0.062048  -0.005537   0.012493   0.000610  -0.000109   0.002875
     7  C    5.519959   0.304338  -0.072004  -0.067213  -0.084525   0.350714
     8  C    0.304338   4.881354   0.430489   0.444707  -0.010665  -0.077425
     9  F   -0.072004   0.430489   8.797301  -0.048645   0.003344   0.002472
    10  C   -0.067213   0.444707  -0.048645   4.799630   0.505039  -0.080243
    11  C   -0.084525  -0.010665   0.003344   0.505039   5.028771   0.336690
    12  S    0.350714  -0.077425   0.002472  -0.080243   0.336690  15.371624
    13  H   -0.000270   0.000002   0.000001   0.000000  -0.000000   0.000003
    14  H   -0.000340   0.000001  -0.000000   0.000000  -0.000000  -0.000004
    15  H    0.012351  -0.032529   0.000678   0.392188  -0.052719   0.006886
    16  H    0.000637   0.007914  -0.000032  -0.021327   0.397259  -0.039161
              13         14         15         16
     1  C    0.397262  -0.052722  -0.000000  -0.000000
     2  C   -0.021328   0.392182   0.000000   0.000000
     3  C    0.007914  -0.032523   0.000001   0.000002
     4  F   -0.000032   0.000679  -0.000000   0.000001
     5  C    0.000637   0.012353  -0.000340  -0.000270
     6  S   -0.039159   0.006885  -0.000004   0.000003
     7  C   -0.000270  -0.000340   0.012351   0.000637
     8  C    0.000002   0.000001  -0.032529   0.007914
     9  F    0.000001  -0.000000   0.000678  -0.000032
    10  C    0.000000   0.000000   0.392188  -0.021327
    11  C   -0.000000  -0.000000  -0.052719   0.397259
    12  S    0.000003  -0.000004   0.006886  -0.039161
    13  H    0.631141  -0.007734  -0.000000   0.000000
    14  H   -0.007734   0.677678   0.000000  -0.000000
    15  H   -0.000000   0.000000   0.677677  -0.007735
    16  H    0.000000  -0.000000  -0.007735   0.631143
          Atomic-Atomic Spin Densities.
               1          2          3          4          5          6
     1  C   -0.000000   0.000000   0.000000   0.000000  -0.000000  -0.000000
     2  C    0.000000   0.000000  -0.000000   0.000000   0.000000   0.000000
     3  C    0.000000  -0.000000  -0.000000  -0.000000   0.000000  -0.000000
     4  F    0.000000   0.000000  -0.000000   0.000000   0.000000  -0.000000
     5  C   -0.000000   0.000000   0.000000   0.000000  -0.000000  -0.000000
     6  S   -0.000000   0.000000  -0.000000  -0.000000  -0.000000   0.000000
     7  C   -0.000000  -0.000000  -0.000000  -0.000000   0.000000   0.000000
     8  C    0.000000  -0.000000  -0.000000  -0.000000   0.000000  -0.000000
     9  F    0.000000  -0.000000  -0.000000   0.000000   0.000000  -0.000000
    10  C   -0.000000   0.000000   0.000000   0.000000  -0.000000   0.000000
    11  C   -0.000000   0.000000  -0.000000  -0.000000   0.000000  -0.000000
    12  S   -0.000000  -0.000000  -0.000000   0.000000   0.000000   0.000000
    13  H   -0.000000   0.000000   0.000000   0.000000   0.000000  -0.000000
    14  H    0.000000   0.000000  -0.000000   0.000000   0.000000   0.000000
    15  H   -0.000000   0.000000  -0.000000   0.000000   0.000000   0.000000
    16  H    0.000000  -0.000000  -0.000000  -0.000000   0.000000  -0.000000
               7          8          9         10         11         12
     1  C   -0.000000   0.000000   0.000000  -0.000000  -0.000000  -0.000000
     2  C   -0.000000  -0.000000  -0.000000   0.000000   0.000000  -0.000000
     3  C   -0.000000  -0.000000  -0.000000   0.000000  -0.000000  -0.000000
     4  F   -0.000000  -0.000000   0.000000   0.000000  -0.000000   0.000000
     5  C    0.000000   0.000000   0.000000  -0.000000   0.000000   0.000000
     6  S    0.000000  -0.000000  -0.000000   0.000000  -0.000000   0.000000
     7  C   -0.000000  -0.000000  -0.000000  -0.000000   0.000000   0.000000
     8  C   -0.000000   0.000000   0.000000  -0.000000  -0.000000  -0.000000
     9  F   -0.000000   0.000000  -0.000000  -0.000000   0.000000   0.000000
    10  C   -0.000000  -0.000000  -0.000000   0.000000   0.000000   0.000000
    11  C    0.000000  -0.000000   0.000000   0.000000  -0.000000  -0.000000
    12  S    0.000000  -0.000000   0.000000   0.000000  -0.000000  -0.000000
    13  H    0.000000   0.000000   0.000000  -0.000000   0.000000  -0.000000
    14  H    0.000000  -0.000000   0.000000  -0.000000   0.000000  -0.000000
    15  H    0.000000  -0.000000  -0.000000   0.000000   0.000000   0.000000
    16  H   -0.000000   0.000000   0.000000  -0.000000  -0.000000  -0.000000
              13         14         15         16
     1  C   -0.000000   0.000000  -0.000000   0.000000
     2  C    0.000000   0.000000   0.000000  -0.000000
     3  C    0.000000  -0.000000  -0.000000  -0.000000
     4  F    0.000000   0.000000   0.000000  -0.000000
     5  C    0.000000   0.000000   0.000000   0.000000
     6  S   -0.000000   0.000000   0.000000  -0.000000
     7  C    0.000000   0.000000   0.000000  -0.000000
     8  C    0.000000  -0.000000  -0.000000   0.000000
     9  F    0.000000   0.000000  -0.000000   0.000000
    10  C   -0.000000  -0.000000   0.000000  -0.000000
    11  C    0.000000   0.000000   0.000000  -0.000000
    12  S   -0.000000  -0.000000   0.000000  -0.000000
    13  H   -0.000000   0.000000  -0.000000   0.000000
    14  H    0.000000  -0.000000   0.000000   0.000000
    15  H   -0.000000   0.000000   0.000000  -0.000000
    16  H    0.000000   0.000000  -0.000000  -0.000000
 Mulliken charges and spin densities:
               1          2
     1  C   -0.127494  -0.000000
     2  C    0.068419   0.000000
     3  C    0.095999   0.000000
     4  F   -0.123695   0.000000
     5  C   -0.128489   0.000000
     6  S    0.180155   0.000000
     7  C   -0.128513  -0.000000
     8  C    0.096012   0.000000
     9  F   -0.123696  -0.000000
    10  C    0.068420   0.000000
    11  C   -0.127500  -0.000000
    12  S    0.180160   0.000000
    13  H    0.031564  -0.000000
    14  H    0.003546  -0.000000
    15  H    0.003547   0.000000
    16  H    0.031566  -0.000000
 Sum of Mulliken charges =  -0.00000   0.00000
 Mulliken charges and spin densities with hydrogens summed into heavy atoms:
               1          2
     1  C   -0.095931  -0.000000
     2  C    0.071965   0.000000
     3  C    0.095999   0.000000
     4  F   -0.123695   0.000000
     5  C   -0.128489   0.000000
     6  S    0.180155   0.000000
     7  C   -0.128513  -0.000000
     8  C    0.096012   0.000000
     9  F   -0.123696  -0.000000
    10  C    0.071967   0.000000
    11  C   -0.095934  -0.000000
    12  S    0.180160   0.000000
 Electronic spatial extent (au):  <R**2>=           2445.6980
 Charge=              0.0000 electrons
 Dipole moment (field-independent basis, Debye):
    X=              0.0001    Y=             -0.0001    Z=             -0.0004  Tot=              0.0004
 Quadrupole moment (field-independent basis, Debye-Ang):
   XX=            -62.5582   YY=            -80.7922   ZZ=            -83.9043
   XY=             -1.3658   XZ=              0.0000   YZ=             -0.0005
 Traceless Quadrupole moment (field-independent basis, Debye-Ang):
   XX=             13.1934   YY=             -5.0407   ZZ=             -8.1527
   XY=             -1.3658   XZ=              0.0000   YZ=             -0.0005
 Octapole moment (field-independent basis, Debye-Ang**2):
  XXX=              0.0018  YYY=             -0.0005  ZZZ=              0.0108  XYY=             -0.0003
  XXY=              0.0001  XXZ=              0.0003  XZZ=              0.0004  YZZ=             -0.0001
  YYZ=             -0.0015  XYZ=              0.0071
 Hexadecapole moment (field-independent basis, Debye-Ang**3):
 XXXX=          -1848.0731 YYYY=           -897.3829 ZZZZ=            -91.1466 XXXY=              6.1984
 XXXZ=              0.0023 YYYX=             18.3353 YYYZ=             -0.0012 ZZZX=              0.0002
 ZZZY=             -0.0003 XXYY=           -450.6923 XXZZ=           -415.5318 YYZZ=           -164.7291
 XXYZ=             -0.0078 YYXZ=             -0.0009 ZZXY=             12.0505
 N-N= 8.674455698931D+02 E-N=-4.815962579657D+03  KE= 1.297916994587D+03
                          Isotropic Fermi Contact Couplings
        Atom                 a.u.       MegaHertz       Gauss      10(-4) cm-1
     1  C(13)              0.00000       0.00000       0.00000       0.00000
     2  C(13)              0.00000       0.00000       0.00000       0.00000
     3  C(13)             -0.00000      -0.00000      -0.00000      -0.00000
     4  F(19)             -0.00000      -0.00000      -0.00000      -0.00000
     5  C(13)             -0.00000      -0.00000      -0.00000      -0.00000
     6  S(33)             -0.00000      -0.00000      -0.00000      -0.00000
     7  C(13)              0.00000       0.00000       0.00000       0.00000
     8  C(13)              0.00000       0.00000       0.00000       0.00000
     9  F(19)             -0.00000      -0.00000      -0.00000      -0.00000
    10  C(13)              0.00000       0.00000       0.00000       0.00000
    11  C(13)             -0.00000      -0.00000      -0.00000      -0.00000
    12  S(33)             -0.00000      -0.00000      -0.00000      -0.00000
    13  H(1)               0.00000       0.00000       0.00000       0.00000
    14  H(1)              -0.00000      -0.00000      -0.00000      -0.00000
    15  H(1)              -0.00000      -0.00000      -0.00000      -0.00000
    16  H(1)              -0.00000      -0.00000      -0.00000      -0.00000
 --------------------------------------------------------
       Center         ----  Spin Dipole Couplings  ----
                      3XX-RR        3YY-RR        3ZZ-RR
 --------------------------------------------------------
     1   Atom       -0.000000      0.000000     -0.000000
     2   Atom       -0.000000      0.000000     -0.000000
     3   Atom       -0.000000      0.000000     -0.000000
     4   Atom       -0.000000      0.000000     -0.000000
     5   Atom       -0.000000     -0.000000      0.000000
     6   Atom        0.000000     -0.000000     -0.000000
     7   Atom       -0.000000      0.000000      0.000000
     8   Atom        0.000000      0.000000     -0.000000
     9   Atom        0.000000      0.000000     -0.000000
    10   Atom        0.000000      0.000000     -0.000000
    11   Atom       -0.000000     -0.000000      0.000000
    12   Atom       -0.000000      0.000000     -0.000000
    13   Atom        0.000000     -0.000000      0.000000
    14   Atom        0.000000     -0.000000     -0.000000
    15   Atom        0.000000     -0.000000      0.000000
    16   Atom        0.000000     -0.000000     -0.000000
 --------------------------------------------------------
                        XY            XZ            YZ
 --------------------------------------------------------
     1   Atom       -0.000000     -0.000000     -0.000000
     2   Atom        0.000000      0.000000     -0.000000
     3   Atom        0.000000      0.000000      0.000000
     4   Atom       -0.000000      0.000000     -0.000000
     5   Atom       -0.000000     -0.000000      0.000000
     6   Atom        0.000000      0.000000      0.000000
     7   Atom        0.000000      0.000000      0.000000
     8   Atom       -0.000000     -0.000000      0.000000
     9   Atom        0.000000     -0.000000     -0.000000
    10   Atom        0.000000     -0.000000     -0.000000
    11   Atom        0.000000      0.000000      0.000000
    12   Atom       -0.000000     -0.000000      0.000000
    13   Atom        0.000000     -0.000000      0.000000
    14   Atom        0.000000      0.000000      0.000000
    15   Atom        0.000000      0.000000      0.000000
    16   Atom        0.000000     -0.000000      0.000000
 --------------------------------------------------------


 ---------------------------------------------------------------------------------
              Anisotropic Spin Dipole Couplings in Principal Axis System
 ---------------------------------------------------------------------------------

       Atom             a.u.   MegaHertz   Gauss  10(-4) cm-1        Axes

              Baa    -0.0000    -0.000    -0.000    -0.000  0.8937  0.4199  0.1578
     1 C(13)  Bbb    -0.0000    -0.000    -0.000    -0.000 -0.1442 -0.0643  0.9875
              Bcc     0.0000     0.000     0.000     0.000 -0.4248  0.9053 -0.0031
 
              Baa    -0.0000    -0.000    -0.000    -0.000 -0.4026  0.1505  0.9029
     2 C(13)  Bbb    -0.0000    -0.000    -0.000    -0.000  0.8515 -0.3005  0.4297
              Bcc     0.0000     0.000     0.000     0.000  0.3359  0.9419 -0.0072
 
              Baa    -0.0000    -0.000    -0.000    -0.000  0.9830 -0.1834 -0.0043
     3 C(13)  Bbb    -0.0000    -0.000    -0.000    -0.000  0.0040 -0.0017  1.0000
              Bcc     0.0000     0.000     0.000     0.000  0.1835  0.9830  0.0009
 
              Baa    -0.0000    -0.000    -0.000    -0.000  0.8533  0.5214 -0.0102
     4 F(19)  Bbb    -0.0000    -0.000    -0.000    -0.000  0.0018  0.0165  0.9999
              Bcc     0.0000     0.000     0.000     0.000 -0.5215  0.8532 -0.0131
 
              Baa    -0.0000    -0.000    -0.000    -0.000  0.7090  0.7052  0.0026
     5 C(13)  Bbb     0.0000     0.000     0.000     0.000 -0.7048  0.7086 -0.0340
              Bcc     0.0000     0.000     0.000     0.000 -0.0258  0.0223  0.9994
 
              Baa    -0.0000    -0.000    -0.000    -0.000 -0.4714  0.8819 -0.0071
     6 S(33)  Bbb    -0.0000    -0.000    -0.000    -0.000 -0.0060  0.0048  1.0000
              Bcc     0.0000     0.000     0.000     0.000  0.8819  0.4714  0.0030
 
              Baa    -0.0000    -0.000    -0.000    -0.000  0.9260 -0.3767 -0.0263
     7 C(13)  Bbb     0.0000     0.000     0.000     0.000  0.0087 -0.0484  0.9988
              Bcc     0.0000     0.000     0.000     0.000  0.3775  0.9251  0.0416
 
              Baa    -0.0000    -0.000    -0.000    -0.000  0.0016 -0.0091  1.0000
     8 C(13)  Bbb     0.0000     0.000     0.000     0.000  0.9851  0.1722  0.0000
              Bcc     0.0000     0.000     0.000     0.000 -0.1721  0.9850  0.0092
 
              Baa    -0.0000    -0.000    -0.000    -0.000  0.7285 -0.6849  0.0120
     9 F(19)  Bbb    -0.0000    -0.000    -0.000    -0.000 -0.0063  0.0109  0.9999
              Bcc     0.0000     0.000     0.000     0.000  0.6850  0.7285 -0.0036
 
              Baa    -0.0000    -0.000    -0.000    -0.000  0.0187  0.0108  0.9998
    10 C(13)  Bbb     0.0000     0.000     0.000     0.000 -0.0301  0.9995 -0.0102
              Bcc     0.0000     0.000     0.000     0.000  0.9994  0.0299 -0.0191
 
              Baa    -0.0000    -0.000    -0.000    -0.000  0.9227 -0.3854  0.0021
    11 C(13)  Bbb    -0.0000    -0.000    -0.000    -0.000  0.3854  0.9227 -0.0120
              Bcc     0.0000     0.000     0.000     0.000  0.0027  0.0119  0.9999
 
              Baa    -0.0000    -0.000    -0.000    -0.000  0.9543  0.2988  0.0040
    12 S(33)  Bbb    -0.0000    -0.000    -0.000    -0.000  0.0002 -0.0141  0.9999
              Bcc     0.0000     0.000     0.000     0.000 -0.2988  0.9542  0.0135
 
              Baa    -0.0000    -0.000    -0.000    -0.000 -0.3598  0.9223 -0.1407
    13 H(1)   Bbb     0.0000     0.000     0.000     0.000  0.1134  0.1929  0.9746
              Bcc     0.0000     0.000     0.000     0.000  0.9261  0.3347 -0.1741
 
              Baa    -0.0000    -0.000    -0.000    -0.000 -0.4414  0.8973 -0.0000
    14 H(1)   Bbb    -0.0000    -0.000    -0.000    -0.000 -0.0204 -0.0101  0.9997
              Bcc     0.0000     0.000     0.000     0.000  0.8971  0.4413  0.0228
 
              Baa    -0.0000    -0.000    -0.000    -0.000 -0.5930  0.8052 -0.0012
    15 H(1)   Bbb     0.0000     0.000     0.000     0.000 -0.0043 -0.0017  1.0000
              Bcc     0.0000     0.000     0.000     0.000  0.8052  0.5930  0.0045
 
              Baa    -0.0000    -0.000    -0.000    -0.000 -0.4963  0.8679 -0.0194
    16 H(1)   Bbb    -0.0000    -0.000    -0.000    -0.000 -0.0094  0.0170  0.9998
              Bcc     0.0000     0.000     0.000     0.000  0.8681  0.4964 -0.0003
 

 ---------------------------------------------------------------------------------

 No NMR shielding tensors so no spin-rotation constants.
 Leave Link  601 at Fri Jul 24 20:05:45 2020, MaxMem=  4026531840 cpu:               1.6 elap:               0.2
 (Enter /opt/ohpc/pub/libs/gaussian/g16-A.03/sandybridge/g16/l9999.exe)

 Test job not archived.
 1\1\GINC-SKYLAKE038\FOpt\ULC-wPBE\CC-pVDZ\C8H4F2S2\RDU230\24-Jul-2020\
 0\\#P uLC-wPBE/cc-pVDZ iop(3/107=0220900000, 3/108=0220900000) opt\\H4
  C8 S2 F2\\0,1\C,-3.1378898141,0.6254894791,-0.006163849\C,-2.96326412
 32,-0.7348089139,-0.0016403718\C,-1.5821788542,-1.0654743551,-0.000255
 5247\F,-1.1448688189,-2.3432123648,0.0040763947\C,-0.7130712466,0.0059
 574032,-0.0036359652\S,-1.6399069968,1.4855910848,-0.0087495773\C,0.74
 07735282,-0.0157965686,-0.0033060528\C,1.6099114001,1.0556427715,-0.00
 60945647\F,1.1726198334,2.3333894036,-0.0096781186\C,2.9909777968,0.72
 49755975,-0.0049401347\C,3.1655823314,-0.6353198601,-0.0012277303\S,1.
 6676296477,-1.4954196095,0.0009045858\H,-4.0784010125,1.1824318901,-0.
 0082993623\H,-3.7660044705,-1.4774036139,0.000827971\H,3.7937781578,1.
 467506871,-0.0069119364\H,4.1060906413,-1.192287215,0.0005522364\\Vers
 ion=EM64L-G16RevA.03\State=1-A\HF=-1302.6504765\S2=0.\S2-1=0.\S2A=0.\R
 MSD=4.449e-09\RMSF=1.105e-05\Dipole=0.0000207,-0.0000297,-0.0001637\Qu
 adrupole=9.7455009,-3.684175,-6.061326,-1.3737982,0.0070694,-0.0078163
 \PG=C01 [X(C8H4F2S2)]\\@


 JUST WHEN YOU THINK YOU'VE GOT THE WORLD ON A STRING,
 YOU FIND OUT IT'S YOUR LEASH.
 Job cpu time:       0 days  1 hours  0 minutes 29.0 seconds.
 Elapsed time:       0 days  0 hours  7 minutes 41.2 seconds.
 File lengths (MBytes):  RWF=    100 Int=      0 D2E=      0 Chk=     12 Scr=      8
 Normal termination of Gaussian 16 at Fri Jul 24 20:05:45 2020.
