 Entering Gaussian System, Link 0=g16
 Input=mols_65_1_25_n-cOC-N_opt_0.gjf
 Output=mols_65_1_25_n-cOC-N_opt_0.log
 Initial command:
 /opt/ohpc/pub/libs/gaussian/g16-A.03/sandybridge/g16/l1.exe "/mnt/gpfs2_4m/scratch/rdu230/ondemand/projects/dihedral_energies/7trial/wtuning/mols_65_1_25_n-cOC-N/Gau-64921.inp" -scrdir="/mnt/gpfs2_4m/scratch/rdu230/ondemand/projects/dihedral_energies/7trial/wtuning/mols_65_1_25_n-cOC-N/"
 Entering Link 1 = /opt/ohpc/pub/libs/gaussian/g16-A.03/sandybridge/g16/l1.exe PID=     64922.
  
 Copyright (c) 1988,1990,1992,1993,1995,1998,2003,2009,2016,
            Gaussian, Inc.  All Rights Reserved.
  
 This is part of the Gaussian(R) 16 program.  It is based on
 the Gaussian(R) 09 system (copyright 2009, Gaussian, Inc.),
 the Gaussian(R) 03 system (copyright 2003, Gaussian, Inc.),
 the Gaussian(R) 98 system (copyright 1998, Gaussian, Inc.),
 the Gaussian(R) 94 system (copyright 1995, Gaussian, Inc.),
 the Gaussian 92(TM) system (copyright 1992, Gaussian, Inc.),
 the Gaussian 90(TM) system (copyright 1990, Gaussian, Inc.),
 the Gaussian 88(TM) system (copyright 1988, Gaussian, Inc.),
 the Gaussian 86(TM) system (copyright 1986, Carnegie Mellon
 University), and the Gaussian 82(TM) system (copyright 1983,
 Carnegie Mellon University). Gaussian is a federally registered
 trademark of Gaussian, Inc.
  
 This software contains proprietary and confidential information,
 including trade secrets, belonging to Gaussian, Inc.
  
 This software is provided under written license and may be
 used, copied, transmitted, or stored only in accord with that
 written license.
  
 The following legend is applicable only to US Government
 contracts under FAR:
  
                    RESTRICTED RIGHTS LEGEND
  
 Use, reproduction and disclosure by the US Government is
 subject to restrictions as set forth in subparagraphs (a)
 and (c) of the Commercial Computer Software - Restricted
 Rights clause in FAR 52.227-19.
  
 Gaussian, Inc.
 340 Quinnipiac St., Bldg. 40, Wallingford CT 06492
  
  
 ---------------------------------------------------------------
 Warning -- This program may not be used in any manner that
 competes with the business of Gaussian, Inc. or will provide
 assistance to any competitor of Gaussian, Inc.  The licensee
 of this program is prohibited from giving any competitor of
 Gaussian, Inc. access to this program.  By using this program,
 the user acknowledges that Gaussian, Inc. is engaged in the
 business of creating and licensing software in the field of
 computational chemistry and represents and warrants to the
 licensee that it is not a competitor of Gaussian, Inc. and that
 it will not use this program in any manner prohibited above.
 ---------------------------------------------------------------
  

 Cite this work as:
 Gaussian 16, Revision A.03,
 M. J. Frisch, G. W. Trucks, H. B. Schlegel, G. E. Scuseria, 
 M. A. Robb, J. R. Cheeseman, G. Scalmani, V. Barone, 
 G. A. Petersson, H. Nakatsuji, X. Li, M. Caricato, A. V. Marenich, 
 J. Bloino, B. G. Janesko, R. Gomperts, B. Mennucci, H. P. Hratchian, 
 J. V. Ortiz, A. F. Izmaylov, J. L. Sonnenberg, D. Williams-Young, 
 F. Ding, F. Lipparini, F. Egidi, J. Goings, B. Peng, A. Petrone, 
 T. Henderson, D. Ranasinghe, V. G. Zakrzewski, J. Gao, N. Rega, 
 G. Zheng, W. Liang, M. Hada, M. Ehara, K. Toyota, R. Fukuda, 
 J. Hasegawa, M. Ishida, T. Nakajima, Y. Honda, O. Kitao, H. Nakai, 
 T. Vreven, K. Throssell, J. A. Montgomery, Jr., J. E. Peralta, 
 F. Ogliaro, M. J. Bearpark, J. J. Heyd, E. N. Brothers, K. N. Kudin, 
 V. N. Staroverov, T. A. Keith, R. Kobayashi, J. Normand, 
 K. Raghavachari, A. P. Rendell, J. C. Burant, S. S. Iyengar, 
 J. Tomasi, M. Cossi, J. M. Millam, M. Klene, C. Adamo, R. Cammi, 
 J. W. Ochterski, R. L. Martin, K. Morokuma, O. Farkas, 
 J. B. Foresman, and D. J. Fox, Gaussian, Inc., Wallingford CT, 2016.
 
 ******************************************
 Gaussian 16:  EM64L-G16RevA.03 25-Dec-2016
                24-Jul-2020 
 ******************************************
 %mem=30GB
 %nproc=8
 Will use up to    8 processors via shared memory.
 ---------------------------------------------------------------
 #P uLC-wPBE/cc-pVDZ iop(3/107=0097700000, 3/108=0097700000) opt
 ---------------------------------------------------------------
 1/18=20,19=15,26=3,38=1/1,3;
 2/9=110,12=2,17=6,18=5,40=1/2;
 3/5=16,11=2,25=1,30=1,71=1,74=-41,107=97700000,108=97700000,116=2/1,2,3;
 4//1;
 5/5=2,38=5/2;
 6/7=2,8=2,9=2,10=2,28=1/1;
 7//1,2,3,16;
 1/18=20,19=15,26=3/3(2);
 2/9=110/2;
 99//99;
 2/9=110/2;
 3/5=16,11=2,25=1,30=1,71=1,74=-41,107=97700000,108=97700000,116=2/1,2,3;
 4/5=5,16=3,69=1/1;
 5/5=2,38=5/2;
 7//1,2,3,16;
 1/18=20,19=15,26=3/3(-5);
 2/9=110/2;
 6/7=2,8=2,9=2,10=2,19=2,28=1/1;
 99/9=1/99;
 Leave Link    1 at Fri Jul 24 15:52:06 2020, MaxMem=  4026531840 cpu:               2.6 elap:               0.4
 (Enter /opt/ohpc/pub/libs/gaussian/g16-A.03/sandybridge/g16/l101.exe)
 --------------
 H8 C9 S1 N2 O1
 --------------
 Symbolic Z-matrix:
 Charge =  0 Multiplicity = 1
 C                     2.9791   -1.38828   0.11938 
 C                     1.82302  -2.25238   0.35034 
 N                     0.62612  -1.7617    0.34693 
 C                     0.36814  -0.41614   0.06338 
 C                     1.4658    0.45973  -0.19149 
 O                     1.14108   1.68845  -0.46218 
 C                     2.0897    2.73158  -0.00378 
 C                     2.74786  -0.02813  -0.14466 
 C                    -1.06973   0.00053   0.1305 
 N                    -1.5127    1.08716   0.65589 
 C                    -2.8894    1.21016   0.5252 
 C                    -3.46981   0.13243  -0.11735 
 S                    -2.2882   -1.00828  -0.5103 
 H                     3.95919  -1.82372   0.13902 
 H                     2.00642  -3.26356   0.49479 
 H                     2.46352   2.55332   0.99591 
 H                     2.93763   2.75907  -0.78115 
 H                     1.61808   3.66096  -0.02276 
 H                     3.60667   0.60927  -0.38153 
 H                    -3.40918   2.06421   0.89142 
 H                    -4.53833  -0.03955  -0.24551 
 
 ITRead=  0  0  0  0  0  0  0  0  0  0  0  0  0  0  0  0  0  0  0  0
 ITRead=  0
 MicOpt= -1 -1 -1 -1 -1 -1 -1 -1 -1 -1 -1 -1 -1 -1 -1 -1 -1 -1 -1 -1
 MicOpt= -1
 NAtoms=     21 NQM=       21 NQMF=       0 NMMI=      0 NMMIF=      0
                NMic=       0 NMicF=      0.
                    Isotopes and Nuclear Properties:
 (Nuclear quadrupole moments (NQMom) in fm**2, nuclear magnetic moments (NMagM)
  in nuclear magnetons)

  Atom         1           2           3           4           5           6           7           8           9          10
 IAtWgt=          12          12          14          12          12          16          12          12          12          14
 AtmWgt=  12.0000000  12.0000000  14.0030740  12.0000000  12.0000000  15.9949146  12.0000000  12.0000000  12.0000000  14.0030740
 NucSpn=           0           0           2           0           0           0           0           0           0           2
 AtZEff=  -0.0000000  -0.0000000  -0.0000000  -0.0000000  -0.0000000  -0.0000000  -0.0000000  -0.0000000  -0.0000000  -0.0000000
 NQMom=    0.0000000   0.0000000   2.0440000   0.0000000   0.0000000   0.0000000   0.0000000   0.0000000   0.0000000   2.0440000
 NMagM=    0.0000000   0.0000000   0.4037610   0.0000000   0.0000000   0.0000000   0.0000000   0.0000000   0.0000000   0.4037610
 AtZNuc=   6.0000000   6.0000000   7.0000000   6.0000000   6.0000000   8.0000000   6.0000000   6.0000000   6.0000000   7.0000000

  Atom        11          12          13          14          15          16          17          18          19          20
 IAtWgt=          12          12          32           1           1           1           1           1           1           1
 AtmWgt=  12.0000000  12.0000000  31.9720718   1.0078250   1.0078250   1.0078250   1.0078250   1.0078250   1.0078250   1.0078250
 NucSpn=           0           0           0           1           1           1           1           1           1           1
 AtZEff=  -0.0000000  -0.0000000  -0.0000000  -0.0000000  -0.0000000  -0.0000000  -0.0000000  -0.0000000  -0.0000000  -0.0000000
 NQMom=    0.0000000   0.0000000   0.0000000   0.0000000   0.0000000   0.0000000   0.0000000   0.0000000   0.0000000   0.0000000
 NMagM=    0.0000000   0.0000000   0.0000000   2.7928460   2.7928460   2.7928460   2.7928460   2.7928460   2.7928460   2.7928460
 AtZNuc=   6.0000000   6.0000000  16.0000000   1.0000000   1.0000000   1.0000000   1.0000000   1.0000000   1.0000000   1.0000000

  Atom        21
 IAtWgt=           1
 AtmWgt=   1.0078250
 NucSpn=           1
 AtZEff=  -0.0000000
 NQMom=    0.0000000
 NMagM=    2.7928460
 AtZNuc=   1.0000000
 Leave Link  101 at Fri Jul 24 15:52:06 2020, MaxMem=  4026531840 cpu:               2.7 elap:               0.4
 (Enter /opt/ohpc/pub/libs/gaussian/g16-A.03/sandybridge/g16/l103.exe)

 GradGradGradGradGradGradGradGradGradGradGradGradGradGradGradGradGradGrad
 Berny optimization.
 Initialization pass.
                           ----------------------------
                           !    Initial Parameters    !
                           ! (Angstroms and Degrees)  !
 --------------------------                            --------------------------
 ! Name  Definition              Value          Derivative Info.                !
 --------------------------------------------------------------------------------
 ! R1    R(1,2)                  1.4617         estimate D2E/DX2                !
 ! R2    R(1,8)                  1.4047         estimate D2E/DX2                !
 ! R3    R(1,14)                 1.0726         estimate D2E/DX2                !
 ! R4    R(2,3)                  1.2936         estimate D2E/DX2                !
 ! R5    R(2,15)                 1.0378         estimate D2E/DX2                !
 ! R6    R(3,4)                  1.3991         estimate D2E/DX2                !
 ! R7    R(4,5)                  1.4272         estimate D2E/DX2                !
 ! R8    R(4,9)                  1.4985         estimate D2E/DX2                !
 ! R9    R(5,6)                  1.2994         estimate D2E/DX2                !
 ! R10   R(5,8)                  1.3726         estimate D2E/DX2                !
 ! R11   R(6,7)                  1.4826         estimate D2E/DX2                !
 ! R12   R(7,16)                 1.0821         estimate D2E/DX2                !
 ! R13   R(7,17)                 1.1507         estimate D2E/DX2                !
 ! R14   R(7,18)                 1.0424         estimate D2E/DX2                !
 ! R15   R(8,19)                 1.0954         estimate D2E/DX2                !
 ! R16   R(9,10)                 1.2857         estimate D2E/DX2                !
 ! R17   R(9,13)                 1.7067         estimate D2E/DX2                !
 ! R18   R(10,11)                1.3884         estimate D2E/DX2                !
 ! R19   R(11,12)                1.3825         estimate D2E/DX2                !
 ! R20   R(11,20)                1.0648         estimate D2E/DX2                !
 ! R21   R(12,13)                1.6887         estimate D2E/DX2                !
 ! R22   R(12,21)                1.0898         estimate D2E/DX2                !
 ! A1    A(2,1,8)              118.1584         estimate D2E/DX2                !
 ! A2    A(2,1,14)             118.6731         estimate D2E/DX2                !
 ! A3    A(8,1,14)             123.156          estimate D2E/DX2                !
 ! A4    A(1,2,3)              120.4749         estimate D2E/DX2                !
 ! A5    A(1,2,15)             117.2727         estimate D2E/DX2                !
 ! A6    A(3,2,15)             122.2407         estimate D2E/DX2                !
 ! A7    A(2,3,4)              122.4079         estimate D2E/DX2                !
 ! A8    A(3,4,5)              118.9854         estimate D2E/DX2                !
 ! A9    A(3,4,9)              115.8018         estimate D2E/DX2                !
 ! A10   A(5,4,9)              125.1217         estimate D2E/DX2                !
 ! A11   A(4,5,6)              115.1706         estimate D2E/DX2                !
 ! A12   A(4,5,8)              119.6142         estimate D2E/DX2                !
 ! A13   A(6,5,8)              125.2143         estimate D2E/DX2                !
 ! A14   A(5,6,7)              116.1679         estimate D2E/DX2                !
 ! A15   A(6,7,16)             113.0025         estimate D2E/DX2                !
 ! A16   A(6,7,17)             106.2257         estimate D2E/DX2                !
 ! A17   A(6,7,18)             109.4014         estimate D2E/DX2                !
 ! A18   A(16,7,17)            111.932          estimate D2E/DX2                !
 ! A19   A(16,7,18)            108.6638         estimate D2E/DX2                !
 ! A20   A(17,7,18)            107.4463         estimate D2E/DX2                !
 ! A21   A(1,8,5)              120.2881         estimate D2E/DX2                !
 ! A22   A(1,8,19)             118.3603         estimate D2E/DX2                !
 ! A23   A(5,8,19)             121.2054         estimate D2E/DX2                !
 ! A24   A(4,9,10)             125.7245         estimate D2E/DX2                !
 ! A25   A(4,9,13)             120.2549         estimate D2E/DX2                !
 ! A26   A(10,9,13)            114.0175         estimate D2E/DX2                !
 ! A27   A(9,10,11)            112.2128         estimate D2E/DX2                !
 ! A28   A(10,11,12)           113.0165         estimate D2E/DX2                !
 ! A29   A(10,11,20)           121.5173         estimate D2E/DX2                !
 ! A30   A(12,11,20)           125.4657         estimate D2E/DX2                !
 ! A31   A(11,12,13)           109.9365         estimate D2E/DX2                !
 ! A32   A(11,12,21)           126.1068         estimate D2E/DX2                !
 ! A33   A(13,12,21)           123.5084         estimate D2E/DX2                !
 ! A34   A(9,13,12)             90.7392         estimate D2E/DX2                !
 ! D1    D(8,1,2,3)             -1.9032         estimate D2E/DX2                !
 ! D2    D(8,1,2,15)           176.8793         estimate D2E/DX2                !
 ! D3    D(14,1,2,3)           179.3449         estimate D2E/DX2                !
 ! D4    D(14,1,2,15)           -1.8727         estimate D2E/DX2                !
 ! D5    D(2,1,8,5)             -0.4874         estimate D2E/DX2                !
 ! D6    D(2,1,8,19)          -176.1443         estimate D2E/DX2                !
 ! D7    D(14,1,8,5)           178.2047         estimate D2E/DX2                !
 ! D8    D(14,1,8,19)            2.5477         estimate D2E/DX2                !
 ! D9    D(1,2,3,4)              3.1358         estimate D2E/DX2                !
 ! D10   D(15,2,3,4)          -175.5847         estimate D2E/DX2                !
 ! D11   D(2,3,4,5)             -1.9808         estimate D2E/DX2                !
 ! D12   D(2,3,4,9)           -178.6881         estimate D2E/DX2                !
 ! D13   D(3,4,5,6)            179.2063         estimate D2E/DX2                !
 ! D14   D(3,4,5,8)             -0.4704         estimate D2E/DX2                !
 ! D15   D(9,4,5,6)             -4.4185         estimate D2E/DX2                !
 ! D16   D(9,4,5,8)            175.9048         estimate D2E/DX2                !
 ! D17   D(3,4,9,10)           137.56           estimate D2E/DX2                !
 ! D18   D(3,4,9,13)           -41.7675         estimate D2E/DX2                !
 ! D19   D(5,4,9,10)           -38.9183         estimate D2E/DX2                !
 ! D20   D(5,4,9,13)           141.7542         estimate D2E/DX2                !
 ! D21   D(4,5,6,7)            146.9803         estimate D2E/DX2                !
 ! D22   D(8,5,6,7)            -33.3637         estimate D2E/DX2                !
 ! D23   D(4,5,8,1)              1.5867         estimate D2E/DX2                !
 ! D24   D(4,5,8,19)           177.1182         estimate D2E/DX2                !
 ! D25   D(6,5,8,1)           -178.0552         estimate D2E/DX2                !
 ! D26   D(6,5,8,19)            -2.5237         estimate D2E/DX2                !
 ! D27   D(5,6,7,16)           -42.7258         estimate D2E/DX2                !
 ! D28   D(5,6,7,17)            80.3772         estimate D2E/DX2                !
 ! D29   D(5,6,7,18)          -163.9306         estimate D2E/DX2                !
 ! D30   D(4,9,10,11)          178.0514         estimate D2E/DX2                !
 ! D31   D(13,9,10,11)          -2.5846         estimate D2E/DX2                !
 ! D32   D(4,9,13,12)         -177.8595         estimate D2E/DX2                !
 ! D33   D(10,9,13,12)           2.7382         estimate D2E/DX2                !
 ! D34   D(9,10,11,12)           0.9713         estimate D2E/DX2                !
 ! D35   D(9,10,11,20)        -178.7817         estimate D2E/DX2                !
 ! D36   D(10,11,12,13)          1.0551         estimate D2E/DX2                !
 ! D37   D(10,11,12,21)        173.5503         estimate D2E/DX2                !
 ! D38   D(20,11,12,13)       -179.2034         estimate D2E/DX2                !
 ! D39   D(20,11,12,21)         -6.7082         estimate D2E/DX2                !
 ! D40   D(11,12,13,9)          -2.0319         estimate D2E/DX2                !
 ! D41   D(21,12,13,9)        -174.7614         estimate D2E/DX2                !
 --------------------------------------------------------------------------------
 Trust Radius=3.00D-01 FncErr=1.00D-07 GrdErr=1.00D-06 EigMax=2.50D+02 EigMin=1.00D-04
 Number of steps in this run=    107 maximum allowed number of steps=    126.
 GradGradGradGradGradGradGradGradGradGradGradGradGradGradGradGradGradGrad

 Leave Link  103 at Fri Jul 24 15:52:06 2020, MaxMem=  4026531840 cpu:               0.1 elap:               0.0
 (Enter /opt/ohpc/pub/libs/gaussian/g16-A.03/sandybridge/g16/l202.exe)
                          Input orientation:                          
 ---------------------------------------------------------------------
 Center     Atomic      Atomic             Coordinates (Angstroms)
 Number     Number       Type             X           Y           Z
 ---------------------------------------------------------------------
      1          6           0        2.979101   -1.388284    0.119383
      2          6           0        1.823015   -2.252376    0.350341
      3          7           0        0.626115   -1.761702    0.346925
      4          6           0        0.368137   -0.416141    0.063380
      5          6           0        1.465795    0.459733   -0.191493
      6          8           0        1.141078    1.688454   -0.462175
      7          6           0        2.089704    2.731584   -0.003777
      8          6           0        2.747862   -0.028133   -0.144661
      9          6           0       -1.069732    0.000528    0.130496
     10          7           0       -1.512699    1.087164    0.655894
     11          6           0       -2.889404    1.210160    0.525199
     12          6           0       -3.469807    0.132428   -0.117347
     13         16           0       -2.288197   -1.008284   -0.510299
     14          1           0        3.959193   -1.823716    0.139019
     15          1           0        2.006416   -3.263555    0.494790
     16          1           0        2.463522    2.553320    0.995909
     17          1           0        2.937634    2.759072   -0.781152
     18          1           0        1.618080    3.660963   -0.022758
     19          1           0        3.606666    0.609273   -0.381528
     20          1           0       -3.409182    2.064215    0.891416
     21          1           0       -4.538328   -0.039549   -0.245512
 ---------------------------------------------------------------------
                    Distance matrix (angstroms):
                    1          2          3          4          5
     1  C    0.000000
     2  C    1.461688   0.000000
     3  N    2.393274   1.293577   0.000000
     4  C    2.786634   2.360249   1.399101   0.000000
     5  C    2.408715   2.788678   2.435104   1.427224   0.000000
     6  O    3.630820   4.081098   3.580978   2.302817   1.299410
     7  C    4.216575   5.003637   4.738639   3.588381   2.363431
     8  C    1.404707   2.459192   2.783654   2.420108   1.372553
     9  C    4.280417   3.673131   2.455238   1.498528   2.596814
    10  N    5.156739   4.729998   3.575755   2.479626   3.159614
    11  C    6.430859   5.850352   4.606801   3.670110   4.477114
    12  C    6.630009   5.824087   4.536502   3.881160   4.946998
    13  S    5.318395   4.380700   3.129806   2.781340   4.043410
    14  H    1.072645   2.188987   3.340132   3.857807   3.397118
    15  H    2.145621   1.037779   2.045155   3.313282   3.824412
    16  H    4.070671   4.890984   4.734623   3.752059   2.605473
    17  H    4.244201   5.257115   5.201257   4.171034   2.793021
    18  H    5.231393   5.928641   5.525030   4.265273   3.209289
    19  H    2.152901   3.450519   3.877609   3.426002   2.154485
    20  H    7.302462   6.804528   5.587283   4.594121   5.245232
    21  H    7.646174   6.761533   5.476154   4.930582   6.025089
                    6          7          8          9         10
     6  O    0.000000
     7  C    1.482613   0.000000
     8  C    2.372602   2.840609   0.000000
     9  C    2.843947   4.178365   3.827605   0.000000
    10  N    2.941795   4.014547   4.476288   1.285706   0.000000
    11  C    4.177135   5.233170   5.810409   2.220407   1.388354
    12  C    4.878564   6.138133   6.219802   2.416440   2.310778
    13  S    4.362870   5.780069   5.143567   1.706745   2.520378
    14  H    4.542966   4.926067   2.184471   5.349582   6.219484
    15  H    5.117322   6.016411   3.380325   4.499959   5.598114
    16  H    2.150084   1.082077   2.836485   4.444049   4.251536
    17  H    2.115557   1.150675   2.865248   4.949712   4.966472
    18  H    2.076393   1.042370   3.860142   4.543853   4.109354
    19  H    2.692631   2.635920   1.095416   4.743568   5.245238
    20  H    4.762171   5.611105   6.584874   3.211048   2.146333
    21  H    5.940420   7.188075   7.286897   3.489147   3.352081
                   11         12         13         14         15
    11  C    0.000000
    12  C    1.382476   0.000000
    13  S    2.520952   1.688738   0.000000
    14  H    7.500455   7.686499   6.333753   0.000000
    15  H    6.632051   6.472745   4.953802   2.452152   0.000000
    16  H    5.538905   6.504187   6.126379   4.704225   5.856287
    17  H    6.169283   6.956666   6.447918   4.784584   6.226334
    18  H    5.159855   6.192423   6.107255   5.965625   6.954683
    19  H    6.586512   7.097439   6.114122   2.512903   4.281066
    20  H    1.064751   2.180156   3.558323   8.365110   7.607309
    21  H    2.207876   1.089835   2.464072   8.691316   7.333208
                   16         17         18         19         20
    16  H    0.000000
    17  H    1.850692   0.000000
    18  H    1.726073   1.769122   0.000000
    19  H    2.642618   2.286687   3.660055   0.000000
    20  H    5.893963   6.600181   5.353380   7.277319   0.000000
    21  H    7.569016   8.000575   7.186429   8.171927   2.644504
                   21
    21  H    0.000000
 Stoichiometry    C9H8N2OS
 Framework group  C1[X(C9H8N2OS)]
 Deg. of freedom    57
 Full point group                 C1      NOp   1
 Largest Abelian subgroup         C1      NOp   1
 Largest concise Abelian subgroup C1      NOp   1
                         Standard orientation:                         
 ---------------------------------------------------------------------
 Center     Atomic      Atomic             Coordinates (Angstroms)
 Number     Number       Type             X           Y           Z
 ---------------------------------------------------------------------
      1          6           0        2.993963   -1.392748    0.101000
      2          6           0        1.842949   -2.262306    0.336727
      3          7           0        0.643724   -1.777333    0.338132
      4          6           0        0.378196   -0.433045    0.055521
      5          6           0        1.470630    0.448015   -0.203885
      6          8           0        1.138973    1.675149   -0.473351
      7          6           0        2.084478    2.722829   -0.018901
      8          6           0        2.755183   -0.033740   -0.162220
      9          6           0       -1.061355   -0.023215    0.128442
     10          7           0       -1.507349    1.061356    0.655542
     11          6           0       -2.885144    1.177787    0.530431
     12          6           0       -3.463017    0.097238   -0.109659
     13         16           0       -2.277598   -1.037881   -0.507310
     14          1           0        3.976187   -1.823509    0.116691
     15          1           0        2.031745   -3.272586    0.480517
     16          1           0        2.463198    2.546451    0.979274
     17          1           0        2.929103    2.754269   -0.799716
     18          1           0        1.608364    3.649951   -0.036045
     19          1           0        3.609975    0.607720   -0.402629
     20          1           0       -3.407488    2.029398    0.898683
     21          1           0       -4.531219   -0.079835   -0.233467
 ---------------------------------------------------------------------
 Rotational constants (GHZ):           1.2360648           0.5542902           0.3998632
 Leave Link  202 at Fri Jul 24 15:52:06 2020, MaxMem=  4026531840 cpu:               0.1 elap:               0.0
 (Enter /opt/ohpc/pub/libs/gaussian/g16-A.03/sandybridge/g16/l301.exe)
 Standard basis: CC-pVDZ (5D, 7F)
 Ernie: Thresh=  0.10000D-02 Tol=  0.10000D-05 Strict=F.
 Ernie:  34 primitive shells out of 354 were deleted.
 There are   239 symmetry adapted cartesian basis functions of A   symmetry.
 There are   226 symmetry adapted basis functions of A   symmetry.
   226 basis functions,   523 primitive gaussians,   239 cartesian basis functions
    50 alpha electrons       50 beta electrons
       nuclear repulsion energy       844.8152646183 Hartrees.
 IExCor=32609 DFT=T Ex+Corr=LC-wPBE ExCW=0 ScaHFX=  1.000000
 ScaDFX=  1.000000  0.000000  1.000000  1.000000 ScalE2=  1.000000  1.000000
 IRadAn=      5 IRanWt=     -1 IRanGd=            0 ICorTp=0 IEmpDi=  4
 HFx  wShort=  0.000000 wLong=  0.097700 cFull=  0.000000 cShort=  0.000000 cLong=  1.000000
 DFx  wShort=  0.000000 wLong=  0.097700 cFull=  0.000000 cShort=  0.000000 cLong=  1.000000
 NAtoms=   21 NActive=   21 NUniq=   21 SFac= 1.00D+00 NAtFMM=   60 NAOKFM=F Big=F
 Integral buffers will be    131072 words long.
 Raffenetti 2 integral format.
 Two-electron integral symmetry is turned on.
 Leave Link  301 at Fri Jul 24 15:52:06 2020, MaxMem=  4026531840 cpu:               0.5 elap:               0.1
 (Enter /opt/ohpc/pub/libs/gaussian/g16-A.03/sandybridge/g16/l302.exe)
 NPDir=0 NMtPBC=     1 NCelOv=     1 NCel=       1 NClECP=     1 NCelD=      1
         NCelK=      1 NCelE2=     1 NClLst=     1 CellRange=     0.0.
 One-electron integrals computed using PRISM.
 One-electron integral symmetry used in STVInt
 NBasis=   226 RedAO= T EigKep=  6.82D-04  NBF=   226
 NBsUse=   226 1.00D-06 EigRej= -1.00D+00 NBFU=   226
 Precomputing XC quadrature grid using
 IXCGrd= 4 IRadAn=           5 IRanWt=          -1 IRanGd=           0 AccXCQ= 0.00D+00.
 Generated NRdTot=       0 NPtTot=           0 NUsed=           0 NTot=          32
 NSgBfM=   239   239   239   239   239 MxSgAt=    21 MxSgA2=    21.
 Leave Link  302 at Fri Jul 24 15:52:06 2020, MaxMem=  4026531840 cpu:               1.9 elap:               0.3
 (Enter /opt/ohpc/pub/libs/gaussian/g16-A.03/sandybridge/g16/l303.exe)
 DipDrv:  MaxL=1.
 Leave Link  303 at Fri Jul 24 15:52:06 2020, MaxMem=  4026531840 cpu:               0.3 elap:               0.1
 (Enter /opt/ohpc/pub/libs/gaussian/g16-A.03/sandybridge/g16/l401.exe)
 ExpMin= 1.22D-01 ExpMax= 1.11D+05 ExpMxC= 1.07D+03 IAcc=3 IRadAn=         5 AccDes= 0.00D+00
 Harris functional with IExCor=32609 and IRadAn=       5 diagonalized for initial guess.
 HarFok:  IExCor=32609 AccDes= 0.00D+00 IRadAn=         5 IDoV= 1 UseB2=F ITyADJ=14
 ICtDFT=  3500011 ScaDFX=  1.000000  1.000000  1.000000  1.000000
 FoFCou: FMM=F IPFlag=           0 FMFlag=      100000 FMFlg1=           0
         NFxFlg=           0 DoJE=T BraDBF=F KetDBF=T FulRan=T
         wScrn=  0.000000 ICntrl=       500 IOpCl=  0 I1Cent=   200000004 NGrid=           0
         NMat0=    1 NMatS0=      1 NMatT0=    0 NMatD0=    1 NMtDS0=    0 NMtDT0=    0
 Petite list used in FoFCou.
 Harris En= -930.034715952767    
 JPrj=0 DoOrth=F DoCkMO=F.
 Initial guess <Sx>= 0.0000 <Sy>= 0.0000 <Sz>= 0.0000 <S**2>=-0.0000 S=-0.0000
 Leave Link  401 at Fri Jul 24 15:52:08 2020, MaxMem=  4026531840 cpu:              10.4 elap:               1.3
 (Enter /opt/ohpc/pub/libs/gaussian/g16-A.03/sandybridge/g16/l502.exe)
 Integral symmetry usage will be decided dynamically.
 UHF open shell SCF:
 Using DIIS extrapolation, IDIIS=  1040.
 NGot=  4026531840 LenX=  4026413099 LenY=  4026355537
 Requested convergence on RMS density matrix=1.00D-08 within 128 cycles.
 Requested convergence on MAX density matrix=1.00D-06.
 Requested convergence on             energy=1.00D-06.
 No special actions if energy rises.
 Fock matrices will be formed incrementally for  20 cycles.
 Integral accuracy reduced to 1.0D-05 until final iterations.

 Cycle   1  Pass 0  IDiag  1:
 FoFJK:  IHMeth= 1 ICntrl=       0 DoSepK=T KAlg= 0 I1Cent=           0 FoldK=F
 IRaf=         1 NMat=       1 IRICut=       1 DoRegI=T DoRafI=F ISym2E= 0 IDoP0=0 IntGTp=1.
 FoFCou: FMM=F IPFlag=           0 FMFlag=      100000 FMFlg1=           0
         NFxFlg=           0 DoJE=T BraDBF=F KetDBF=F FulRan=T
         wScrn=  0.000000 ICntrl=       500 IOpCl=  0 I1Cent=           0 NGrid=           0
         NMat0=    1 NMatS0=      1 NMatT0=    0 NMatD0=    1 NMtDS0=    0 NMtDT0=    0
 Symmetry not used in FoFCou.
 E= -929.766351325466    
 DIIS: error= 1.53D-02 at cycle   1 NSaved=   1.
 NSaved= 1 IEnMin= 1 EnMin= -929.766351325466     IErMin= 1 ErrMin= 1.53D-02
 ErrMax= 1.53D-02  0.00D+00 EMaxC= 1.00D-01 BMatC= 7.94D-01 BMatP= 7.94D-01
 IDIUse=3 WtCom= 8.47D-01 WtEn= 1.53D-01
 Coeff-Com:  0.100D+01
 Coeff-En:   0.100D+01
 Coeff:      0.100D+01
 Gap=     0.255 Goal=   None    Shift=    0.000
 Gap=     0.255 Goal=   None    Shift=    0.000
 GapD=    0.255 DampG=1.000 DampE=0.500 DampFc=0.5000 IDamp=-1.
 Damping current iteration by 5.00D-01
 RMSDP=5.77D-03 MaxDP=1.61D-01              OVMax= 2.69D-01

 Cycle   2  Pass 0  IDiag  1:
 RMSU=  2.88D-03    CP:  9.93D-01
 E= -929.828146428522     Delta-E=       -0.061795103056 Rises=F Damp=T
 DIIS: error= 9.63D-03 at cycle   2 NSaved=   2.
 NSaved= 2 IEnMin= 2 EnMin= -929.828146428522     IErMin= 2 ErrMin= 9.63D-03
 ErrMax= 9.63D-03  0.00D+00 EMaxC= 1.00D-01 BMatC= 1.22D-01 BMatP= 7.94D-01
 IDIUse=3 WtCom= 9.04D-01 WtEn= 9.63D-02
 Coeff-Com:  0.220D+00 0.780D+00
 Coeff-En:   0.346D+00 0.654D+00
 Coeff:      0.232D+00 0.768D+00
 Gap=     0.271 Goal=   None    Shift=    0.000
 Gap=     0.271 Goal=   None    Shift=    0.000
 RMSDP=1.74D-03 MaxDP=4.52D-02 DE=-6.18D-02 OVMax= 2.43D-01

 Cycle   3  Pass 0  IDiag  1:
 RMSU=  1.52D-03    CP:  9.90D-01  7.07D-01
 E= -929.970441963235     Delta-E=       -0.142295534713 Rises=F Damp=F
 DIIS: error= 8.18D-03 at cycle   3 NSaved=   3.
 NSaved= 3 IEnMin= 3 EnMin= -929.970441963235     IErMin= 3 ErrMin= 8.18D-03
 ErrMax= 8.18D-03  0.00D+00 EMaxC= 1.00D-01 BMatC= 1.03D-01 BMatP= 1.22D-01
 IDIUse=3 WtCom= 9.18D-01 WtEn= 8.18D-02
 Coeff-Com:  0.812D-01 0.472D+00 0.447D+00
 Coeff-En:   0.000D+00 0.000D+00 0.100D+01
 Coeff:      0.746D-01 0.433D+00 0.492D+00
 Gap=     0.218 Goal=   None    Shift=    0.000
 Gap=     0.218 Goal=   None    Shift=    0.000
 RMSDP=8.15D-04 MaxDP=3.58D-02 DE=-1.42D-01 OVMax= 5.64D-02

 Cycle   4  Pass 0  IDiag  1:
 RMSU=  4.90D-04    CP:  9.92D-01  7.81D-01  5.97D-01
 E= -929.993378036556     Delta-E=       -0.022936073321 Rises=F Damp=F
 DIIS: error= 2.48D-03 at cycle   4 NSaved=   4.
 NSaved= 4 IEnMin= 4 EnMin= -929.993378036556     IErMin= 4 ErrMin= 2.48D-03
 ErrMax= 2.48D-03  0.00D+00 EMaxC= 1.00D-01 BMatC= 9.78D-03 BMatP= 1.03D-01
 IDIUse=3 WtCom= 9.75D-01 WtEn= 2.48D-02
 Coeff-Com:  0.204D-01 0.120D+00 0.257D+00 0.602D+00
 Coeff-En:   0.000D+00 0.000D+00 0.463D-01 0.954D+00
 Coeff:      0.199D-01 0.117D+00 0.252D+00 0.611D+00
 Gap=     0.212 Goal=   None    Shift=    0.000
 Gap=     0.212 Goal=   None    Shift=    0.000
 RMSDP=2.16D-04 MaxDP=8.86D-03 DE=-2.29D-02 OVMax= 1.01D-02

 Cycle   5  Pass 0  IDiag  1:
 RMSU=  1.50D-04    CP:  9.92D-01  7.67D-01  6.62D-01  7.70D-01
 E= -929.995390466316     Delta-E=       -0.002012429760 Rises=F Damp=F
 DIIS: error= 6.04D-04 at cycle   5 NSaved=   5.
 NSaved= 5 IEnMin= 5 EnMin= -929.995390466316     IErMin= 5 ErrMin= 6.04D-04
 ErrMax= 6.04D-04  0.00D+00 EMaxC= 1.00D-01 BMatC= 8.74D-04 BMatP= 9.78D-03
 IDIUse=3 WtCom= 9.94D-01 WtEn= 6.04D-03
 Coeff-Com:  0.580D-02 0.157D-01 0.843D-01 0.325D+00 0.569D+00
 Coeff-En:   0.000D+00 0.000D+00 0.000D+00 0.000D+00 0.100D+01
 Coeff:      0.576D-02 0.156D-01 0.838D-01 0.323D+00 0.572D+00
 Gap=     0.212 Goal=   None    Shift=    0.000
 Gap=     0.212 Goal=   None    Shift=    0.000
 RMSDP=7.57D-05 MaxDP=3.08D-03 DE=-2.01D-03 OVMax= 3.85D-03

 Cycle   6  Pass 0  IDiag  1:
 RMSU=  5.79D-05    CP:  9.92D-01  7.64D-01  6.66D-01  8.18D-01  7.24D-01
 E= -929.995574812966     Delta-E=       -0.000184346650 Rises=F Damp=F
 DIIS: error= 2.20D-04 at cycle   6 NSaved=   6.
 NSaved= 6 IEnMin= 6 EnMin= -929.995574812966     IErMin= 6 ErrMin= 2.20D-04
 ErrMax= 2.20D-04  0.00D+00 EMaxC= 1.00D-01 BMatC= 1.12D-04 BMatP= 8.74D-04
 IDIUse=3 WtCom= 9.98D-01 WtEn= 2.20D-03
 Coeff-Com:  0.161D-02-0.832D-02 0.137D-01 0.104D+00 0.319D+00 0.570D+00
 Coeff-En:   0.000D+00 0.000D+00 0.000D+00 0.000D+00 0.289D-01 0.971D+00
 Coeff:      0.161D-02-0.830D-02 0.137D-01 0.104D+00 0.318D+00 0.571D+00
 Gap=     0.212 Goal=   None    Shift=    0.000
 Gap=     0.212 Goal=   None    Shift=    0.000
 RMSDP=3.06D-05 MaxDP=1.15D-03 DE=-1.84D-04 OVMax= 1.55D-03

 Cycle   7  Pass 0  IDiag  1:
 RMSU=  2.10D-05    CP:  9.92D-01  7.61D-01  6.71D-01  8.27D-01  7.87D-01
                    CP:  7.25D-01
 E= -929.995600375595     Delta-E=       -0.000025562629 Rises=F Damp=F
 DIIS: error= 8.73D-05 at cycle   7 NSaved=   7.
 NSaved= 7 IEnMin= 7 EnMin= -929.995600375595     IErMin= 7 ErrMin= 8.73D-05
 ErrMax= 8.73D-05  0.00D+00 EMaxC= 1.00D-01 BMatC= 1.45D-05 BMatP= 1.12D-04
 IDIUse=1 WtCom= 1.00D+00 WtEn= 0.00D+00
 Coeff-Com:  0.600D-03-0.681D-02 0.791D-04 0.273D-01 0.118D+00 0.321D+00
 Coeff-Com:  0.540D+00
 Coeff:      0.600D-03-0.681D-02 0.791D-04 0.273D-01 0.118D+00 0.321D+00
 Coeff:      0.540D+00
 Gap=     0.212 Goal=   None    Shift=    0.000
 Gap=     0.212 Goal=   None    Shift=    0.000
 RMSDP=9.91D-06 MaxDP=2.83D-04 DE=-2.56D-05 OVMax= 6.11D-04

 Initial convergence to 1.0D-05 achieved.  Increase integral accuracy.
 Cycle   8  Pass 1  IDiag  1:
 E= -929.995480215738     Delta-E=        0.000120159856 Rises=F Damp=F
 DIIS: error= 4.99D-05 at cycle   1 NSaved=   1.
 NSaved= 1 IEnMin= 1 EnMin= -929.995480215738     IErMin= 1 ErrMin= 4.99D-05
 ErrMax= 4.99D-05  0.00D+00 EMaxC= 1.00D-01 BMatC= 2.00D-06 BMatP= 2.00D-06
 IDIUse=1 WtCom= 1.00D+00 WtEn= 0.00D+00
 Coeff-Com:  0.100D+01
 Coeff:      0.100D+01
 Gap=     0.212 Goal=   None    Shift=    0.000
 Gap=     0.212 Goal=   None    Shift=    0.000
 RMSDP=9.91D-06 MaxDP=2.83D-04 DE= 1.20D-04 OVMax= 4.48D-04

 Cycle   9  Pass 1  IDiag  1:
 RMSU=  2.27D-05    CP:  1.00D+00
 E= -929.995480048616     Delta-E=        0.000000167122 Rises=F Damp=F
 DIIS: error= 4.01D-05 at cycle   2 NSaved=   2.
 NSaved= 2 IEnMin= 1 EnMin= -929.995480215738     IErMin= 2 ErrMin= 4.01D-05
 ErrMax= 4.01D-05  0.00D+00 EMaxC= 1.00D-01 BMatC= 3.05D-06 BMatP= 2.00D-06
 IDIUse=1 WtCom= 1.00D+00 WtEn= 0.00D+00
 Coeff-Com:  0.563D+00 0.437D+00
 Coeff:      0.563D+00 0.437D+00
 Gap=     0.212 Goal=   None    Shift=    0.000
 Gap=     0.212 Goal=   None    Shift=    0.000
 RMSDP=5.10D-06 MaxDP=1.40D-04 DE= 1.67D-07 OVMax= 3.61D-04

 Cycle  10  Pass 1  IDiag  1:
 RMSU=  5.02D-06    CP:  1.00D+00  9.60D-01
 E= -929.995480712988     Delta-E=       -0.000000664372 Rises=F Damp=F
 DIIS: error= 1.01D-05 at cycle   3 NSaved=   3.
 NSaved= 3 IEnMin= 3 EnMin= -929.995480712988     IErMin= 3 ErrMin= 1.01D-05
 ErrMax= 1.01D-05  0.00D+00 EMaxC= 1.00D-01 BMatC= 3.11D-07 BMatP= 2.00D-06
 IDIUse=1 WtCom= 1.00D+00 WtEn= 0.00D+00
 Coeff-Com:  0.659D-01 0.240D+00 0.694D+00
 Coeff:      0.659D-01 0.240D+00 0.694D+00
 Gap=     0.212 Goal=   None    Shift=    0.000
 Gap=     0.212 Goal=   None    Shift=    0.000
 RMSDP=1.85D-06 MaxDP=4.75D-05 DE=-6.64D-07 OVMax= 9.25D-05

 Cycle  11  Pass 1  IDiag  1:
 RMSU=  1.21D-06    CP:  1.00D+00  1.00D+00  8.02D-01
 E= -929.995480778485     Delta-E=       -0.000000065497 Rises=F Damp=F
 DIIS: error= 5.00D-06 at cycle   4 NSaved=   4.
 NSaved= 4 IEnMin= 4 EnMin= -929.995480778485     IErMin= 4 ErrMin= 5.00D-06
 ErrMax= 5.00D-06  0.00D+00 EMaxC= 1.00D-01 BMatC= 6.70D-08 BMatP= 3.11D-07
 IDIUse=1 WtCom= 1.00D+00 WtEn= 0.00D+00
 Coeff-Com: -0.190D-01 0.105D+00 0.430D+00 0.484D+00
 Coeff:     -0.190D-01 0.105D+00 0.430D+00 0.484D+00
 Gap=     0.212 Goal=   None    Shift=    0.000
 Gap=     0.212 Goal=   None    Shift=    0.000
 RMSDP=5.69D-07 MaxDP=2.35D-05 DE=-6.55D-08 OVMax= 3.93D-05

 Cycle  12  Pass 1  IDiag  1:
 RMSU=  4.39D-07    CP:  1.00D+00  1.01D+00  8.20D-01  7.39D-01
 E= -929.995480794100     Delta-E=       -0.000000015615 Rises=F Damp=F
 DIIS: error= 1.12D-06 at cycle   5 NSaved=   5.
 NSaved= 5 IEnMin= 5 EnMin= -929.995480794100     IErMin= 5 ErrMin= 1.12D-06
 ErrMax= 1.12D-06  0.00D+00 EMaxC= 1.00D-01 BMatC= 1.39D-09 BMatP= 6.70D-08
 IDIUse=1 WtCom= 1.00D+00 WtEn= 0.00D+00
 Coeff-Com: -0.102D-01 0.230D-01 0.107D+00 0.170D+00 0.710D+00
 Coeff:     -0.102D-01 0.230D-01 0.107D+00 0.170D+00 0.710D+00
 Gap=     0.212 Goal=   None    Shift=    0.000
 Gap=     0.212 Goal=   None    Shift=    0.000
 RMSDP=1.70D-07 MaxDP=4.47D-06 DE=-1.56D-08 OVMax= 1.34D-05

 Cycle  13  Pass 1  IDiag  1:
 RMSU=  1.29D-07    CP:  1.00D+00  1.01D+00  8.24D-01  8.12D-01  1.13D+00
 E= -929.995480794717     Delta-E=       -0.000000000617 Rises=F Damp=F
 DIIS: error= 3.97D-07 at cycle   6 NSaved=   6.
 NSaved= 6 IEnMin= 6 EnMin= -929.995480794717     IErMin= 6 ErrMin= 3.97D-07
 ErrMax= 3.97D-07  0.00D+00 EMaxC= 1.00D-01 BMatC= 4.32D-10 BMatP= 1.39D-09
 IDIUse=1 WtCom= 1.00D+00 WtEn= 0.00D+00
 Coeff-Com: -0.572D-04-0.154D-01-0.594D-01-0.372D-01 0.357D+00 0.755D+00
 Coeff:     -0.572D-04-0.154D-01-0.594D-01-0.372D-01 0.357D+00 0.755D+00
 Gap=     0.212 Goal=   None    Shift=    0.000
 Gap=     0.212 Goal=   None    Shift=    0.000
 RMSDP=1.14D-07 MaxDP=2.18D-06 DE=-6.17D-10 OVMax= 1.22D-05

 Cycle  14  Pass 1  IDiag  1:
 RMSU=  5.07D-08    CP:  1.00D+00  1.01D+00  8.24D-01  8.63D-01  1.30D+00
                    CP:  9.11D-01
 E= -929.995480794942     Delta-E=       -0.000000000224 Rises=F Damp=F
 DIIS: error= 2.76D-07 at cycle   7 NSaved=   7.
 NSaved= 7 IEnMin= 7 EnMin= -929.995480794942     IErMin= 7 ErrMin= 2.76D-07
 ErrMax= 2.76D-07  0.00D+00 EMaxC= 1.00D-01 BMatC= 9.35D-11 BMatP= 4.32D-10
 IDIUse=1 WtCom= 1.00D+00 WtEn= 0.00D+00
 Coeff-Com:  0.130D-02-0.123D-01-0.502D-01-0.446D-01 0.115D+00 0.441D+00
 Coeff-Com:  0.550D+00
 Coeff:      0.130D-02-0.123D-01-0.502D-01-0.446D-01 0.115D+00 0.441D+00
 Coeff:      0.550D+00
 Gap=     0.212 Goal=   None    Shift=    0.000
 Gap=     0.212 Goal=   None    Shift=    0.000
 RMSDP=3.67D-08 MaxDP=8.39D-07 DE=-2.24D-10 OVMax= 3.20D-06

 Cycle  15  Pass 1  IDiag  1:
 RMSU=  2.15D-08    CP:  1.00D+00  1.01D+00  8.23D-01  8.78D-01  1.34D+00
                    CP:  1.01D+00  8.26D-01
 E= -929.995480794953     Delta-E=       -0.000000000011 Rises=F Damp=F
 DIIS: error= 6.45D-08 at cycle   8 NSaved=   8.
 NSaved= 8 IEnMin= 8 EnMin= -929.995480794953     IErMin= 8 ErrMin= 6.45D-08
 ErrMax= 6.45D-08  0.00D+00 EMaxC= 1.00D-01 BMatC= 9.74D-12 BMatP= 9.35D-11
 IDIUse=1 WtCom= 1.00D+00 WtEn= 0.00D+00
 Coeff-Com:  0.699D-03-0.475D-02-0.195D-01-0.189D-01 0.172D-01 0.144D+00
 Coeff-Com:  0.302D+00 0.580D+00
 Coeff:      0.699D-03-0.475D-02-0.195D-01-0.189D-01 0.172D-01 0.144D+00
 Coeff:      0.302D+00 0.580D+00
 Gap=     0.212 Goal=   None    Shift=    0.000
 Gap=     0.212 Goal=   None    Shift=    0.000
 RMSDP=1.10D-08 MaxDP=2.83D-07 DE=-1.14D-11 OVMax= 9.36D-07

 Cycle  16  Pass 1  IDiag  1:
 RMSU=  7.92D-09    CP:  1.00D+00  1.01D+00  8.24D-01  8.79D-01  1.35D+00
                    CP:  1.03D+00  9.37D-01  8.75D-01
 E= -929.995480794953     Delta-E=       -0.000000000000 Rises=F Damp=F
 DIIS: error= 2.41D-08 at cycle   9 NSaved=   9.
 NSaved= 9 IEnMin= 9 EnMin= -929.995480794953     IErMin= 9 ErrMin= 2.41D-08
 ErrMax= 2.41D-08  0.00D+00 EMaxC= 1.00D-01 BMatC= 9.65D-13 BMatP= 9.74D-12
 IDIUse=1 WtCom= 1.00D+00 WtEn= 0.00D+00
 Coeff-Com:  0.121D-03-0.355D-03-0.130D-02-0.160D-02-0.700D-02 0.426D-02
 Coeff-Com:  0.582D-01 0.249D+00 0.699D+00
 Coeff:      0.121D-03-0.355D-03-0.130D-02-0.160D-02-0.700D-02 0.426D-02
 Coeff:      0.582D-01 0.249D+00 0.699D+00
 Gap=     0.212 Goal=   None    Shift=    0.000
 Gap=     0.212 Goal=   None    Shift=    0.000
 RMSDP=5.12D-09 MaxDP=1.36D-07 DE=-4.55D-13 OVMax= 6.23D-07

 SCF Done:  E(ULC-wPBE) =  -929.995480795     A.U. after   16 cycles
            NFock= 16  Conv=0.51D-08     -V/T= 2.0042
 <Sx>= 0.0000 <Sy>= 0.0000 <Sz>= 0.0000 <S**2>=-0.0000 S=-0.0000
 <L.S>= 0.000000000000E+00
 KE= 9.261428281652D+02 PE=-3.875742970325D+03 EE= 1.174789396747D+03
 Annihilation of the first spin contaminant:
 S**2 before annihilation    -0.0000,   after     0.0000
 Leave Link  502 at Fri Jul 24 15:53:13 2020, MaxMem=  4026531840 cpu:             521.1 elap:              65.6
 (Enter /opt/ohpc/pub/libs/gaussian/g16-A.03/sandybridge/g16/l601.exe)
 Copying SCF densities to generalized density rwf, IOpCl= 1 IROHF=0.

 **********************************************************************

            Population analysis using the SCF density.

 **********************************************************************

 Orbital symmetries:
 Alpha Orbitals:
       Occupied  (A) (A) (A) (A) (A) (A) (A) (A) (A) (A) (A) (A)
                 (A) (A) (A) (A) (A) (A) (A) (A) (A) (A) (A) (A)
                 (A) (A) (A) (A) (A) (A) (A) (A) (A) (A) (A) (A)
                 (A) (A) (A) (A) (A) (A) (A) (A) (A) (A) (A) (A)
                 (A) (A)
       Virtual   (A) (A) (A) (A) (A) (A) (A) (A) (A) (A) (A) (A)
                 (A) (A) (A) (A) (A) (A) (A) (A) (A) (A) (A) (A)
                 (A) (A) (A) (A) (A) (A) (A) (A) (A) (A) (A) (A)
                 (A) (A) (A) (A) (A) (A) (A) (A) (A) (A) (A) (A)
                 (A) (A) (A) (A) (A) (A) (A) (A) (A) (A) (A) (A)
                 (A) (A) (A) (A) (A) (A) (A) (A) (A) (A) (A) (A)
                 (A) (A) (A) (A) (A) (A) (A) (A) (A) (A) (A) (A)
                 (A) (A) (A) (A) (A) (A) (A) (A) (A) (A) (A) (A)
                 (A) (A) (A) (A) (A) (A) (A) (A) (A) (A) (A) (A)
                 (A) (A) (A) (A) (A) (A) (A) (A) (A) (A) (A) (A)
                 (A) (A) (A) (A) (A) (A) (A) (A) (A) (A) (A) (A)
                 (A) (A) (A) (A) (A) (A) (A) (A) (A) (A) (A) (A)
                 (A) (A) (A) (A) (A) (A) (A) (A) (A) (A) (A) (A)
                 (A) (A) (A) (A) (A) (A) (A) (A) (A) (A) (A) (A)
                 (A) (A) (A) (A) (A) (A) (A) (A)
 Beta  Orbitals:
       Occupied  (A) (A) (A) (A) (A) (A) (A) (A) (A) (A) (A) (A)
                 (A) (A) (A) (A) (A) (A) (A) (A) (A) (A) (A) (A)
                 (A) (A) (A) (A) (A) (A) (A) (A) (A) (A) (A) (A)
                 (A) (A) (A) (A) (A) (A) (A) (A) (A) (A) (A) (A)
                 (A) (A)
       Virtual   (A) (A) (A) (A) (A) (A) (A) (A) (A) (A) (A) (A)
                 (A) (A) (A) (A) (A) (A) (A) (A) (A) (A) (A) (A)
                 (A) (A) (A) (A) (A) (A) (A) (A) (A) (A) (A) (A)
                 (A) (A) (A) (A) (A) (A) (A) (A) (A) (A) (A) (A)
                 (A) (A) (A) (A) (A) (A) (A) (A) (A) (A) (A) (A)
                 (A) (A) (A) (A) (A) (A) (A) (A) (A) (A) (A) (A)
                 (A) (A) (A) (A) (A) (A) (A) (A) (A) (A) (A) (A)
                 (A) (A) (A) (A) (A) (A) (A) (A) (A) (A) (A) (A)
                 (A) (A) (A) (A) (A) (A) (A) (A) (A) (A) (A) (A)
                 (A) (A) (A) (A) (A) (A) (A) (A) (A) (A) (A) (A)
                 (A) (A) (A) (A) (A) (A) (A) (A) (A) (A) (A) (A)
                 (A) (A) (A) (A) (A) (A) (A) (A) (A) (A) (A) (A)
                 (A) (A) (A) (A) (A) (A) (A) (A) (A) (A) (A) (A)
                 (A) (A) (A) (A) (A) (A) (A) (A) (A) (A) (A) (A)
                 (A) (A) (A) (A) (A) (A) (A) (A)
 The electronic state is 1-A.
 Alpha  occ. eigenvalues --  -88.14970 -18.85981 -14.04857 -14.04146 -10.01951
 Alpha  occ. eigenvalues --  -10.01632 -10.00333  -9.99737  -9.97727  -9.97579
 Alpha  occ. eigenvalues --   -9.97470  -9.96884  -9.96832  -7.75457  -5.77483
 Alpha  occ. eigenvalues --   -5.77029  -5.76778  -1.05350  -0.93680  -0.90629
 Alpha  occ. eigenvalues --   -0.78397  -0.77973  -0.76484  -0.72356  -0.69743
 Alpha  occ. eigenvalues --   -0.63814  -0.60797  -0.57878  -0.56337  -0.53267
 Alpha  occ. eigenvalues --   -0.50957  -0.50433  -0.48409  -0.47757  -0.44720
 Alpha  occ. eigenvalues --   -0.44065  -0.42981  -0.42167  -0.41158  -0.40447
 Alpha  occ. eigenvalues --   -0.39809  -0.37395  -0.36897  -0.33680  -0.30656
 Alpha  occ. eigenvalues --   -0.29842  -0.27544  -0.26877  -0.25586  -0.23781
 Alpha virt. eigenvalues --   -0.02546   0.01394   0.02624   0.07137   0.07561
 Alpha virt. eigenvalues --    0.08158   0.10104   0.11178   0.11776   0.13720
 Alpha virt. eigenvalues --    0.14433   0.15296   0.16025   0.16409   0.17100
 Alpha virt. eigenvalues --    0.18342   0.24039   0.24776   0.25777   0.28158
 Alpha virt. eigenvalues --    0.29727   0.33412   0.35758   0.36265   0.37493
 Alpha virt. eigenvalues --    0.40783   0.42022   0.43651   0.44419   0.45402
 Alpha virt. eigenvalues --    0.46108   0.46878   0.48114   0.48731   0.49080
 Alpha virt. eigenvalues --    0.49449   0.50146   0.50677   0.51607   0.52473
 Alpha virt. eigenvalues --    0.53356   0.53462   0.54562   0.55749   0.56439
 Alpha virt. eigenvalues --    0.58039   0.58898   0.59924   0.60512   0.62117
 Alpha virt. eigenvalues --    0.62912   0.64000   0.65077   0.65464   0.66033
 Alpha virt. eigenvalues --    0.68032   0.68349   0.69132   0.70503   0.72785
 Alpha virt. eigenvalues --    0.74253   0.74887   0.77182   0.80005   0.82563
 Alpha virt. eigenvalues --    0.84334   0.85720   0.86645   0.88129   0.89377
 Alpha virt. eigenvalues --    0.90402   0.91665   0.91879   0.93206   0.95082
 Alpha virt. eigenvalues --    0.95249   0.96058   0.97539   1.00138   1.01473
 Alpha virt. eigenvalues --    1.02686   1.03620   1.04315   1.07093   1.08616
 Alpha virt. eigenvalues --    1.09634   1.10768   1.11132   1.16289   1.16887
 Alpha virt. eigenvalues --    1.18111   1.20744   1.22900   1.25673   1.28446
 Alpha virt. eigenvalues --    1.29628   1.31350   1.35057   1.36564   1.37839
 Alpha virt. eigenvalues --    1.38448   1.38991   1.42250   1.44559   1.46256
 Alpha virt. eigenvalues --    1.49470   1.49993   1.51097   1.51730   1.53793
 Alpha virt. eigenvalues --    1.56594   1.57306   1.58832   1.60042   1.60619
 Alpha virt. eigenvalues --    1.62124   1.63769   1.64735   1.65706   1.66960
 Alpha virt. eigenvalues --    1.67858   1.68935   1.69467   1.70945   1.74404
 Alpha virt. eigenvalues --    1.75400   1.76618   1.78665   1.81215   1.83794
 Alpha virt. eigenvalues --    1.84958   1.86501   1.88673   1.90002   1.91590
 Alpha virt. eigenvalues --    1.93690   1.93822   1.95827   1.99075   2.00621
 Alpha virt. eigenvalues --    2.01104   2.02884   2.03891   2.07820   2.08220
 Alpha virt. eigenvalues --    2.11096   2.16757   2.22812   2.23321   2.26466
 Alpha virt. eigenvalues --    2.28878   2.30946   2.34249   2.35595   2.37499
 Alpha virt. eigenvalues --    2.39669   2.43069   2.43366   2.45933   2.47650
 Alpha virt. eigenvalues --    2.49626   2.54140   2.57374   2.64364   2.70221
 Alpha virt. eigenvalues --    2.76017   2.81129   2.83677   2.86409   2.91351
 Alpha virt. eigenvalues --    2.93587   3.03301   3.07108   3.27122   3.37310
 Alpha virt. eigenvalues --    3.51673
  Beta  occ. eigenvalues --  -88.14970 -18.85981 -14.04857 -14.04146 -10.01951
  Beta  occ. eigenvalues --  -10.01632 -10.00333  -9.99737  -9.97727  -9.97579
  Beta  occ. eigenvalues --   -9.97470  -9.96884  -9.96832  -7.75457  -5.77483
  Beta  occ. eigenvalues --   -5.77029  -5.76778  -1.05350  -0.93680  -0.90629
  Beta  occ. eigenvalues --   -0.78397  -0.77973  -0.76484  -0.72356  -0.69743
  Beta  occ. eigenvalues --   -0.63814  -0.60797  -0.57878  -0.56337  -0.53267
  Beta  occ. eigenvalues --   -0.50957  -0.50433  -0.48409  -0.47757  -0.44720
  Beta  occ. eigenvalues --   -0.44065  -0.42981  -0.42167  -0.41158  -0.40447
  Beta  occ. eigenvalues --   -0.39809  -0.37395  -0.36897  -0.33680  -0.30656
  Beta  occ. eigenvalues --   -0.29842  -0.27544  -0.26877  -0.25586  -0.23781
  Beta virt. eigenvalues --   -0.02546   0.01394   0.02624   0.07137   0.07561
  Beta virt. eigenvalues --    0.08158   0.10104   0.11178   0.11776   0.13720
  Beta virt. eigenvalues --    0.14433   0.15296   0.16025   0.16409   0.17100
  Beta virt. eigenvalues --    0.18342   0.24039   0.24776   0.25777   0.28158
  Beta virt. eigenvalues --    0.29727   0.33412   0.35758   0.36265   0.37493
  Beta virt. eigenvalues --    0.40783   0.42022   0.43651   0.44419   0.45402
  Beta virt. eigenvalues --    0.46108   0.46878   0.48114   0.48731   0.49080
  Beta virt. eigenvalues --    0.49449   0.50146   0.50677   0.51607   0.52473
  Beta virt. eigenvalues --    0.53356   0.53462   0.54562   0.55749   0.56439
  Beta virt. eigenvalues --    0.58039   0.58898   0.59924   0.60512   0.62117
  Beta virt. eigenvalues --    0.62912   0.64000   0.65077   0.65464   0.66033
  Beta virt. eigenvalues --    0.68032   0.68349   0.69132   0.70503   0.72785
  Beta virt. eigenvalues --    0.74253   0.74887   0.77182   0.80005   0.82563
  Beta virt. eigenvalues --    0.84334   0.85720   0.86645   0.88129   0.89377
  Beta virt. eigenvalues --    0.90402   0.91665   0.91879   0.93206   0.95082
  Beta virt. eigenvalues --    0.95249   0.96058   0.97539   1.00138   1.01473
  Beta virt. eigenvalues --    1.02686   1.03620   1.04315   1.07093   1.08616
  Beta virt. eigenvalues --    1.09634   1.10768   1.11132   1.16289   1.16887
  Beta virt. eigenvalues --    1.18111   1.20744   1.22900   1.25673   1.28446
  Beta virt. eigenvalues --    1.29628   1.31350   1.35057   1.36564   1.37839
  Beta virt. eigenvalues --    1.38448   1.38991   1.42250   1.44559   1.46256
  Beta virt. eigenvalues --    1.49470   1.49993   1.51097   1.51730   1.53793
  Beta virt. eigenvalues --    1.56594   1.57306   1.58832   1.60042   1.60619
  Beta virt. eigenvalues --    1.62124   1.63769   1.64735   1.65706   1.66960
  Beta virt. eigenvalues --    1.67858   1.68935   1.69467   1.70945   1.74404
  Beta virt. eigenvalues --    1.75400   1.76618   1.78665   1.81215   1.83794
  Beta virt. eigenvalues --    1.84958   1.86501   1.88673   1.90002   1.91590
  Beta virt. eigenvalues --    1.93690   1.93822   1.95827   1.99075   2.00621
  Beta virt. eigenvalues --    2.01104   2.02884   2.03891   2.07820   2.08220
  Beta virt. eigenvalues --    2.11096   2.16757   2.22812   2.23321   2.26466
  Beta virt. eigenvalues --    2.28878   2.30946   2.34249   2.35595   2.37499
  Beta virt. eigenvalues --    2.39669   2.43069   2.43366   2.45933   2.47650
  Beta virt. eigenvalues --    2.49626   2.54140   2.57374   2.64364   2.70221
  Beta virt. eigenvalues --    2.76017   2.81129   2.83677   2.86409   2.91351
  Beta virt. eigenvalues --    2.93587   3.03301   3.07108   3.27122   3.37310
  Beta virt. eigenvalues --    3.51673
          Condensed to atoms (all electrons):
               1          2          3          4          5          6
     1  C    4.886692   0.472189  -0.042820  -0.039180   0.010540   0.004206
     2  C    0.472189   4.621241   0.593695  -0.095108  -0.045427   0.000219
     3  N   -0.042820   0.593695   6.239302   0.541334  -0.039388   0.001558
     4  C   -0.039180  -0.095108   0.541334   5.283478   0.331300  -0.076544
     5  C    0.010540  -0.045427  -0.039388   0.331300   4.967099   0.477342
     6  O    0.004206   0.000219   0.001558  -0.076544   0.477342   7.606983
     7  C    0.001033   0.000069  -0.000178   0.005161  -0.081038   0.325189
     8  C    0.490388  -0.030446  -0.041554  -0.094521   0.386627  -0.068516
     9  C    0.001410   0.002644  -0.060737   0.223069  -0.087797   0.008145
    10  N    0.000002  -0.000023   0.000300  -0.039794   0.005620  -0.002694
    11  C   -0.000001  -0.000002  -0.000147   0.003908  -0.000191   0.000387
    12  C    0.000001   0.000015   0.000480   0.003789   0.000049  -0.000058
    13  S    0.000083   0.000619   0.009298  -0.063886   0.009521  -0.000209
    14  H    0.363327  -0.037340   0.007402   0.001625   0.009527  -0.000085
    15  H   -0.057799   0.385640  -0.025493   0.002273   0.001900   0.000009
    16  H   -0.000306  -0.000077  -0.000087   0.002678  -0.001779  -0.025591
    17  H    0.000425  -0.000021   0.000018  -0.001638  -0.011713  -0.029446
    18  H   -0.000053   0.000003   0.000004  -0.000119   0.004110  -0.013942
    19  H   -0.048054   0.008861  -0.000632   0.008489  -0.050711  -0.007157
    20  H    0.000000  -0.000000   0.000005  -0.000819   0.000003   0.000025
    21  H    0.000000   0.000000   0.000002  -0.000177  -0.000003  -0.000000
               7          8          9         10         11         12
     1  C    0.001033   0.490388   0.001410   0.000002  -0.000001   0.000001
     2  C    0.000069  -0.030446   0.002644  -0.000023  -0.000002   0.000015
     3  N   -0.000178  -0.041554  -0.060737   0.000300  -0.000147   0.000480
     4  C    0.005161  -0.094521   0.223069  -0.039794   0.003908   0.003789
     5  C   -0.081038   0.386627  -0.087797   0.005620  -0.000191   0.000049
     6  O    0.325189  -0.068516   0.008145  -0.002694   0.000387  -0.000058
     7  C    4.500645  -0.003093  -0.001043   0.000599  -0.000012   0.000002
     8  C   -0.003093   4.937541   0.008934   0.000119   0.000022   0.000001
     9  C   -0.001043   0.008934   5.151052   0.650831  -0.123656  -0.067907
    10  N    0.000599   0.000119   0.650831   6.216463   0.519395  -0.053106
    11  C   -0.000012   0.000022  -0.123656   0.519395   4.677515   0.526441
    12  C    0.000002   0.000001  -0.067907  -0.053106   0.526441   5.056030
    13  S    0.000018   0.000023   0.281058  -0.117882  -0.103837   0.370643
    14  H   -0.000055  -0.040475   0.000073  -0.000000   0.000000  -0.000000
    15  H   -0.000001   0.006841  -0.000873   0.000004  -0.000000  -0.000001
    16  H    0.381118   0.010081   0.000378   0.000007  -0.000001   0.000001
    17  H    0.383541   0.008910   0.000091   0.000008   0.000002  -0.000000
    18  H    0.400425  -0.000471  -0.000135   0.000461   0.000007   0.000001
    19  H    0.006791   0.385275  -0.000333  -0.000000  -0.000000  -0.000000
    20  H   -0.000001  -0.000000   0.000818  -0.023142   0.399283  -0.053250
    21  H   -0.000000  -0.000000   0.004102   0.006339  -0.017116   0.376351
              13         14         15         16         17         18
     1  C    0.000083   0.363327  -0.057799  -0.000306   0.000425  -0.000053
     2  C    0.000619  -0.037340   0.385640  -0.000077  -0.000021   0.000003
     3  N    0.009298   0.007402  -0.025493  -0.000087   0.000018   0.000004
     4  C   -0.063886   0.001625   0.002273   0.002678  -0.001638  -0.000119
     5  C    0.009521   0.009527   0.001900  -0.001779  -0.011713   0.004110
     6  O   -0.000209  -0.000085   0.000009  -0.025591  -0.029446  -0.013942
     7  C    0.000018  -0.000055  -0.000001   0.381118   0.383541   0.400425
     8  C    0.000023  -0.040475   0.006841   0.010081   0.008910  -0.000471
     9  C    0.281058   0.000073  -0.000873   0.000378   0.000091  -0.000135
    10  N   -0.117882  -0.000000   0.000004   0.000007   0.000008   0.000461
    11  C   -0.103837   0.000000  -0.000000  -0.000001   0.000002   0.000007
    12  C    0.370643  -0.000000  -0.000001   0.000001  -0.000000   0.000001
    13  S   15.467522  -0.000005  -0.000059   0.000004   0.000000   0.000004
    14  H   -0.000005   0.747988  -0.007797  -0.000006   0.000053  -0.000001
    15  H   -0.000059  -0.007797   0.721242  -0.000001   0.000001   0.000000
    16  H    0.000004  -0.000006  -0.000001   0.646351  -0.039585  -0.027317
    17  H    0.000000   0.000053   0.000001  -0.039585   0.665048  -0.028638
    18  H    0.000004  -0.000001   0.000000  -0.027317  -0.028638   0.626132
    19  H    0.000010  -0.015622  -0.000320   0.002989  -0.000519  -0.000202
    20  H    0.008125  -0.000000  -0.000000  -0.000000   0.000000  -0.000005
    21  H   -0.039830  -0.000000  -0.000000   0.000000  -0.000000  -0.000000
              19         20         21
     1  C   -0.048054   0.000000   0.000000
     2  C    0.008861  -0.000000   0.000000
     3  N   -0.000632   0.000005   0.000002
     4  C    0.008489  -0.000819  -0.000177
     5  C   -0.050711   0.000003  -0.000003
     6  O   -0.007157   0.000025  -0.000000
     7  C    0.006791  -0.000001  -0.000000
     8  C    0.385275  -0.000000  -0.000000
     9  C   -0.000333   0.000818   0.004102
    10  N   -0.000000  -0.023142   0.006339
    11  C   -0.000000   0.399283  -0.017116
    12  C   -0.000000  -0.053250   0.376351
    13  S    0.000010   0.008125  -0.039830
    14  H   -0.015622  -0.000000  -0.000000
    15  H   -0.000320  -0.000000  -0.000000
    16  H    0.002989  -0.000000   0.000000
    17  H   -0.000519   0.000000  -0.000000
    18  H   -0.000202  -0.000005  -0.000000
    19  H    0.725738  -0.000000   0.000000
    20  H   -0.000000   0.692700  -0.005308
    21  H    0.000000  -0.005308   0.659662
          Atomic-Atomic Spin Densities.
               1          2          3          4          5          6
     1  C    0.000000  -0.000000  -0.000000  -0.000000   0.000000   0.000000
     2  C   -0.000000  -0.000000   0.000000   0.000000  -0.000000  -0.000000
     3  N   -0.000000   0.000000   0.000000  -0.000000  -0.000000   0.000000
     4  C   -0.000000   0.000000  -0.000000  -0.000000   0.000000  -0.000000
     5  C    0.000000  -0.000000  -0.000000   0.000000   0.000000   0.000000
     6  O    0.000000  -0.000000   0.000000  -0.000000   0.000000   0.000000
     7  C    0.000000  -0.000000  -0.000000  -0.000000  -0.000000   0.000000
     8  C   -0.000000   0.000000   0.000000   0.000000  -0.000000  -0.000000
     9  C   -0.000000  -0.000000   0.000000  -0.000000  -0.000000  -0.000000
    10  N   -0.000000   0.000000   0.000000  -0.000000   0.000000   0.000000
    11  C   -0.000000   0.000000   0.000000   0.000000   0.000000   0.000000
    12  C    0.000000  -0.000000  -0.000000  -0.000000   0.000000   0.000000
    13  S   -0.000000  -0.000000   0.000000  -0.000000  -0.000000   0.000000
    14  H    0.000000  -0.000000  -0.000000  -0.000000   0.000000   0.000000
    15  H   -0.000000   0.000000  -0.000000  -0.000000   0.000000  -0.000000
    16  H   -0.000000   0.000000  -0.000000  -0.000000  -0.000000  -0.000000
    17  H    0.000000  -0.000000   0.000000   0.000000   0.000000   0.000000
    18  H   -0.000000   0.000000   0.000000   0.000000  -0.000000   0.000000
    19  H   -0.000000   0.000000  -0.000000  -0.000000  -0.000000  -0.000000
    20  H   -0.000000   0.000000   0.000000  -0.000000  -0.000000   0.000000
    21  H    0.000000  -0.000000  -0.000000  -0.000000  -0.000000   0.000000
               7          8          9         10         11         12
     1  C    0.000000  -0.000000  -0.000000  -0.000000  -0.000000   0.000000
     2  C   -0.000000   0.000000  -0.000000   0.000000   0.000000  -0.000000
     3  N   -0.000000   0.000000   0.000000   0.000000   0.000000  -0.000000
     4  C   -0.000000   0.000000  -0.000000  -0.000000   0.000000  -0.000000
     5  C   -0.000000  -0.000000  -0.000000   0.000000   0.000000   0.000000
     6  O    0.000000  -0.000000  -0.000000   0.000000   0.000000   0.000000
     7  C    0.000000   0.000000  -0.000000  -0.000000  -0.000000  -0.000000
     8  C    0.000000  -0.000000   0.000000   0.000000   0.000000  -0.000000
     9  C   -0.000000   0.000000   0.000000   0.000000  -0.000000   0.000000
    10  N   -0.000000   0.000000   0.000000  -0.000000   0.000000  -0.000000
    11  C   -0.000000   0.000000  -0.000000   0.000000   0.000000  -0.000000
    12  C   -0.000000  -0.000000   0.000000  -0.000000  -0.000000  -0.000000
    13  S   -0.000000   0.000000   0.000000   0.000000  -0.000000   0.000000
    14  H   -0.000000  -0.000000   0.000000  -0.000000  -0.000000   0.000000
    15  H    0.000000  -0.000000  -0.000000   0.000000   0.000000  -0.000000
    16  H   -0.000000   0.000000   0.000000  -0.000000  -0.000000   0.000000
    17  H    0.000000  -0.000000   0.000000  -0.000000   0.000000   0.000000
    18  H    0.000000  -0.000000  -0.000000  -0.000000   0.000000  -0.000000
    19  H    0.000000   0.000000   0.000000   0.000000  -0.000000  -0.000000
    20  H   -0.000000   0.000000  -0.000000  -0.000000  -0.000000   0.000000
    21  H   -0.000000  -0.000000   0.000000  -0.000000  -0.000000  -0.000000
              13         14         15         16         17         18
     1  C   -0.000000   0.000000  -0.000000  -0.000000   0.000000  -0.000000
     2  C   -0.000000  -0.000000   0.000000   0.000000  -0.000000   0.000000
     3  N    0.000000  -0.000000  -0.000000  -0.000000   0.000000   0.000000
     4  C   -0.000000  -0.000000  -0.000000  -0.000000   0.000000   0.000000
     5  C   -0.000000   0.000000   0.000000  -0.000000   0.000000  -0.000000
     6  O    0.000000   0.000000  -0.000000  -0.000000   0.000000   0.000000
     7  C   -0.000000  -0.000000   0.000000  -0.000000   0.000000   0.000000
     8  C    0.000000  -0.000000  -0.000000   0.000000  -0.000000  -0.000000
     9  C    0.000000   0.000000  -0.000000   0.000000   0.000000  -0.000000
    10  N    0.000000  -0.000000   0.000000  -0.000000  -0.000000  -0.000000
    11  C   -0.000000  -0.000000   0.000000  -0.000000   0.000000   0.000000
    12  C    0.000000   0.000000  -0.000000   0.000000   0.000000  -0.000000
    13  S   -0.000000   0.000000  -0.000000  -0.000000  -0.000000  -0.000000
    14  H    0.000000  -0.000000   0.000000  -0.000000   0.000000  -0.000000
    15  H   -0.000000   0.000000  -0.000000   0.000000  -0.000000   0.000000
    16  H   -0.000000  -0.000000   0.000000  -0.000000   0.000000  -0.000000
    17  H   -0.000000   0.000000  -0.000000   0.000000  -0.000000   0.000000
    18  H   -0.000000  -0.000000   0.000000  -0.000000   0.000000  -0.000000
    19  H    0.000000  -0.000000  -0.000000   0.000000   0.000000  -0.000000
    20  H   -0.000000  -0.000000  -0.000000  -0.000000   0.000000  -0.000000
    21  H    0.000000   0.000000   0.000000   0.000000   0.000000  -0.000000
              19         20         21
     1  C   -0.000000  -0.000000   0.000000
     2  C    0.000000   0.000000  -0.000000
     3  N   -0.000000   0.000000  -0.000000
     4  C   -0.000000  -0.000000  -0.000000
     5  C   -0.000000  -0.000000  -0.000000
     6  O   -0.000000   0.000000   0.000000
     7  C    0.000000  -0.000000  -0.000000
     8  C    0.000000   0.000000  -0.000000
     9  C    0.000000  -0.000000   0.000000
    10  N    0.000000  -0.000000  -0.000000
    11  C   -0.000000  -0.000000  -0.000000
    12  C   -0.000000   0.000000  -0.000000
    13  S    0.000000  -0.000000   0.000000
    14  H   -0.000000  -0.000000   0.000000
    15  H   -0.000000  -0.000000   0.000000
    16  H    0.000000  -0.000000   0.000000
    17  H    0.000000   0.000000   0.000000
    18  H   -0.000000  -0.000000  -0.000000
    19  H    0.000000   0.000000  -0.000000
    20  H    0.000000   0.000000   0.000000
    21  H   -0.000000   0.000000   0.000000
 Mulliken charges and spin densities:
               1          2
     1  C   -0.042082   0.000000
     2  C    0.123247  -0.000000
     3  N   -0.182362  -0.000000
     4  C    0.004685  -0.000000
     5  C    0.114408   0.000000
     6  O   -0.199819   0.000000
     7  C    0.080829   0.000000
     8  C    0.044315  -0.000000
     9  C    0.009876   0.000000
    10  N   -0.163506  -0.000000
    11  C    0.118001   0.000000
    12  C   -0.159480   0.000000
    13  S    0.178780  -0.000000
    14  H   -0.028608   0.000000
    15  H   -0.025564  -0.000000
    16  H    0.051143  -0.000000
    17  H    0.053462  -0.000000
    18  H    0.039736  -0.000000
    19  H   -0.014601   0.000000
    20  H   -0.018436   0.000000
    21  H    0.015978  -0.000000
 Sum of Mulliken charges =  -0.00000   0.00000
 Mulliken charges and spin densities with hydrogens summed into heavy atoms:
               1          2
     1  C   -0.070690   0.000000
     2  C    0.097683  -0.000000
     3  N   -0.182362  -0.000000
     4  C    0.004685  -0.000000
     5  C    0.114408   0.000000
     6  O   -0.199819   0.000000
     7  C    0.225169   0.000000
     8  C    0.029713  -0.000000
     9  C    0.009876   0.000000
    10  N   -0.163506  -0.000000
    11  C    0.099566   0.000000
    12  C   -0.143502  -0.000000
    13  S    0.178780  -0.000000
 Electronic spatial extent (au):  <R**2>=           2706.1948
 Charge=             -0.0000 electrons
 Dipole moment (field-independent basis, Debye):
    X=              2.0556    Y=              1.7645    Z=             -0.3823  Tot=              2.7359
 Quadrupole moment (field-independent basis, Debye-Ang):
   XX=            -62.8152   YY=            -75.0458   ZZ=            -84.2529
   XY=              1.9875   XZ=              0.3639   YZ=              0.9649
 Traceless Quadrupole moment (field-independent basis, Debye-Ang):
   XX=             11.2228   YY=             -1.0079   ZZ=            -10.2149
   XY=              1.9875   XZ=              0.3639   YZ=              0.9649
 Octapole moment (field-independent basis, Debye-Ang**2):
  XXX=             -9.7868  YYY=             27.0536  ZZZ=             -2.3177  XYY=             23.8739
  XXY=             11.5679  XXZ=             -1.3120  XZZ=              0.8473  YZZ=              4.1012
  YYZ=              2.0259  XYZ=             -4.1217
 Hexadecapole moment (field-independent basis, Debye-Ang**3):
 XXXX=          -2128.5144 YYYY=           -971.3694 ZZZZ=           -161.7245 XXXY=             -0.9810
 XXXZ=             -7.0062 YYYX=             19.6688 YYYZ=              0.0388 ZZZX=             -0.4180
 ZZZY=             -0.9938 XXYY=           -511.0199 XXZZ=           -451.2169 YYZZ=           -209.9901
 XXYZ=              7.7811 YYXZ=              1.6973 ZZXY=             11.2097
 N-N= 8.448152646183D+02 E-N=-3.875742974559D+03  KE= 9.261428281652D+02
                          Isotropic Fermi Contact Couplings
        Atom                 a.u.       MegaHertz       Gauss      10(-4) cm-1
     1  C(13)              0.00000       0.00000       0.00000       0.00000
     2  C(13)              0.00000       0.00000       0.00000       0.00000
     3  N(14)              0.00000       0.00000       0.00000       0.00000
     4  C(13)             -0.00000      -0.00000      -0.00000      -0.00000
     5  C(13)              0.00000       0.00000       0.00000       0.00000
     6  O(17)              0.00000      -0.00000      -0.00000      -0.00000
     7  C(13)              0.00000       0.00000       0.00000       0.00000
     8  C(13)             -0.00000      -0.00000      -0.00000      -0.00000
     9  C(13)              0.00000       0.00000       0.00000       0.00000
    10  N(14)             -0.00000      -0.00000      -0.00000      -0.00000
    11  C(13)             -0.00000      -0.00000      -0.00000      -0.00000
    12  C(13)              0.00000       0.00000       0.00000       0.00000
    13  S(33)              0.00000       0.00000       0.00000       0.00000
    14  H(1)              -0.00000      -0.00000      -0.00000      -0.00000
    15  H(1)              -0.00000      -0.00000      -0.00000      -0.00000
    16  H(1)              -0.00000      -0.00000      -0.00000      -0.00000
    17  H(1)               0.00000       0.00000       0.00000       0.00000
    18  H(1)              -0.00000      -0.00000      -0.00000      -0.00000
    19  H(1)               0.00000       0.00000       0.00000       0.00000
    20  H(1)               0.00000       0.00000       0.00000       0.00000
    21  H(1)               0.00000       0.00000       0.00000       0.00000
 --------------------------------------------------------
       Center         ----  Spin Dipole Couplings  ----
                      3XX-RR        3YY-RR        3ZZ-RR
 --------------------------------------------------------
     1   Atom        0.000000      0.000000      0.000000
     2   Atom        0.000000      0.000000      0.000000
     3   Atom        0.000000      0.000000      0.000000
     4   Atom        0.000000      0.000000      0.000000
     5   Atom        0.000000      0.000000      0.000000
     6   Atom        0.000000      0.000000      0.000000
     7   Atom        0.000000      0.000000      0.000000
     8   Atom        0.000000      0.000000      0.000000
     9   Atom        0.000000      0.000000      0.000000
    10   Atom        0.000000      0.000000      0.000000
    11   Atom        0.000000      0.000000      0.000000
    12   Atom        0.000000      0.000000      0.000000
    13   Atom        0.000000      0.000000      0.000000
    14   Atom        0.000000      0.000000      0.000000
    15   Atom        0.000000      0.000000      0.000000
    16   Atom        0.000000      0.000000      0.000000
    17   Atom        0.000000      0.000000      0.000000
    18   Atom        0.000000      0.000000      0.000000
    19   Atom        0.000000      0.000000      0.000000
    20   Atom        0.000000      0.000000      0.000000
    21   Atom        0.000000      0.000000      0.000000
 --------------------------------------------------------
                        XY            XZ            YZ
 --------------------------------------------------------
     1   Atom        0.000000      0.000000      0.000000
     2   Atom        0.000000      0.000000      0.000000
     3   Atom        0.000000      0.000000      0.000000
     4   Atom        0.000000      0.000000      0.000000
     5   Atom        0.000000      0.000000      0.000000
     6   Atom        0.000000      0.000000      0.000000
     7   Atom        0.000000      0.000000      0.000000
     8   Atom        0.000000      0.000000      0.000000
     9   Atom        0.000000      0.000000      0.000000
    10   Atom        0.000000      0.000000      0.000000
    11   Atom        0.000000      0.000000      0.000000
    12   Atom        0.000000      0.000000      0.000000
    13   Atom        0.000000      0.000000      0.000000
    14   Atom        0.000000      0.000000      0.000000
    15   Atom        0.000000      0.000000      0.000000
    16   Atom        0.000000      0.000000      0.000000
    17   Atom        0.000000      0.000000      0.000000
    18   Atom        0.000000      0.000000      0.000000
    19   Atom        0.000000      0.000000      0.000000
    20   Atom        0.000000      0.000000      0.000000
    21   Atom        0.000000      0.000000      0.000000
 --------------------------------------------------------


 ---------------------------------------------------------------------------------
              Anisotropic Spin Dipole Couplings in Principal Axis System
 ---------------------------------------------------------------------------------

       Atom             a.u.   MegaHertz   Gauss  10(-4) cm-1        Axes

              Baa     0.0000     0.000     0.000     0.000  1.0000  0.0000  0.0000
     1 C(13)  Bbb     0.0000     0.000     0.000     0.000 -0.0000  1.0000  0.0000
              Bcc     0.0000     0.000     0.000     0.000  0.0000  0.0000  1.0000
 
              Baa     0.0000     0.000     0.000     0.000  1.0000  0.0000  0.0000
     2 C(13)  Bbb     0.0000     0.000     0.000     0.000 -0.0000  1.0000  0.0000
              Bcc     0.0000     0.000     0.000     0.000  0.0000  0.0000  1.0000
 
              Baa     0.0000     0.000     0.000     0.000  1.0000  0.0000  0.0000
     3 N(14)  Bbb     0.0000     0.000     0.000     0.000 -0.0000  1.0000  0.0000
              Bcc     0.0000     0.000     0.000     0.000  0.0000  0.0000  1.0000
 
              Baa     0.0000     0.000     0.000     0.000  1.0000  0.0000  0.0000
     4 C(13)  Bbb     0.0000     0.000     0.000     0.000 -0.0000  1.0000  0.0000
              Bcc     0.0000     0.000     0.000     0.000  0.0000  0.0000  1.0000
 
              Baa     0.0000     0.000     0.000     0.000  1.0000  0.0000  0.0000
     5 C(13)  Bbb     0.0000     0.000     0.000     0.000 -0.0000  1.0000  0.0000
              Bcc     0.0000     0.000     0.000     0.000  0.0000  0.0000  1.0000
 
              Baa     0.0000    -0.000    -0.000    -0.000  1.0000  0.0000  0.0000
     6 O(17)  Bbb     0.0000    -0.000    -0.000    -0.000 -0.0000  1.0000  0.0000
              Bcc     0.0000    -0.000    -0.000    -0.000  0.0000  0.0000  1.0000
 
              Baa     0.0000     0.000     0.000     0.000  1.0000  0.0000  0.0000
     7 C(13)  Bbb     0.0000     0.000     0.000     0.000 -0.0000  1.0000  0.0000
              Bcc     0.0000     0.000     0.000     0.000  0.0000  0.0000  1.0000
 
              Baa     0.0000     0.000     0.000     0.000  1.0000  0.0000  0.0000
     8 C(13)  Bbb     0.0000     0.000     0.000     0.000 -0.0000  1.0000  0.0000
              Bcc     0.0000     0.000     0.000     0.000  0.0000  0.0000  1.0000
 
              Baa     0.0000     0.000     0.000     0.000  1.0000  0.0000  0.0000
     9 C(13)  Bbb     0.0000     0.000     0.000     0.000 -0.0000  1.0000  0.0000
              Bcc     0.0000     0.000     0.000     0.000  0.0000  0.0000  1.0000
 
              Baa     0.0000     0.000     0.000     0.000  1.0000  0.0000  0.0000
    10 N(14)  Bbb     0.0000     0.000     0.000     0.000 -0.0000  1.0000  0.0000
              Bcc     0.0000     0.000     0.000     0.000  0.0000  0.0000  1.0000
 
              Baa     0.0000     0.000     0.000     0.000  1.0000  0.0000  0.0000
    11 C(13)  Bbb     0.0000     0.000     0.000     0.000 -0.0000  1.0000  0.0000
              Bcc     0.0000     0.000     0.000     0.000  0.0000  0.0000  1.0000
 
              Baa     0.0000     0.000     0.000     0.000  1.0000  0.0000  0.0000
    12 C(13)  Bbb     0.0000     0.000     0.000     0.000 -0.0000  1.0000  0.0000
              Bcc     0.0000     0.000     0.000     0.000  0.0000  0.0000  1.0000
 
              Baa     0.0000     0.000     0.000     0.000  1.0000  0.0000  0.0000
    13 S(33)  Bbb     0.0000     0.000     0.000     0.000 -0.0000  1.0000  0.0000
              Bcc     0.0000     0.000     0.000     0.000  0.0000  0.0000  1.0000
 
              Baa     0.0000     0.000     0.000     0.000  1.0000  0.0000  0.0000
    14 H(1)   Bbb     0.0000     0.000     0.000     0.000 -0.0000  1.0000  0.0000
              Bcc     0.0000     0.000     0.000     0.000  0.0000  0.0000  1.0000
 
              Baa     0.0000     0.000     0.000     0.000  1.0000  0.0000  0.0000
    15 H(1)   Bbb     0.0000     0.000     0.000     0.000 -0.0000  1.0000  0.0000
              Bcc     0.0000     0.000     0.000     0.000  0.0000  0.0000  1.0000
 
              Baa     0.0000     0.000     0.000     0.000  1.0000  0.0000  0.0000
    16 H(1)   Bbb     0.0000     0.000     0.000     0.000 -0.0000  1.0000  0.0000
              Bcc     0.0000     0.000     0.000     0.000  0.0000  0.0000  1.0000
 
              Baa     0.0000     0.000     0.000     0.000  1.0000  0.0000  0.0000
    17 H(1)   Bbb     0.0000     0.000     0.000     0.000 -0.0000  1.0000  0.0000
              Bcc     0.0000     0.000     0.000     0.000  0.0000  0.0000  1.0000
 
              Baa     0.0000     0.000     0.000     0.000  1.0000  0.0000  0.0000
    18 H(1)   Bbb     0.0000     0.000     0.000     0.000 -0.0000  1.0000  0.0000
              Bcc     0.0000     0.000     0.000     0.000  0.0000  0.0000  1.0000
 
              Baa     0.0000     0.000     0.000     0.000  1.0000  0.0000  0.0000
    19 H(1)   Bbb     0.0000     0.000     0.000     0.000 -0.0000  1.0000  0.0000
              Bcc     0.0000     0.000     0.000     0.000  0.0000  0.0000  1.0000
 
              Baa     0.0000     0.000     0.000     0.000  1.0000  0.0000  0.0000
    20 H(1)   Bbb     0.0000     0.000     0.000     0.000 -0.0000  1.0000  0.0000
              Bcc     0.0000     0.000     0.000     0.000  0.0000  0.0000  1.0000
 
              Baa     0.0000     0.000     0.000     0.000  1.0000  0.0000  0.0000
    21 H(1)   Bbb     0.0000     0.000     0.000     0.000 -0.0000  1.0000  0.0000
              Bcc     0.0000     0.000     0.000     0.000  0.0000  0.0000  1.0000
 

 ---------------------------------------------------------------------------------

 No NMR shielding tensors so no spin-rotation constants.
 Leave Link  601 at Fri Jul 24 15:53:14 2020, MaxMem=  4026531840 cpu:               1.3 elap:               0.2
 (Enter /opt/ohpc/pub/libs/gaussian/g16-A.03/sandybridge/g16/l701.exe)
 ... and contract with generalized density number  0.
 Compute integral first derivatives.
 Leave Link  701 at Fri Jul 24 15:53:14 2020, MaxMem=  4026531840 cpu:               1.2 elap:               0.2
 (Enter /opt/ohpc/pub/libs/gaussian/g16-A.03/sandybridge/g16/l702.exe)
 L702 exits ... SP integral derivatives will be done elsewhere.
 Leave Link  702 at Fri Jul 24 15:53:14 2020, MaxMem=  4026531840 cpu:               0.1 elap:               0.0
 (Enter /opt/ohpc/pub/libs/gaussian/g16-A.03/sandybridge/g16/l703.exe)
 Integral derivatives from FoFJK, PRISM(SPDF).
 Compute integral first derivatives, UseDBF=F ICtDFT=           0.
 Calling FoFJK, ICntrl=      2127 FMM=F ISym2X=0 I1Cent= 0 IOpClX= 1 NMat=1 NMatS=1 NMatT=0.
 FoFJK:  IHMeth= 1 ICntrl=    2127 DoSepK=T KAlg= 0 I1Cent=           0 FoldK=F
 IRaf=         1 NMat=       1 IRICut=       1 DoRegI=T DoRafI=F ISym2E= 0 IDoP0=0 IntGTp=1.
 FoFCou: FMM=F IPFlag=           0 FMFlag=      100000 FMFlg1=         800
         NFxFlg=           0 DoJE=F BraDBF=F KetDBF=F FulRan=T
         wScrn=  0.000000 ICntrl=      2527 IOpCl=  0 I1Cent=           0 NGrid=           0
         NMat0=    1 NMatS0=      1 NMatT0=    0 NMatD0=    1 NMtDS0=    0 NMtDT0=    0
 Symmetry not used in FoFCou.
 Leave Link  703 at Fri Jul 24 15:53:28 2020, MaxMem=  4026531840 cpu:             111.1 elap:              14.0
 (Enter /opt/ohpc/pub/libs/gaussian/g16-A.03/sandybridge/g16/l716.exe)
 Dipole        = 8.08728036D-01 6.94204575D-01-1.50395755D-01
 ***** Axes restored to original set *****
 -------------------------------------------------------------------
 Center     Atomic                   Forces (Hartrees/Bohr)
 Number     Number              X              Y              Z
 -------------------------------------------------------------------
      1        6          -0.044260040   -0.007716871    0.002312252
      2        6           0.060341369    0.072330938   -0.017055903
      3        7          -0.060507801    0.031724676   -0.011773419
      4        6           0.016408438   -0.041582610    0.016327669
      5        6          -0.037391034   -0.034286684    0.013112683
      6        8           0.001368345    0.077932331    0.003686962
[...]
    16  H   -0.000000  -0.000000  -0.000000  -0.000000   0.000000   0.000000
    17  H    0.000000  -0.000000  -0.000000  -0.000000  -0.000000   0.000000
    18  H   -0.000000  -0.000000  -0.000000  -0.000000   0.000000   0.000000
    19  H   -0.000000   0.000000   0.000000   0.000000   0.000000   0.000000
    20  H    0.000000   0.000000  -0.000000  -0.000000   0.000000  -0.000000
    21  H    0.000000   0.000000  -0.000000   0.000000   0.000000   0.000000
               7          8          9         10         11         12
     1  C   -0.000000  -0.000000   0.000000  -0.000000   0.000000  -0.000000
     2  C    0.000000  -0.000000   0.000000   0.000000   0.000000   0.000000
     3  N   -0.000000   0.000000  -0.000000   0.000000  -0.000000  -0.000000
     4  C    0.000000  -0.000000  -0.000000  -0.000000   0.000000   0.000000
     5  C   -0.000000   0.000000   0.000000  -0.000000  -0.000000  -0.000000
     6  O   -0.000000  -0.000000   0.000000  -0.000000  -0.000000   0.000000
     7  C   -0.000000   0.000000  -0.000000   0.000000   0.000000  -0.000000
     8  C    0.000000  -0.000000  -0.000000  -0.000000  -0.000000   0.000000
     9  C   -0.000000  -0.000000   0.000000   0.000000  -0.000000  -0.000000
    10  N    0.000000  -0.000000   0.000000   0.000000   0.000000  -0.000000
    11  C    0.000000  -0.000000  -0.000000   0.000000   0.000000   0.000000
    12  C   -0.000000   0.000000  -0.000000  -0.000000   0.000000  -0.000000
    13  S    0.000000   0.000000   0.000000  -0.000000  -0.000000   0.000000
    14  H   -0.000000  -0.000000   0.000000  -0.000000   0.000000  -0.000000
    15  H    0.000000   0.000000  -0.000000   0.000000   0.000000   0.000000
    16  H    0.000000  -0.000000   0.000000  -0.000000  -0.000000   0.000000
    17  H    0.000000   0.000000   0.000000  -0.000000  -0.000000   0.000000
    18  H   -0.000000   0.000000   0.000000   0.000000   0.000000   0.000000
    19  H    0.000000  -0.000000  -0.000000   0.000000  -0.000000  -0.000000
    20  H    0.000000  -0.000000   0.000000   0.000000  -0.000000   0.000000
    21  H   -0.000000   0.000000  -0.000000  -0.000000   0.000000  -0.000000
              13         14         15         16         17         18
     1  C    0.000000   0.000000   0.000000  -0.000000   0.000000  -0.000000
     2  C   -0.000000   0.000000  -0.000000  -0.000000  -0.000000  -0.000000
     3  N   -0.000000   0.000000   0.000000  -0.000000  -0.000000  -0.000000
     4  C   -0.000000  -0.000000  -0.000000  -0.000000  -0.000000  -0.000000
     5  C    0.000000   0.000000  -0.000000   0.000000  -0.000000   0.000000
     6  O   -0.000000  -0.000000  -0.000000   0.000000   0.000000   0.000000
     7  C    0.000000  -0.000000   0.000000   0.000000   0.000000  -0.000000
     8  C    0.000000  -0.000000   0.000000  -0.000000   0.000000   0.000000
     9  C    0.000000   0.000000  -0.000000   0.000000   0.000000   0.000000
    10  N   -0.000000  -0.000000   0.000000  -0.000000  -0.000000   0.000000
    11  C   -0.000000   0.000000   0.000000  -0.000000  -0.000000   0.000000
    12  C    0.000000  -0.000000   0.000000   0.000000   0.000000   0.000000
    13  S   -0.000000   0.000000  -0.000000   0.000000   0.000000   0.000000
    14  H    0.000000   0.000000  -0.000000   0.000000   0.000000  -0.000000
    15  H   -0.000000  -0.000000   0.000000   0.000000  -0.000000  -0.000000
    16  H    0.000000   0.000000   0.000000   0.000000   0.000000   0.000000
    17  H    0.000000   0.000000  -0.000000   0.000000  -0.000000   0.000000
    18  H    0.000000  -0.000000  -0.000000   0.000000   0.000000  -0.000000
    19  H   -0.000000  -0.000000   0.000000  -0.000000  -0.000000  -0.000000
    20  H   -0.000000   0.000000  -0.000000  -0.000000  -0.000000   0.000000
    21  H    0.000000   0.000000  -0.000000   0.000000   0.000000   0.000000
              19         20         21
     1  C   -0.000000   0.000000   0.000000
     2  C    0.000000   0.000000   0.000000
     3  N    0.000000  -0.000000  -0.000000
     4  C    0.000000  -0.000000   0.000000
     5  C    0.000000   0.000000   0.000000
     6  O    0.000000  -0.000000   0.000000
     7  C    0.000000   0.000000  -0.000000
     8  C   -0.000000  -0.000000   0.000000
     9  C   -0.000000   0.000000  -0.000000
    10  N    0.000000   0.000000  -0.000000
    11  C   -0.000000  -0.000000   0.000000
    12  C   -0.000000   0.000000  -0.000000
    13  S   -0.000000  -0.000000   0.000000
    14  H   -0.000000   0.000000   0.000000
    15  H    0.000000  -0.000000  -0.000000
    16  H   -0.000000  -0.000000   0.000000
    17  H   -0.000000  -0.000000   0.000000
    18  H   -0.000000   0.000000   0.000000
    19  H    0.000000  -0.000000  -0.000000
    20  H   -0.000000  -0.000000   0.000000
    21  H   -0.000000   0.000000  -0.000000
 Mulliken charges and spin densities:
               1          2
     1  C   -0.018850   0.000000
     2  C    0.084556   0.000000
     3  N   -0.209794  -0.000000
     4  C    0.102939   0.000000
     5  C    0.115710  -0.000000
     6  O   -0.197298  -0.000000
     7  C    0.057132  -0.000000
     8  C    0.021660  -0.000000
     9  C   -0.031482  -0.000000
    10  N   -0.172794   0.000000
    11  C    0.111425   0.000000
    12  C   -0.161849  -0.000000
    13  S    0.167801  -0.000000
    14  H   -0.015210   0.000000
    15  H   -0.001855   0.000000
    16  H    0.045328   0.000000
    17  H    0.045330  -0.000000
    18  H    0.057368  -0.000000
    19  H   -0.011511   0.000000
    20  H   -0.007188  -0.000000
    21  H    0.018581  -0.000000
 Sum of Mulliken charges =  -0.00000   0.00000
 Mulliken charges and spin densities with hydrogens summed into heavy atoms:
               1          2
     1  C   -0.034060   0.000000
     2  C    0.082701   0.000000
     3  N   -0.209794  -0.000000
     4  C    0.102939   0.000000
     5  C    0.115710  -0.000000
     6  O   -0.197298  -0.000000
     7  C    0.205157  -0.000000
     8  C    0.010149  -0.000000
     9  C   -0.031482  -0.000000
    10  N   -0.172794   0.000000
    11  C    0.104237   0.000000
    12  C   -0.143268  -0.000000
    13  S    0.167801  -0.000000
 Electronic spatial extent (au):  <R**2>=           2745.0309
 Charge=             -0.0000 electrons
 Dipole moment (field-independent basis, Debye):
    X=              2.5155    Y=              1.0888    Z=             -0.0005  Tot=              2.7410
 Quadrupole moment (field-independent basis, Debye-Ang):
   XX=            -62.7096   YY=            -76.3612   ZZ=            -84.3529
   XY=              1.5618   XZ=             -0.0006   YZ=             -0.0007
 Traceless Quadrupole moment (field-independent basis, Debye-Ang):
   XX=             11.7650   YY=             -1.8867   ZZ=             -9.8783
   XY=              1.5618   XZ=             -0.0006   YZ=             -0.0007
 Octapole moment (field-independent basis, Debye-Ang**2):
  XXX=             -1.3809  YYY=             18.0037  ZZZ=              0.0008  XYY=             22.0961
  XXY=             15.5760  XXZ=             -0.0043  XZZ=              2.2106  YZZ=              4.5246
  YYZ=             -0.0003  XYZ=             -0.0013
 Hexadecapole moment (field-independent basis, Debye-Ang**3):
 XXXX=          -2158.5623 YYYY=          -1056.8550 ZZZZ=            -95.8775 XXXY=             14.6433
 XXXZ=             -0.0049 YYYX=             15.1189 YYYZ=             -0.0036 ZZZX=              0.0000
 ZZZY=              0.0003 XXYY=           -526.2447 XXZZ=           -456.3324 YYZZ=           -217.4402
 XXYZ=              0.0006 YYXZ=             -0.0003 ZZXY=             15.1452
 N-N= 8.411520255263D+02 E-N=-3.868015914702D+03  KE= 9.256677306621D+02
                          Isotropic Fermi Contact Couplings
        Atom                 a.u.       MegaHertz       Gauss      10(-4) cm-1
     1  C(13)              0.00000       0.00000       0.00000       0.00000
     2  C(13)              0.00000       0.00000       0.00000       0.00000
     3  N(14)             -0.00000      -0.00000      -0.00000      -0.00000
     4  C(13)              0.00000       0.00000       0.00000       0.00000
     5  C(13)             -0.00000      -0.00000      -0.00000      -0.00000
     6  O(17)             -0.00000       0.00000       0.00000       0.00000
     7  C(13)              0.00000       0.00000       0.00000       0.00000
     8  C(13)             -0.00000      -0.00000      -0.00000      -0.00000
     9  C(13)             -0.00000      -0.00000      -0.00000      -0.00000
    10  N(14)             -0.00000      -0.00000      -0.00000      -0.00000
    11  C(13)             -0.00000      -0.00000      -0.00000      -0.00000
    12  C(13)             -0.00000      -0.00000      -0.00000      -0.00000
    13  S(33)             -0.00000      -0.00000      -0.00000      -0.00000
    14  H(1)               0.00000       0.00000       0.00000       0.00000
    15  H(1)               0.00000       0.00000       0.00000       0.00000
    16  H(1)              -0.00000      -0.00000      -0.00000      -0.00000
    17  H(1)               0.00000       0.00000       0.00000       0.00000
    18  H(1)              -0.00000      -0.00000      -0.00000      -0.00000
    19  H(1)               0.00000       0.00000       0.00000       0.00000
    20  H(1)               0.00000       0.00000       0.00000       0.00000
    21  H(1)              -0.00000      -0.00000      -0.00000      -0.00000
 --------------------------------------------------------
       Center         ----  Spin Dipole Couplings  ----
                      3XX-RR        3YY-RR        3ZZ-RR
 --------------------------------------------------------
     1   Atom        0.000000     -0.000000      0.000000
     2   Atom       -0.000000      0.000000      0.000000
     3   Atom       -0.000000      0.000000      0.000000
     4   Atom        0.000000      0.000000     -0.000000
     5   Atom       -0.000000     -0.000000      0.000000
     6   Atom        0.000000     -0.000000      0.000000
     7   Atom        0.000000      0.000000     -0.000000
     8   Atom       -0.000000      0.000000      0.000000
     9   Atom       -0.000000     -0.000000      0.000000
    10   Atom        0.000000     -0.000000      0.000000
    11   Atom        0.000000      0.000000     -0.000000
    12   Atom        0.000000      0.000000     -0.000000
    13   Atom        0.000000     -0.000000      0.000000
    14   Atom       -0.000000      0.000000      0.000000
    15   Atom        0.000000     -0.000000      0.000000
    16   Atom       -0.000000     -0.000000      0.000000
    17   Atom       -0.000000      0.000000      0.000000
    18   Atom        0.000000     -0.000000     -0.000000
    19   Atom       -0.000000      0.000000     -0.000000
    20   Atom       -0.000000     -0.000000      0.000000
    21   Atom        0.000000     -0.000000     -0.000000
 --------------------------------------------------------
                        XY            XZ            YZ
 --------------------------------------------------------
     1   Atom        0.000000     -0.000000     -0.000000
     2   Atom       -0.000000     -0.000000      0.000000
     3   Atom        0.000000     -0.000000     -0.000000
     4   Atom        0.000000     -0.000000     -0.000000
     5   Atom        0.000000      0.000000     -0.000000
     6   Atom        0.000000     -0.000000     -0.000000
     7   Atom        0.000000     -0.000000     -0.000000
     8   Atom       -0.000000     -0.000000      0.000000
     9   Atom       -0.000000     -0.000000      0.000000
    10   Atom        0.000000     -0.000000      0.000000
    11   Atom        0.000000      0.000000     -0.000000
    12   Atom        0.000000      0.000000      0.000000
    13   Atom        0.000000     -0.000000     -0.000000
    14   Atom        0.000000     -0.000000      0.000000
    15   Atom        0.000000      0.000000      0.000000
    16   Atom        0.000000     -0.000000      0.000000
    17   Atom        0.000000      0.000000     -0.000000
    18   Atom       -0.000000     -0.000000      0.000000
    19   Atom        0.000000      0.000000     -0.000000
    20   Atom        0.000000      0.000000     -0.000000
    21   Atom        0.000000     -0.000000     -0.000000
 --------------------------------------------------------


 ---------------------------------------------------------------------------------
              Anisotropic Spin Dipole Couplings in Principal Axis System
 ---------------------------------------------------------------------------------

       Atom             a.u.   MegaHertz   Gauss  10(-4) cm-1        Axes

              Baa    -0.0000    -0.000    -0.000    -0.000 -0.5592  0.8288  0.0200
     1 C(13)  Bbb     0.0000     0.000     0.000     0.000  0.4143  0.2585  0.8727
              Bcc     0.0000     0.000     0.000     0.000  0.7181  0.4963 -0.4879
 
              Baa    -0.0000    -0.000    -0.000    -0.000  0.9747  0.2235  0.0000
     2 C(13)  Bbb     0.0000     0.000     0.000     0.000  0.0121 -0.0529  0.9985
              Bcc     0.0000     0.000     0.000     0.000 -0.2232  0.9733  0.0543
 
              Baa    -0.0000    -0.000    -0.000    -0.000  0.9988 -0.0497  0.0048
     3 N(14)  Bbb     0.0000     0.000     0.000     0.000 -0.0031  0.0334  0.9994
              Bcc     0.0000     0.000     0.000     0.000  0.0498  0.9982 -0.0332
 
              Baa    -0.0000    -0.000    -0.000    -0.000  0.0016  0.0068  1.0000
     4 C(13)  Bbb     0.0000     0.000     0.000     0.000 -0.4276  0.9040 -0.0055
              Bcc     0.0000     0.000     0.000     0.000  0.9040  0.4275 -0.0044
 
              Baa    -0.0000    -0.000    -0.000    -0.000  0.7439 -0.6674 -0.0353
     5 C(13)  Bbb     0.0000     0.000     0.000     0.000  0.0403 -0.0080  0.9992
              Bcc     0.0000     0.000     0.000     0.000  0.6671  0.7447 -0.0209
 
              Baa    -0.0000     0.000     0.000     0.000 -0.5996  0.8001 -0.0155
     6 O(17)  Bbb     0.0000    -0.000    -0.000    -0.000  0.0348  0.0455  0.9984
              Bcc     0.0000    -0.000    -0.000    -0.000  0.7995  0.5981 -0.0551
 
              Baa    -0.0000    -0.000    -0.000    -0.000  0.0474  0.2447  0.9684
     7 C(13)  Bbb    -0.0000    -0.000    -0.000    -0.000  0.8283 -0.5515  0.0988
              Bcc     0.0000     0.000     0.000     0.000  0.5583  0.7974 -0.2288
 
              Baa    -0.0000    -0.000    -0.000    -0.000  0.8402  0.5419  0.0183
     8 C(13)  Bbb     0.0000     0.000     0.000     0.000  0.0077 -0.0458  0.9989
              Bcc     0.0000     0.000     0.000     0.000 -0.5422  0.8392  0.0426
 
              Baa    -0.0000    -0.000    -0.000    -0.000  0.6573  0.7536  0.0006
     9 C(13)  Bbb     0.0000     0.000     0.000     0.000  0.0136 -0.0126  0.9998
              Bcc     0.0000     0.000     0.000     0.000  0.7535 -0.6572 -0.0185
 
              Baa    -0.0000    -0.000    -0.000    -0.000 -0.2190  0.9757 -0.0024
    10 N(14)  Bbb     0.0000     0.000     0.000     0.000  0.0009  0.0027  1.0000
              Bcc     0.0000     0.000     0.000     0.000  0.9757  0.2190 -0.0015
 
              Baa    -0.0000    -0.000    -0.000    -0.000 -0.0474  0.0285  0.9985
    11 C(13)  Bbb    -0.0000    -0.000    -0.000    -0.000  0.8508 -0.5225  0.0553
              Bcc     0.0000     0.000     0.000     0.000  0.5233  0.8522  0.0005
 
              Baa    -0.0000    -0.000    -0.000    -0.000 -0.0079  0.0003  1.0000
    12 C(13)  Bbb    -0.0000    -0.000    -0.000    -0.000  0.8148 -0.5797  0.0066
              Bcc     0.0000     0.000     0.000     0.000  0.5797  0.8148  0.0043
 
              Baa    -0.0000    -0.000    -0.000    -0.000 -0.1611  0.9865  0.0297
    13 S(33)  Bbb     0.0000     0.000     0.000     0.000  0.1995  0.0031  0.9799
              Bcc     0.0000     0.000     0.000     0.000  0.9666  0.1637 -0.1973
 
              Baa    -0.0000    -0.000    -0.000    -0.000  0.9569 -0.2905  0.0034
    14 H(1)   Bbb     0.0000     0.000     0.000     0.000 -0.0047 -0.0037  1.0000
              Bcc     0.0000     0.000     0.000     0.000  0.2905  0.9569  0.0050
 
              Baa    -0.0000    -0.000    -0.000    -0.000 -0.3600  0.9330 -0.0005
    15 H(1)   Bbb     0.0000     0.000     0.000     0.000 -0.0532 -0.0200  0.9984
              Bcc     0.0000     0.000     0.000     0.000  0.9315  0.3594  0.0568
 
              Baa    -0.0000    -0.000    -0.000    -0.000 -0.6290  0.6419 -0.4386
    16 H(1)   Bbb     0.0000     0.000     0.000     0.000  0.7759  0.5532 -0.3031
              Bcc     0.0000     0.000     0.000     0.000 -0.0481  0.5309  0.8460
 
              Baa    -0.0000    -0.000    -0.000    -0.000 -0.3152  0.7169  0.6218
    17 H(1)   Bbb    -0.0000    -0.000    -0.000    -0.000  0.9490  0.2381  0.2066
              Bcc     0.0000     0.000     0.000     0.000 -0.0001 -0.6552  0.7554
 
              Baa    -0.0000    -0.000    -0.000    -0.000  0.0235  0.7614 -0.6478
    18 H(1)   Bbb    -0.0000    -0.000    -0.000    -0.000  0.7947  0.3789  0.4742
              Bcc     0.0000     0.000     0.000     0.000  0.6065 -0.5260 -0.5962
 
              Baa    -0.0000    -0.000    -0.000    -0.000 -0.0478  0.0593  0.9971
    19 H(1)   Bbb    -0.0000    -0.000    -0.000    -0.000  0.9621 -0.2657  0.0619
              Bcc     0.0000     0.000     0.000     0.000  0.2686  0.9622 -0.0443
 
              Baa    -0.0000    -0.000    -0.000    -0.000  0.7094 -0.7048 -0.0014
    20 H(1)   Bbb     0.0000     0.000     0.000     0.000  0.0032  0.0012  1.0000
              Bcc     0.0000     0.000     0.000     0.000  0.7048  0.7094 -0.0032
 
              Baa    -0.0000    -0.000    -0.000    -0.000 -0.0512  0.9987 -0.0015
    21 H(1)   Bbb    -0.0000    -0.000    -0.000    -0.000  0.0031  0.0017  1.0000
              Bcc     0.0000     0.000     0.000     0.000  0.9987  0.0512 -0.0032
 

 ---------------------------------------------------------------------------------

 No NMR shielding tensors so no spin-rotation constants.
 Leave Link  601 at Fri Jul 24 16:06:09 2020, MaxMem=  4026531840 cpu:               4.3 elap:               0.6
 (Enter /opt/ohpc/pub/libs/gaussian/g16-A.03/sandybridge/g16/l9999.exe)

 Test job not archived.
 1\1\GINC-SKYLAKE039\FOpt\ULC-wPBE\CC-pVDZ\C9H8N2O1S1\RDU230\24-Jul-202
 0\0\\#P uLC-wPBE/cc-pVDZ iop(3/107=0097700000, 3/108=0097700000) opt\\
 H8 C9 S1 N2 O1\\0,1\C,2.9158527971,-1.3971769986,0.0462742335\C,1.7818
 048782,-2.2181177502,0.075955498\N,0.533820783,-1.7297390449,0.1001212
 721\C,0.3424044939,-0.3945974239,0.096225231\C,1.4371899648,0.52381667
 85,0.0669326127\O,1.1489278964,1.8485376097,0.0653312042\C,2.240366257
 2,2.7655274231,0.0359339792\C,2.740448544,-0.0079275617,0.0416989135\C
 ,-1.0685817289,0.018946469,0.1243160377\N,-1.5607757392,1.2405363261,0
 .1277364536\C,-2.9331100091,1.2086050303,0.1576238628\C,-3.5110411847,
 -0.0443855851,0.1776186624\S,-2.2900896944,-1.272837953,0.1584800724\H
 ,3.9248147188,-1.8326078819,0.026928438\H,1.8744046261,-3.3158767143,0
 .0806392773\H,2.894474814,2.6563289455,0.9287265357\H,2.8548645414,2.6
 45373727,-0.8832012531\H,1.7820910176,3.7700714013,0.0398856001\H,3.61
 33341938,0.6564725827,0.0185493832\H,-3.4903514169,2.1549676648,0.1640
 772403\H,-4.5758807531,-0.3007629443,0.2021967452\\Version=EM64L-G16Re
 vA.03\State=1-A\HF=-930.0322836\S2=0.\S2-1=0.\S2A=0.\RMSD=6.464e-09\RM
 SF=9.819e-06\Dipole=0.9524756,0.5051454,-0.0238802\Quadrupole=8.492958
 4,-1.1568578,-7.3361006,1.9442469,-0.355728,-0.0798627\PG=C01 [X(C9H8N
 2O1S1)]\\@


 What some people mistake for the high cost
 of living is really the cost of living high.
                              -- Doug Larson
 Job cpu time:       0 days  1 hours 51 minutes  1.2 seconds.
 Elapsed time:       0 days  0 hours 14 minutes  3.0 seconds.
 File lengths (MBytes):  RWF=    112 Int=      0 D2E=      0 Chk=     12 Scr=      8
 Normal termination of Gaussian 16 at Fri Jul 24 16:06:09 2020.
