 Entering Gaussian System, Link 0=g16
 Input=mols_65_5_27_n-cOC-COC_opt_0.gjf
 Output=mols_65_5_27_n-cOC-COC_opt_0.log
 Initial command:
 /opt/ohpc/pub/libs/gaussian/g16-A.03/sandybridge/g16/l1.exe "/mnt/gpfs2_4m/scratch/rdu230/ondemand/projects/dihedral_energies/7trial/wtuning/mols_65_5_27_n-cOC-COC/Gau-136544.inp" -scrdir="/mnt/gpfs2_4m/scratch/rdu230/ondemand/projects/dihedral_energies/7trial/wtuning/mols_65_5_27_n-cOC-COC/"
 Entering Link 1 = /opt/ohpc/pub/libs/gaussian/g16-A.03/sandybridge/g16/l1.exe PID=    136545.
  
 Copyright (c) 1988,1990,1992,1993,1995,1998,2003,2009,2016,
            Gaussian, Inc.  All Rights Reserved.
  
 This is part of the Gaussian(R) 16 program.  It is based on
 the Gaussian(R) 09 system (copyright 2009, Gaussian, Inc.),
 the Gaussian(R) 03 system (copyright 2003, Gaussian, Inc.),
 the Gaussian(R) 98 system (copyright 1998, Gaussian, Inc.),
 the Gaussian(R) 94 system (copyright 1995, Gaussian, Inc.),
 the Gaussian 92(TM) system (copyright 1992, Gaussian, Inc.),
 the Gaussian 90(TM) system (copyright 1990, Gaussian, Inc.),
 the Gaussian 88(TM) system (copyright 1988, Gaussian, Inc.),
 the Gaussian 86(TM) system (copyright 1986, Carnegie Mellon
 University), and the Gaussian 82(TM) system (copyright 1983,
 Carnegie Mellon University). Gaussian is a federally registered
 trademark of Gaussian, Inc.
  
 This software contains proprietary and confidential information,
 including trade secrets, belonging to Gaussian, Inc.
  
 This software is provided under written license and may be
 used, copied, transmitted, or stored only in accord with that
 written license.
  
 The following legend is applicable only to US Government
 contracts under FAR:
  
                    RESTRICTED RIGHTS LEGEND
  
 Use, reproduction and disclosure by the US Government is
 subject to restrictions as set forth in subparagraphs (a)
 and (c) of the Commercial Computer Software - Restricted
 Rights clause in FAR 52.227-19.
  
 Gaussian, Inc.
 340 Quinnipiac St., Bldg. 40, Wallingford CT 06492
  
  
 ---------------------------------------------------------------
 Warning -- This program may not be used in any manner that
 competes with the business of Gaussian, Inc. or will provide
 assistance to any competitor of Gaussian, Inc.  The licensee
 of this program is prohibited from giving any competitor of
 Gaussian, Inc. access to this program.  By using this program,
 the user acknowledges that Gaussian, Inc. is engaged in the
 business of creating and licensing software in the field of
 computational chemistry and represents and warrants to the
 licensee that it is not a competitor of Gaussian, Inc. and that
 it will not use this program in any manner prohibited above.
 ---------------------------------------------------------------
  

 Cite this work as:
 Gaussian 16, Revision A.03,
 M. J. Frisch, G. W. Trucks, H. B. Schlegel, G. E. Scuseria, 
 M. A. Robb, J. R. Cheeseman, G. Scalmani, V. Barone, 
 G. A. Petersson, H. Nakatsuji, X. Li, M. Caricato, A. V. Marenich, 
 J. Bloino, B. G. Janesko, R. Gomperts, B. Mennucci, H. P. Hratchian, 
 J. V. Ortiz, A. F. Izmaylov, J. L. Sonnenberg, D. Williams-Young, 
 F. Ding, F. Lipparini, F. Egidi, J. Goings, B. Peng, A. Petrone, 
 T. Henderson, D. Ranasinghe, V. G. Zakrzewski, J. Gao, N. Rega, 
 G. Zheng, W. Liang, M. Hada, M. Ehara, K. Toyota, R. Fukuda, 
 J. Hasegawa, M. Ishida, T. Nakajima, Y. Honda, O. Kitao, H. Nakai, 
 T. Vreven, K. Throssell, J. A. Montgomery, Jr., J. E. Peralta, 
 F. Ogliaro, M. J. Bearpark, J. J. Heyd, E. N. Brothers, K. N. Kudin, 
 V. N. Staroverov, T. A. Keith, R. Kobayashi, J. Normand, 
 K. Raghavachari, A. P. Rendell, J. C. Burant, S. S. Iyengar, 
 J. Tomasi, M. Cossi, J. M. Millam, M. Klene, C. Adamo, R. Cammi, 
 J. W. Ochterski, R. L. Martin, K. Morokuma, O. Farkas, 
 J. B. Foresman, and D. J. Fox, Gaussian, Inc., Wallingford CT, 2016.
 
 ******************************************
 Gaussian 16:  EM64L-G16RevA.03 25-Dec-2016
                24-Jul-2020 
 ******************************************
 %mem=30GB
 %nproc=8
 Will use up to    8 processors via shared memory.
 ---------------------------------------------------------------
 #P uLC-wPBE/cc-pVDZ iop(3/107=0466900000, 3/108=0466900000) opt
 ---------------------------------------------------------------
 1/18=20,19=15,26=3,38=1/1,3;
 2/9=110,12=2,17=6,18=5,40=1/2;
 3/5=16,11=2,25=1,30=1,71=1,74=-41,107=466900000,108=466900000,116=2/1,2,3;
 4//1;
 5/5=2,38=5/2;
 6/7=2,8=2,9=2,10=2,28=1/1;
 7//1,2,3,16;
 1/18=20,19=15,26=3/3(2);
 2/9=110/2;
 99//99;
 2/9=110/2;
 3/5=16,11=2,25=1,30=1,71=1,74=-41,107=466900000,108=466900000,116=2/1,2,3;
 4/5=5,16=3,69=1/1;
 5/5=2,38=5/2;
 7//1,2,3,16;
 1/18=20,19=15,26=3/3(-5);
 2/9=110/2;
 6/7=2,8=2,9=2,10=2,19=2,28=1/1;
 99/9=1/99;
 Leave Link    1 at Fri Jul 24 11:28:08 2020, MaxMem=  4026531840 cpu:               1.5 elap:               0.2
 (Enter /opt/ohpc/pub/libs/gaussian/g16-A.03/sandybridge/g16/l101.exe)
 -----------------
 H47 C55 S5 N5 O10
 -----------------
 Symbolic Z-matrix:
 Charge =  0 Multiplicity = 1
 C                    -17.04661  -4.38067  -1.94895 
 C                    -16.17788  -3.65733  -2.70985 
 N                    -15.41723  -2.68172  -2.2371 
 C                    -15.54982  -2.35244  -0.98842 
 C                    -16.4102  -3.10721  -0.11123 
 O                    -16.45848  -2.78544   1.24247 
 C                    -17.70527  -2.55988   1.81671 
 C                    -17.19024  -4.15874  -0.5934 
 C                    -14.6599  -1.31923  -0.5011 
 C                    -14.98135  -0.11492   0.10818 
 O                    -16.34055   0.16914   0.35326 
 C                    -16.55734   1.40372   1.15396 
 C                    -13.88107   0.68803   0.35705 
 C                    -12.68379   0.05955  -0.02726 
 S                    -13.02125  -1.40624  -0.7485 
 C                    -11.33666   0.57195   0.08453 
 C                    -10.40368   0.45738  -0.95273 
 N                    -9.08898   0.91237  -0.85817 
 C                    -8.67758   1.48687   0.34722 
 C                    -9.56585   1.61759   1.38017 
 O                    -9.09598   2.16481   2.59153 
 C                    -9.81905   3.36801   3.02212 
 C                    -10.87     1.24543   1.33183 
 C                    -7.23523   1.79356   0.33788 
 C                    -6.65999   3.07429   0.46564 
 O                    -7.50105   4.12809   0.67618 
 C                    -6.74136   5.43362   0.83761 
 C                    -5.25134   2.97885   0.48551 
 C                    -4.80012   1.69932   0.18707 
 S                    -6.10173   0.58024   0.18299 
 C                    -3.38011   1.22352   0.08349 
 C                    -2.35001   1.81883   0.85106 
 N                    -1.11017   1.42536   0.81579 
 C                    -0.79189   0.39616  -0.01309 
 C                    -1.6651   -0.21116  -0.76275 
 O                    -1.24256  -1.2009   -1.67069 
 C                    -2.16896  -2.28616  -1.7114 
 C                    -3.04448   0.2551   -0.72311 
 C                     0.6109    0.04128   0.08403 
 C                     1.14584  -1.1759    0.59428 
 O                     0.27764  -2.15243   1.09492 
 C                     0.93401  -3.36345   1.53463 
 C                     2.58813  -1.21403   0.44259 
 C                     3.07082  -0.12614  -0.15981 
 S                     1.83046   1.06902  -0.48666 
 C                     4.488     0.18962  -0.36844 
 C                     5.31635  -0.78774  -0.89975 
 N                     6.69599  -0.64164  -1.05559 
 C                     7.22088   0.54485  -0.80368 
 C                     6.39371   1.64136  -0.42189 
 O                     7.03919   2.80558  -0.15688 
 C                     6.4512    3.89567  -0.97582 
 C                     5.12115   1.47377  -0.1934 
 C                     8.66025   0.65955  -0.97634 
 C                     9.43144   1.4179   -1.91083 
 O                     8.84954   2.30144  -2.75975 
 C                     9.71037   3.04943  -3.45305 
 C                     10.80178   1.1418   -1.66402 
 C                     11.10766   0.17439  -0.70413 
 S                     9.6084   -0.33305  -0.04641 
 C                     12.422   -0.30263  -0.26181 
 C                     12.58556  -1.64456   0.12888 
 N                     13.7565  -2.14149   0.59792 
 C                     14.77191  -1.21404   0.6981 
 C                     14.67126   0.09768   0.35188 
 O                     15.80351   1.00623   0.56127 
 C                     16.16059   1.55004  -0.64039 
 C                     13.51079   0.56331  -0.08095 
 C                     16.04018  -1.85784   1.2504 
 C                     17.22792  -2.03314   0.59356 
 O                     17.38776  -1.67709  -0.62839 
 C                     18.65436  -2.01358  -1.18461 
 C                     18.15497  -2.66284   1.51532 
 C                     17.68298  -2.88124   2.80265 
 S                     16.03249  -2.2733    2.89894 
 H                    -17.60667  -5.24501  -2.41966 
 H                    -16.14599  -3.88495  -3.8199 
 H                    -18.32906  -2.00267   1.04699 
 H                    -17.60604  -1.98952   2.74101 
 H                    -18.21275  -3.56611   2.04107 
 H                    -17.77781  -4.75606   0.06051 
 H                    -17.58953   1.47643   1.28203 
 H                    -16.1871   2.25699   0.53148 
 H                    -16.09546   1.27527   2.07867 
 H                    -13.83864   1.65538   0.86543 
 H                    -10.68799  -0.00516  -1.84498 
 H                    -9.21152   3.91447   3.63329 
 H                    -10.09735   3.96462   2.11499 
 H                    -10.67509   3.05012   3.48806 
 H                    -11.54766   1.2946    2.18779 
 H                    -6.21694   5.58434  -0.07405 
 H                    -7.49862   6.18205   0.93261 
 H                    -6.06623   5.35649   1.71397 
 H                    -4.60274   3.81327   0.56241 
 H                    -2.58187   2.58278   1.56892 
 H                    -2.5775   -2.57525  -0.73259 
 H                    -2.97076  -2.08179  -2.43046 
 H                    -1.59724  -3.22388  -2.0963 
 H                    -3.76682  -0.2799   -1.41763 
 H                     1.45743  -3.81076   0.65759 
 H                     0.10214  -3.98582   1.84709 
 H                     1.59989  -3.12506   2.35781 
 H                     3.17295  -2.13723   0.73303 
 H                     5.0072   -1.84544  -1.06608 
 H                     6.38204   3.61997  -2.03604 
 H                     7.20199   4.74939  -0.84104 
 H                     5.51485   4.21076  -0.61665 
 H                     4.47196   2.28609   0.25668 
 H                     10.384    3.71399  -2.80034 
 H                     9.1181    3.77653  -4.03432 
 H                     10.3402   2.48335  -4.20874 
 H                     11.66089   1.65826  -2.22268 
 H                     11.85027  -2.38365   0.05244 
 H                     15.57224   2.41508  -0.93815 
 H                     16.29167   0.86967  -1.42235 
 H                     17.2022   1.96896  -0.44594 
 H                     13.40595   1.62451  -0.34538 
 H                     18.85703  -3.09901  -1.17501 
 H                     18.6544  -1.6931   -2.31343 
 H                     19.42645  -1.51553  -0.7185 
 H                     19.25086  -2.90309   1.29177 
 H                     18.16729  -3.29092   3.60877 
 
 ITRead=  0  0  0  0  0  0  0  0  0  0  0  0  0  0  0  0  0  0  0  0
 ITRead=  0  0  0  0  0  0  0  0  0  0  0  0  0  0  0  0  0  0  0  0
 ITRead=  0  0  0  0  0  0  0  0  0  0  0  0  0  0  0  0  0  0  0  0
 ITRead=  0  0  0  0  0  0  0  0  0  0  0  0  0  0  0  0  0  0  0  0
 ITRead=  0  0  0  0  0  0  0  0  0  0  0  0  0  0  0  0  0  0  0  0
 ITRead=  0  0  0  0  0  0  0  0  0  0  0  0  0  0  0  0  0  0  0  0
 ITRead=  0  0
 MicOpt= -1 -1 -1 -1 -1 -1 -1 -1 -1 -1 -1 -1 -1 -1 -1 -1 -1 -1 -1 -1
 MicOpt= -1 -1 -1 -1 -1 -1 -1 -1 -1 -1 -1 -1 -1 -1 -1 -1 -1 -1 -1 -1
 MicOpt= -1 -1 -1 -1 -1 -1 -1 -1 -1 -1 -1 -1 -1 -1 -1 -1 -1 -1 -1 -1
 MicOpt= -1 -1 -1 -1 -1 -1 -1 -1 -1 -1 -1 -1 -1 -1 -1 -1 -1 -1 -1 -1
 MicOpt= -1 -1 -1 -1 -1 -1 -1 -1 -1 -1 -1 -1 -1 -1 -1 -1 -1 -1 -1 -1
 MicOpt= -1 -1 -1 -1 -1 -1 -1 -1 -1 -1 -1 -1 -1 -1 -1 -1 -1 -1 -1 -1
 MicOpt= -1 -1
 NAtoms=    122 NQM=      122 NQMF=       0 NMMI=      0 NMMIF=      0
                NMic=       0 NMicF=      0.
                    Isotopes and Nuclear Properties:
 (Nuclear quadrupole moments (NQMom) in fm**2, nuclear magnetic moments (NMagM)
  in nuclear magnetons)

  Atom         1           2           3           4           5           6           7           8           9          10
 IAtWgt=          12          12          14          12          12          16          12          12          12          12
 AtmWgt=  12.0000000  12.0000000  14.0030740  12.0000000  12.0000000  15.9949146  12.0000000  12.0000000  12.0000000  12.0000000
 NucSpn=           0           0           2           0           0           0           0           0           0           0
 AtZEff=  -0.0000000  -0.0000000  -0.0000000  -0.0000000  -0.0000000  -0.0000000  -0.0000000  -0.0000000  -0.0000000  -0.0000000
 NQMom=    0.0000000   0.0000000   2.0440000   0.0000000   0.0000000   0.0000000   0.0000000   0.0000000   0.0000000   0.0000000
 NMagM=    0.0000000   0.0000000   0.4037610   0.0000000   0.0000000   0.0000000   0.0000000   0.0000000   0.0000000   0.0000000
 AtZNuc=   6.0000000   6.0000000   7.0000000   6.0000000   6.0000000   8.0000000   6.0000000   6.0000000   6.0000000   6.0000000

  Atom        11          12          13          14          15          16          17          18          19          20
 IAtWgt=          16          12          12          12          32          12          12          14          12          12
 AtmWgt=  15.9949146  12.0000000  12.0000000  12.0000000  31.9720718  12.0000000  12.0000000  14.0030740  12.0000000  12.0000000
 NucSpn=           0           0           0           0           0           0           0           2           0           0
 AtZEff=  -0.0000000  -0.0000000  -0.0000000  -0.0000000  -0.0000000  -0.0000000  -0.0000000  -0.0000000  -0.0000000  -0.0000000
 NQMom=    0.0000000   0.0000000   0.0000000   0.0000000   0.0000000   0.0000000   0.0000000   2.0440000   0.0000000   0.0000000
 NMagM=    0.0000000   0.0000000   0.0000000   0.0000000   0.0000000   0.0000000   0.0000000   0.4037610   0.0000000   0.0000000
 AtZNuc=   8.0000000   6.0000000   6.0000000   6.0000000  16.0000000   6.0000000   6.0000000   7.0000000   6.0000000   6.0000000

  Atom        21          22          23          24          25          26          27          28          29          30
 IAtWgt=          16          12          12          12          12          16          12          12          12          32
 AtmWgt=  15.9949146  12.0000000  12.0000000  12.0000000  12.0000000  15.9949146  12.0000000  12.0000000  12.0000000  31.9720718
 NucSpn=           0           0           0           0           0           0           0           0           0           0
 AtZEff=  -0.0000000  -0.0000000  -0.0000000  -0.0000000  -0.0000000  -0.0000000  -0.0000000  -0.0000000  -0.0000000  -0.0000000
 NQMom=    0.0000000   0.0000000   0.0000000   0.0000000   0.0000000   0.0000000   0.0000000   0.0000000   0.0000000   0.0000000
 NMagM=    0.0000000   0.0000000   0.0000000   0.0000000   0.0000000   0.0000000   0.0000000   0.0000000   0.0000000   0.0000000
 AtZNuc=   8.0000000   6.0000000   6.0000000   6.0000000   6.0000000   8.0000000   6.0000000   6.0000000   6.0000000  16.0000000

  Atom        31          32          33          34          35          36          37          38          39          40
 IAtWgt=          12          12          14          12          12          16          12          12          12          12
 AtmWgt=  12.0000000  12.0000000  14.0030740  12.0000000  12.0000000  15.9949146  12.0000000  12.0000000  12.0000000  12.0000000
 NucSpn=           0           0           2           0           0           0           0           0           0           0
 AtZEff=  -0.0000000  -0.0000000  -0.0000000  -0.0000000  -0.0000000  -0.0000000  -0.0000000  -0.0000000  -0.0000000  -0.0000000
 NQMom=    0.0000000   0.0000000   2.0440000   0.0000000   0.0000000   0.0000000   0.0000000   0.0000000   0.0000000   0.0000000
 NMagM=    0.0000000   0.0000000   0.4037610   0.0000000   0.0000000   0.0000000   0.0000000   0.0000000   0.0000000   0.0000000
 AtZNuc=   6.0000000   6.0000000   7.0000000   6.0000000   6.0000000   8.0000000   6.0000000   6.0000000   6.0000000   6.0000000

  Atom        41          42          43          44          45          46          47          48          49          50
 IAtWgt=          16          12          12          12          32          12          12          14          12          12
 AtmWgt=  15.9949146  12.0000000  12.0000000  12.0000000  31.9720718  12.0000000  12.0000000  14.0030740  12.0000000  12.0000000
 NucSpn=           0           0           0           0           0           0           0           2           0           0
 AtZEff=  -0.0000000  -0.0000000  -0.0000000  -0.0000000  -0.0000000  -0.0000000  -0.0000000  -0.0000000  -0.0000000  -0.0000000
 NQMom=    0.0000000   0.0000000   0.0000000   0.0000000   0.0000000   0.0000000   0.0000000   2.0440000   0.0000000   0.0000000
 NMagM=    0.0000000   0.0000000   0.0000000   0.0000000   0.0000000   0.0000000   0.0000000   0.4037610   0.0000000   0.0000000
 AtZNuc=   8.0000000   6.0000000   6.0000000   6.0000000  16.0000000   6.0000000   6.0000000   7.0000000   6.0000000   6.0000000

  Atom        51          52          53          54          55          56          57          58          59          60
 IAtWgt=          16          12          12          12          12          16          12          12          12          32
 AtmWgt=  15.9949146  12.0000000  12.0000000  12.0000000  12.0000000  15.9949146  12.0000000  12.0000000  12.0000000  31.9720718
 NucSpn=           0           0           0           0           0           0           0           0           0           0
 AtZEff=  -0.0000000  -0.0000000  -0.0000000  -0.0000000  -0.0000000  -0.0000000  -0.0000000  -0.0000000  -0.0000000  -0.0000000
 NQMom=    0.0000000   0.0000000   0.0000000   0.0000000   0.0000000   0.0000000   0.0000000   0.0000000   0.0000000   0.0000000
 NMagM=    0.0000000   0.0000000   0.0000000   0.0000000   0.0000000   0.0000000   0.0000000   0.0000000   0.0000000   0.0000000
 AtZNuc=   8.0000000   6.0000000   6.0000000   6.0000000   6.0000000   8.0000000   6.0000000   6.0000000   6.0000000  16.0000000

  Atom        61          62          63          64          65          66          67          68          69          70
 IAtWgt=          12          12          14          12          12          16          12          12          12          12
 AtmWgt=  12.0000000  12.0000000  14.0030740  12.0000000  12.0000000  15.9949146  12.0000000  12.0000000  12.0000000  12.0000000
 NucSpn=           0           0           2           0           0           0           0           0           0           0
 AtZEff=  -0.0000000  -0.0000000  -0.0000000  -0.0000000  -0.0000000  -0.0000000  -0.0000000  -0.0000000  -0.0000000  -0.0000000
 NQMom=    0.0000000   0.0000000   2.0440000   0.0000000   0.0000000   0.0000000   0.0000000   0.0000000   0.0000000   0.0000000
 NMagM=    0.0000000   0.0000000   0.4037610   0.0000000   0.0000000   0.0000000   0.0000000   0.0000000   0.0000000   0.0000000
 AtZNuc=   6.0000000   6.0000000   7.0000000   6.0000000   6.0000000   8.0000000   6.0000000   6.0000000   6.0000000   6.0000000

  Atom        71          72          73          74          75          76          77          78          79          80
 IAtWgt=          16          12          12          12          32           1           1           1           1           1
 AtmWgt=  15.9949146  12.0000000  12.0000000  12.0000000  31.9720718   1.0078250   1.0078250   1.0078250   1.0078250   1.0078250
 NucSpn=           0           0           0           0           0           1           1           1           1           1
 AtZEff=  -0.0000000  -0.0000000  -0.0000000  -0.0000000  -0.0000000  -0.0000000  -0.0000000  -0.0000000  -0.0000000  -0.0000000
 NQMom=    0.0000000   0.0000000   0.0000000   0.0000000   0.0000000   0.0000000   0.0000000   0.0000000   0.0000000   0.0000000
 NMagM=    0.0000000   0.0000000   0.0000000   0.0000000   0.0000000   2.7928460   2.7928460   2.7928460   2.7928460   2.7928460
 AtZNuc=   8.0000000   6.0000000   6.0000000   6.0000000  16.0000000   1.0000000   1.0000000   1.0000000   1.0000000   1.0000000

  Atom        81          82          83          84          85          86          87          88          89          90
 IAtWgt=           1           1           1           1           1           1           1           1           1           1
 AtmWgt=   1.0078250   1.0078250   1.0078250   1.0078250   1.0078250   1.0078250   1.0078250   1.0078250   1.0078250   1.0078250
 NucSpn=           1           1           1           1           1           1           1           1           1           1
 AtZEff=  -0.0000000  -0.0000000  -0.0000000  -0.0000000  -0.0000000  -0.0000000  -0.0000000  -0.0000000  -0.0000000  -0.0000000
 NQMom=    0.0000000   0.0000000   0.0000000   0.0000000   0.0000000   0.0000000   0.0000000   0.0000000   0.0000000   0.0000000
 NMagM=    2.7928460   2.7928460   2.7928460   2.7928460   2.7928460   2.7928460   2.7928460   2.7928460   2.7928460   2.7928460
 AtZNuc=   1.0000000   1.0000000   1.0000000   1.0000000   1.0000000   1.0000000   1.0000000   1.0000000   1.0000000   1.0000000

  Atom        91          92          93          94          95          96          97          98          99         100
 IAtWgt=           1           1           1           1           1           1           1           1           1           1
 AtmWgt=   1.0078250   1.0078250   1.0078250   1.0078250   1.0078250   1.0078250   1.0078250   1.0078250   1.0078250   1.0078250
 NucSpn=           1           1           1           1           1           1           1           1           1           1
 AtZEff=  -0.0000000  -0.0000000  -0.0000000  -0.0000000  -0.0000000  -0.0000000  -0.0000000  -0.0000000  -0.0000000  -0.0000000
 NQMom=    0.0000000   0.0000000   0.0000000   0.0000000   0.0000000   0.0000000   0.0000000   0.0000000   0.0000000   0.0000000
 NMagM=    2.7928460   2.7928460   2.7928460   2.7928460   2.7928460   2.7928460   2.7928460   2.7928460   2.7928460   2.7928460
 AtZNuc=   1.0000000   1.0000000   1.0000000   1.0000000   1.0000000   1.0000000   1.0000000   1.0000000   1.0000000   1.0000000

  Atom       101         102         103         104         105         106         107         108         109         110
 IAtWgt=           1           1           1           1           1           1           1           1           1           1
 AtmWgt=   1.0078250   1.0078250   1.0078250   1.0078250   1.0078250   1.0078250   1.0078250   1.0078250   1.0078250   1.0078250
 NucSpn=           1           1           1           1           1           1           1           1           1           1
 AtZEff=  -0.0000000  -0.0000000  -0.0000000  -0.0000000  -0.0000000  -0.0000000  -0.0000000  -0.0000000  -0.0000000  -0.0000000
 NQMom=    0.0000000   0.0000000   0.0000000   0.0000000   0.0000000   0.0000000   0.0000000   0.0000000   0.0000000   0.0000000
 NMagM=    2.7928460   2.7928460   2.7928460   2.7928460   2.7928460   2.7928460   2.7928460   2.7928460   2.7928460   2.7928460
 AtZNuc=   1.0000000   1.0000000   1.0000000   1.0000000   1.0000000   1.0000000   1.0000000   1.0000000   1.0000000   1.0000000

  Atom       111         112         113         114         115         116         117         118         119         120
 IAtWgt=           1           1           1           1           1           1           1           1           1           1
 AtmWgt=   1.0078250   1.0078250   1.0078250   1.0078250   1.0078250   1.0078250   1.0078250   1.0078250   1.0078250   1.0078250
 NucSpn=           1           1           1           1           1           1           1           1           1           1
 AtZEff=  -0.0000000  -0.0000000  -0.0000000  -0.0000000  -0.0000000  -0.0000000  -0.0000000  -0.0000000  -0.0000000  -0.0000000
 NQMom=    0.0000000   0.0000000   0.0000000   0.0000000   0.0000000   0.0000000   0.0000000   0.0000000   0.0000000   0.0000000
 NMagM=    2.7928460   2.7928460   2.7928460   2.7928460   2.7928460   2.7928460   2.7928460   2.7928460   2.7928460   2.7928460
 AtZNuc=   1.0000000   1.0000000   1.0000000   1.0000000   1.0000000   1.0000000   1.0000000   1.0000000   1.0000000   1.0000000

  Atom       121         122
 IAtWgt=           1           1
 AtmWgt=   1.0078250   1.0078250
 NucSpn=           1           1
 AtZEff=  -0.0000000  -0.0000000
 NQMom=    0.0000000   0.0000000
 NMagM=    2.7928460   2.7928460
 AtZNuc=   1.0000000   1.0000000
 Leave Link  101 at Fri Jul 24 11:28:09 2020, MaxMem=  4026531840 cpu:               3.2 elap:               0.4
 (Enter /opt/ohpc/pub/libs/gaussian/g16-A.03/sandybridge/g16/l103.exe)

 GradGradGradGradGradGradGradGradGradGradGradGradGradGradGradGradGradGrad
 Berny optimization.
 Initialization pass.
                           ----------------------------
                           !    Initial Parameters    !
                           ! (Angstroms and Degrees)  !
 --------------------------                            --------------------------
 ! Name  Definition              Value          Derivative Info.                !
 --------------------------------------------------------------------------------
 ! R1    R(1,2)                  1.3627         estimate D2E/DX2                !
 ! R2    R(1,8)                  1.3811         estimate D2E/DX2                !
 ! R3    R(1,76)                 1.1324         estimate D2E/DX2                !
 ! R4    R(2,3)                  1.3243         estimate D2E/DX2                !
 ! R5    R(2,77)                 1.1336         estimate D2E/DX2                !
 ! R6    R(3,4)                  1.2982         estimate D2E/DX2                !
 ! R7    R(4,5)                  1.442          estimate D2E/DX2                !
 ! R8    R(4,9)                  1.4481         estimate D2E/DX2                !
 ! R9    R(5,6)                  1.3923         estimate D2E/DX2                !
 ! R10   R(5,8)                  1.3952         estimate D2E/DX2                !
 ! R11   R(6,7)                  1.3911         estimate D2E/DX2                !
 ! R12   R(7,78)                 1.1367         estimate D2E/DX2                !
 ! R13   R(7,79)                 1.0906         estimate D2E/DX2                !
 ! R14   R(7,80)                 1.1491         estimate D2E/DX2                !
 ! R15   R(8,81)                 1.0628         estimate D2E/DX2                !
 ! R16   R(9,10)                 1.3874         estimate D2E/DX2                !
 ! R17   R(9,15)                 1.6595         estimate D2E/DX2                !
 ! R18   R(10,11)                1.41           estimate D2E/DX2                !
 ! R19   R(10,13)                1.3847         estimate D2E/DX2                !
 ! R20   R(11,12)                1.4874         estimate D2E/DX2                !
 ! R21   R(12,82)                1.0426         estimate D2E/DX2                !
 ! R22   R(12,83)                1.1192         estimate D2E/DX2                !
 ! R23   R(12,84)                1.0416         estimate D2E/DX2                !
 ! R24   R(13,14)                1.4058         estimate D2E/DX2                !
 ! R25   R(13,85)                1.0936         estimate D2E/DX2                !
 ! R26   R(14,15)                1.6681         estimate D2E/DX2                !
 ! R27   R(14,16)                1.4456         estimate D2E/DX2                !
 ! R28   R(16,17)                1.3998         estimate D2E/DX2                !
 ! R29   R(16,23)                1.4923         estimate D2E/DX2                !
 ! R30   R(17,18)                1.3944         estimate D2E/DX2                !
 ! R31   R(17,86)                1.0445         estimate D2E/DX2                !
 ! R32   R(18,19)                1.3972         estimate D2E/DX2                !
 ! R33   R(19,20)                1.3686         estimate D2E/DX2                !
 ! R34   R(19,24)                1.4746         estimate D2E/DX2                !
 ! R35   R(20,21)                1.4098         estimate D2E/DX2                !
 ! R36   R(20,23)                1.3571         estimate D2E/DX2                !
 ! R37   R(21,22)                1.4683         estimate D2E/DX2                !
 ! R38   R(22,87)                1.0204         estimate D2E/DX2                !
 ! R39   R(22,88)                1.1208         estimate D2E/DX2                !
 ! R40   R(22,89)                1.0252         estimate D2E/DX2                !
 ! R41   R(23,90)                1.0928         estimate D2E/DX2                !
 ! R42   R(24,25)                1.4098         estimate D2E/DX2                !
 ! R43   R(24,30)                1.6676         estimate D2E/DX2                !
 ! R44   R(25,26)                1.3646         estimate D2E/DX2                !
 ! R45   R(25,28)                1.412          estimate D2E/DX2                !
 ! R46   R(26,27)                1.5191         estimate D2E/DX2                !
 ! R47   R(27,91)                1.0625         estimate D2E/DX2                !
 ! R48   R(27,92)                1.0689         estimate D2E/DX2                !
 ! R49   R(27,93)                1.1089         estimate D2E/DX2                !
 ! R50   R(28,29)                1.3892         estimate D2E/DX2                !
 ! R51   R(28,94)                1.0596         estimate D2E/DX2                !
 ! R52   R(29,30)                1.7165         estimate D2E/DX2                !
 ! R53   R(29,31)                1.5012         estimate D2E/DX2                !
 ! R54   R(31,32)                1.4159         estimate D2E/DX2                !
 ! R55   R(31,38)                1.3043         estimate D2E/DX2                !
 ! R56   R(32,33)                1.3013         estimate D2E/DX2                !
 ! R57   R(32,95)                1.0736         estimate D2E/DX2                !
 ! R58   R(33,34)                1.3593         estimate D2E/DX2                !
 ! R59   R(34,35)                1.3013         estimate D2E/DX2                !
 ! R60   R(34,39)                1.4502         estimate D2E/DX2                !
 ! R61   R(35,36)                1.408          estimate D2E/DX2                !
 ! R62   R(35,38)                1.4566         estimate D2E/DX2                !
 ! R63   R(36,37)                1.4275         estimate D2E/DX2                !
 ! R64   R(37,96)                1.0993         estimate D2E/DX2                !
 ! R65   R(37,97)                1.0962         estimate D2E/DX2                !
 ! R66   R(37,98)                1.1638         estimate D2E/DX2                !
 ! R67   R(38,99)                1.1359         estimate D2E/DX2                !
 ! R68   R(39,40)                1.4241         estimate D2E/DX2                !
 ! R69   R(39,45)                1.6939         estimate D2E/DX2                !
 ! R70   R(40,41)                1.3993         estimate D2E/DX2                !
 ! R71   R(40,43)                1.4507         estimate D2E/DX2                !
 ! R72   R(41,42)                1.4459         estimate D2E/DX2                !
 ! R73   R(42,100)               1.115          estimate D2E/DX2                !
 ! R74   R(42,101)               1.0849         estimate D2E/DX2                !
 ! R75   R(42,102)               1.0853         estimate D2E/DX2                !
 ! R76   R(43,44)                1.3339         estimate D2E/DX2                !
 ! R77   R(43,103)               1.1308         estimate D2E/DX2                !
 ! R78   R(44,45)                1.7532         estimate D2E/DX2                !
 ! R79   R(44,46)                1.4668         estimate D2E/DX2                !
 ! R80   R(46,47)                1.387          estimate D2E/DX2                !
 ! R81   R(46,53)                1.4424         estimate D2E/DX2                !
 ! R82   R(47,48)                1.3961         estimate D2E/DX2                !
 ! R83   R(47,104)               1.1144         estimate D2E/DX2                !
 ! R84   R(48,49)                1.3216         estimate D2E/DX2                !
 ! R85   R(49,50)                1.4256         estimate D2E/DX2                !
 ! R86   R(49,54)                1.4542         estimate D2E/DX2                !
 ! R87   R(50,51)                1.3573         estimate D2E/DX2                !
 ! R88   R(50,53)                1.3037         estimate D2E/DX2                !
 ! R89   R(51,52)                1.4848         estimate D2E/DX2                !
 ! R90   R(52,105)               1.0977         estimate D2E/DX2                !
 ! R91   R(52,106)               1.1448         estimate D2E/DX2                !
 ! R92   R(52,107)               1.0512         estimate D2E/DX2                !
 ! R93   R(53,108)               1.1331         estimate D2E/DX2                !
 ! R94   R(54,55)                1.4294         estimate D2E/DX2                !
 ! R95   R(54,60)                1.658          estimate D2E/DX2                !
 ! R96   R(55,56)                1.3564         estimate D2E/DX2                !
 ! R97   R(55,58)                1.4195         estimate D2E/DX2                !
 ! R98   R(56,57)                1.3346         estimate D2E/DX2                !
 ! R99   R(57,109)               1.1495         estimate D2E/DX2                !
 ! R100  R(57,110)               1.1033         estimate D2E/DX2                !
 ! R101  R(57,111)               1.135          estimate D2E/DX2                !
 ! R102  R(58,59)                1.3967         estimate D2E/DX2                !
 ! R103  R(58,112)               1.1476         estimate D2E/DX2                !
 ! R104  R(59,60)                1.714          estimate D2E/DX2                !
 ! R105  R(59,61)                1.4665         estimate D2E/DX2                !
 ! R106  R(61,62)                1.4072         estimate D2E/DX2                !
 ! R107  R(61,68)                1.4029         estimate D2E/DX2                !
 ! R108  R(62,63)                1.3557         estimate D2E/DX2                !
 ! R109  R(62,113)               1.0453         estimate D2E/DX2                !
 ! R110  R(63,64)                1.3789         estimate D2E/DX2                !
 ! R111  R(64,65)                1.3604         estimate D2E/DX2                !
 ! R112  R(64,69)                1.5258         estimate D2E/DX2                !
 ! R113  R(65,66)                1.4667         estimate D2E/DX2                !
 ! R114  R(65,68)                1.3232         estimate D2E/DX2                !
 ! R115  R(66,67)                1.3665         estimate D2E/DX2                !
 ! R116  R(67,114)               1.0877         estimate D2E/DX2                !
 ! R117  R(67,115)               1.0448         estimate D2E/DX2                !
 ! R118  R(67,116)               1.1394         estimate D2E/DX2                !
 ! R119  R(68,117)               1.0987         estimate D2E/DX2                !
 ! R120  R(69,70)                1.3685         estimate D2E/DX2                !
 ! R121  R(69,75)                1.7001         estimate D2E/DX2                !
 ! R122  R(70,71)                1.2828         estimate D2E/DX2                !
 ! R123  R(70,73)                1.4511         estimate D2E/DX2                !
 ! R124  R(71,72)                1.4237         estimate D2E/DX2                !
 ! R125  R(72,118)               1.1042         estimate D2E/DX2                !
 ! R126  R(72,119)               1.1734         estimate D2E/DX2                !
 ! R127  R(72,120)               1.0303         estimate D2E/DX2                !
 ! R128  R(73,74)                1.3884         estimate D2E/DX2                !
 ! R129  R(73,121)               1.144          estimate D2E/DX2                !
 ! R130  R(74,75)                1.7615         estimate D2E/DX2                !
 ! R131  R(74,122)               1.0258         estimate D2E/DX2                !
 ! A1    A(2,1,8)              121.9418         estimate D2E/DX2                !
 ! A2    A(2,1,76)             119.2331         estimate D2E/DX2                !
 ! A3    A(8,1,76)             118.6343         estimate D2E/DX2                !
 ! A4    A(1,2,3)              123.9092         estimate D2E/DX2                !
 ! A5    A(1,2,77)             117.2673         estimate D2E/DX2                !
 ! A6    A(3,2,77)             118.7712         estimate D2E/DX2                !
 ! A7    A(2,3,4)              118.1362         estimate D2E/DX2                !
 ! A8    A(3,4,5)              120.8834         estimate D2E/DX2                !
 ! A9    A(3,4,9)              116.2267         estimate D2E/DX2                !
 ! A10   A(5,4,9)              122.372          estimate D2E/DX2                !
 ! A11   A(4,5,6)              119.4187         estimate D2E/DX2                !
 ! A12   A(4,5,8)              121.1866         estimate D2E/DX2                !
 ! A13   A(6,5,8)              119.3939         estimate D2E/DX2                !
 ! A14   A(5,6,7)              118.0295         estimate D2E/DX2                !
 ! A15   A(6,7,78)             106.9666         estimate D2E/DX2                !
 ! A16   A(6,7,79)             110.6768         estimate D2E/DX2                !
 ! A17   A(6,7,80)             109.5385         estimate D2E/DX2                !
 ! A18   A(78,7,79)            111.5591         estimate D2E/DX2                !
 ! A19   A(78,7,80)            108.6093         estimate D2E/DX2                !
 ! A20   A(79,7,80)            109.4298         estimate D2E/DX2                !
 ! A21   A(1,8,5)              113.714          estimate D2E/DX2                !
 ! A22   A(1,8,81)             124.8234         estimate D2E/DX2                !
 ! A23   A(5,8,81)             121.333          estimate D2E/DX2                !
 ! A24   A(4,9,10)             128.6631         estimate D2E/DX2                !
 ! A25   A(4,9,15)             121.2815         estimate D2E/DX2                !
 ! A26   A(10,9,15)            109.862          estimate D2E/DX2                !
 ! A27   A(9,10,11)            118.3291         estimate D2E/DX2                !
 ! A28   A(9,10,13)            113.4649         estimate D2E/DX2                !
 ! A29   A(11,10,13)           128.1639         estimate D2E/DX2                !
 ! A30   A(10,11,12)           113.6587         estimate D2E/DX2                !
 ! A31   A(11,12,82)           105.5631         estimate D2E/DX2                !
 ! A32   A(11,12,83)           106.5698         estimate D2E/DX2                !
 ! A33   A(11,12,84)           108.1148         estimate D2E/DX2                !
 ! A34   A(82,12,83)           110.0378         estimate D2E/DX2                !
 ! A35   A(82,12,84)           109.7885         estimate D2E/DX2                !
 ! A36   A(83,12,84)           116.1733         estimate D2E/DX2                !
 ! A37   A(10,13,14)           111.6162         estimate D2E/DX2                !
 ! A38   A(10,13,85)           128.8518         estimate D2E/DX2                !
 ! A39   A(14,13,85)           119.3075         estimate D2E/DX2                !
 ! A40   A(13,14,15)           109.8007         estimate D2E/DX2                !
 ! A41   A(13,14,16)           127.8842         estimate D2E/DX2                !
 ! A42   A(15,14,16)           122.2363         estimate D2E/DX2                !
 ! A43   A(9,15,14)             95.1192         estimate D2E/DX2                !
 ! A44   A(14,16,17)           122.3295         estimate D2E/DX2                !
 ! A45   A(14,16,23)           121.0635         estimate D2E/DX2                !
 ! A46   A(17,16,23)           116.6051         estimate D2E/DX2                !
 ! A47   A(16,17,18)           123.4662         estimate D2E/DX2                !
 ! A48   A(16,17,86)           119.1978         estimate D2E/DX2                !
 ! A49   A(18,17,86)           117.328          estimate D2E/DX2                !
 ! A50   A(17,18,19)           118.0521         estimate D2E/DX2                !
 ! A51   A(18,19,20)           119.9531         estimate D2E/DX2                !
 ! A52   A(18,19,24)           111.595          estimate D2E/DX2                !
 ! A53   A(20,19,24)           128.297          estimate D2E/DX2                !
 ! A54   A(19,20,21)           117.9866         estimate D2E/DX2                !
 ! A55   A(19,20,23)           124.7947         estimate D2E/DX2                !
 ! A56   A(21,20,23)           117.215          estimate D2E/DX2                !
 ! A57   A(20,21,22)           113.9488         estimate D2E/DX2                !
 ! A58   A(21,22,87)           108.7414         estimate D2E/DX2                !
 ! A59   A(21,22,88)           108.7304         estimate D2E/DX2                !
 ! A60   A(21,22,89)           106.8818         estimate D2E/DX2                !
 ! A61   A(87,22,88)           110.3355         estimate D2E/DX2                !
 ! A62   A(87,22,89)           113.0165         estimate D2E/DX2                !
 ! A63   A(88,22,89)           108.9991         estimate D2E/DX2                !
 ! A64   A(16,23,20)           117.0032         estimate D2E/DX2                !
 ! A65   A(16,23,90)           118.753          estimate D2E/DX2                !
 ! A66   A(20,23,90)           123.7565         estimate D2E/DX2                !
 ! A67   A(19,24,25)           125.9776         estimate D2E/DX2                !
 ! A68   A(19,24,30)           120.9375         estimate D2E/DX2                !
 ! A69   A(25,24,30)           113.0817         estimate D2E/DX2                !
 ! A70   A(24,25,26)           117.6476         estimate D2E/DX2                !
 ! A71   A(24,25,28)           110.2999         estimate D2E/DX2                !
 ! A72   A(26,25,28)           131.6735         estimate D2E/DX2                !
 ! A73   A(25,26,27)           111.8285         estimate D2E/DX2                !
 ! A74   A(26,27,91)           106.1153         estimate D2E/DX2                !
 ! A75   A(26,27,92)           104.8859         estimate D2E/DX2                !
 ! A76   A(26,27,93)           109.1888         estimate D2E/DX2                !
 ! A77   A(91,27,92)           109.0616         estimate D2E/DX2                !
 ! A78   A(91,27,93)           112.7972         estimate D2E/DX2                !
 ! A79   A(92,27,93)           114.1894         estimate D2E/DX2                !
 ! A80   A(25,28,29)           112.536          estimate D2E/DX2                !
 ! A81   A(25,28,94)           123.9476         estimate D2E/DX2                !
 ! A82   A(29,28,94)           122.824          estimate D2E/DX2                !
 ! A83   A(28,29,30)           110.7741         estimate D2E/DX2                !
 ! A84   A(28,29,31)           127.8791         estimate D2E/DX2                !
 ! A85   A(30,29,31)           120.6959         estimate D2E/DX2                !
 ! A86   A(24,30,29)            92.3416         estimate D2E/DX2                !
 ! A87   A(29,31,32)           121.167          estimate D2E/DX2                !
 ! A88   A(29,31,38)           121.4286         estimate D2E/DX2                !
 ! A89   A(32,31,38)           117.4021         estimate D2E/DX2                !
 ! A90   A(31,32,33)           123.4616         estimate D2E/DX2                !
 ! A91   A(31,32,95)           120.3005         estimate D2E/DX2                !
 ! A92   A(33,32,95)           116.0427         estimate D2E/DX2                !
 ! A93   A(32,33,34)           117.9427         estimate D2E/DX2                !
 ! A94   A(33,34,35)           123.1993         estimate D2E/DX2                !
 ! A95   A(33,34,39)           111.7739         estimate D2E/DX2                !
 ! A96   A(35,34,39)           124.9919         estimate D2E/DX2                !
 ! A97   A(34,35,36)           119.8798         estimate D2E/DX2                !
 ! A98   A(34,35,38)           118.0602         estimate D2E/DX2                !
 ! A99   A(36,35,38)           121.786          estimate D2E/DX2                !
 ! A100  A(35,36,37)           110.9807         estimate D2E/DX2                !
 ! A101  A(36,37,96)           114.564          estimate D2E/DX2                !
 ! A102  A(36,37,97)           110.5885         estimate D2E/DX2                !
 ! A103  A(36,37,98)           107.6504         estimate D2E/DX2                !
 ! A104  A(96,37,97)           111.1763         estimate D2E/DX2                !
 ! A105  A(96,37,98)           105.3761         estimate D2E/DX2                !
 ! A106  A(97,37,98)           107.0136         estimate D2E/DX2                !
 ! A107  A(31,38,35)           119.8814         estimate D2E/DX2                !
 ! A108  A(31,38,99)           124.345          estimate D2E/DX2                !
 ! A109  A(35,38,99)           115.7721         estimate D2E/DX2                !
 ! A110  A(34,39,40)           126.6189         estimate D2E/DX2                !
 ! A111  A(34,39,45)           121.6942         estimate D2E/DX2                !
 ! A112  A(40,39,45)           111.6445         estimate D2E/DX2                !
 ! A113  A(39,40,41)           119.4461         estimate D2E/DX2                !
 ! A114  A(39,40,43)           111.0051         estimate D2E/DX2                !
 ! A115  A(41,40,43)           129.4869         estimate D2E/DX2                !
 ! A116  A(40,41,42)           114.3082         estimate D2E/DX2                !
 ! A117  A(41,42,100)          108.0527         estimate D2E/DX2                !
 ! A118  A(41,42,101)          102.7077         estimate D2E/DX2                !
 ! A119  A(41,42,102)          108.9776         estimate D2E/DX2                !
 ! A120  A(100,42,101)         110.8767         estimate D2E/DX2                !
 ! A121  A(100,42,102)         113.3724         estimate D2E/DX2                !
 ! A122  A(101,42,102)         112.2109         estimate D2E/DX2                !
 ! A123  A(40,43,44)           112.6761         estimate D2E/DX2                !
 ! A124  A(40,43,103)          120.5823         estimate D2E/DX2                !
 ! A125  A(44,43,103)          126.4903         estimate D2E/DX2                !
 ! A126  A(43,44,45)           112.591          estimate D2E/DX2                !
 ! A127  A(43,44,46)           126.1138         estimate D2E/DX2                !
 ! A128  A(45,44,46)           120.6815         estimate D2E/DX2                !
 ! A129  A(39,45,44)            91.888          estimate D2E/DX2                !
 ! A130  A(44,46,47)           118.673          estimate D2E/DX2                !
 ! A131  A(44,46,53)           126.7607         estimate D2E/DX2                !
 ! A132  A(47,46,53)           114.3107         estimate D2E/DX2                !
 ! A133  A(46,47,48)           124.0021         estimate D2E/DX2                !
 ! A134  A(46,47,104)          124.0766         estimate D2E/DX2                !
 ! A135  A(48,47,104)          110.9032         estimate D2E/DX2                !
 ! A136  A(47,48,49)           117.7199         estimate D2E/DX2                !
 ! A137  A(48,49,50)           120.7375         estimate D2E/DX2                !
 ! A138  A(48,49,54)           116.1854         estimate D2E/DX2                !
 ! A139  A(50,49,54)           123.0549         estimate D2E/DX2                !
 ! A140  A(49,50,51)           115.8547         estimate D2E/DX2                !
 ! A141  A(49,50,53)           120.9595         estimate D2E/DX2                !
 ! A142  A(51,50,53)           122.6993         estimate D2E/DX2                !
 ! A143  A(50,51,52)           109.4939         estimate D2E/DX2                !
 ! A144  A(51,52,105)          111.9184         estimate D2E/DX2                !
 ! A145  A(51,52,106)          102.8758         estimate D2E/DX2                !
 ! A146  A(51,52,107)          112.6027         estimate D2E/DX2                !
 ! A147  A(105,52,106)         110.0191         estimate D2E/DX2                !
 ! A148  A(105,52,107)         110.4373         estimate D2E/DX2                !
 ! A149  A(106,52,107)         108.6866         estimate D2E/DX2                !
 ! A150  A(46,53,50)           121.4415         estimate D2E/DX2                !
 ! A151  A(46,53,108)          115.7832         estimate D2E/DX2                !
 ! A152  A(50,53,108)          122.4592         estimate D2E/DX2                !
 ! A153  A(49,54,55)           130.8054         estimate D2E/DX2                !
 ! A154  A(49,54,60)           116.8851         estimate D2E/DX2                !
 ! A155  A(55,54,60)           112.0723         estimate D2E/DX2                !
 ! A156  A(54,55,56)           121.5535         estimate D2E/DX2                !
 ! A157  A(54,55,58)           107.6967         estimate D2E/DX2                !
 ! A158  A(56,55,58)           130.5148         estimate D2E/DX2                !
 ! A159  A(55,56,57)           114.4235         estimate D2E/DX2                !
 ! A160  A(56,57,109)          114.0167         estimate D2E/DX2                !
 ! A161  A(56,57,110)          107.2643         estimate D2E/DX2                !
 ! A162  A(56,57,111)          115.1048         estimate D2E/DX2                !
 ! A163  A(109,57,110)         103.4577         estimate D2E/DX2                !
 ! A164  A(109,57,111)         109.9503         estimate D2E/DX2                !
 ! A165  A(110,57,111)         106.0096         estimate D2E/DX2                !
 ! A166  A(55,58,59)           117.7507         estimate D2E/DX2                !
 ! A167  A(55,58,112)          123.4038         estimate D2E/DX2                !
 ! A168  A(59,58,112)          118.8375         estimate D2E/DX2                !
 ! A169  A(58,59,60)           106.0937         estimate D2E/DX2                !
 ! A170  A(58,59,61)           128.9654         estimate D2E/DX2                !
 ! A171  A(60,59,61)           124.8827         estimate D2E/DX2                !
 ! A172  A(54,60,59)            96.1853         estimate D2E/DX2                !
 ! A173  A(59,61,62)           119.8745         estimate D2E/DX2                !
 ! A174  A(59,61,68)           122.2547         estimate D2E/DX2                !
 ! A175  A(62,61,68)           117.5575         estimate D2E/DX2                !
 ! A176  A(61,62,63)           123.0919         estimate D2E/DX2                !
 ! A177  A(61,62,113)          124.903          estimate D2E/DX2                !
 ! A178  A(63,62,113)          111.9411         estimate D2E/DX2                !
 ! A179  A(62,63,64)           114.4958         estimate D2E/DX2                !
 ! A180  A(63,64,65)           125.1411         estimate D2E/DX2                !
 ! A181  A(63,64,69)           110.7697         estimate D2E/DX2                !
 ! A182  A(65,64,69)           124.089          estimate D2E/DX2                !
 ! A183  A(64,65,66)           120.2548         estimate D2E/DX2                !
 ! A184  A(64,65,68)           119.1731         estimate D2E/DX2                !
 ! A185  A(66,65,68)           120.3802         estimate D2E/DX2                !
 ! A186  A(65,66,67)           108.8267         estimate D2E/DX2                !
 ! A187  A(66,67,114)          114.5749         estimate D2E/DX2                !
 ! A188  A(66,67,115)          115.5816         estimate D2E/DX2                !
 ! A189  A(66,67,116)          103.5994         estimate D2E/DX2                !
 ! A190  A(114,67,115)         112.3886         estimate D2E/DX2                !
 ! A191  A(114,67,116)         104.4066         estimate D2E/DX2                !
 ! A192  A(115,67,116)         104.6234         estimate D2E/DX2                !
 ! A193  A(61,68,65)           120.3731         estimate D2E/DX2                !
 ! A194  A(61,68,117)          119.4148         estimate D2E/DX2                !
 ! A195  A(65,68,117)          120.1535         estimate D2E/DX2                !
 ! A196  A(64,69,70)           126.9935         estimate D2E/DX2                !
 ! A197  A(64,69,75)           116.7665         estimate D2E/DX2                !
 ! A198  A(70,69,75)           115.9777         estimate D2E/DX2                !
 ! A199  A(69,70,71)           121.9914         estimate D2E/DX2                !
 ! A200  A(69,70,73)           107.7689         estimate D2E/DX2                !
 ! A201  A(71,70,73)           130.2378         estimate D2E/DX2                !
 ! A202  A(70,71,72)           114.6717         estimate D2E/DX2                !
 ! A203  A(71,72,118)          113.0926         estimate D2E/DX2                !
 ! A204  A(71,72,119)          108.1384         estimate D2E/DX2                !
 ! A205  A(71,72,120)          112.0677         estimate D2E/DX2                !
 ! A206  A(118,72,119)         106.0708         estimate D2E/DX2                !
 ! A207  A(118,72,120)         109.4942         estimate D2E/DX2                !
 ! A208  A(119,72,120)         107.6484         estimate D2E/DX2                !
 ! A209  A(70,73,74)           116.1077         estimate D2E/DX2                !
 ! A210  A(70,73,121)          125.3824         estimate D2E/DX2                !
 ! A211  A(74,73,121)          118.2818         estimate D2E/DX2                !
 ! A212  A(73,74,75)           108.3554         estimate D2E/DX2                !
 ! A213  A(73,74,122)          129.1215         estimate D2E/DX2                !
 ! A214  A(75,74,122)          122.4974         estimate D2E/DX2                !
 ! A215  A(69,75,74)            91.5531         estimate D2E/DX2                !
 ! D1    D(8,1,2,3)             -0.9048         estimate D2E/DX2                !
 ! D2    D(8,1,2,77)          -178.2366         estimate D2E/DX2                !
 ! D3    D(76,1,2,3)          -175.8153         estimate D2E/DX2                !
 ! D4    D(76,1,2,77)            6.8529         estimate D2E/DX2                !
 ! D5    D(2,1,8,5)              2.3524         estimate D2E/DX2                !
 ! D6    D(2,1,8,81)          -173.5389         estimate D2E/DX2                !
 ! D7    D(76,1,8,5)           177.2922         estimate D2E/DX2                !
 ! D8    D(76,1,8,81)            1.401          estimate D2E/DX2                !
 ! D9    D(1,2,3,4)             -3.2868         estimate D2E/DX2                !
 ! D10   D(77,2,3,4)           174.0075         estimate D2E/DX2                !
 ! D11   D(2,3,4,5)              5.6025         estimate D2E/DX2                !
 ! D12   D(2,3,4,9)            177.5387         estimate D2E/DX2                !
 ! D13   D(3,4,5,6)            175.5473         estimate D2E/DX2                !
 ! D14   D(3,4,5,8)             -4.1248         estimate D2E/DX2                !
 ! D15   D(9,4,5,6)              4.1157         estimate D2E/DX2                !
 ! D16   D(9,4,5,8)           -175.5564         estimate D2E/DX2                !
 ! D17   D(3,4,9,10)           123.85           estimate D2E/DX2                !
 ! D18   D(3,4,9,15)           -50.5612         estimate D2E/DX2                !
 ! D19   D(5,4,9,10)           -64.3448         estimate D2E/DX2                !
 ! D20   D(5,4,9,15)           121.244          estimate D2E/DX2                !
 ! D21   D(4,5,6,7)            127.6986         estimate D2E/DX2                !
 ! D22   D(8,5,6,7)            -52.6234         estimate D2E/DX2                !
 ! D23   D(4,5,8,1)              0.01           estimate D2E/DX2                !
 ! D24   D(4,5,8,81)           176.0615         estimate D2E/DX2                !
 ! D25   D(6,5,8,1)           -179.6621         estimate D2E/DX2                !
 ! D26   D(6,5,8,81)            -3.6107         estimate D2E/DX2                !
 ! D27   D(5,6,7,78)           -38.2302         estimate D2E/DX2                !
 ! D28   D(5,6,7,79)          -159.9507         estimate D2E/DX2                !
 ! D29   D(5,6,7,80)            79.3047         estimate D2E/DX2                !
 ! D30   D(4,9,10,11)            2.5789         estimate D2E/DX2                !
 ! D31   D(4,9,10,13)         -175.2538         estimate D2E/DX2                !
 ! D32   D(15,9,10,11)         177.5019         estimate D2E/DX2                !
 ! D33   D(15,9,10,13)          -0.3308         estimate D2E/DX2                !
 ! D34   D(4,9,15,14)          177.576          estimate D2E/DX2                !
 ! D35   D(10,9,15,14)           2.2136         estimate D2E/DX2                !
 ! D36   D(9,10,11,12)         172.9984         estimate D2E/DX2                !
 ! D37   D(13,10,11,12)         -9.5303         estimate D2E/DX2                !
 ! D38   D(9,10,13,14)          -2.2407         estimate D2E/DX2                !
 ! D39   D(9,10,13,85)        -176.6759         estimate D2E/DX2                !
 ! D40   D(11,10,13,14)       -179.8142         estimate D2E/DX2                !
 ! D41   D(11,10,13,85)          5.7506         estimate D2E/DX2                !
 ! D42   D(10,11,12,82)       -178.3898         estimate D2E/DX2                !
 ! D43   D(10,11,12,83)         64.6122         estimate D2E/DX2                !
 ! D44   D(10,11,12,84)        -60.9463         estimate D2E/DX2                !
 ! D45   D(10,13,14,15)          3.7732         estimate D2E/DX2                !
 ! D46   D(10,13,14,16)       -179.4336         estimate D2E/DX2                !
 ! D47   D(85,13,14,15)        178.8049         estimate D2E/DX2                !
 ! D48   D(85,13,14,16)         -4.4019         estimate D2E/DX2                !
 ! D49   D(13,14,15,9)          -3.4577         estimate D2E/DX2                !
 ! D50   D(16,14,15,9)         179.5343         estimate D2E/DX2                !
 ! D51   D(13,14,16,17)       -135.8384         estimate D2E/DX2                !
 ! D52   D(13,14,16,23)         44.6731         estimate D2E/DX2                !
 ! D53   D(15,14,16,17)         40.5941         estimate D2E/DX2                !
 ! D54   D(15,14,16,23)       -138.8945         estimate D2E/DX2                !
 ! D55   D(14,16,17,18)       -178.3149         estimate D2E/DX2                !
 ! D56   D(14,16,17,86)          0.6303         estimate D2E/DX2                !
 ! D57   D(23,16,17,18)          1.1951         estimate D2E/DX2                !
 ! D58   D(23,16,17,86)       -179.8596         estimate D2E/DX2                !
 ! D59   D(14,16,23,20)        175.8502         estimate D2E/DX2                !
 ! D60   D(14,16,23,90)          3.555          estimate D2E/DX2                !
 ! D61   D(17,16,23,20)         -3.6665         estimate D2E/DX2                !
 ! D62   D(17,16,23,90)       -175.9617         estimate D2E/DX2                !
 ! D63   D(16,17,18,19)          1.3934         estimate D2E/DX2                !
 ! D64   D(86,17,18,19)       -177.5703         estimate D2E/DX2                !
 ! D65   D(17,18,19,20)         -1.5221         estimate D2E/DX2                !
 ! D66   D(17,18,19,24)        174.3209         estimate D2E/DX2                !
 ! D67   D(18,19,20,21)        178.0651         estimate D2E/DX2                !
 ! D68   D(18,19,20,23)         -1.212          estimate D2E/DX2                !
 ! D69   D(24,19,20,21)          2.9919         estimate D2E/DX2                !
 ! D70   D(24,19,20,23)       -176.2852         estimate D2E/DX2                !
 ! D71   D(18,19,24,25)        118.2062         estimate D2E/DX2                !
 ! D72   D(18,19,24,30)        -62.4914         estimate D2E/DX2                !
 ! D73   D(20,19,24,25)        -66.3841         estimate D2E/DX2                !
 ! D74   D(20,19,24,30)        112.9184         estimate D2E/DX2                !
 ! D75   D(19,20,21,22)        122.0897         estimate D2E/DX2                !
 ! D76   D(23,20,21,22)        -58.5778         estimate D2E/DX2                !
 ! D77   D(19,20,23,16)          3.8102         estimate D2E/DX2                !
 ! D78   D(19,20,23,90)        175.6828         estimate D2E/DX2                !
 ! D79   D(21,20,23,16)       -175.472          estimate D2E/DX2                !
 ! D80   D(21,20,23,90)         -3.5993         estimate D2E/DX2                !
 ! D81   D(20,21,22,87)       -155.9785         estimate D2E/DX2                !
 ! D82   D(20,21,22,88)        -35.8104         estimate D2E/DX2                !
 ! D83   D(20,21,22,89)         81.715          estimate D2E/DX2                !
 ! D84   D(19,24,25,26)          3.0691         estimate D2E/DX2                !
 ! D85   D(19,24,25,28)        176.8263         estimate D2E/DX2                !
 ! D86   D(30,24,25,26)       -176.2805         estimate D2E/DX2                !
 ! D87   D(30,24,25,28)         -2.5233         estimate D2E/DX2                !
 ! D88   D(19,24,30,29)        177.576          estimate D2E/DX2                !
 ! D89   D(25,24,30,29)         -3.0376         estimate D2E/DX2                !
 ! D90   D(24,25,26,27)        178.1898         estimate D2E/DX2                !
 ! D91   D(28,25,26,27)          6.0375         estimate D2E/DX2                !
 ! D92   D(24,25,28,29)          8.5489         estimate D2E/DX2                !
 ! D93   D(24,25,28,94)        179.2287         estimate D2E/DX2                !
 ! D94   D(26,25,28,29)       -178.8605         estimate D2E/DX2                !
 ! D95   D(26,25,28,94)         -8.1808         estimate D2E/DX2                !
 ! D96   D(25,26,27,91)         61.1558         estimate D2E/DX2                !
 ! D97   D(25,26,27,92)        176.5313         estimate D2E/DX2                !
 ! D98   D(25,26,27,93)        -60.6874         estimate D2E/DX2                !
 ! D99   D(25,28,29,30)        -10.7716         estimate D2E/DX2                !
 ! D100  D(25,28,29,31)        178.5452         estimate D2E/DX2                !
 ! D101  D(94,28,29,30)        178.4279         estimate D2E/DX2                !
 ! D102  D(94,28,29,31)          7.7448         estimate D2E/DX2                !
 ! D103  D(28,29,30,24)          7.8907         estimate D2E/DX2                !
 ! D104  D(31,29,30,24)        179.3445         estimate D2E/DX2                !
 ! D105  D(28,29,31,32)         29.9521         estimate D2E/DX2                !
 ! D106  D(28,29,31,38)       -149.4768         estimate D2E/DX2                !
 ! D107  D(30,29,31,32)       -139.9092         estimate D2E/DX2                !
 ! D108  D(30,29,31,38)         40.6619         estimate D2E/DX2                !
 ! D109  D(29,31,32,33)        178.624          estimate D2E/DX2                !
 ! D110  D(29,31,32,95)          3.9068         estimate D2E/DX2                !
 ! D111  D(38,31,32,33)         -1.9249         estimate D2E/DX2                !
 ! D112  D(38,31,32,95)       -176.6421         estimate D2E/DX2                !
 ! D113  D(29,31,38,35)       -177.864          estimate D2E/DX2                !
 ! D114  D(29,31,38,99)          1.655          estimate D2E/DX2                !
 ! D115  D(32,31,38,35)          2.6864         estimate D2E/DX2                !
 ! D116  D(32,31,38,99)       -177.7946         estimate D2E/DX2                !
 ! D117  D(31,32,33,34)          0.6315         estimate D2E/DX2                !
 ! D118  D(95,32,33,34)        175.5555         estimate D2E/DX2                !
 ! D119  D(32,33,34,35)         -0.2589         estimate D2E/DX2                !
 ! D120  D(32,33,34,39)       -178.2055         estimate D2E/DX2                !
 ! D121  D(33,34,35,36)        175.1659         estimate D2E/DX2                !
 ! D122  D(33,34,35,38)          1.0703         estimate D2E/DX2                !
 ! D123  D(39,34,35,36)         -7.1618         estimate D2E/DX2                !
 ! D124  D(39,34,35,38)        178.7425         estimate D2E/DX2                !
 ! D125  D(33,34,39,40)        113.3455         estimate D2E/DX2                !
 ! D126  D(33,34,39,45)        -69.226          estimate D2E/DX2                !
 ! D127  D(35,34,39,40)        -64.5572         estimate D2E/DX2                !
 ! D128  D(35,34,39,45)        112.8714         estimate D2E/DX2                !
 ! D129  D(34,35,36,37)        140.9107         estimate D2E/DX2                !
 ! D130  D(38,35,36,37)        -45.2199         estimate D2E/DX2                !
 ! D131  D(34,35,38,31)         -2.3752         estimate D2E/DX2                !
 ! D132  D(34,35,38,99)        178.0658         estimate D2E/DX2                !
 ! D133  D(36,35,38,31)       -176.3519         estimate D2E/DX2                !
 ! D134  D(36,35,38,99)          4.0891         estimate D2E/DX2                !
 ! D135  D(35,36,37,96)        -40.0902         estimate D2E/DX2                !
 ! D136  D(35,36,37,97)         86.4926         estimate D2E/DX2                !
 ! D137  D(35,36,37,98)       -156.9222         estimate D2E/DX2                !
 ! D138  D(34,39,40,41)         -1.6159         estimate D2E/DX2                !
 ! D139  D(34,39,40,43)        175.7888         estimate D2E/DX2                !
 ! D140  D(45,39,40,41)       -179.2621         estimate D2E/DX2                !
 ! D141  D(45,39,40,43)         -1.8574         estimate D2E/DX2                !
 ! D142  D(34,39,45,44)       -174.3862         estimate D2E/DX2                !
 ! D143  D(40,39,45,44)          3.3936         estimate D2E/DX2                !
 ! D144  D(39,40,41,42)        177.6558         estimate D2E/DX2                !
 ! D145  D(43,40,41,42)          0.7956         estimate D2E/DX2                !
 ! D146  D(39,40,43,44)         -1.3961         estimate D2E/DX2                !
 ! D147  D(39,40,43,103)      -175.9988         estimate D2E/DX2                !
 ! D148  D(41,40,43,44)        175.6754         estimate D2E/DX2                !
 ! D149  D(41,40,43,103)         1.0726         estimate D2E/DX2                !
 ! D150  D(40,41,42,100)       -60.9846         estimate D2E/DX2                !
 ! D151  D(40,41,42,101)      -178.2246         estimate D2E/DX2                !
 ! D152  D(40,41,42,102)        62.6101         estimate D2E/DX2                !
 ! D153  D(40,43,44,45)          3.9448         estimate D2E/DX2                !
 ! D154  D(40,43,44,46)        174.9447         estimate D2E/DX2                !
 ! D155  D(103,43,44,45)       178.1641         estimate D2E/DX2                !
 ! D156  D(103,43,44,46)       -10.8361         estimate D2E/DX2                !
 ! D157  D(43,44,45,39)         -4.3168         estimate D2E/DX2                !
 ! D158  D(46,44,45,39)       -175.8667         estimate D2E/DX2                !
 ! D159  D(43,44,46,47)         48.6363         estimate D2E/DX2                !
 ! D160  D(43,44,46,53)       -137.5261         estimate D2E/DX2                !
 ! D161  D(45,44,46,47)       -141.0319         estimate D2E/DX2                !
 ! D162  D(45,44,46,53)         32.8057         estimate D2E/DX2                !
 ! D163  D(44,46,47,48)       -175.2409         estimate D2E/DX2                !
 ! D164  D(44,46,47,104)        -7.8424         estimate D2E/DX2                !
 ! D165  D(53,46,47,48)         10.1741         estimate D2E/DX2                !
 ! D166  D(53,46,47,104)       177.5726         estimate D2E/DX2                !
 ! D167  D(44,46,53,50)       -179.3138         estimate D2E/DX2                !
 ! D168  D(44,46,53,108)         6.9907         estimate D2E/DX2                !
 ! D169  D(47,46,53,50)         -5.2457         estimate D2E/DX2                !
 ! D170  D(47,46,53,108)      -178.9412         estimate D2E/DX2                !
 ! D171  D(46,47,48,49)         -6.9019         estimate D2E/DX2                !
 ! D172  D(104,47,48,49)      -175.7484         estimate D2E/DX2                !
 ! D173  D(47,48,49,50)         -1.6748         estimate D2E/DX2                !
 ! D174  D(47,48,49,54)        179.9871         estimate D2E/DX2                !
 ! D175  D(48,49,50,51)        178.5278         estimate D2E/DX2                !
 ! D176  D(48,49,50,53)          6.3205         estimate D2E/DX2                !
 ! D177  D(54,49,50,51)         -3.2516         estimate D2E/DX2                !
 ! D178  D(54,49,50,53)       -175.4588         estimate D2E/DX2                !
 ! D179  D(48,49,54,55)        114.1215         estimate D2E/DX2                !
 ! D180  D(48,49,54,60)        -59.7696         estimate D2E/DX2                !
 ! D181  D(50,49,54,55)        -64.1742         estimate D2E/DX2                !
 ! D182  D(50,49,54,60)        121.9347         estimate D2E/DX2                !
 ! D183  D(49,50,51,52)        126.2166         estimate D2E/DX2                !
 ! D184  D(53,50,51,52)        -61.7253         estimate D2E/DX2                !
 ! D185  D(49,50,53,46)         -2.5266         estimate D2E/DX2                !
 ! D186  D(49,50,53,108)       170.7436         estimate D2E/DX2                !
 ! D187  D(51,50,53,46)       -174.1895         estimate D2E/DX2                !
 ! D188  D(51,50,53,108)        -0.9193         estimate D2E/DX2                !
 ! D189  D(50,51,52,105)       -50.3057         estimate D2E/DX2                !
 ! D190  D(50,51,52,106)      -168.3726         estimate D2E/DX2                !
 ! D191  D(50,51,52,107)        74.8091         estimate D2E/DX2                !
 ! D192  D(49,54,55,56)          6.485          estimate D2E/DX2                !
 ! D193  D(49,54,55,58)       -178.5327         estimate D2E/DX2                !
 ! D194  D(60,54,55,56)       -179.3937         estimate D2E/DX2                !
 ! D195  D(60,54,55,58)         -4.4114         estimate D2E/DX2                !
 ! D196  D(49,54,60,59)        177.6243         estimate D2E/DX2                !
 ! D197  D(55,54,60,59)          2.6108         estimate D2E/DX2                !
 ! D198  D(54,55,56,57)        172.1375         estimate D2E/DX2                !
 ! D199  D(58,55,56,57)         -1.57           estimate D2E/DX2                !
 ! D200  D(54,55,58,59)          4.7872         estimate D2E/DX2                !
 ! D201  D(54,55,58,112)      -176.253          estimate D2E/DX2                !
 ! D202  D(56,55,58,59)        179.161          estimate D2E/DX2                !
 ! D203  D(56,55,58,112)        -1.8792         estimate D2E/DX2                !
 ! D204  D(55,56,57,109)       -61.3724         estimate D2E/DX2                !
 ! D205  D(55,56,57,110)      -175.2813         estimate D2E/DX2                !
 ! D206  D(55,56,57,111)        67.0375         estimate D2E/DX2                !
 ! D207  D(55,58,59,60)         -2.9332         estimate D2E/DX2                !
 ! D208  D(55,58,59,61)        179.7735         estimate D2E/DX2                !
 ! D209  D(112,58,59,60)       178.0581         estimate D2E/DX2                !
 ! D210  D(112,58,59,61)         0.7648         estimate D2E/DX2                !
 ! D211  D(58,59,60,54)          0.0972         estimate D2E/DX2                !
 ! D212  D(61,59,60,54)        177.5319         estimate D2E/DX2                !
 ! D213  D(58,59,61,62)       -146.7054         estimate D2E/DX2                !
 ! D214  D(58,59,61,68)         39.8821         estimate D2E/DX2                !
 ! D215  D(60,59,61,62)         36.4652         estimate D2E/DX2                !
 ! D216  D(60,59,61,68)       -136.9473         estimate D2E/DX2                !
 ! D217  D(59,61,62,63)       -177.3312         estimate D2E/DX2                !
 ! D218  D(59,61,62,113)         5.8177         estimate D2E/DX2                !
 ! D219  D(68,61,62,63)         -3.6138         estimate D2E/DX2                !
 ! D220  D(68,61,62,113)       179.5351         estimate D2E/DX2                !
 ! D221  D(59,61,68,65)        178.2906         estimate D2E/DX2                !
 ! D222  D(59,61,68,117)        -4.4873         estimate D2E/DX2                !
 ! D223  D(62,61,68,65)          4.733          estimate D2E/DX2                !
 ! D224  D(62,61,68,117)      -178.0449         estimate D2E/DX2                !
 ! D225  D(61,62,63,64)          1.7273         estimate D2E/DX2                !
 ! D226  D(113,62,63,64)       178.9434         estimate D2E/DX2                !
 ! D227  D(62,63,64,65)         -0.9406         estimate D2E/DX2                !
 ! D228  D(62,63,64,69)        179.2319         estimate D2E/DX2                !
 ! D229  D(63,64,65,66)        177.1592         estimate D2E/DX2                !
 ! D230  D(63,64,65,68)          2.1747         estimate D2E/DX2                !
 ! D231  D(69,64,65,66)         -3.0355         estimate D2E/DX2                !
 ! D232  D(69,64,65,68)       -178.0201         estimate D2E/DX2                !
 ! D233  D(63,64,69,70)        114.081          estimate D2E/DX2                !
 ! D234  D(63,64,69,75)        -72.0743         estimate D2E/DX2                !
 ! D235  D(65,64,69,70)        -65.7486         estimate D2E/DX2                !
 ! D236  D(65,64,69,75)        108.096          estimate D2E/DX2                !
 ! D237  D(64,65,66,67)        121.3719         estimate D2E/DX2                !
 ! D238  D(68,65,66,67)        -63.7045         estimate D2E/DX2                !
 ! D239  D(64,65,68,61)         -4.0515         estimate D2E/DX2                !
 ! D240  D(64,65,68,117)       178.747          estimate D2E/DX2                !
 ! D241  D(66,65,68,61)       -179.0296         estimate D2E/DX2                !
 ! D242  D(66,65,68,117)         3.7689         estimate D2E/DX2                !
 ! D243  D(65,66,67,114)        83.4484         estimate D2E/DX2                !
 ! D244  D(65,66,67,115)       -49.651          estimate D2E/DX2                !
 ! D245  D(65,66,67,116)      -163.4662         estimate D2E/DX2                !
 ! D246  D(64,69,70,71)         -1.5626         estimate D2E/DX2                !
 ! D247  D(64,69,70,73)        178.9051         estimate D2E/DX2                !
 ! D248  D(75,69,70,71)       -175.4493         estimate D2E/DX2                !
 ! D249  D(75,69,70,73)          5.0184         estimate D2E/DX2                !
 ! D250  D(64,69,75,74)       -179.3236         estimate D2E/DX2                !
 ! D251  D(70,69,75,74)         -4.7902         estimate D2E/DX2                !
 ! D252  D(69,70,71,72)       -175.9418         estimate D2E/DX2                !
 ! D253  D(73,70,71,72)          3.4748         estimate D2E/DX2                !
 ! D254  D(69,70,73,74)         -2.6754         estimate D2E/DX2                !
 ! D255  D(69,70,73,121)      -177.0697         estimate D2E/DX2                !
 ! D256  D(71,70,73,74)        177.8442         estimate D2E/DX2                !
 ! D257  D(71,70,73,121)         3.4499         estimate D2E/DX2                !
 ! D258  D(70,71,72,118)        59.6811         estimate D2E/DX2                !
 ! D259  D(70,71,72,119)       176.8332         estimate D2E/DX2                !
 ! D260  D(70,71,72,120)       -64.6736         estimate D2E/DX2                !
 ! D261  D(70,73,74,75)         -0.6142         estimate D2E/DX2                !
 ! D262  D(70,73,74,122)      -178.7766         estimate D2E/DX2                !
 ! D263  D(121,73,74,75)       174.1971         estimate D2E/DX2                !
 ! D264  D(121,73,74,122)       -3.9653         estimate D2E/DX2                !
 ! D265  D(73,74,75,69)          2.8655         estimate D2E/DX2                !
 ! D266  D(122,74,75,69)      -178.8248         estimate D2E/DX2                !
 --------------------------------------------------------------------------------
 Trust Radius=3.00D-01 FncErr=1.00D-07 GrdErr=1.00D-06 EigMax=2.50D+02 EigMin=1.00D-04
 Number of steps in this run=    622 maximum allowed number of steps=    732.
 GradGradGradGradGradGradGradGradGradGradGradGradGradGradGradGradGradGrad

 Leave Link  103 at Fri Jul 24 11:28:09 2020, MaxMem=  4026531840 cpu:               0.2 elap:               0.0
 (Enter /opt/ohpc/pub/libs/gaussian/g16-A.03/sandybridge/g16/l202.exe)
 Stoichiometry    C55H47N5O10S5
 Framework group  C1[X(C55H47N5O10S5)]
 Deg. of freedom   360
 Full point group                 C1      NOp   1
 Largest Abelian subgroup         C1      NOp   1
 Largest concise Abelian subgroup C1      NOp   1
                         Standard orientation:                         
 ---------------------------------------------------------------------
 Center     Atomic      Atomic             Coordinates (Angstroms)
 Number     Number       Type             X           Y           Z
 ---------------------------------------------------------------------
      1          6           0      -17.041725   -4.367287   -1.966007
      2          6           0      -16.172820   -3.641384   -2.724264
      3          7           0      -15.412004   -2.667631   -2.247973
      4          6           0      -15.544574   -2.342812   -0.998122
      5          6           0      -16.405142   -3.100567   -0.123690
      6          8           0      -16.453424   -2.783658    1.231160
      7          6           0      -17.700193   -2.559916    1.806148
      8          6           0      -17.185365   -4.150198   -0.609679
      9          6           0      -14.654480   -1.311543   -0.507048
     10          6           0      -14.975714   -0.109368    0.106540
     11          8           0      -16.334875    0.174081    0.352580
     12          6           0      -16.551462    1.405811    1.157710
     13          6           0      -13.875289    0.692463    0.358346
     14          6           0      -12.678117    0.065138   -0.028166
     15         16           0      -13.015837   -1.397984   -0.754694
     16          6           0      -11.330894    0.576866    0.085520
     17          6           0      -10.397887    0.465853   -0.952107
     18          7           0       -9.083111    0.920242   -0.855852
     19          6           0       -8.671650    1.490317    0.351613
     20          6           0       -9.559932    1.617499    1.384987
     21          8           0       -9.090016    2.160263    2.598327
     22          6           0       -9.812861    3.362048    3.033216
     23          6           0      -10.864157    1.245768    1.335252
     24          6           0       -7.229237    1.796756    0.343437
     25          6           0       -6.653749    3.076905    0.475834
     26          8           0       -7.494617    4.130110    0.690119
     27          6           0       -6.734670    5.434895    0.856283
     28          6           0       -5.245124    2.981120    0.495419
     29          6           0       -4.794139    1.702578    0.192399
     30         16           0       -6.095972    0.583784    0.184232
     31          6           0       -3.374221    1.226880    0.087163
     32          6           0       -2.344031    1.819223    0.856916
     33          7           0       -1.104270    1.425641    0.820286
     34          6           0       -0.786151    0.399367   -0.012274
     35          6           0       -1.659447   -0.205080   -0.764151
     36          8           0       -1.237063   -1.191636   -1.675633
     37          6           0       -2.163673   -2.276557   -1.720284
     38          6           0       -3.038740    0.261299   -0.722891
     39          6           0        0.616565    0.043866    0.083631
[...]
  Beta virt. eigenvalues --    1.83144   1.83210   1.83565   1.83707   1.84039
  Beta virt. eigenvalues --    1.84169   1.84280   1.84425   1.84511   1.84607
  Beta virt. eigenvalues --    1.84969   1.85194   1.85597   1.85929   1.86093
  Beta virt. eigenvalues --    1.86100   1.86486   1.86576   1.86937   1.87262
  Beta virt. eigenvalues --    1.87418   1.87525   1.88128   1.88323   1.88693
  Beta virt. eigenvalues --    1.89121   1.89258   1.89410   1.89922   1.90253
  Beta virt. eigenvalues --    1.90294   1.90955   1.91005   1.91503   1.91844
  Beta virt. eigenvalues --    1.92179   1.92581   1.92771   1.93280   1.93301
  Beta virt. eigenvalues --    1.93728   1.94528   1.94660   1.94971   1.95208
  Beta virt. eigenvalues --    1.95584   1.95765   1.96696   1.97062   1.97736
  Beta virt. eigenvalues --    1.97886   1.98212   1.98671   1.99089   1.99497
  Beta virt. eigenvalues --    2.00034   2.00305   2.00781   2.01335   2.01802
  Beta virt. eigenvalues --    2.02062   2.02238   2.02480   2.02687   2.03000
  Beta virt. eigenvalues --    2.03288   2.03355   2.03499   2.03733   2.04312
  Beta virt. eigenvalues --    2.04577   2.04961   2.05484   2.05610   2.05816
  Beta virt. eigenvalues --    2.06140   2.06230   2.06546   2.06753   2.07691
  Beta virt. eigenvalues --    2.07772   2.08043   2.08205   2.08828   2.08921
  Beta virt. eigenvalues --    2.09097   2.09410   2.09714   2.09871   2.10529
  Beta virt. eigenvalues --    2.10753   2.10952   2.11507   2.11714   2.11966
  Beta virt. eigenvalues --    2.12042   2.12440   2.12839   2.12978   2.13130
  Beta virt. eigenvalues --    2.13153   2.13669   2.14120   2.15833   2.16435
  Beta virt. eigenvalues --    2.16840   2.17379   2.17718   2.17746   2.18111
  Beta virt. eigenvalues --    2.18480   2.18764   2.18786   2.18990   2.19487
  Beta virt. eigenvalues --    2.20020   2.20346   2.20557   2.20698   2.20735
  Beta virt. eigenvalues --    2.20877   2.20924   2.21077   2.21364   2.21561
  Beta virt. eigenvalues --    2.21840   2.22017   2.22394   2.22607   2.22860
  Beta virt. eigenvalues --    2.23457   2.23686   2.23769   2.24118   2.24407
  Beta virt. eigenvalues --    2.24487   2.24934   2.25038   2.25396   2.25479
  Beta virt. eigenvalues --    2.26522   2.26780   2.26898   2.27513   2.28291
  Beta virt. eigenvalues --    2.28610   2.28858   2.29192   2.29222   2.29578
  Beta virt. eigenvalues --    2.30163   2.30578   2.30915   2.31190   2.32269
  Beta virt. eigenvalues --    2.32424   2.32675   2.32763   2.33528   2.33796
  Beta virt. eigenvalues --    2.34391   2.34659   2.35212   2.37396   2.38384
  Beta virt. eigenvalues --    2.38652   2.38973   2.39628   2.41126   2.41404
  Beta virt. eigenvalues --    2.41724   2.42015   2.42287   2.42451   2.43916
  Beta virt. eigenvalues --    2.43990   2.44096   2.44437   2.44840   2.45422
  Beta virt. eigenvalues --    2.45473   2.46083   2.46257   2.46989   2.47241
  Beta virt. eigenvalues --    2.47489   2.47706   2.49167   2.50161   2.51557
  Beta virt. eigenvalues --    2.51958   2.52372   2.52660   2.53485   2.53534
  Beta virt. eigenvalues --    2.54018   2.54106   2.54248   2.54577   2.54660
  Beta virt. eigenvalues --    2.54790   2.54971   2.55018   2.56024   2.56385
  Beta virt. eigenvalues --    2.56673   2.57222   2.57604   2.58397   2.58735
  Beta virt. eigenvalues --    2.58853   2.59048   2.59716   2.59795   2.60178
  Beta virt. eigenvalues --    2.60376   2.60520   2.60647   2.61027   2.61582
  Beta virt. eigenvalues --    2.61621   2.62024   2.62110   2.62138   2.62464
  Beta virt. eigenvalues --    2.62741   2.63040   2.63571   2.64252   2.64725
  Beta virt. eigenvalues --    2.65562   2.65603   2.65678   2.65911   2.65937
  Beta virt. eigenvalues --    2.66164   2.66360   2.66570   2.67136   2.67563
  Beta virt. eigenvalues --    2.67989   2.68345   2.68794   2.69797   2.71305
  Beta virt. eigenvalues --    2.72133   2.72971   2.73708   2.74086   2.74650
  Beta virt. eigenvalues --    2.74948   2.75602   2.75936   2.77025   2.85610
  Beta virt. eigenvalues --    2.86395   2.87078   2.87821   2.88344   2.92985
  Beta virt. eigenvalues --    2.94653   2.95195   2.95792   2.96165   3.01290
  Beta virt. eigenvalues --    3.01474   3.01606   3.01807   3.02205   3.03420
  Beta virt. eigenvalues --    3.03504   3.03869   3.04006   3.04304   3.04539
  Beta virt. eigenvalues --    3.04933   3.05091   3.05244   3.05577   3.07810
  Beta virt. eigenvalues --    3.08131   3.08961   3.09307   3.10008   3.12449
  Beta virt. eigenvalues --    3.13214   3.13660   3.13784   3.15269   3.17491
  Beta virt. eigenvalues --    3.17766   3.17990   3.18204   3.18299   3.18570
  Beta virt. eigenvalues --    3.18827   3.18843   3.18991   3.19117   3.19246
  Beta virt. eigenvalues --    3.19415   3.19685   3.19878   3.19979   3.21895
  Beta virt. eigenvalues --    3.21956   3.22025   3.22165   3.22364   3.39519
  Beta virt. eigenvalues --    3.39811   3.40038   3.40292   3.43790   3.52146
  Beta virt. eigenvalues --    3.52169   3.52252   3.52377   3.52478   3.56828
  Beta virt. eigenvalues --    3.57231   3.57251   3.57480   3.57679   3.60960
  Beta virt. eigenvalues --    3.61133   3.61334   3.61593   3.61857   3.70030
  Beta virt. eigenvalues --    3.70379   3.70910   3.71348   3.74289
          Condensed to atoms (all electrons):
          Atomic-Atomic Spin Densities.
 Mulliken charges and spin densities:
               1          2
     1  C   -0.063818  -0.000000
     2  C    0.069099   0.000000
     3  N   -0.197183  -0.000000
     4  C    0.056151   0.000000
     5  C    0.123873   0.000000
     6  O   -0.242715  -0.000000
     7  C    0.031864  -0.000000
     8  C   -0.015646   0.000000
     9  C   -0.192784  -0.000000
    10  C    0.181482  -0.000000
    11  O   -0.252578  -0.000000
    12  C    0.032691   0.000000
    13  C   -0.033896   0.000000
    14  C   -0.172822  -0.000000
    15  S    0.214939  -0.000000
    16  C   -0.044078  -0.000000
    17  C    0.078266   0.000000
    18  N   -0.195413  -0.000000
    19  C    0.065129   0.000000
    20  C    0.133945   0.000000
    21  O   -0.242984  -0.000000
    22  C    0.033846  -0.000000
    23  C    0.000450  -0.000000
    24  C   -0.195256  -0.000000
    25  C    0.178162  -0.000000
    26  O   -0.252649   0.000000
    27  C    0.031622  -0.000000
    28  C   -0.030204   0.000000
    29  C   -0.169862  -0.000000
    30  S    0.204378  -0.000000
    31  C   -0.041835   0.000000
    32  C    0.072816  -0.000000
    33  N   -0.195643   0.000000
    34  C    0.062498   0.000000
    35  C    0.133498  -0.000000
    36  O   -0.243621  -0.000000
    37  C    0.030852  -0.000000
    38  C    0.002849   0.000000
    39  C   -0.194453  -0.000000
    40  C    0.179696   0.000000
    41  O   -0.251683  -0.000000
    42  C    0.031033   0.000000
    43  C   -0.029472  -0.000000
    44  C   -0.169782   0.000000
    45  S    0.198864   0.000000
    46  C   -0.041834  -0.000000
    47  C    0.074092   0.000000
    48  N   -0.193502   0.000000
    49  C    0.062389   0.000000
    50  C    0.132448  -0.000000
    51  O   -0.244402  -0.000000
    52  C    0.031605  -0.000000
    53  C    0.002922   0.000000
    54  C   -0.196181  -0.000000
    55  C    0.179467  -0.000000
    56  O   -0.251562   0.000000
    57  C    0.032707   0.000000
    58  C   -0.033259  -0.000000
    59  C   -0.171888   0.000000
    60  S    0.214353   0.000000
    61  C   -0.044950  -0.000000
    62  C    0.077461   0.000000
    63  N   -0.192599  -0.000000
    64  C    0.070859  -0.000000
    65  C    0.133914   0.000000
    66  O   -0.242990  -0.000000
    67  C    0.034161   0.000000
    68  C   -0.000482   0.000000
    69  C   -0.204036   0.000000
    70  C    0.161851  -0.000000
    71  O   -0.252833   0.000000
    72  C    0.031096   0.000000
    73  C   -0.022555   0.000000
    74  C   -0.147751  -0.000000
    75  S    0.201310   0.000000
    76  H    0.019013   0.000000
    77  H    0.024076  -0.000000
    78  H    0.052923   0.000000
    79  H    0.066799  -0.000000
    80  H    0.052646   0.000000
    81  H    0.023420   0.000000
    82  H    0.063054   0.000000
    83  H    0.053381  -0.000000
    84  H    0.047115  -0.000000
    85  H    0.013709  -0.000000
    86  H    0.029704   0.000000
    87  H    0.067985   0.000000
    88  H    0.050308   0.000000
    89  H    0.055008  -0.000000
    90  H    0.014530  -0.000000
    91  H    0.053968  -0.000000
    92  H    0.062245   0.000000
    93  H    0.051098   0.000000
    94  H    0.018865  -0.000000
    95  H    0.016022   0.000000
    96  H    0.057165   0.000000
    97  H    0.056907  -0.000000
    98  H    0.067537   0.000000
    99  H    0.028405   0.000000
   100  H    0.051842  -0.000000
   101  H    0.063925  -0.000000
   102  H    0.053789   0.000000
   103  H    0.020211   0.000000
   104  H    0.018122  -0.000000
   105  H    0.056256   0.000000
   106  H    0.065645   0.000000
   107  H    0.056479  -0.000000
   108  H    0.026931  -0.000000
   109  H    0.046927  -0.000000
   110  H    0.063665   0.000000
   111  H    0.053223  -0.000000
   112  H    0.013579  -0.000000
   113  H    0.029820   0.000000
   114  H    0.054385  -0.000000
   115  H    0.049975  -0.000000
   116  H    0.067107  -0.000000
   117  H    0.014134  -0.000000
   118  H    0.051737  -0.000000
   119  H    0.061287   0.000000
   120  H    0.049699  -0.000000
   121  H    0.019177   0.000000
   122  H    0.046765  -0.000000
 Sum of Mulliken charges =  -0.00000   0.00000
 Mulliken charges and spin densities with hydrogens summed into heavy atoms:
               1          2
     1  C   -0.044805  -0.000000
     2  C    0.093175   0.000000
     3  N   -0.197183  -0.000000
     4  C    0.056151   0.000000
     5  C    0.123873   0.000000
     6  O   -0.242715  -0.000000
     7  C    0.204231   0.000000
     8  C    0.007774   0.000000
     9  C   -0.192784  -0.000000
    10  C    0.181482  -0.000000
    11  O   -0.252578  -0.000000
    12  C    0.196241  -0.000000
    13  C   -0.020187   0.000000
    14  C   -0.172822  -0.000000
    15  S    0.214939  -0.000000
    16  C   -0.044078  -0.000000
    17  C    0.107970   0.000000
    18  N   -0.195413  -0.000000
    19  C    0.065129   0.000000
    20  C    0.133945   0.000000
    21  O   -0.242984  -0.000000
    22  C    0.207147  -0.000000
    23  C    0.014980  -0.000000
    24  C   -0.195256  -0.000000
    25  C    0.178162  -0.000000
    26  O   -0.252649   0.000000
    27  C    0.198933   0.000000
    28  C   -0.011339   0.000000
    29  C   -0.169862  -0.000000
    30  S    0.204378  -0.000000
    31  C   -0.041835   0.000000
    32  C    0.088839  -0.000000
    33  N   -0.195643   0.000000
    34  C    0.062498   0.000000
    35  C    0.133498  -0.000000
    36  O   -0.243621  -0.000000
    37  C    0.212461  -0.000000
    38  C    0.031254   0.000000
    39  C   -0.194453  -0.000000
    40  C    0.179696   0.000000
    41  O   -0.251683  -0.000000
    42  C    0.200590   0.000000
    43  C   -0.009262  -0.000000
    44  C   -0.169782   0.000000
    45  S    0.198864   0.000000
    46  C   -0.041834  -0.000000
    47  C    0.092214   0.000000
    48  N   -0.193502   0.000000
    49  C    0.062389   0.000000
    50  C    0.132448  -0.000000
    51  O   -0.244402  -0.000000
    52  C    0.209985  -0.000000
    53  C    0.029854   0.000000
    54  C   -0.196181  -0.000000
    55  C    0.179467  -0.000000
    56  O   -0.251562   0.000000
    57  C    0.196522  -0.000000
    58  C   -0.019679  -0.000000
    59  C   -0.171888   0.000000
    60  S    0.214353   0.000000
    61  C   -0.044950  -0.000000
    62  C    0.107281   0.000000
    63  N   -0.192599  -0.000000
    64  C    0.070859  -0.000000
    65  C    0.133914   0.000000
    66  O   -0.242990  -0.000000
    67  C    0.205628   0.000000
    68  C    0.013653  -0.000000
    69  C   -0.204036   0.000000
    70  C    0.161851  -0.000000
    71  O   -0.252833   0.000000
    72  C    0.193819   0.000000
    73  C   -0.003378   0.000000
    74  C   -0.100986  -0.000000
    75  S    0.201310   0.000000
 Electronic spatial extent (au):  <R**2>=         278639.9525
 Charge=             -0.0000 electrons
 Dipole moment (field-independent basis, Debye):
    X=             -4.7724    Y=              8.5410    Z=              1.9994  Tot=              9.9861
 Quadrupole moment (field-independent basis, Debye-Ang):
   XX=           -241.1354   YY=           -387.7734   ZZ=           -460.0651
   XY=             30.4218   XZ=            -55.1706   YZ=             -0.4967
 Traceless Quadrupole moment (field-independent basis, Debye-Ang):
   XX=            121.8559   YY=            -24.7821   ZZ=            -97.0738
   XY=             30.4218   XZ=            -55.1706   YZ=             -0.4967
 Octapole moment (field-independent basis, Debye-Ang**2):
  XXX=          -1239.6046  YYY=            156.9422  ZZZ=             10.8694  XYY=           -143.8915
  XXY=           1263.0273  XXZ=            445.3464  XZZ=            -22.9256  YZZ=             29.4887
  YYZ=             13.5044  XYZ=           -117.5897
 Hexadecapole moment (field-independent basis, Debye-Ang**3):
 XXXX=        -232057.3562 YYYY=         -11007.1218 ZZZZ=          -2380.4109 XXXY=           8909.9004
 XXXZ=         -17361.5677 YYYX=            294.0172 YYYZ=              9.9433 ZZZX=           -645.2402
 ZZZY=             16.6353 XXYY=         -54088.5266 XXZZ=         -59721.6553 YYZZ=          -2289.9386
 XXYZ=           -689.9821 YYXZ=            105.9020 ZZXY=             98.4152
 N-N= 1.110947440387D+04 E-N=-3.429003016802D+04  KE= 5.114088708405D+03
 Leave Link  601 at Fri Jul 24 22:18:34 2020, MaxMem=  4026531840 cpu:              19.6 elap:               3.4
 (Enter /opt/ohpc/pub/libs/gaussian/g16-A.03/sandybridge/g16/l9999.exe)

 Test job not archived.
 1\1\GINC-SKYLAKE041\FOpt\ULC-wPBE\CC-pVDZ\C55H47N5O10S5\RDU230\24-Jul-
 2020\0\\#P uLC-wPBE/cc-pVDZ iop(3/107=0466900000, 3/108=0466900000) op
 t\\H47 C55 S5 N5 O10\\0,1\C,-17.6571296015,-4.1770447211,-0.6594903631
 \C,-16.4566889563,-4.1312400096,-1.3367785622\N,-15.578882628,-3.14846
 41537,-1.1748077214\C,-15.8496769027,-2.1687151089,-0.3257156855\C,-17
 .0179111581,-2.167238874,0.459117345\O,-17.137755154,-1.1926494964,1.3
 773251218\C,-18.3264914015,-1.1224409926,2.115338737\C,-17.9412370625,
 -3.1798459171,0.2622398294\C,-14.8349552079,-1.112486012,-0.1996280911
 \C,-14.9768127489,0.2486515312,-0.1651266747\O,-16.1885273052,0.831427
 5774,-0.2576681131\C,-16.2300136227,2.2320657388,-0.217060033\C,-13.73
 0134148,0.9324910169,-0.0887631674\C,-12.6653083291,0.0796383198,-0.08
 91845268\S,-13.1733222958,-1.5505002204,-0.1842007436\C,-11.2431453487
 ,0.4375749943,-0.02560211\C,-10.272216702,-0.3055157641,-0.6797118874\
 N,-8.9857873512,0.0104087133,-0.6676808898\C,-8.5783275257,1.083554044
 4,-0.0071476549\C,-9.4756894991,1.8672340145,0.7425849433\O,-8.9511668
 699,2.8572747733,1.484187885\C,-9.8262446194,3.6870507389,2.197380822\
 C,-10.8187013815,1.5432109319,0.7096191131\C,-7.1387957553,1.370156197
 4,-0.0419776257\C,-6.4754723386,2.553909804,-0.2268922995\O,-7.1405114
 279,3.7080355612,-0.4265809995\C,-6.3724293514,4.8716180499,-0.5799647
 306\C,-5.0600041446,2.3983310619,-0.2496153875\C,-4.675174327,1.098409
 2345,-0.1018815606\S,-6.0272233521,0.0627062752,0.0611112567\C,-3.3052
 283222,0.5721984829,-0.0810109429\C,-2.2610095494,1.3187537957,0.44371
 21707\N,-1.0109913022,0.8840970679,0.4946580242\C,-0.7159674545,-0.322
 6274101,0.0340219389\C,-1.6934847379,-1.1371689578,-0.5679656217\O,-1.
 2779599653,-2.2905819747,-1.1145400851\C,-2.242464754,-3.1545362645,-1
 .6538262431\C,-2.9987456819,-0.6834511575,-0.6019891207\C,0.6892559176
 ,-0.737859569,0.1267165895\C,1.23459552,-1.9289208592,0.5257941517\O,0
 .4615329546,-2.9539067103,0.9308170736\C,1.1100816183,-4.1480965602,1.
 2795753747\C,2.6588781188,-1.9148629185,0.5232495874\C,3.1687694966,-0
 .7089371343,0.1426534389\S,1.9235180095,0.4109783183,-0.2095094907\C,4
 .5838812175,-0.3366597142,0.0297551153\C,5.5397734896,-1.2684343904,-0
 .3464825817\N,6.8260497556,-0.9794726415,-0.4709473307\C,7.2481728165,
 0.2542452802,-0.236925267\C,6.3667078472,1.2598413416,0.2013889347\O,6
 .9042355841,2.4464460547,0.528657939\C,6.0386246216,3.4874539541,0.893
 4669255\C,5.0231110313,0.9550675596,0.3133135425\C,8.6872889832,0.4987
 381597,-0.3971658487\C,9.3450393158,1.5325373631,-1.0084331047\O,8.674
 0849606,2.5412263327,-1.5980947978\C,9.436173906,3.5512425671,-2.20160
 34526\C,10.7597293869,1.3715430781,-0.9963438722\C,11.1487877791,0.209
 3217575,-0.3970475052\S,9.8014467856,-0.690008866,0.1508999106\C,12.52
 1661095,-0.277011656,-0.2138017439\C,12.8300190734,-1.6281689932,-0.25
 10004955\N,14.0630057003,-2.0954547859,-0.1206824974\C,15.0697015139,-
 1.2537449222,0.0545941735\C,14.8543722348,0.1326047869,0.1694618665\O,
 15.9195691395,0.8941446155,0.4726851437\C,15.7458870234,2.2828157396,0
 .5320588175\C,13.5688332132,0.6147318953,0.0136535659\C,16.4089662604,
 -1.8427634815,0.1884085755\C,17.5928565976,-1.4729855849,-0.3911984839
 \O,17.6651169789,-0.4229479905,-1.2338979472\C,18.925887017,-0.1156007
 733,-1.7640565672\C,18.6722715585,-2.3407345695,-0.046744218\C,18.2682
 025169,-3.3499358456,0.7670468703\S,16.6069256982,-3.2784619411,1.1140
 159697\H,-18.3617195848,-4.9877430487,-0.8320494158\H,-16.1820327989,-
 4.9111280142,-2.0476369216\H,-19.2001620512,-0.9871597149,1.4621674846
 \H,-18.2319345212,-0.2513445563,2.7681542256\H,-18.4742550149,-2.01759
 31393,2.736431503\H,-18.8669902339,-3.212537253,0.8305413323\H,-17.283
 456447,2.5137980337,-0.2930615155\H,-15.6827090873,2.6803232162,-1.058
 4787008\H,-15.8248666332,2.6234241713,0.727087337\H,-13.617737887,2.01
 20905879,-0.079642335\H,-10.5480139735,-1.1886414868,-1.2577220223\H,-
 9.2031762365,4.4323555561,2.6974454421\H,-10.5311754526,4.2004312759,1
 .5281731276\H,-10.3902641528,3.1270624658,2.9569378999\H,-11.545457838
 5,2.1113802248,1.2836492137\H,-5.7304522188,4.8209715115,-1.470750479\
 H,-7.0796995009,5.6959034461,-0.7029589411\H,-5.7491457703,5.065847115
 5,0.3042932528\H,-4.3524970924,3.2051180327,-0.4112853535\H,-2.4466158
 044,2.3073151495,0.8645358744\H,-2.9790404456,-3.4586205479,-0.8972143
 132\H,-2.7657123153,-2.6985205861,-2.506117656\H,-1.701808686,-4.03787
 79103,-2.0015650024\H,-3.7842037183,-1.2763525739,-1.0639640505\H,1.69
 09311996,-4.5541790286,0.4395440851\H,0.3250032418,-4.8606404482,1.545
 2341821\H,1.7727434642,-4.013013581,2.1460475334\H,3.2848824253,-2.746
 4381433,0.8302348552\H,5.2498605202,-2.2930626141,-0.5805028701\H,5.32
 51577717,3.7187418455,0.0902753682\H,6.669246897,4.3612967386,1.073570
 7829\H,5.484276214,3.2525263471,1.8131486881\H,4.3081248899,1.69867733
 01,0.6564446457\H,10.0843948065,4.0606082271,-1.4742422287\H,8.7252940
 113,4.2748328446,-2.6089055497\H,10.0526387814,3.1601312812,-3.0234680
 217\H,11.4633415225,2.0615924042,-1.4512855515\H,12.0465832601,-2.3698
 642881,-0.4130321889\H,15.0456151578,2.5724565238,1.3286242299\H,15.39
 04498345,2.686697096,-0.4265724633\H,16.7285343604,2.7059384445,0.7539
 594268\H,13.3534367828,1.6754790699,0.1083428116\H,19.323831321,-0.939
 9918175,-2.3728473723\H,18.7885803305,0.7595022413,-2.4046789198\H,19.
 6497325034,0.1317138381,-0.9744665206\H,19.6944041524,-2.2282710531,-0
 .3934769938\H,18.8829145636,-4.145454001,1.1758093772\\Version=EM64L-G
 16RevA.03\State=1-A\HF=-5138.4610568\S2=0.\S2-1=0.\S2A=0.\RMSD=6.112e-
 09\RMSF=1.416e-06\Dipole=-1.8564419,3.3721177,0.7862674\Quadrupole=90.
 049222,-18.6183126,-71.4309094,21.9446132,-42.5591173,-0.6550376\PG=C0
 1 [X(C55H47N5O10S5)]\\@


 When cryptography is outlawed, bayl bhgynjf jvyy unir cevinpl.
 Job cpu time:       3 days 13 hours 14 minutes  3.8 seconds.
 Elapsed time:       0 days 10 hours 50 minutes 21.2 seconds.
 File lengths (MBytes):  RWF=   1908 Int=      0 D2E=      0 Chk=    172 Scr=      8
 Normal termination of Gaussian 16 at Fri Jul 24 22:18:34 2020.
