 Entering Gaussian System, Link 0=g16
 Input=mols_65_1_00_c-c-C_opt_0.gjf
 Output=mols_65_1_00_c-c-C_opt_0.log
 Initial command:
 /opt/ohpc/pub/libs/gaussian/g16-A.03/sandybridge/g16/l1.exe "/mnt/gpfs2_4m/scratch/rdu230/ondemand/projects/dihedral_energies/7trial/wtuning/mols_65_1_00_c-c-C/Gau-110166.inp" -scrdir="/mnt/gpfs2_4m/scratch/rdu230/ondemand/projects/dihedral_energies/7trial/wtuning/mols_65_1_00_c-c-C/"
 Entering Link 1 = /opt/ohpc/pub/libs/gaussian/g16-A.03/sandybridge/g16/l1.exe PID=    110167.
  
 Copyright (c) 1988,1990,1992,1993,1995,1998,2003,2009,2016,
            Gaussian, Inc.  All Rights Reserved.
  
 This is part of the Gaussian(R) 16 program.  It is based on
 the Gaussian(R) 09 system (copyright 2009, Gaussian, Inc.),
 the Gaussian(R) 03 system (copyright 2003, Gaussian, Inc.),
 the Gaussian(R) 98 system (copyright 1998, Gaussian, Inc.),
 the Gaussian(R) 94 system (copyright 1995, Gaussian, Inc.),
 the Gaussian 92(TM) system (copyright 1992, Gaussian, Inc.),
 the Gaussian 90(TM) system (copyright 1990, Gaussian, Inc.),
 the Gaussian 88(TM) system (copyright 1988, Gaussian, Inc.),
 the Gaussian 86(TM) system (copyright 1986, Carnegie Mellon
 University), and the Gaussian 82(TM) system (copyright 1983,
 Carnegie Mellon University). Gaussian is a federally registered
 trademark of Gaussian, Inc.
  
 This software contains proprietary and confidential information,
 including trade secrets, belonging to Gaussian, Inc.
  
 This software is provided under written license and may be
 used, copied, transmitted, or stored only in accord with that
 written license.
  
 The following legend is applicable only to US Government
 contracts under FAR:
  
                    RESTRICTED RIGHTS LEGEND
  
 Use, reproduction and disclosure by the US Government is
 subject to restrictions as set forth in subparagraphs (a)
 and (c) of the Commercial Computer Software - Restricted
 Rights clause in FAR 52.227-19.
  
 Gaussian, Inc.
 340 Quinnipiac St., Bldg. 40, Wallingford CT 06492
  
  
 ---------------------------------------------------------------
 Warning -- This program may not be used in any manner that
 competes with the business of Gaussian, Inc. or will provide
 assistance to any competitor of Gaussian, Inc.  The licensee
 of this program is prohibited from giving any competitor of
 Gaussian, Inc. access to this program.  By using this program,
 the user acknowledges that Gaussian, Inc. is engaged in the
 business of creating and licensing software in the field of
 computational chemistry and represents and warrants to the
 licensee that it is not a competitor of Gaussian, Inc. and that
 it will not use this program in any manner prohibited above.
 ---------------------------------------------------------------
  

 Cite this work as:
 Gaussian 16, Revision A.03,
 M. J. Frisch, G. W. Trucks, H. B. Schlegel, G. E. Scuseria, 
 M. A. Robb, J. R. Cheeseman, G. Scalmani, V. Barone, 
 G. A. Petersson, H. Nakatsuji, X. Li, M. Caricato, A. V. Marenich, 
 J. Bloino, B. G. Janesko, R. Gomperts, B. Mennucci, H. P. Hratchian, 
 J. V. Ortiz, A. F. Izmaylov, J. L. Sonnenberg, D. Williams-Young, 
 F. Ding, F. Lipparini, F. Egidi, J. Goings, B. Peng, A. Petrone, 
 T. Henderson, D. Ranasinghe, V. G. Zakrzewski, J. Gao, N. Rega, 
 G. Zheng, W. Liang, M. Hada, M. Ehara, K. Toyota, R. Fukuda, 
 J. Hasegawa, M. Ishida, T. Nakajima, Y. Honda, O. Kitao, H. Nakai, 
 T. Vreven, K. Throssell, J. A. Montgomery, Jr., J. E. Peralta, 
 F. Ogliaro, M. J. Bearpark, J. J. Heyd, E. N. Brothers, K. N. Kudin, 
 V. N. Staroverov, T. A. Keith, R. Kobayashi, J. Normand, 
 K. Raghavachari, A. P. Rendell, J. C. Burant, S. S. Iyengar, 
 J. Tomasi, M. Cossi, J. M. Millam, M. Klene, C. Adamo, R. Cammi, 
 J. W. Ochterski, R. L. Martin, K. Morokuma, O. Farkas, 
 J. B. Foresman, and D. J. Fox, Gaussian, Inc., Wallingford CT, 2016.
 
 ******************************************
 Gaussian 16:  EM64L-G16RevA.03 25-Dec-2016
                25-Jul-2020 
 ******************************************
 %mem=30GB
 %nproc=8
 Will use up to    8 processors via shared memory.
 ---------------------------------------------------------------
 #P uLC-wPBE/cc-pVDZ iop(3/107=0106100000, 3/108=0106100000) opt
 ---------------------------------------------------------------
 1/18=20,19=15,26=3,38=1/1,3;
 2/9=110,12=2,17=6,18=5,40=1/2;
 3/5=16,11=2,25=1,30=1,71=1,74=-41,107=106100000,108=106100000,116=2/1,2,3;
 4//1;
 5/5=2,38=5/2;
 6/7=2,8=2,9=2,10=2,28=1/1;
 7//1,2,3,16;
 1/18=20,19=15,26=3/3(2);
 2/9=110/2;
 99//99;
 2/9=110/2;
 3/5=16,11=2,25=1,30=1,71=1,74=-41,107=106100000,108=106100000,116=2/1,2,3;
 4/5=5,16=3,69=1/1;
 5/5=2,38=5/2;
 7//1,2,3,16;
 1/18=20,19=15,26=3/3(-5);
 2/9=110/2;
 6/7=2,8=2,9=2,10=2,19=2,28=1/1;
 99/9=1/99;
 Leave Link    1 at Sat Jul 25 10:14:32 2020, MaxMem=  4026531840 cpu:               1.0 elap:               0.1
 (Enter /opt/ohpc/pub/libs/gaussian/g16-A.03/sandybridge/g16/l101.exe)
 ---------
 H8 C10 S1
 ---------
 Symbolic Z-matrix:
 Charge =  0 Multiplicity = 1
 C                     3.51586  -0.11142  -0.01589 
 C                     2.8562    1.20766  -0.00109 
 C                     1.45641   1.22787  -0.00642 
 C                     0.65322   0.09707  -0.03076 
 C                     1.36944  -1.11279   0.04035 
 C                     2.75096  -1.23347   0.04872 
 C                    -0.83341   0.20443   0.01384 
 C                    -1.56775   1.38968   0.04483 
 C                    -2.94221   1.13295  -0.02106 
 C                    -3.20164  -0.22102  -0.02447 
 S                    -1.77507  -1.15241   0.03319 
 H                     4.56609  -0.13192   0.02867 
 H                     3.52236   2.06301  -0.02997 
 H                     1.04862   2.27372  -0.0426 
 H                     0.84355  -2.05247   0.01541 
 H                     3.26112  -2.18745   0.0419 
 H                    -1.20089   2.41205  -0.01144 
 H                    -3.769     1.83733   0.03749 
 H                    -4.15628  -0.72004   0.01407 
 
 ITRead=  0  0  0  0  0  0  0  0  0  0  0  0  0  0  0  0  0  0  0
 MicOpt= -1 -1 -1 -1 -1 -1 -1 -1 -1 -1 -1 -1 -1 -1 -1 -1 -1 -1 -1
 NAtoms=     19 NQM=       19 NQMF=       0 NMMI=      0 NMMIF=      0
                NMic=       0 NMicF=      0.
                    Isotopes and Nuclear Properties:
 (Nuclear quadrupole moments (NQMom) in fm**2, nuclear magnetic moments (NMagM)
  in nuclear magnetons)

  Atom         1           2           3           4           5           6           7           8           9          10
 IAtWgt=          12          12          12          12          12          12          12          12          12          12
 AtmWgt=  12.0000000  12.0000000  12.0000000  12.0000000  12.0000000  12.0000000  12.0000000  12.0000000  12.0000000  12.0000000
 NucSpn=           0           0           0           0           0           0           0           0           0           0
 AtZEff=  -0.0000000  -0.0000000  -0.0000000  -0.0000000  -0.0000000  -0.0000000  -0.0000000  -0.0000000  -0.0000000  -0.0000000
 NQMom=    0.0000000   0.0000000   0.0000000   0.0000000   0.0000000   0.0000000   0.0000000   0.0000000   0.0000000   0.0000000
 NMagM=    0.0000000   0.0000000   0.0000000   0.0000000   0.0000000   0.0000000   0.0000000   0.0000000   0.0000000   0.0000000
 AtZNuc=   6.0000000   6.0000000   6.0000000   6.0000000   6.0000000   6.0000000   6.0000000   6.0000000   6.0000000   6.0000000

  Atom        11          12          13          14          15          16          17          18          19
 IAtWgt=          32           1           1           1           1           1           1           1           1
 AtmWgt=  31.9720718   1.0078250   1.0078250   1.0078250   1.0078250   1.0078250   1.0078250   1.0078250   1.0078250
 NucSpn=           0           1           1           1           1           1           1           1           1
 AtZEff=  -0.0000000  -0.0000000  -0.0000000  -0.0000000  -0.0000000  -0.0000000  -0.0000000  -0.0000000  -0.0000000
 NQMom=    0.0000000   0.0000000   0.0000000   0.0000000   0.0000000   0.0000000   0.0000000   0.0000000   0.0000000
 NMagM=    0.0000000   2.7928460   2.7928460   2.7928460   2.7928460   2.7928460   2.7928460   2.7928460   2.7928460
 AtZNuc=  16.0000000   1.0000000   1.0000000   1.0000000   1.0000000   1.0000000   1.0000000   1.0000000   1.0000000
 Leave Link  101 at Sat Jul 25 10:14:33 2020, MaxMem=  4026531840 cpu:               3.0 elap:               0.4
 (Enter /opt/ohpc/pub/libs/gaussian/g16-A.03/sandybridge/g16/l103.exe)

 GradGradGradGradGradGradGradGradGradGradGradGradGradGradGradGradGradGrad
 Berny optimization.
 Initialization pass.
                           ----------------------------
                           !    Initial Parameters    !
                           ! (Angstroms and Degrees)  !
 --------------------------                            --------------------------
 ! Name  Definition              Value          Derivative Info.                !
 --------------------------------------------------------------------------------
 ! R1    R(1,2)                  1.4749         estimate D2E/DX2                !
 ! R2    R(1,6)                  1.3595         estimate D2E/DX2                !
 ! R3    R(1,12)                 1.0514         estimate D2E/DX2                !
 ! R4    R(2,3)                  1.3999         estimate D2E/DX2                !
 ! R5    R(2,13)                 1.0845         estimate D2E/DX2                !
 ! R6    R(3,4)                  1.3872         estimate D2E/DX2                !
 ! R7    R(3,14)                 1.1231         estimate D2E/DX2                !
 ! R8    R(4,5)                  1.4078         estimate D2E/DX2                !
 ! R9    R(4,7)                  1.4912         estimate D2E/DX2                !
 ! R10   R(5,6)                  1.3868         estimate D2E/DX2                !
 ! R11   R(5,15)                 1.0771         estimate D2E/DX2                !
 ! R12   R(6,16)                 1.0818         estimate D2E/DX2                !
 ! R13   R(7,8)                  1.3947         estimate D2E/DX2                !
 ! R14   R(7,11)                 1.6517         estimate D2E/DX2                !
 ! R15   R(8,9)                  1.3998         estimate D2E/DX2                !
 ! R16   R(8,17)                 1.0876         estimate D2E/DX2                !
 ! R17   R(9,10)                 1.3786         estimate D2E/DX2                !
 ! R18   R(9,18)                 1.0877         estimate D2E/DX2                !
 ! R19   R(10,11)                1.7047         estimate D2E/DX2                !
 ! R20   R(10,19)                1.0779         estimate D2E/DX2                !
 ! A1    A(2,1,6)              119.0796         estimate D2E/DX2                !
 ! A2    A(2,1,12)             117.6315         estimate D2E/DX2                !
 ! A3    A(6,1,12)             122.9504         estimate D2E/DX2                !
 ! A4    A(1,2,3)              117.3922         estimate D2E/DX2                !
 ! A5    A(1,2,13)             115.4908         estimate D2E/DX2                !
 ! A6    A(3,2,13)             127.0617         estimate D2E/DX2                !
 ! A7    A(2,3,4)              124.557          estimate D2E/DX2                !
 ! A8    A(2,3,14)             112.124          estimate D2E/DX2                !
 ! A9    A(4,3,14)             123.2486         estimate D2E/DX2                !
 ! A10   A(3,4,5)              113.8971         estimate D2E/DX2                !
 ! A11   A(3,4,7)              121.1993         estimate D2E/DX2                !
 ! A12   A(5,4,7)              124.5818         estimate D2E/DX2                !
 ! A13   A(4,5,6)              125.5858         estimate D2E/DX2                !
 ! A14   A(4,5,15)             120.0127         estimate D2E/DX2                !
 ! A15   A(6,5,15)             114.2424         estimate D2E/DX2                !
 ! A16   A(1,6,5)              119.2341         estimate D2E/DX2                !
 ! A17   A(1,6,16)             117.5275         estimate D2E/DX2                !
 ! A18   A(5,6,16)             123.1249         estimate D2E/DX2                !
 ! A19   A(4,7,8)              125.9295         estimate D2E/DX2                !
 ! A20   A(4,7,11)             120.6366         estimate D2E/DX2                !
 ! A21   A(8,7,11)             113.4338         estimate D2E/DX2                !
 ! A22   A(7,8,9)              111.1061         estimate D2E/DX2                !
 ! A23   A(7,8,17)             128.3233         estimate D2E/DX2                !
 ! A24   A(9,8,17)             120.0768         estimate D2E/DX2                !
 ! A25   A(8,9,10)             111.4094         estimate D2E/DX2                !
 ! A26   A(8,9,18)             128.6855         estimate D2E/DX2                !
 ! A27   A(10,9,18)            119.544          estimate D2E/DX2                !
 ! A28   A(9,10,11)            112.2747         estimate D2E/DX2                !
 ! A29   A(9,10,19)            128.4087         estimate D2E/DX2                !
 ! A30   A(11,10,19)           119.1439         estimate D2E/DX2                !
 ! A31   A(7,11,10)             91.5972         estimate D2E/DX2                !
 ! D1    D(6,1,2,3)             -3.9821         estimate D2E/DX2                !
 ! D2    D(6,1,2,13)           178.5272         estimate D2E/DX2                !
 ! D3    D(12,1,2,3)          -177.5002         estimate D2E/DX2                !
 ! D4    D(12,1,2,13)            5.0091         estimate D2E/DX2                !
 ! D5    D(2,1,6,5)              4.0983         estimate D2E/DX2                !
 ! D6    D(2,1,6,16)          -179.6534         estimate D2E/DX2                !
 ! D7    D(12,1,6,5)           177.2532         estimate D2E/DX2                !
 ! D8    D(12,1,6,16)           -6.4984         estimate D2E/DX2                !
 ! D9    D(1,2,3,4)             -0.3092         estimate D2E/DX2                !
 ! D10   D(1,2,3,14)          -177.3353         estimate D2E/DX2                !
 ! D11   D(13,2,3,4)           176.8521         estimate D2E/DX2                !
 ! D12   D(13,2,3,14)           -0.174          estimate D2E/DX2                !
 ! D13   D(2,3,4,5)              4.0413         estimate D2E/DX2                !
 ! D14   D(2,3,4,7)            177.8137         estimate D2E/DX2                !
 ! D15   D(14,3,4,5)          -179.2533         estimate D2E/DX2                !
 ! D16   D(14,3,4,7)            -5.4809         estimate D2E/DX2                !
 ! D17   D(3,4,5,6)             -4.0339         estimate D2E/DX2                !
 ! D18   D(3,4,5,15)          -179.1758         estimate D2E/DX2                !
 ! D19   D(7,4,5,6)           -177.5628         estimate D2E/DX2                !
 ! D20   D(7,4,5,15)             7.2953         estimate D2E/DX2                !
 ! D21   D(3,4,7,8)              1.8841         estimate D2E/DX2                !
 ! D22   D(3,4,7,11)          -178.0203         estimate D2E/DX2                !
 ! D23   D(5,4,7,8)            174.9653         estimate D2E/DX2                !
 ! D24   D(5,4,7,11)            -4.9391         estimate D2E/DX2                !
 ! D25   D(4,5,6,1)             -0.0025         estimate D2E/DX2                !
 ! D26   D(4,5,6,16)          -176.0296         estimate D2E/DX2                !
 ! D27   D(15,5,6,1)           175.3845         estimate D2E/DX2                !
 ! D28   D(15,5,6,16)           -0.6426         estimate D2E/DX2                !
 ! D29   D(4,7,8,9)            175.4206         estimate D2E/DX2                !
 ! D30   D(4,7,8,17)             3.5969         estimate D2E/DX2                !
 ! D31   D(11,7,8,9)            -4.669          estimate D2E/DX2                !
 ! D32   D(11,7,8,17)         -176.4927         estimate D2E/DX2                !
 ! D33   D(4,7,11,10)         -176.4475         estimate D2E/DX2                !
 ! D34   D(8,7,11,10)            3.6369         estimate D2E/DX2                !
 ! D35   D(7,8,9,10)             3.3154         estimate D2E/DX2                !
 ! D36   D(7,8,9,18)           176.2801         estimate D2E/DX2                !
 ! D37   D(17,8,9,10)          175.9073         estimate D2E/DX2                !
 ! D38   D(17,8,9,18)          -11.128          estimate D2E/DX2                !
 ! D39   D(8,9,10,11)           -0.6896         estimate D2E/DX2                !
 ! D40   D(8,9,10,19)          174.4298         estimate D2E/DX2                !
 ! D41   D(18,9,10,11)        -174.3804         estimate D2E/DX2                !
 ! D42   D(18,9,10,19)           0.7391         estimate D2E/DX2                !
 ! D43   D(9,10,11,7)           -1.6735         estimate D2E/DX2                !
 ! D44   D(19,10,11,7)        -177.2959         estimate D2E/DX2                !
 --------------------------------------------------------------------------------
 Trust Radius=3.00D-01 FncErr=1.00D-07 GrdErr=1.00D-06 EigMax=2.50D+02 EigMin=1.00D-04
 Number of steps in this run=    105 maximum allowed number of steps=    114.
 GradGradGradGradGradGradGradGradGradGradGradGradGradGradGradGradGradGrad

 Leave Link  103 at Sat Jul 25 10:14:33 2020, MaxMem=  4026531840 cpu:               0.1 elap:               0.0
 (Enter /opt/ohpc/pub/libs/gaussian/g16-A.03/sandybridge/g16/l202.exe)
                          Input orientation:                          
 ---------------------------------------------------------------------
 Center     Atomic      Atomic             Coordinates (Angstroms)
 Number     Number       Type             X           Y           Z
 ---------------------------------------------------------------------
      1          6           0        3.515856   -0.111419   -0.015894
      2          6           0        2.856196    1.207657   -0.001088
      3          6           0        1.456408    1.227866   -0.006424
      4          6           0        0.653215    0.097070   -0.030762
      5          6           0        1.369440   -1.112789    0.040352
      6          6           0        2.750957   -1.233470    0.048720
      7          6           0       -0.833408    0.204426    0.013839
      8          6           0       -1.567751    1.389683    0.044827
      9          6           0       -2.942207    1.132947   -0.021063
     10          6           0       -3.201637   -0.221016   -0.024471
     11         16           0       -1.775073   -1.152411    0.033191
     12          1           0        4.566094   -0.131919    0.028669
     13          1           0        3.522357    2.063014   -0.029973
     14          1           0        1.048615    2.273716   -0.042599
     15          1           0        0.843552   -2.052469    0.015411
     16          1           0        3.261121   -2.187454    0.041900
     17          1           0       -1.200892    2.412048   -0.011440
     18          1           0       -3.768996    1.837331    0.037485
     19          1           0       -4.156283   -0.720041    0.014068
 ---------------------------------------------------------------------
                    Distance matrix (angstroms):
                    1          2          3          4          5
     1  C    0.000000
     2  C    1.474901   0.000000
     3  C    2.456644   1.399944   0.000000
     4  C    2.870262   2.467268   1.387231   0.000000
     5  C    2.369179   2.756199   2.342737   1.407762   0.000000
     6  C    1.359501   2.443902   2.781559   2.485392   1.386803
     7  C    4.360819   3.823594   2.508206   1.491161   2.566768
     8  C    5.300948   4.427928   3.028919   2.570847   3.858689
     9  C    6.576857   5.798919   4.399663   3.741683   4.861831
    10  C    6.718392   6.224066   4.878214   3.867958   4.657704
    11  S    5.392588   5.198052   4.013696   2.731643   3.144771
    12  H    1.051383   2.172349   3.394171   3.920024   3.343776
    13  H    2.174488   1.084546   2.228491   3.478062   3.837411
    14  H    3.431743   2.098941   1.123123   2.212300   3.402679
    15  H    3.303008   3.831374   3.337165   2.158443   1.077116
    16  H    2.092403   3.419443   3.863125   3.467781   2.175630
    17  H    5.349357   4.232095   2.909219   2.966009   4.362770
    18  H    7.541190   6.655159   5.261010   4.752801   5.925094
    19  H    7.696300   7.272628   5.941133   4.878622   5.539725
                    6          7          8          9         10
     6  C    0.000000
     7  C    3.862180   0.000000
     8  C    5.052938   1.394652   0.000000
     9  C    6.165786   2.304431   1.399780   0.000000
    10  C    6.038526   2.406445   2.295373   1.378598   0.000000
    11  S    4.526782   1.651700   2.550561   2.566711   1.704672
    12  H    2.123332   5.409988   6.319778   7.614259   7.768424
    13  H    3.386452   4.735922   5.134995   6.531132   7.101332
    14  H    3.899572   2.797706   2.763065   4.150720   4.928353
    15  H    2.076069   2.811721   4.202815   4.947745   4.440649
    16  H    1.081850   4.742051   6.009486   7.036356   6.755629
    17  H    5.376851   2.238142   1.087650   2.160641   3.306989
    18  H    7.206923   3.359258   2.246313   1.087734   2.136007
    19  H    6.926382   3.449078   3.339518   2.215577   1.077896
                   11         12         13         14         15
    11  S    0.000000
    12  H    6.422758   0.000000
    13  H    6.197234   2.431164   0.000000
    14  H    4.440417   4.262020   2.482731   0.000000
    15  H    2.769046   4.188795   4.910729   4.331431   0.000000
    16  H    5.141463   2.434821   4.259095   4.980398   2.421479
    17  H    3.610685   6.303293   4.736164   2.253972   4.910436
    18  H    3.593648   8.564564   7.295157   4.837998   6.033791
    19  H    2.420221   8.742194   8.167548   6.004728   5.174332
                   16         17         18         19
    16  H    0.000000
    17  H    6.408418   0.000000
    18  H    8.100707   2.632081   0.000000
    19  H    7.561214   4.306387   2.586637   0.000000
 Stoichiometry    C10H8S
 Framework group  C1[X(C10H8S)]
 Deg. of freedom    51
 Full point group                 C1      NOp   1
 Largest Abelian subgroup         C1      NOp   1
 Largest concise Abelian subgroup C1      NOp   1
                         Standard orientation:                         
 ---------------------------------------------------------------------
 Center     Atomic      Atomic             Coordinates (Angstroms)
 Number     Number       Type             X           Y           Z
 ---------------------------------------------------------------------
      1          6           0        3.516250   -0.079550   -0.027050
      2          6           0        2.842376    1.232038    0.003980
      3          6           0        1.442452    1.237190   -0.001381
      4          6           0        0.651524    0.098172   -0.039897
      5          6           0        1.380774   -1.104668    0.016352
      6          6           0        2.763514   -1.210513    0.023496
      7          6           0       -0.836175    0.188901    0.005738
      8          6           0       -1.583282    1.365681    0.051275
      9          6           0       -2.954880    1.094950   -0.018064
     10          6           0       -3.199667   -0.261590   -0.038311
     11         16           0       -1.763127   -1.178164    0.008080
     12          1           0        4.566645   -0.089255    0.017463
     13          1           0        3.499259    2.094834   -0.014166
     14          1           0        1.023385    2.278942   -0.024667
     15          1           0        0.865070   -2.049593   -0.020342
     16          1           0        3.283955   -2.158773    0.004949
     17          1           0       -1.227487    2.392569    0.007761
     18          1           0       -3.789235    1.789581    0.049050
     19          1           0       -4.148868   -0.771338   -0.006151
 ---------------------------------------------------------------------
 Rotational constants (GHZ):           2.8145254           0.6053765           0.4983111
 Leave Link  202 at Sat Jul 25 10:14:33 2020, MaxMem=  4026531840 cpu:               0.2 elap:               0.0
 (Enter /opt/ohpc/pub/libs/gaussian/g16-A.03/sandybridge/g16/l301.exe)
 Standard basis: CC-pVDZ (5D, 7F)
 Ernie: Thresh=  0.10000D-02 Tol=  0.10000D-05 Strict=F.
 Ernie:  30 primitive shells out of 310 were deleted.
 There are   209 symmetry adapted cartesian basis functions of A   symmetry.
 There are   198 symmetry adapted basis functions of A   symmetry.
   198 basis functions,   457 primitive gaussians,   209 cartesian basis functions
    42 alpha electrons       42 beta electrons
       nuclear repulsion energy       617.5585384115 Hartrees.
 IExCor=32609 DFT=T Ex+Corr=LC-wPBE ExCW=0 ScaHFX=  1.000000
 ScaDFX=  1.000000  0.000000  1.000000  1.000000 ScalE2=  1.000000  1.000000
 IRadAn=      5 IRanWt=     -1 IRanGd=            0 ICorTp=0 IEmpDi=  4
 HFx  wShort=  0.000000 wLong=  0.106100 cFull=  0.000000 cShort=  0.000000 cLong=  1.000000
 DFx  wShort=  0.000000 wLong=  0.106100 cFull=  0.000000 cShort=  0.000000 cLong=  1.000000
 NAtoms=   19 NActive=   19 NUniq=   19 SFac= 1.00D+00 NAtFMM=   60 NAOKFM=F Big=F
 Integral buffers will be    131072 words long.
 Raffenetti 2 integral format.
 Two-electron integral symmetry is turned on.
 Leave Link  301 at Sat Jul 25 10:14:33 2020, MaxMem=  4026531840 cpu:               0.4 elap:               0.1
 (Enter /opt/ohpc/pub/libs/gaussian/g16-A.03/sandybridge/g16/l302.exe)
 NPDir=0 NMtPBC=     1 NCelOv=     1 NCel=       1 NClECP=     1 NCelD=      1
         NCelK=      1 NCelE2=     1 NClLst=     1 CellRange=     0.0.
 One-electron integrals computed using PRISM.
 One-electron integral symmetry used in STVInt
 NBasis=   198 RedAO= T EigKep=  3.07D-04  NBF=   198
 NBsUse=   198 1.00D-06 EigRej= -1.00D+00 NBFU=   198
 Precomputing XC quadrature grid using
 IXCGrd= 4 IRadAn=           5 IRanWt=          -1 IRanGd=           0 AccXCQ= 0.00D+00.
 Generated NRdTot=       0 NPtTot=           0 NUsed=           0 NTot=          32
 NSgBfM=   209   209   209   209   209 MxSgAt=    19 MxSgA2=    19.
 Leave Link  302 at Sat Jul 25 10:14:34 2020, MaxMem=  4026531840 cpu:               2.6 elap:               0.5
 (Enter /opt/ohpc/pub/libs/gaussian/g16-A.03/sandybridge/g16/l303.exe)
 DipDrv:  MaxL=1.
 Leave Link  303 at Sat Jul 25 10:14:34 2020, MaxMem=  4026531840 cpu:               0.3 elap:               0.0
 (Enter /opt/ohpc/pub/libs/gaussian/g16-A.03/sandybridge/g16/l401.exe)
 ExpMin= 1.22D-01 ExpMax= 1.11D+05 ExpMxC= 1.07D+03 IAcc=3 IRadAn=         5 AccDes= 0.00D+00
 Harris functional with IExCor=32609 and IRadAn=       5 diagonalized for initial guess.
 HarFok:  IExCor=32609 AccDes= 0.00D+00 IRadAn=         5 IDoV= 1 UseB2=F ITyADJ=14
 ICtDFT=  3500011 ScaDFX=  1.000000  1.000000  1.000000  1.000000
 FoFCou: FMM=F IPFlag=           0 FMFlag=      100000 FMFlg1=           0
         NFxFlg=           0 DoJE=T BraDBF=F KetDBF=T FulRan=T
         wScrn=  0.000000 ICntrl=       500 IOpCl=  0 I1Cent=   200000004 NGrid=           0
         NMat0=    1 NMatS0=      1 NMatT0=    0 NMatD0=    1 NMtDS0=    0 NMtDT0=    0
 Petite list used in FoFCou.
 Harris En= -783.610703820194    
 JPrj=0 DoOrth=F DoCkMO=F.
 Initial guess <Sx>= 0.0000 <Sy>= 0.0000 <Sz>= 0.0000 <S**2>=-0.0000 S=-0.0000
 Leave Link  401 at Sat Jul 25 10:14:35 2020, MaxMem=  4026531840 cpu:               7.8 elap:               1.0
 (Enter /opt/ohpc/pub/libs/gaussian/g16-A.03/sandybridge/g16/l502.exe)
 Integral symmetry usage will be decided dynamically.
 UHF open shell SCF:
 Using DIIS extrapolation, IDIIS=  1040.
 NGot=  4026531840 LenX=  4026440539 LenY=  4026396417
 Requested convergence on RMS density matrix=1.00D-08 within 128 cycles.
 Requested convergence on MAX density matrix=1.00D-06.
 Requested convergence on             energy=1.00D-06.
 No special actions if energy rises.
 Fock matrices will be formed incrementally for  20 cycles.
 Integral accuracy reduced to 1.0D-05 until final iterations.

 Cycle   1  Pass 0  IDiag  1:
 FoFJK:  IHMeth= 1 ICntrl=       0 DoSepK=T KAlg= 0 I1Cent=           0 FoldK=F
 IRaf=         1 NMat=       1 IRICut=       1 DoRegI=T DoRafI=F ISym2E= 0 IDoP0=0 IntGTp=1.
 FoFCou: FMM=F IPFlag=           0 FMFlag=      100000 FMFlg1=           0
         NFxFlg=           0 DoJE=T BraDBF=F KetDBF=F FulRan=T
         wScrn=  0.000000 ICntrl=       500 IOpCl=  0 I1Cent=           0 NGrid=           0
         NMat0=    1 NMatS0=      1 NMatT0=    0 NMatD0=    1 NMtDS0=    0 NMtDT0=    0
 Symmetry not used in FoFCou.
 E= -783.215444947199    
 DIIS: error= 3.36D-02 at cycle   1 NSaved=   1.
 NSaved= 1 IEnMin= 1 EnMin= -783.215444947199     IErMin= 1 ErrMin= 3.36D-02
 ErrMax= 3.36D-02  0.00D+00 EMaxC= 1.00D-01 BMatC= 9.73D-01 BMatP= 9.73D-01
 IDIUse=3 WtCom= 6.64D-01 WtEn= 3.36D-01
 Coeff-Com:  0.100D+01
 Coeff-En:   0.100D+01
 Coeff:      0.100D+01
 Gap=     0.322 Goal=   None    Shift=    0.000
 Gap=     0.322 Goal=   None    Shift=    0.000
 GapD=    0.322 DampG=1.000 DampE=0.500 DampFc=0.5000 IDamp=-1.
 Damping current iteration by 5.00D-01
 RMSDP=6.55D-03 MaxDP=1.96D-01              OVMax= 2.69D-01

 Cycle   2  Pass 0  IDiag  1:
 RMSU=  3.23D-03    CP:  9.78D-01
 E= -783.325114409522     Delta-E=       -0.109669462322 Rises=F Damp=T
 DIIS: error= 1.23D-02 at cycle   2 NSaved=   2.
 NSaved= 2 IEnMin= 2 EnMin= -783.325114409522     IErMin= 2 ErrMin= 1.23D-02
 ErrMax= 1.23D-02  0.00D+00 EMaxC= 1.00D-01 BMatC= 7.27D-02 BMatP= 9.73D-01
 IDIUse=3 WtCom= 8.77D-01 WtEn= 1.23D-01
 Coeff-Com:  0.156D+00 0.844D+00
 Coeff-En:   0.251D+00 0.749D+00
 Coeff:      0.167D+00 0.833D+00
 Gap=     0.305 Goal=   None    Shift=    0.000
 Gap=     0.305 Goal=   None    Shift=    0.000
 RMSDP=1.62D-03 MaxDP=3.72D-02 DE=-1.10D-01 OVMax= 2.45D-01

 Cycle   3  Pass 0  IDiag  1:
 RMSU=  1.51D-03    CP:  9.71D-01  8.22D-01
 E= -783.501158137132     Delta-E=       -0.176043727610 Rises=F Damp=F
 DIIS: error= 7.18D-03 at cycle   3 NSaved=   3.
 NSaved= 3 IEnMin= 3 EnMin= -783.501158137132     IErMin= 3 ErrMin= 7.18D-03
 ErrMax= 7.18D-03  0.00D+00 EMaxC= 1.00D-01 BMatC= 3.56D-02 BMatP= 7.27D-02
 IDIUse=3 WtCom= 9.28D-01 WtEn= 7.18D-02
 Coeff-Com:  0.597D-01 0.415D+00 0.525D+00
 Coeff-En:   0.000D+00 0.000D+00 0.100D+01
 Coeff:      0.554D-01 0.385D+00 0.559D+00
 Gap=     0.226 Goal=   None    Shift=    0.000
 Gap=     0.226 Goal=   None    Shift=    0.000
 RMSDP=7.16D-04 MaxDP=2.09D-02 DE=-1.76D-01 OVMax= 4.59D-02

 Cycle   4  Pass 0  IDiag  1:
 RMSU=  5.23D-04    CP:  9.74D-01  8.58D-01  6.88D-01
 E= -783.509722401704     Delta-E=       -0.008564264572 Rises=F Damp=F
 DIIS: error= 2.78D-03 at cycle   4 NSaved=   4.
 NSaved= 4 IEnMin= 4 EnMin= -783.509722401704     IErMin= 4 ErrMin= 2.78D-03
 ErrMax= 2.78D-03  0.00D+00 EMaxC= 1.00D-01 BMatC= 6.74D-03 BMatP= 3.56D-02
 IDIUse=3 WtCom= 9.72D-01 WtEn= 2.78D-02
 Coeff-Com:  0.159D-01 0.799D-01 0.308D+00 0.597D+00
 Coeff-En:   0.000D+00 0.000D+00 0.141D+00 0.859D+00
 Coeff:      0.154D-01 0.777D-01 0.303D+00 0.604D+00
 Gap=     0.226 Goal=   None    Shift=    0.000
 Gap=     0.226 Goal=   None    Shift=    0.000
 RMSDP=2.29D-04 MaxDP=7.11D-03 DE=-8.56D-03 OVMax= 1.55D-02

 Cycle   5  Pass 0  IDiag  1:
 RMSU=  1.38D-04    CP:  9.73D-01  8.48D-01  7.57D-01  7.19D-01
 E= -783.511452727169     Delta-E=       -0.001730325465 Rises=F Damp=F
 DIIS: error= 6.62D-04 at cycle   5 NSaved=   5.
 NSaved= 5 IEnMin= 5 EnMin= -783.511452727169     IErMin= 5 ErrMin= 6.62D-04
 ErrMax= 6.62D-04  0.00D+00 EMaxC= 1.00D-01 BMatC= 3.94D-04 BMatP= 6.74D-03
 IDIUse=3 WtCom= 9.93D-01 WtEn= 6.62D-03
 Coeff-Com:  0.461D-02-0.124D-03 0.962D-01 0.280D+00 0.619D+00
 Coeff-En:   0.000D+00 0.000D+00 0.000D+00 0.000D+00 0.100D+01
 Coeff:      0.458D-02-0.124D-03 0.956D-01 0.279D+00 0.621D+00
 Gap=     0.227 Goal=   None    Shift=    0.000
 Gap=     0.227 Goal=   None    Shift=    0.000
 RMSDP=7.15D-05 MaxDP=2.43D-03 DE=-1.73D-03 OVMax= 3.82D-03

 Cycle   6  Pass 0  IDiag  1:
 RMSU=  5.66D-05    CP:  9.73D-01  8.44D-01  7.68D-01  7.63D-01  7.77D-01
 E= -783.511537419378     Delta-E=       -0.000084692209 Rises=F Damp=F
 DIIS: error= 3.69D-04 at cycle   6 NSaved=   6.
 NSaved= 6 IEnMin= 6 EnMin= -783.511537419378     IErMin= 6 ErrMin= 3.69D-04
 ErrMax= 3.69D-04  0.00D+00 EMaxC= 1.00D-01 BMatC= 9.63D-05 BMatP= 3.94D-04
 IDIUse=3 WtCom= 9.96D-01 WtEn= 3.69D-03
 Coeff-Com:  0.114D-02-0.130D-01 0.150D-01 0.851D-01 0.372D+00 0.540D+00
 Coeff-En:   0.000D+00 0.000D+00 0.000D+00 0.000D+00 0.150D+00 0.850D+00
 Coeff:      0.113D-02-0.130D-01 0.150D-01 0.848D-01 0.371D+00 0.541D+00
 Gap=     0.227 Goal=   None    Shift=    0.000
 Gap=     0.227 Goal=   None    Shift=    0.000
 RMSDP=2.94D-05 MaxDP=8.75D-04 DE=-8.47D-05 OVMax= 1.75D-03

 Cycle   7  Pass 0  IDiag  1:
 RMSU=  1.94D-05    CP:  9.73D-01  8.43D-01  7.71D-01  7.68D-01  8.77D-01
                    CP:  7.15D-01
 E= -783.511562569335     Delta-E=       -0.000025149956 Rises=F Damp=F
 DIIS: error= 1.08D-04 at cycle   7 NSaved=   7.
 NSaved= 7 IEnMin= 7 EnMin= -783.511562569335     IErMin= 7 ErrMin= 1.08D-04
 ErrMax= 1.08D-04  0.00D+00 EMaxC= 1.00D-01 BMatC= 6.48D-06 BMatP= 9.63D-05
 IDIUse=3 WtCom= 9.99D-01 WtEn= 1.08D-03
 Coeff-Com:  0.454D-03-0.615D-02 0.771D-03 0.186D-01 0.116D+00 0.262D+00
 Coeff-Com:  0.608D+00
 Coeff-En:   0.000D+00 0.000D+00 0.000D+00 0.000D+00 0.000D+00 0.000D+00
 Coeff-En:   0.100D+01
 Coeff:      0.453D-03-0.614D-02 0.771D-03 0.186D-01 0.116D+00 0.262D+00
 Coeff:      0.608D+00
 Gap=     0.227 Goal=   None    Shift=    0.000
 Gap=     0.227 Goal=   None    Shift=    0.000
 RMSDP=9.97D-06 MaxDP=3.50D-04 DE=-2.51D-05 OVMax= 5.66D-04

 Initial convergence to 1.0D-05 achieved.  Increase integral accuracy.
 Cycle   8  Pass 1  IDiag  1:
 E= -783.511391368527     Delta-E=        0.000171200807 Rises=F Damp=F
 DIIS: error= 7.31D-05 at cycle   1 NSaved=   1.
 NSaved= 1 IEnMin= 1 EnMin= -783.511391368527     IErMin= 1 ErrMin= 7.31D-05
 ErrMax= 7.31D-05  0.00D+00 EMaxC= 1.00D-01 BMatC= 2.85D-06 BMatP= 2.85D-06
 IDIUse=1 WtCom= 1.00D+00 WtEn= 0.00D+00
 Coeff-Com:  0.100D+01
 Coeff:      0.100D+01
 Gap=     0.227 Goal=   None    Shift=    0.000
 Gap=     0.227 Goal=   None    Shift=    0.000
 RMSDP=9.97D-06 MaxDP=3.50D-04 DE= 1.71D-04 OVMax= 5.99D-04

 Cycle   9  Pass 1  IDiag  1:
 RMSU=  5.59D-05    CP:  1.00D+00
 E= -783.511390817522     Delta-E=        0.000000551005 Rises=F Damp=F
 DIIS: error= 7.42D-05 at cycle   2 NSaved=   2.
 NSaved= 2 IEnMin= 1 EnMin= -783.511391368527     IErMin= 1 ErrMin= 7.31D-05
 ErrMax= 7.42D-05  0.00D+00 EMaxC= 1.00D-01 BMatC= 4.75D-06 BMatP= 2.85D-06
 IDIUse=1 WtCom= 1.00D+00 WtEn= 0.00D+00
 Coeff-Com:  0.574D+00 0.426D+00
 Coeff:      0.574D+00 0.426D+00
 Gap=     0.227 Goal=   None    Shift=    0.000
 Gap=     0.227 Goal=   None    Shift=    0.000
 RMSDP=6.65D-06 MaxDP=2.62D-04 DE= 5.51D-07 OVMax= 4.44D-04

 Cycle  10  Pass 1  IDiag  1:
 RMSU=  6.63D-06    CP:  1.00D+00  1.01D+00
 E= -783.511392112387     Delta-E=       -0.000001294865 Rises=F Damp=F
 DIIS: error= 2.18D-05 at cycle   3 NSaved=   3.
 NSaved= 3 IEnMin= 3 EnMin= -783.511392112387     IErMin= 3 ErrMin= 2.18D-05
 ErrMax= 2.18D-05  0.00D+00 EMaxC= 1.00D-01 BMatC= 2.79D-07 BMatP= 2.85D-06
 IDIUse=1 WtCom= 1.00D+00 WtEn= 0.00D+00
 Coeff-Com:  0.501D-01 0.195D+00 0.755D+00
 Coeff:      0.501D-01 0.195D+00 0.755D+00
 Gap=     0.227 Goal=   None    Shift=    0.000
 Gap=     0.227 Goal=   None    Shift=    0.000
 RMSDP=2.19D-06 MaxDP=7.23D-05 DE=-1.29D-06 OVMax= 1.20D-04

 Cycle  11  Pass 1  IDiag  1:
 RMSU=  1.31D-06    CP:  1.00D+00  1.04D+00  8.57D-01
 E= -783.511392166033     Delta-E=       -0.000000053646 Rises=F Damp=F
 DIIS: error= 9.15D-06 at cycle   4 NSaved=   4.
 NSaved= 4 IEnMin= 4 EnMin= -783.511392166033     IErMin= 4 ErrMin= 9.15D-06
 ErrMax= 9.15D-06  0.00D+00 EMaxC= 1.00D-01 BMatC= 8.19D-08 BMatP= 2.79D-07
 IDIUse=1 WtCom= 1.00D+00 WtEn= 0.00D+00
 Coeff-Com: -0.176D-01 0.897D-01 0.483D+00 0.445D+00
 Coeff:     -0.176D-01 0.897D-01 0.483D+00 0.445D+00
 Gap=     0.227 Goal=   None    Shift=    0.000
 Gap=     0.227 Goal=   None    Shift=    0.000
 RMSDP=7.76D-07 MaxDP=2.38D-05 DE=-5.36D-08 OVMax= 3.63D-05

 Cycle  12  Pass 1  IDiag  1:
 RMSU=  4.70D-07    CP:  1.00D+00  1.04D+00  8.80D-01  5.89D-01
 E= -783.511392191736     Delta-E=       -0.000000025703 Rises=F Damp=F
 DIIS: error= 1.05D-06 at cycle   5 NSaved=   5.
 NSaved= 5 IEnMin= 5 EnMin= -783.511392191736     IErMin= 5 ErrMin= 1.05D-06
 ErrMax= 1.05D-06  0.00D+00 EMaxC= 1.00D-01 BMatC= 9.82D-10 BMatP= 8.19D-08
 IDIUse=1 WtCom= 1.00D+00 WtEn= 0.00D+00
 Coeff-Com: -0.885D-02 0.266D-01 0.152D+00 0.158D+00 0.672D+00
 Coeff:     -0.885D-02 0.266D-01 0.152D+00 0.158D+00 0.672D+00
 Gap=     0.227 Goal=   None    Shift=    0.000
 Gap=     0.227 Goal=   None    Shift=    0.000
 RMSDP=1.42D-07 MaxDP=3.82D-06 DE=-2.57D-08 OVMax= 1.02D-05

 Cycle  13  Pass 1  IDiag  1:
 RMSU=  1.20D-07    CP:  1.00D+00  1.04D+00  8.81D-01  6.38D-01  1.07D+00
 E= -783.511392192090     Delta-E=       -0.000000000354 Rises=F Damp=F
 DIIS: error= 6.99D-07 at cycle   6 NSaved=   6.
 NSaved= 6 IEnMin= 6 EnMin= -783.511392192090     IErMin= 6 ErrMin= 6.99D-07
 ErrMax= 6.99D-07  0.00D+00 EMaxC= 1.00D-01 BMatC= 3.07D-10 BMatP= 9.82D-10
 IDIUse=1 WtCom= 1.00D+00 WtEn= 0.00D+00
 Coeff-Com:  0.594D-03-0.112D-01-0.573D-01-0.526D-01 0.330D+00 0.790D+00
 Coeff:      0.594D-03-0.112D-01-0.573D-01-0.526D-01 0.330D+00 0.790D+00
 Gap=     0.227 Goal=   None    Shift=    0.000
 Gap=     0.227 Goal=   None    Shift=    0.000
 RMSDP=1.00D-07 MaxDP=3.08D-06 DE=-3.54D-10 OVMax= 1.04D-05

 Cycle  14  Pass 1  IDiag  1:
 RMSU=  5.63D-08    CP:  1.00D+00  1.04D+00  8.83D-01  6.60D-01  1.23D+00
                    CP:  8.74D-01
 E= -783.511392192200     Delta-E=       -0.000000000110 Rises=F Damp=F
 DIIS: error= 3.01D-07 at cycle   7 NSaved=   7.
 NSaved= 7 IEnMin= 7 EnMin= -783.511392192200     IErMin= 7 ErrMin= 3.01D-07
 ErrMax= 3.01D-07  0.00D+00 EMaxC= 1.00D-01 BMatC= 6.33D-11 BMatP= 3.07D-10
 IDIUse=1 WtCom= 1.00D+00 WtEn= 0.00D+00
 Coeff-Com:  0.139D-02-0.958D-02-0.511D-01-0.503D-01 0.991D-01 0.448D+00
 Coeff-Com:  0.563D+00
 Coeff:      0.139D-02-0.958D-02-0.511D-01-0.503D-01 0.991D-01 0.448D+00
 Coeff:      0.563D+00
 Gap=     0.227 Goal=   None    Shift=    0.000
 Gap=     0.227 Goal=   None    Shift=    0.000
 RMSDP=3.06D-08 MaxDP=7.54D-07 DE=-1.10D-10 OVMax= 2.32D-06

 Cycle  15  Pass 1  IDiag  1:
 RMSU=  2.10D-08    CP:  1.00D+00  1.04D+00  8.84D-01  6.64D-01  1.26D+00
                    CP:  9.88D-01  8.48D-01
 E= -783.511392192233     Delta-E=       -0.000000000033 Rises=F Damp=F
 DIIS: error= 7.02D-08 at cycle   8 NSaved=   8.
 NSaved= 8 IEnMin= 8 EnMin= -783.511392192233     IErMin= 8 ErrMin= 7.02D-08
 ErrMax= 7.02D-08  0.00D+00 EMaxC= 1.00D-01 BMatC= 4.06D-12 BMatP= 6.33D-11
 IDIUse=1 WtCom= 1.00D+00 WtEn= 0.00D+00
 Coeff-Com:  0.607D-03-0.354D-02-0.191D-01-0.193D-01 0.208D-01 0.154D+00
 Coeff-Com:  0.276D+00 0.590D+00
 Coeff:      0.607D-03-0.354D-02-0.191D-01-0.193D-01 0.208D-01 0.154D+00
 Coeff:      0.276D+00 0.590D+00
 Gap=     0.227 Goal=   None    Shift=    0.000
 Gap=     0.227 Goal=   None    Shift=    0.000
 RMSDP=7.16D-09 MaxDP=2.31D-07 DE=-3.34D-11 OVMax= 6.26D-07

 SCF Done:  E(ULC-wPBE) =  -783.511392192     A.U. after   15 cycles
            NFock= 15  Conv=0.72D-08     -V/T= 2.0040
 <Sx>= 0.0000 <Sy>= 0.0000 <Sz>= 0.0000 <S**2>=-0.0000 S=-0.0000
 <L.S>= 0.000000000000E+00
 KE= 7.804188633033D+02 PE=-3.075535306224D+03 EE= 8.940465123172D+02
 Annihilation of the first spin contaminant:
 S**2 before annihilation    -0.0000,   after    -0.0000
 Leave Link  502 at Sat Jul 25 10:15:18 2020, MaxMem=  4026531840 cpu:             340.4 elap:              42.7
 (Enter /opt/ohpc/pub/libs/gaussian/g16-A.03/sandybridge/g16/l601.exe)
 Copying SCF densities to generalized density rwf, IOpCl= 1 IROHF=0.

 **********************************************************************

            Population analysis using the SCF density.

 **********************************************************************

 Orbital symmetries:
 Alpha Orbitals:
       Occupied  (A) (A) (A) (A) (A) (A) (A) (A) (A) (A) (A) (A)
                 (A) (A) (A) (A) (A) (A) (A) (A) (A) (A) (A) (A)
                 (A) (A) (A) (A) (A) (A) (A) (A) (A) (A) (A) (A)
                 (A) (A) (A) (A) (A) (A)
       Virtual   (A) (A) (A) (A) (A) (A) (A) (A) (A) (A) (A) (A)
                 (A) (A) (A) (A) (A) (A) (A) (A) (A) (A) (A) (A)
                 (A) (A) (A) (A) (A) (A) (A) (A) (A) (A) (A) (A)
                 (A) (A) (A) (A) (A) (A) (A) (A) (A) (A) (A) (A)
                 (A) (A) (A) (A) (A) (A) (A) (A) (A) (A) (A) (A)
                 (A) (A) (A) (A) (A) (A) (A) (A) (A) (A) (A) (A)
                 (A) (A) (A) (A) (A) (A) (A) (A) (A) (A) (A) (A)
                 (A) (A) (A) (A) (A) (A) (A) (A) (A) (A) (A) (A)
                 (A) (A) (A) (A) (A) (A) (A) (A) (A) (A) (A) (A)
                 (A) (A) (A) (A) (A) (A) (A) (A) (A) (A) (A) (A)
                 (A) (A) (A) (A) (A) (A) (A) (A) (A) (A) (A) (A)
                 (A) (A) (A) (A) (A) (A) (A) (A) (A) (A) (A) (A)
                 (A) (A) (A) (A) (A) (A) (A) (A) (A) (A) (A) (A)
 Beta  Orbitals:
       Occupied  (A) (A) (A) (A) (A) (A) (A) (A) (A) (A) (A) (A)
                 (A) (A) (A) (A) (A) (A) (A) (A) (A) (A) (A) (A)
                 (A) (A) (A) (A) (A) (A) (A) (A) (A) (A) (A) (A)
                 (A) (A) (A) (A) (A) (A)
       Virtual   (A) (A) (A) (A) (A) (A) (A) (A) (A) (A) (A) (A)
                 (A) (A) (A) (A) (A) (A) (A) (A) (A) (A) (A) (A)
                 (A) (A) (A) (A) (A) (A) (A) (A) (A) (A) (A) (A)
                 (A) (A) (A) (A) (A) (A) (A) (A) (A) (A) (A) (A)
                 (A) (A) (A) (A) (A) (A) (A) (A) (A) (A) (A) (A)
                 (A) (A) (A) (A) (A) (A) (A) (A) (A) (A) (A) (A)
                 (A) (A) (A) (A) (A) (A) (A) (A) (A) (A) (A) (A)
                 (A) (A) (A) (A) (A) (A) (A) (A) (A) (A) (A) (A)
                 (A) (A) (A) (A) (A) (A) (A) (A) (A) (A) (A) (A)
                 (A) (A) (A) (A) (A) (A) (A) (A) (A) (A) (A) (A)
                 (A) (A) (A) (A) (A) (A) (A) (A) (A) (A) (A) (A)
                 (A) (A) (A) (A) (A) (A) (A) (A) (A) (A) (A) (A)
                 (A) (A) (A) (A) (A) (A) (A) (A) (A) (A) (A) (A)
 The electronic state is 1-A.
 Alpha  occ. eigenvalues --  -88.16097  -9.98894  -9.97987  -9.97888  -9.96594
 Alpha  occ. eigenvalues --   -9.96396  -9.96149  -9.96112  -9.95998  -9.95673
 Alpha  occ. eigenvalues --   -9.95615  -7.76645  -5.78667  -5.78220  -5.77940
 Alpha  occ. eigenvalues --   -0.88544  -0.83895  -0.76144  -0.74271  -0.72884
 Alpha  occ. eigenvalues --   -0.70046  -0.61609  -0.60489  -0.55939  -0.55577
 Alpha  occ. eigenvalues --   -0.53491  -0.49939  -0.46452  -0.45954  -0.42964
 Alpha  occ. eigenvalues --   -0.42228  -0.41542  -0.40461  -0.40064  -0.38503
 Alpha  occ. eigenvalues --   -0.37679  -0.36104  -0.34190  -0.30884  -0.28881
 Alpha  occ. eigenvalues --   -0.27981  -0.24249
 Alpha virt. eigenvalues --   -0.01593   0.01896   0.04474   0.06574   0.08658
 Alpha virt. eigenvalues --    0.09348   0.11050   0.12650   0.13885   0.15029
 Alpha virt. eigenvalues --    0.15775   0.17230   0.17677   0.19684   0.20712
 Alpha virt. eigenvalues --    0.24804   0.26273   0.29217   0.30751   0.31798
 Alpha virt. eigenvalues --    0.34588   0.35326   0.41694   0.43086   0.44592
 Alpha virt. eigenvalues --    0.44961   0.46179   0.46912   0.48772   0.49099
 Alpha virt. eigenvalues --    0.49370   0.50037   0.50508   0.51544   0.51844
 Alpha virt. eigenvalues --    0.52293   0.53204   0.53891   0.54313   0.55143
 Alpha virt. eigenvalues --    0.55780   0.56254   0.57361   0.58451   0.59415
 Alpha virt. eigenvalues --    0.61886   0.64324   0.64603   0.65719   0.66801
 Alpha virt. eigenvalues --    0.67119   0.68462   0.69491   0.69902   0.71068
 Alpha virt. eigenvalues --    0.71692   0.73686   0.76801   0.78100   0.79346
 Alpha virt. eigenvalues --    0.83250   0.85476   0.86106   0.88558   0.90245
 Alpha virt. eigenvalues --    0.91504   0.92688   0.94957   0.95171   0.96739
 Alpha virt. eigenvalues --    0.97331   0.99925   1.00856   1.01277   1.02223
 Alpha virt. eigenvalues --    1.04002   1.04851   1.05440   1.07189   1.08199
 Alpha virt. eigenvalues --    1.09779   1.11615   1.14037   1.17376   1.23458
 Alpha virt. eigenvalues --    1.26141   1.29283   1.30119   1.32348   1.35081
 Alpha virt. eigenvalues --    1.37944   1.41098   1.44406   1.45820   1.47387
 Alpha virt. eigenvalues --    1.48854   1.49687   1.50703   1.51350   1.54946
 Alpha virt. eigenvalues --    1.57147   1.57751   1.58312   1.60885   1.61916
 Alpha virt. eigenvalues --    1.62644   1.64523   1.66649   1.67692   1.68013
 Alpha virt. eigenvalues --    1.68849   1.69557   1.72949   1.74552   1.76115
 Alpha virt. eigenvalues --    1.77170   1.78450   1.79567   1.82116   1.83332
 Alpha virt. eigenvalues --    1.85761   1.86153   1.87996   1.89968   1.91282
 Alpha virt. eigenvalues --    1.93538   1.95124   1.96727   1.97402   1.98714
 Alpha virt. eigenvalues --    1.99200   2.01872   2.04624   2.07868   2.10834
 Alpha virt. eigenvalues --    2.12108   2.20167   2.22212   2.25379   2.28847
 Alpha virt. eigenvalues --    2.37363   2.40411   2.40702   2.44201   2.44721
 Alpha virt. eigenvalues --    2.49008   2.57483   2.62521   2.64191   2.66735
 Alpha virt. eigenvalues --    2.70395   2.80646   2.82910   2.88874   3.16489
 Alpha virt. eigenvalues --    3.48472
  Beta  occ. eigenvalues --  -88.16097  -9.98894  -9.97987  -9.97888  -9.96594
  Beta  occ. eigenvalues --   -9.96396  -9.96149  -9.96112  -9.95998  -9.95673
  Beta  occ. eigenvalues --   -9.95615  -7.76645  -5.78667  -5.78220  -5.77940
  Beta  occ. eigenvalues --   -0.88544  -0.83895  -0.76144  -0.74271  -0.72884
  Beta  occ. eigenvalues --   -0.70046  -0.61609  -0.60489  -0.55939  -0.55577
  Beta  occ. eigenvalues --   -0.53491  -0.49939  -0.46452  -0.45954  -0.42964
  Beta  occ. eigenvalues --   -0.42228  -0.41542  -0.40461  -0.40064  -0.38503
  Beta  occ. eigenvalues --   -0.37679  -0.36104  -0.34190  -0.30884  -0.28881
  Beta  occ. eigenvalues --   -0.27981  -0.24249
  Beta virt. eigenvalues --   -0.01593   0.01896   0.04474   0.06574   0.08658
  Beta virt. eigenvalues --    0.09348   0.11050   0.12650   0.13885   0.15029
  Beta virt. eigenvalues --    0.15775   0.17230   0.17677   0.19684   0.20712
  Beta virt. eigenvalues --    0.24804   0.26273   0.29217   0.30751   0.31798
  Beta virt. eigenvalues --    0.34588   0.35326   0.41694   0.43086   0.44592
  Beta virt. eigenvalues --    0.44961   0.46179   0.46912   0.48772   0.49099
  Beta virt. eigenvalues --    0.49370   0.50037   0.50508   0.51544   0.51844
  Beta virt. eigenvalues --    0.52293   0.53204   0.53891   0.54313   0.55143
  Beta virt. eigenvalues --    0.55780   0.56254   0.57361   0.58451   0.59415
  Beta virt. eigenvalues --    0.61886   0.64324   0.64603   0.65719   0.66801
  Beta virt. eigenvalues --    0.67119   0.68462   0.69491   0.69902   0.71068
  Beta virt. eigenvalues --    0.71692   0.73686   0.76801   0.78100   0.79346
  Beta virt. eigenvalues --    0.83250   0.85476   0.86106   0.88558   0.90245
  Beta virt. eigenvalues --    0.91504   0.92688   0.94957   0.95171   0.96739
  Beta virt. eigenvalues --    0.97331   0.99925   1.00856   1.01277   1.02223
  Beta virt. eigenvalues --    1.04002   1.04851   1.05440   1.07189   1.08199
  Beta virt. eigenvalues --    1.09779   1.11615   1.14037   1.17376   1.23458
  Beta virt. eigenvalues --    1.26141   1.29283   1.30119   1.32348   1.35081
  Beta virt. eigenvalues --    1.37944   1.41098   1.44406   1.45820   1.47387
  Beta virt. eigenvalues --    1.48854   1.49687   1.50703   1.51350   1.54946
  Beta virt. eigenvalues --    1.57147   1.57751   1.58312   1.60885   1.61916
  Beta virt. eigenvalues --    1.62644   1.64523   1.66649   1.67692   1.68013
  Beta virt. eigenvalues --    1.68849   1.69557   1.72949   1.74552   1.76115
  Beta virt. eigenvalues --    1.77170   1.78450   1.79567   1.82116   1.83332
  Beta virt. eigenvalues --    1.85761   1.86153   1.87996   1.89968   1.91282
  Beta virt. eigenvalues --    1.93538   1.95124   1.96727   1.97402   1.98714
  Beta virt. eigenvalues --    1.99200   2.01872   2.04624   2.07868   2.10834
  Beta virt. eigenvalues --    2.12108   2.20167   2.22212   2.25379   2.28847
  Beta virt. eigenvalues --    2.37363   2.40411   2.40702   2.44201   2.44721
  Beta virt. eigenvalues --    2.49008   2.57483   2.62521   2.64191   2.66735
  Beta virt. eigenvalues --    2.70395   2.80646   2.82910   2.88874   3.16489
  Beta virt. eigenvalues --    3.48472
          Condensed to atoms (all electrons):
               1          2          3          4          5          6
     1  C    4.761991   0.462734   0.011624  -0.079378   0.013167   0.497163
     2  C    0.462734   4.825088   0.453391   0.021489  -0.087540   0.006950
     3  C    0.011624   0.453391   4.994707   0.421215  -0.022952  -0.081423
     4  C   -0.079378   0.021489   0.421215   4.953731   0.423976   0.023849
     5  C    0.013167  -0.087540  -0.022952   0.423976   4.979901   0.473340
     6  C    0.497163   0.006950  -0.081423   0.023849   0.473340   4.707178
     7  C   -0.000993   0.013213  -0.100910   0.296450  -0.116601   0.010137
     8  C    0.000021   0.000123  -0.019158  -0.038644   0.011383  -0.000224
     9  C    0.000001  -0.000042   0.000484   0.011107  -0.000180   0.000005
    10  C   -0.000000   0.000007  -0.000274   0.002491   0.000239  -0.000002
    11  S   -0.000002  -0.000060   0.009633  -0.063663  -0.018841  -0.000249
    12  H    0.382835  -0.050277   0.011581   0.000311   0.012826  -0.051293
    13  H   -0.046742   0.389333  -0.050112   0.010487  -0.000228   0.010952
    14  H    0.010489  -0.060479   0.387147  -0.043640   0.013308  -0.000463
    15  H    0.012888  -0.000235   0.014678  -0.053535   0.382231  -0.048143
    16  H   -0.055419   0.010728  -0.000441   0.011144  -0.048078   0.389322
    17  H   -0.000024   0.000965   0.005953  -0.023438  -0.000444   0.000011
    18  H    0.000000  -0.000000   0.000024  -0.000310   0.000002  -0.000000
    19  H   -0.000000  -0.000000   0.000006  -0.000386   0.000002   0.000000
               7          8          9         10         11         12
     1  C   -0.000993   0.000021   0.000001  -0.000000  -0.000002   0.382835
     2  C    0.013213   0.000123  -0.000042   0.000007  -0.000060  -0.050277
     3  C   -0.100910  -0.019158   0.000484  -0.000274   0.009633   0.011581
     4  C    0.296450  -0.038644   0.011107   0.002491  -0.063663   0.000311
     5  C   -0.116601   0.011383  -0.000180   0.000239  -0.018841   0.012826
     6  C    0.010137  -0.000224   0.000005  -0.000002  -0.000249  -0.051293
     7  C    5.360268   0.487668  -0.011080  -0.109830   0.370335   0.000019
     8  C    0.487668   4.873889   0.459517  -0.015846  -0.129545   0.000000
     9  C   -0.011080   0.459517   4.688109   0.533713  -0.078256   0.000000
    10  C   -0.109830  -0.015846   0.533713   5.003941   0.358111  -0.000000
    11  S    0.370335  -0.129545  -0.078256   0.358111  15.412913  -0.000001
    12  H    0.000019   0.000000   0.000000  -0.000000  -0.000001   0.771324
    13  H   -0.000178   0.000001  -0.000001   0.000000   0.000005  -0.015198
    14  H   -0.032135   0.008189   0.000764  -0.000091  -0.000072  -0.000391
    15  H   -0.033481   0.000228  -0.000008  -0.000014   0.014864  -0.000462
    16  H   -0.000204   0.000003   0.000000  -0.000000  -0.000011  -0.018127
    17  H   -0.039723   0.398653  -0.053853   0.010813   0.008961  -0.000000
    18  H    0.009601  -0.049180   0.398940  -0.055416   0.009972  -0.000000
    19  H    0.000977   0.011835  -0.025780   0.391154  -0.047633  -0.000000
              13         14         15         16         17         18
     1  C   -0.046742   0.010489   0.012888  -0.055419  -0.000024   0.000000
     2  C    0.389333  -0.060479  -0.000235   0.010728   0.000965  -0.000000
     3  C   -0.050112   0.387147   0.014678  -0.000441   0.005953   0.000024
     4  C    0.010487  -0.043640  -0.053535   0.011144  -0.023438  -0.000310
     5  C   -0.000228   0.013308   0.382231  -0.048078  -0.000444   0.000002
     6  C    0.010952  -0.000463  -0.048143   0.389322   0.000011  -0.000000
     7  C   -0.000178  -0.032135  -0.033481  -0.000204  -0.039723   0.009601
     8  C    0.000001   0.008189   0.000228   0.000003   0.398653  -0.049180
     9  C   -0.000001   0.000764  -0.000008   0.000000  -0.053853   0.398940
    10  C    0.000000  -0.000091  -0.000014  -0.000000   0.010813  -0.055416
    11  S    0.000005  -0.000072   0.014864  -0.000011   0.008961   0.009972
    12  H   -0.015198  -0.000391  -0.000462  -0.018127  -0.000000  -0.000000
    13  H    0.742789  -0.016664   0.000055  -0.000388   0.000041  -0.000000
    14  H   -0.016664   0.756635  -0.000263   0.000075  -0.000915   0.000028
    15  H    0.000055  -0.000263   0.763866  -0.019392  -0.000026   0.000000
    16  H   -0.000388   0.000075  -0.019392   0.761662   0.000000   0.000000
    17  H    0.000041  -0.000915  -0.000026   0.000000   0.721177  -0.008141
    18  H   -0.000000   0.000028   0.000000   0.000000  -0.008141   0.725206
    19  H    0.000000  -0.000000  -0.000006   0.000000  -0.000237  -0.010154
              19
     1  C   -0.000000
     2  C   -0.000000
     3  C    0.000006
     4  C   -0.000386
     5  C    0.000002
     6  C    0.000000
     7  C    0.000977
     8  C    0.011835
     9  C   -0.025780
    10  C    0.391154
    11  S   -0.047633
    12  H   -0.000000
    13  H    0.000000
    14  H   -0.000000
    15  H   -0.000006
    16  H    0.000000
    17  H   -0.000237
    18  H   -0.010154
    19  H    0.678803
          Atomic-Atomic Spin Densities.
               1          2          3          4          5          6
     1  C    0.000000   0.000000  -0.000000   0.000000  -0.000000  -0.000000
     2  C    0.000000   0.000000   0.000000  -0.000000   0.000000  -0.000000
     3  C   -0.000000   0.000000  -0.000000   0.000000  -0.000000   0.000000
     4  C    0.000000  -0.000000   0.000000  -0.000000   0.000000  -0.000000
     5  C   -0.000000   0.000000  -0.000000   0.000000  -0.000000   0.000000
     6  C   -0.000000  -0.000000   0.000000  -0.000000   0.000000   0.000000
     7  C    0.000000  -0.000000   0.000000  -0.000000   0.000000  -0.000000
     8  C    0.000000  -0.000000   0.000000   0.000000   0.000000  -0.000000
     9  C   -0.000000   0.000000  -0.000000  -0.000000  -0.000000   0.000000
    10  C    0.000000  -0.000000   0.000000   0.000000   0.000000  -0.000000
    11  S   -0.000000   0.000000   0.000000   0.000000  -0.000000   0.000000
    12  H    0.000000   0.000000   0.000000   0.000000  -0.000000  -0.000000
    13  H    0.000000  -0.000000   0.000000  -0.000000   0.000000  -0.000000
    14  H   -0.000000   0.000000  -0.000000   0.000000  -0.000000   0.000000
    15  H    0.000000   0.000000  -0.000000   0.000000  -0.000000  -0.000000
    16  H   -0.000000   0.000000   0.000000   0.000000   0.000000   0.000000
    17  H    0.000000  -0.000000   0.000000  -0.000000   0.000000  -0.000000
    18  H   -0.000000   0.000000   0.000000  -0.000000  -0.000000   0.000000
    19  H   -0.000000   0.000000  -0.000000  -0.000000   0.000000   0.000000
               7          8          9         10         11         12
     1  C    0.000000   0.000000  -0.000000   0.000000  -0.000000   0.000000
     2  C   -0.000000  -0.000000   0.000000  -0.000000   0.000000   0.000000
     3  C    0.000000   0.000000  -0.000000   0.000000   0.000000   0.000000
     4  C   -0.000000   0.000000  -0.000000   0.000000   0.000000   0.000000
     5  C    0.000000   0.000000  -0.000000   0.000000  -0.000000  -0.000000
     6  C   -0.000000  -0.000000   0.000000  -0.000000   0.000000  -0.000000
     7  C   -0.000000  -0.000000  -0.000000   0.000000  -0.000000   0.000000
     8  C   -0.000000   0.000000  -0.000000   0.000000  -0.000000   0.000000
     9  C   -0.000000  -0.000000   0.000000  -0.000000   0.000000   0.000000
    10  C    0.000000   0.000000  -0.000000   0.000000  -0.000000   0.000000
    11  S   -0.000000  -0.000000   0.000000  -0.000000   0.000000  -0.000000
    12  H    0.000000   0.000000   0.000000   0.000000  -0.000000   0.000000
    13  H   -0.000000  -0.000000   0.000000  -0.000000   0.000000  -0.000000
    14  H   -0.000000   0.000000  -0.000000   0.000000  -0.000000  -0.000000
    15  H   -0.000000  -0.000000  -0.000000   0.000000   0.000000  -0.000000
    16  H   -0.000000  -0.000000   0.000000  -0.000000   0.000000  -0.000000
    17  H    0.000000  -0.000000   0.000000  -0.000000  -0.000000   0.000000
    18  H    0.000000   0.000000   0.000000  -0.000000   0.000000  -0.000000
    19  H   -0.000000   0.000000  -0.000000   0.000000  -0.000000  -0.000000
              13         14         15         16         17         18
     1  C    0.000000  -0.000000   0.000000  -0.000000   0.000000  -0.000000
     2  C   -0.000000   0.000000   0.000000   0.000000  -0.000000   0.000000
     3  C    0.000000  -0.000000  -0.000000   0.000000   0.000000   0.000000
     4  C   -0.000000   0.000000   0.000000   0.000000  -0.000000  -0.000000
     5  C    0.000000  -0.000000  -0.000000   0.000000   0.000000  -0.000000
     6  C   -0.000000   0.000000  -0.000000   0.000000  -0.000000   0.000000
     7  C   -0.000000  -0.000000  -0.000000  -0.000000   0.000000   0.000000
     8  C   -0.000000   0.000000  -0.000000  -0.000000  -0.000000   0.000000
     9  C    0.000000  -0.000000  -0.000000   0.000000   0.000000   0.000000
    10  C   -0.000000   0.000000   0.000000  -0.000000  -0.000000  -0.000000
    11  S    0.000000  -0.000000   0.000000   0.000000  -0.000000   0.000000
    12  H   -0.000000  -0.000000  -0.000000  -0.000000   0.000000  -0.000000
    13  H   -0.000000   0.000000   0.000000  -0.000000  -0.000000   0.000000
    14  H    0.000000  -0.000000  -0.000000   0.000000   0.000000  -0.000000
    15  H    0.000000  -0.000000   0.000000  -0.000000   0.000000  -0.000000
    16  H   -0.000000   0.000000  -0.000000   0.000000  -0.000000   0.000000
    17  H   -0.000000   0.000000   0.000000  -0.000000  -0.000000   0.000000
    18  H    0.000000  -0.000000  -0.000000   0.000000   0.000000   0.000000
    19  H    0.000000  -0.000000  -0.000000  -0.000000   0.000000  -0.000000
              19
     1  C   -0.000000
     2  C    0.000000
     3  C   -0.000000
     4  C   -0.000000
     5  C    0.000000
     6  C    0.000000
     7  C   -0.000000
     8  C    0.000000
     9  C   -0.000000
    10  C    0.000000
    11  S   -0.000000
    12  H   -0.000000
    13  H    0.000000
    14  H   -0.000000
    15  H   -0.000000
    16  H   -0.000000
    17  H    0.000000
    18  H   -0.000000
    19  H    0.000000
 Mulliken charges and spin densities:
               1          2
     1  C    0.029645  -0.000000
     2  C    0.014610   0.000000
     3  C   -0.035172  -0.000000
     4  C    0.126746   0.000000
     5  C   -0.015510   0.000000
     6  C    0.062890   0.000000
     7  C   -0.103533  -0.000000
     8  C    0.001089   0.000000
     9  C    0.076558  -0.000000
    10  C   -0.118997  -0.000000
    11  S    0.153538   0.000000
    12  H   -0.043146   0.000000
    13  H   -0.024152  -0.000000
    14  H   -0.021523  -0.000000
    15  H   -0.033244   0.000000
    16  H   -0.030873  -0.000000
    17  H   -0.019774   0.000000
    18  H   -0.020572   0.000000
    19  H    0.001419   0.000000
 Sum of Mulliken charges =  -0.00000   0.00000
 Mulliken charges and spin densities with hydrogens summed into heavy atoms:
               1          2
     1  C   -0.013501  -0.000000
     2  C   -0.009542   0.000000
     3  C   -0.056694  -0.000000
     4  C    0.126746   0.000000
     5  C   -0.048754   0.000000
     6  C    0.032017   0.000000
     7  C   -0.103533  -0.000000
     8  C   -0.018685   0.000000
     9  C    0.055986  -0.000000
    10  C   -0.117579  -0.000000
    11  S    0.153538   0.000000
 Electronic spatial extent (au):  <R**2>=           2149.9646
 Charge=             -0.0000 electrons
 Dipole moment (field-independent basis, Debye):
    X=             -0.2078    Y=              0.2501    Z=              0.0348  Tot=              0.3270
 Quadrupole moment (field-independent basis, Debye-Ang):
   XX=            -60.6043   YY=            -64.2079   ZZ=            -76.0197
   XY=             -0.2775   XZ=             -0.2290   YZ=             -0.0171
 Traceless Quadrupole moment (field-independent basis, Debye-Ang):
   XX=              6.3396   YY=              2.7361   ZZ=             -9.0757
   XY=             -0.2775   XZ=             -0.2290   YZ=             -0.0171
 Octapole moment (field-independent basis, Debye-Ang**2):
  XXX=             -7.8705  YYY=              2.6254  ZZZ=              0.1220  XYY=              0.6242
  XXY=             -1.5573  XXZ=              1.2287  XZZ=             -2.5341  YZZ=             -2.5451
  YYZ=             -0.0030  XYZ=             -0.1877
 Hexadecapole moment (field-independent basis, Debye-Ang**3):
 XXXX=          -2077.5031 YYYY=           -540.9747 ZZZZ=            -85.3336 XXXY=             12.9486
 XXXZ=             -2.6008 YYYX=             -4.3429 YYYZ=             -0.1109 ZZZX=             -0.4876
 ZZZY=             -0.0973 XXYY=           -435.6620 XXZZ=           -443.0323 YYZZ=           -118.3808
 XXYZ=              0.6772 YYXZ=             -1.0441 ZZXY=              3.2583
 N-N= 6.175585384115D+02 E-N=-3.075535298370D+03  KE= 7.804188633033D+02
                          Isotropic Fermi Contact Couplings
        Atom                 a.u.       MegaHertz       Gauss      10(-4) cm-1
     1  C(13)             -0.00000      -0.00000      -0.00000      -0.00000
     2  C(13)              0.00000       0.00000       0.00000       0.00000
     3  C(13)             -0.00000      -0.00000      -0.00000      -0.00000
     4  C(13)             -0.00000      -0.00000      -0.00000      -0.00000
     5  C(13)             -0.00000      -0.00000      -0.00000      -0.00000
     6  C(13)              0.00000       0.00000       0.00000       0.00000
     7  C(13)              0.00000       0.00000       0.00000       0.00000
     8  C(13)              0.00000       0.00000       0.00000       0.00000
     9  C(13)             -0.00000      -0.00000      -0.00000      -0.00000
    10  C(13)              0.00000       0.00000       0.00000       0.00000
    11  S(33)             -0.00000      -0.00000      -0.00000      -0.00000
    12  H(1)               0.00000       0.00000       0.00000       0.00000
    13  H(1)              -0.00000      -0.00000      -0.00000      -0.00000
    14  H(1)              -0.00000      -0.00000      -0.00000      -0.00000
    15  H(1)               0.00000       0.00000       0.00000       0.00000
    16  H(1)               0.00000       0.00000       0.00000       0.00000
    17  H(1)               0.00000       0.00000       0.00000       0.00000
    18  H(1)              -0.00000      -0.00000      -0.00000      -0.00000
    19  H(1)              -0.00000      -0.00000      -0.00000      -0.00000
 --------------------------------------------------------
       Center         ----  Spin Dipole Couplings  ----
                      3XX-RR        3YY-RR        3ZZ-RR
 --------------------------------------------------------
     1   Atom        0.000000      0.000000     -0.000000
     2   Atom       -0.000000      0.000000     -0.000000
     3   Atom        0.000000     -0.000000      0.000000
     4   Atom       -0.000000      0.000000      0.000000
     5   Atom        0.000000     -0.000000      0.000000
     6   Atom       -0.000000      0.000000      0.000000
     7   Atom       -0.000000      0.000000      0.000000
     8   Atom       -0.000000     -0.000000      0.000000
     9   Atom        0.000000     -0.000000     -0.000000
    10   Atom        0.000000     -0.000000     -0.000000
    11   Atom        0.000000     -0.000000     -0.000000
    12   Atom        0.000000     -0.000000     -0.000000
    13   Atom       -0.000000     -0.000000      0.000000
    14   Atom       -0.000000     -0.000000      0.000000
    15   Atom       -0.000000      0.000000     -0.000000
    16   Atom       -0.000000      0.000000     -0.000000
    17   Atom        0.000000     -0.000000      0.000000
    18   Atom       -0.000000      0.000000     -0.000000
    19   Atom       -0.000000      0.000000      0.000000
 --------------------------------------------------------
                        XY            XZ            YZ
 --------------------------------------------------------
     1   Atom       -0.000000      0.000000      0.000000
     2   Atom       -0.000000      0.000000      0.000000
     3   Atom        0.000000      0.000000     -0.000000
     4   Atom        0.000000     -0.000000      0.000000
     5   Atom       -0.000000     -0.000000     -0.000000
     6   Atom        0.000000      0.000000     -0.000000
     7   Atom        0.000000     -0.000000     -0.000000
     8   Atom       -0.000000     -0.000000     -0.000000
     9   Atom        0.000000     -0.000000      0.000000
    10   Atom        0.000000      0.000000      0.000000
    11   Atom        0.000000     -0.000000     -0.000000
    12   Atom        0.000000      0.000000      0.000000
    13   Atom       -0.000000     -0.000000     -0.000000
    14   Atom        0.000000     -0.000000      0.000000
    15   Atom       -0.000000      0.000000     -0.000000
    16   Atom        0.000000      0.000000     -0.000000
    17   Atom       -0.000000      0.000000      0.000000
    18   Atom       -0.000000      0.000000      0.000000
    19   Atom        0.000000      0.000000     -0.000000
 --------------------------------------------------------


 ---------------------------------------------------------------------------------
              Anisotropic Spin Dipole Couplings in Principal Axis System
 ---------------------------------------------------------------------------------

       Atom             a.u.   MegaHertz   Gauss  10(-4) cm-1        Axes

              Baa    -0.0000    -0.000    -0.000    -0.000 -0.1802 -0.1936  0.9644
     1 C(13)  Bbb    -0.0000    -0.000    -0.000    -0.000  0.8901  0.3851  0.2436
              Bcc     0.0000     0.000     0.000     0.000 -0.4186  0.9023  0.1030
 
              Baa    -0.0000    -0.000    -0.000    -0.000 -0.0578 -0.0466  0.9972
     2 C(13)  Bbb    -0.0000    -0.000    -0.000    -0.000  0.9860  0.1536  0.0643
              Bcc     0.0000     0.000     0.000     0.000 -0.1562  0.9870  0.0371
 
              Baa    -0.0000    -0.000    -0.000    -0.000 -0.1017  0.9947  0.0152
     3 C(13)  Bbb     0.0000     0.000     0.000     0.000  0.9940  0.1022 -0.0389
              Bcc     0.0000     0.000     0.000     0.000  0.0402 -0.0111  0.9991
 
              Baa    -0.0000    -0.000    -0.000    -0.000  0.9880 -0.1538  0.0122
     4 C(13)  Bbb     0.0000     0.000     0.000     0.000  0.1537  0.9740 -0.1662
              Bcc     0.0000     0.000     0.000     0.000  0.0137  0.1661  0.9860
 
              Baa    -0.0000    -0.000    -0.000    -0.000  0.2395  0.9703  0.0338
     5 C(13)  Bbb     0.0000     0.000     0.000     0.000  0.1124 -0.0623  0.9917
              Bcc     0.0000     0.000     0.000     0.000  0.9644 -0.2337 -0.1240
 
              Baa    -0.0000    -0.000    -0.000    -0.000  0.9626 -0.2624 -0.0674
     6 C(13)  Bbb     0.0000     0.000     0.000     0.000  0.2630  0.8455  0.4648
              Bcc     0.0000     0.000     0.000     0.000 -0.0649 -0.4651  0.8829
 
              Baa    -0.0000    -0.000    -0.000    -0.000  0.7579 -0.6519 -0.0264
     7 C(13)  Bbb     0.0000     0.000     0.000     0.000  0.0827  0.0559  0.9950
              Bcc     0.0000     0.000     0.000     0.000  0.6472  0.7562 -0.0963
 
              Baa    -0.0000    -0.000    -0.000    -0.000  0.6124  0.7852  0.0916
     8 C(13)  Bbb     0.0000     0.000     0.000     0.000  0.7901 -0.6117 -0.0389
              Bcc     0.0000     0.000     0.000     0.000 -0.0254 -0.0962  0.9950
 
              Baa    -0.0000    -0.000    -0.000    -0.000 -0.1427  0.9062 -0.3980
     9 C(13)  Bbb    -0.0000    -0.000    -0.000    -0.000 -0.0028  0.4017  0.9158
              Bcc     0.0000     0.000     0.000     0.000  0.9898  0.1318 -0.0548
 
              Baa    -0.0000    -0.000    -0.000    -0.000 -0.0864  0.9945 -0.0588
    10 C(13)  Bbb    -0.0000    -0.000    -0.000    -0.000 -0.0269  0.0567  0.9980
              Bcc     0.0000     0.000     0.000     0.000  0.9959  0.0878  0.0218
 
              Baa    -0.0000    -0.000    -0.000    -0.000  0.0278  0.2248  0.9740
    11 S(33)  Bbb    -0.0000    -0.000    -0.000    -0.000 -0.0545  0.9733 -0.2231
              Bcc     0.0000     0.000     0.000     0.000  0.9981  0.0468 -0.0393
 
              Baa    -0.0000    -0.000    -0.000    -0.000 -0.4916  0.8693  0.0521
    12 H(1)   Bbb    -0.0000    -0.000    -0.000    -0.000 -0.0708 -0.0995  0.9925
              Bcc     0.0000     0.000     0.000     0.000  0.8680  0.4842  0.1105
 
              Baa    -0.0000    -0.000    -0.000    -0.000  0.7898  0.6117  0.0449
    13 H(1)   Bbb     0.0000     0.000     0.000     0.000 -0.6130  0.7897  0.0239
              Bcc     0.0000     0.000     0.000     0.000 -0.0208 -0.0464  0.9987
 
              Baa    -0.0000    -0.000    -0.000    -0.000 -0.4974  0.8659 -0.0526
    14 H(1)   Bbb     0.0000     0.000     0.000     0.000  0.8673  0.4949 -0.0539
              Bcc     0.0000     0.000     0.000     0.000  0.0206  0.0724  0.9972
 
              Baa    -0.0000    -0.000    -0.000    -0.000  0.8241  0.5633  0.0593
    15 H(1)   Bbb    -0.0000    -0.000    -0.000    -0.000 -0.0666 -0.0077  0.9978
              Bcc     0.0000     0.000     0.000     0.000 -0.5625  0.8262 -0.0312
 
              Baa    -0.0000    -0.000    -0.000    -0.000  0.9462 -0.2519 -0.2033
    16 H(1)   Bbb    -0.0000    -0.000    -0.000    -0.000  0.2091 -0.0036  0.9779
              Bcc     0.0000     0.000     0.000     0.000  0.2471  0.9677 -0.0493
 
              Baa    -0.0000    -0.000    -0.000    -0.000  0.0465  0.9939 -0.1003
    17 H(1)   Bbb     0.0000     0.000     0.000     0.000  0.9976 -0.0513 -0.0461
              Bcc     0.0000     0.000     0.000     0.000  0.0509  0.0979  0.9939
 
              Baa    -0.0000    -0.000    -0.000    -0.000  0.9479  0.3011 -0.1041
    18 H(1)   Bbb    -0.0000    -0.000    -0.000    -0.000  0.1026  0.0208  0.9945
              Bcc     0.0000     0.000     0.000     0.000 -0.3016  0.9534  0.0112
 
              Baa    -0.0000    -0.000    -0.000    -0.000  0.9965 -0.0671 -0.0493
    19 H(1)   Bbb     0.0000     0.000     0.000     0.000  0.0528  0.0517  0.9973
              Bcc     0.0000     0.000     0.000     0.000  0.0644  0.9964 -0.0551
 

 ---------------------------------------------------------------------------------

 No NMR shielding tensors so no spin-rotation constants.
 Leave Link  601 at Sat Jul 25 10:15:18 2020, MaxMem=  4026531840 cpu:               1.7 elap:               0.3
 (Enter /opt/ohpc/pub/libs/gaussian/g16-A.03/sandybridge/g16/l701.exe)
 ... and contract with generalized density number  0.
 Compute integral first derivatives.
 Leave Link  701 at Sat Jul 25 10:15:18 2020, MaxMem=  4026531840 cpu:               1.3 elap:               0.2
 (Enter /opt/ohpc/pub/libs/gaussian/g16-A.03/sandybridge/g16/l702.exe)
 L702 exits ... SP integral derivatives will be done elsewhere.
 Leave Link  702 at Sat Jul 25 10:15:19 2020, MaxMem=  4026531840 cpu:               0.2 elap:               0.1
 (Enter /opt/ohpc/pub/libs/gaussian/g16-A.03/sandybridge/g16/l703.exe)
 Integral derivatives from FoFJK, PRISM(SPDF).
 Compute integral first derivatives, UseDBF=F ICtDFT=           0.
 Calling FoFJK, ICntrl=      2127 FMM=F ISym2X=0 I1Cent= 0 IOpClX= 1 NMat=1 NMatS=1 NMatT=0.
 FoFJK:  IHMeth= 1 ICntrl=    2127 DoSepK=T KAlg= 0 I1Cent=           0 FoldK=F
 IRaf=         1 NMat=       1 IRICut=       1 DoRegI=T DoRafI=F ISym2E= 0 IDoP0=0 IntGTp=1.
 FoFCou: FMM=F IPFlag=           0 FMFlag=      100000 FMFlg1=         800
         NFxFlg=           0 DoJE=F BraDBF=F KetDBF=F FulRan=T
         wScrn=  0.000000 ICntrl=      2527 IOpCl=  0 I1Cent=           0 NGrid=           0
         NMat0=    1 NMatS0=      1 NMatT0=    0 NMatD0=    1 NMtDS0=    0 NMtDT0=    0
 Symmetry not used in FoFCou.
 Leave Link  703 at Sat Jul 25 10:15:28 2020, MaxMem=  4026531840 cpu:              75.3 elap:               9.5
 (Enter /opt/ohpc/pub/libs/gaussian/g16-A.03/sandybridge/g16/l716.exe)
 Dipole        =-8.17478120D-02 9.83828720D-02 1.36730663D-02
 ***** Axes restored to original set *****
 -------------------------------------------------------------------
 Center     Atomic                   Forces (Hartrees/Bohr)
 Number     Number              X              Y              Z
 -------------------------------------------------------------------
      1        6          -0.030782536    0.072276745    0.008188803
      2        6           0.013247364   -0.066630929   -0.004388223
      3        6           0.018930745    0.057378586   -0.005885379
      4        6          -0.002427133   -0.011668641    0.013220429
      5        6          -0.017219123   -0.011576474   -0.006627999
      6        6          -0.003458760   -0.002381357   -0.005032009
      7        6           0.058829006    0.042557448    0.000390366
      8        6           0.002257873    0.001219689   -0.010462061
      9        6          -0.015730282   -0.013223183    0.007673417
     10        6          -0.012467876    0.000265026    0.001850282
     11       16          -0.022439289   -0.042023831   -0.003016939
     12        1           0.036496686   -0.003114442   -0.001774197
     13        1          -0.002836576    0.013087639    0.000853336
     14        1          -0.004435730   -0.014704589    0.001753102
     15        1          -0.014322071   -0.013522502    0.002138975
     16        1          -0.001203141   -0.014458826    0.001993941
     17        1           0.010012819    0.002422783    0.002397974
     18        1          -0.000853088    0.009023214   -0.002610639
     19        1          -0.011598886   -0.004926355   -0.000663180
 -------------------------------------------------------------------
 Cartesian Forces:  Max     0.072276745 RMS     0.021533511
 Leave Link  716 at Sat Jul 25 10:15:28 2020, MaxMem=  4026531840 cpu:               0.2 elap:               0.1
 (Enter /opt/ohpc/pub/libs/gaussian/g16-A.03/sandybridge/g16/l103.exe)

 GradGradGradGradGradGradGradGradGradGradGradGradGradGradGradGradGradGrad
 Berny optimization.
 FormGI is forming the generalized inverse of G from B-inverse, IUseBI=4.
 GSVD:  received Info=                   1 from GESDD.
 Internal  Forces:  Max     0.053844254 RMS     0.011633722
 Search for a local minimum.
 Step number   1 out of a maximum of  105
 All quantities printed in internal units (Hartrees-Bohrs-Radians)
 RMS Force = .11634D-01 SwitMx=.10000D-02 MixMth= 1
 Mixed Optimization -- RFO/linear search
 Second derivative matrix not updated -- first step.
 ITU=  0
     Eigenvalues ---    0.00883   0.01542   0.01661   0.01725   0.01768
     Eigenvalues ---    0.01966   0.02082   0.02103   0.02143   0.02155
     Eigenvalues ---    0.02183   0.02192   0.02225   0.02262   0.02335
     Eigenvalues ---    0.02452   0.15772   0.15880   0.15880   0.15953
     Eigenvalues ---    0.15955   0.15974   0.15977   0.15987   0.21983
     Eigenvalues ---    0.21989   0.22124   0.23407   0.23850   0.24808
     Eigenvalues ---    0.25000   0.31249   0.33323   0.34139   0.34201
     Eigenvalues ---    0.35076   0.35086   0.35451   0.35772   0.36250
     Eigenvalues ---    0.36345   0.39686   0.40098   0.42258   0.43464
     Eigenvalues ---    0.43904   0.44986   0.46474   0.47395   0.48252
     Eigenvalues ---    0.51899
 RFO step:  Lambda=-3.53578258D-02 EMin= 8.82864446D-03
 Linear search not attempted -- first point.
 Maximum step size (   0.300) exceeded in Quadratic search.
    -- Step size scaled by   0.962
 Iteration  1 RMS(Cart)=  0.03745909 RMS(Int)=  0.00095735
 Iteration  2 RMS(Cart)=  0.00116073 RMS(Int)=  0.00055244
 Iteration  3 RMS(Cart)=  0.00000080 RMS(Int)=  0.00055244
 ITry= 1 IFail=0 DXMaxC= 1.35D-01 DCOld= 1.00D+10 DXMaxT= 3.00D-01 DXLimC= 3.00D+00 Rises=F
 Variable       Old X    -DE/DX   Delta X   Delta X   Delta X     New X
                                 (Linear)    (Quad)   (Total)
    R1        2.78716  -0.03812   0.00000  -0.09732  -0.09745   2.68970
    R2        2.56909   0.03923   0.00000   0.06721   0.06713   2.63621
    R3        1.98683   0.03644   0.00000   0.08114   0.08114   2.06796
    R4        2.64551  -0.00392   0.00000  -0.01010  -0.01013   2.63538
    R5        2.04950   0.00856   0.00000   0.02112   0.02112   2.07062
    R6        2.62149   0.02580   0.00000   0.04782   0.04791   2.66940
    R7        2.12240  -0.01214   0.00000  -0.03358  -0.03358   2.08881
    R8        2.66028  -0.00137   0.00000  -0.00065  -0.00054   2.65975
    R9        2.81789  -0.00846   0.00000  -0.02208  -0.02208   2.79581
   R10        2.62068   0.01411   0.00000   0.02878   0.02881   2.64949
   R11        2.03545   0.01874   0.00000   0.04522   0.04522   2.08067
   R12        2.04440   0.01217   0.00000   0.02979   0.02979   2.07419
   R13        2.63551  -0.00064   0.00000  -0.00068  -0.00055   2.63496
   R14        3.12126   0.05384   0.00000   0.11468   0.11461   3.23587
   R15        2.64520   0.02618   0.00000   0.04992   0.05009   2.69529
   R16        2.05536   0.00553   0.00000   0.01378   0.01378   2.06914
   R17        2.60517   0.00917   0.00000   0.01525   0.01525   2.62042
   R18        2.05552   0.00635   0.00000   0.01583   0.01583   2.07135
   R19        3.22136   0.01505   0.00000   0.03745   0.03727   3.25864
   R20        2.03693   0.01253   0.00000   0.03030   0.03030   2.06723
    A1        2.07833   0.00053   0.00000   0.00107   0.00035   2.07868
    A2        2.05306   0.00214   0.00000   0.01322   0.01297   2.06603
    A3        2.14589  -0.00233   0.00000  -0.00886  -0.00918   2.13671
    A4        2.04888   0.01082   0.00000   0.03304   0.03279   2.08167
    A5        2.01570   0.00510   0.00000   0.03570   0.03577   2.05147
    A6        2.21765  -0.01588   0.00000  -0.06790  -0.06790   2.14975
    A7        2.17393  -0.00777   0.00000  -0.03366  -0.03369   2.14024
    A8        1.95693   0.01390   0.00000   0.06668   0.06663   2.02356
    A9        2.15109  -0.00608   0.00000  -0.03202  -0.03215   2.11895
   A10        1.98788   0.01251   0.00000   0.04724   0.04722   2.03510
   A11        2.11533  -0.00084   0.00000  -0.00346  -0.00390   2.11143
   A12        2.17436  -0.01145   0.00000  -0.03922  -0.03965   2.13471
   A13        2.19189  -0.01926   0.00000  -0.06294  -0.06294   2.12895
   A14        2.09462   0.00378   0.00000   0.00346   0.00326   2.09787
   A15        1.99391   0.01557   0.00000   0.06155   0.06138   2.05529
   A16        2.08103   0.00342   0.00000   0.01987   0.01968   2.10071
   A17        2.05124   0.00644   0.00000   0.03082   0.03077   2.08201
   A18        2.14894  -0.00976   0.00000  -0.04904  -0.04914   2.09980
   A19        2.19788   0.00684   0.00000   0.02147   0.02146   2.21934
   A20        2.10551   0.00752   0.00000   0.02375   0.02374   2.12925
   A21        1.97979  -0.01436   0.00000  -0.04520  -0.04532   1.93448
   A22        1.93917   0.00625   0.00000   0.02299   0.02272   1.96188
   A23        2.23966  -0.01191   0.00000  -0.05241  -0.05300   2.18667
   A24        2.09574   0.00607   0.00000   0.03626   0.03578   2.13151
   A25        1.94446   0.00858   0.00000   0.02751   0.02729   1.97175
[...]
    15  H    0.000059  -0.000200   0.738941  -0.015829  -0.000040  -0.000001
    16  H   -0.000299   0.000062  -0.015829   0.743679   0.000000   0.000000
    17  H    0.000024   0.000205  -0.000040   0.000000   0.721340  -0.008058
    18  H   -0.000000   0.000020  -0.000001   0.000000  -0.008058   0.720414
    19  H    0.000000  -0.000001  -0.000002  -0.000000  -0.000176  -0.008859
              19
     1  C   -0.000000
     2  C   -0.000000
     3  C    0.000003
     4  C   -0.000253
     5  C    0.000003
     6  C    0.000000
     7  C    0.001277
     8  C    0.009447
     9  C   -0.025603
    10  C    0.391831
    11  S   -0.043418
    12  H   -0.000000
    13  H    0.000000
    14  H   -0.000001
    15  H   -0.000002
    16  H   -0.000000
    17  H   -0.000176
    18  H   -0.008859
    19  H    0.657113
          Atomic-Atomic Spin Densities.
               1          2          3          4          5          6
     1  C   -0.000000   0.000000  -0.000000   0.000000  -0.000000   0.000000
     2  C    0.000000   0.000000  -0.000000  -0.000000  -0.000000  -0.000000
     3  C   -0.000000  -0.000000  -0.000000  -0.000000   0.000000   0.000000
     4  C    0.000000  -0.000000  -0.000000  -0.000000  -0.000000  -0.000000
     5  C   -0.000000  -0.000000   0.000000  -0.000000   0.000000   0.000000
     6  C    0.000000  -0.000000   0.000000  -0.000000   0.000000  -0.000000
     7  C    0.000000   0.000000   0.000000   0.000000  -0.000000  -0.000000
     8  C   -0.000000  -0.000000   0.000000   0.000000   0.000000  -0.000000
     9  C    0.000000   0.000000  -0.000000  -0.000000   0.000000   0.000000
    10  C   -0.000000  -0.000000   0.000000   0.000000  -0.000000   0.000000
    11  S    0.000000  -0.000000   0.000000   0.000000  -0.000000  -0.000000
    12  H   -0.000000   0.000000   0.000000   0.000000  -0.000000  -0.000000
    13  H   -0.000000   0.000000  -0.000000   0.000000   0.000000  -0.000000
    14  H   -0.000000  -0.000000  -0.000000   0.000000   0.000000   0.000000
    15  H   -0.000000   0.000000  -0.000000  -0.000000  -0.000000   0.000000
    16  H    0.000000  -0.000000  -0.000000   0.000000   0.000000  -0.000000
    17  H    0.000000  -0.000000   0.000000   0.000000  -0.000000  -0.000000
    18  H   -0.000000   0.000000  -0.000000  -0.000000   0.000000   0.000000
    19  H    0.000000  -0.000000   0.000000   0.000000  -0.000000  -0.000000
               7          8          9         10         11         12
     1  C    0.000000  -0.000000   0.000000  -0.000000   0.000000  -0.000000
     2  C    0.000000  -0.000000   0.000000  -0.000000  -0.000000   0.000000
     3  C    0.000000   0.000000  -0.000000   0.000000   0.000000   0.000000
     4  C    0.000000   0.000000  -0.000000   0.000000   0.000000   0.000000
     5  C   -0.000000   0.000000   0.000000  -0.000000  -0.000000  -0.000000
     6  C   -0.000000  -0.000000   0.000000   0.000000  -0.000000  -0.000000
     7  C    0.000000  -0.000000  -0.000000   0.000000  -0.000000   0.000000
     8  C   -0.000000  -0.000000   0.000000  -0.000000   0.000000  -0.000000
     9  C   -0.000000   0.000000  -0.000000   0.000000   0.000000   0.000000
    10  C    0.000000  -0.000000   0.000000  -0.000000  -0.000000  -0.000000
    11  S   -0.000000   0.000000   0.000000  -0.000000   0.000000   0.000000
    12  H    0.000000  -0.000000   0.000000  -0.000000   0.000000  -0.000000
    13  H   -0.000000   0.000000  -0.000000   0.000000  -0.000000   0.000000
    14  H   -0.000000   0.000000  -0.000000   0.000000   0.000000   0.000000
    15  H    0.000000   0.000000  -0.000000   0.000000   0.000000  -0.000000
    16  H    0.000000   0.000000  -0.000000   0.000000  -0.000000   0.000000
    17  H    0.000000  -0.000000   0.000000  -0.000000   0.000000   0.000000
    18  H   -0.000000   0.000000  -0.000000   0.000000   0.000000  -0.000000
    19  H    0.000000   0.000000  -0.000000   0.000000  -0.000000   0.000000
              13         14         15         16         17         18
     1  C   -0.000000  -0.000000  -0.000000   0.000000   0.000000  -0.000000
     2  C    0.000000  -0.000000   0.000000  -0.000000  -0.000000   0.000000
     3  C   -0.000000  -0.000000  -0.000000  -0.000000   0.000000  -0.000000
     4  C    0.000000   0.000000  -0.000000   0.000000   0.000000  -0.000000
     5  C    0.000000   0.000000  -0.000000   0.000000  -0.000000   0.000000
     6  C   -0.000000   0.000000   0.000000  -0.000000  -0.000000   0.000000
     7  C   -0.000000  -0.000000   0.000000   0.000000   0.000000  -0.000000
     8  C    0.000000   0.000000   0.000000   0.000000  -0.000000   0.000000
     9  C   -0.000000  -0.000000  -0.000000  -0.000000   0.000000  -0.000000
    10  C    0.000000   0.000000   0.000000   0.000000  -0.000000   0.000000
    11  S   -0.000000   0.000000   0.000000  -0.000000   0.000000   0.000000
    12  H    0.000000   0.000000  -0.000000   0.000000   0.000000  -0.000000
    13  H    0.000000  -0.000000   0.000000  -0.000000  -0.000000  -0.000000
    14  H   -0.000000   0.000000  -0.000000  -0.000000   0.000000  -0.000000
    15  H    0.000000  -0.000000  -0.000000   0.000000   0.000000  -0.000000
    16  H   -0.000000  -0.000000   0.000000  -0.000000   0.000000   0.000000
    17  H   -0.000000   0.000000   0.000000   0.000000  -0.000000   0.000000
    18  H   -0.000000  -0.000000  -0.000000   0.000000   0.000000   0.000000
    19  H   -0.000000   0.000000   0.000000   0.000000  -0.000000   0.000000
              19
     1  C    0.000000
     2  C   -0.000000
     3  C    0.000000
     4  C    0.000000
     5  C   -0.000000
     6  C   -0.000000
     7  C    0.000000
     8  C    0.000000
     9  C   -0.000000
    10  C    0.000000
    11  S   -0.000000
    12  H    0.000000
    13  H   -0.000000
    14  H    0.000000
    15  H    0.000000
    16  H    0.000000
    17  H   -0.000000
    18  H    0.000000
    19  H    0.000000
 Mulliken charges and spin densities:
               1          2
     1  C    0.024804   0.000000
     2  C    0.034846  -0.000000
     3  C   -0.005172  -0.000000
     4  C    0.085519  -0.000000
     5  C   -0.005774   0.000000
     6  C    0.033996  -0.000000
     7  C   -0.145556   0.000000
     8  C    0.014197  -0.000000
     9  C    0.072708  -0.000000
    10  C   -0.123765  -0.000000
    11  S    0.137752   0.000000
    12  H   -0.020613  -0.000000
    13  H   -0.018917   0.000000
    14  H   -0.028999  -0.000000
    15  H   -0.021781  -0.000000
    16  H   -0.018611  -0.000000
    17  H   -0.017906  -0.000000
    18  H   -0.015368  -0.000000
    19  H    0.018639   0.000000
 Sum of Mulliken charges =  -0.00000  -0.00000
 Mulliken charges and spin densities with hydrogens summed into heavy atoms:
               1          2
     1  C    0.004191   0.000000
     2  C    0.015929   0.000000
     3  C   -0.034172  -0.000000
     4  C    0.085519  -0.000000
     5  C   -0.027554   0.000000
     6  C    0.015384  -0.000000
     7  C   -0.145556   0.000000
     8  C   -0.003709  -0.000000
     9  C    0.057341  -0.000000
    10  C   -0.105125  -0.000000
    11  S    0.137752   0.000000
 Electronic spatial extent (au):  <R**2>=           2174.0623
 Charge=              0.0000 electrons
 Dipole moment (field-independent basis, Debye):
    X=             -0.0339    Y=              0.4092    Z=              0.1104  Tot=              0.4252
 Quadrupole moment (field-independent basis, Debye-Ang):
   XX=            -60.7500   YY=            -64.8804   ZZ=            -75.8319
   XY=             -0.4060   XZ=             -0.2553   YZ=             -0.4336
 Traceless Quadrupole moment (field-independent basis, Debye-Ang):
   XX=              6.4041   YY=              2.2737   ZZ=             -8.6778
   XY=             -0.4060   XZ=             -0.2553   YZ=             -0.4336
 Octapole moment (field-independent basis, Debye-Ang**2):
  XXX=            -10.2779  YYY=              2.7904  ZZZ=             -1.3392  XYY=              0.9426
  XXY=             -2.3965  XXZ=             -1.3016  XZZ=             -1.9345  YZZ=             -1.5138
  YYZ=              1.6763  XYZ=             -6.4424
 Hexadecapole moment (field-independent basis, Debye-Ang**3):
 XXXX=          -2096.1908 YYYY=           -532.7872 ZZZZ=           -114.6881 XXXY=             13.1354
 XXXZ=              0.3097 YYYX=             -4.7264 YYYZ=             -2.1866 ZZZX=              2.2697
 ZZZY=              0.9073 XXYY=           -445.3636 XXZZ=           -449.0810 YYZZ=           -116.6740
 XXYZ=             -0.2231 YYXZ=             -3.3059 ZZXY=              2.9406
 N-N= 6.114852703868D+02 E-N=-3.063053766873D+03  KE= 7.799119750659D+02
                          Isotropic Fermi Contact Couplings
        Atom                 a.u.       MegaHertz       Gauss      10(-4) cm-1
     1  C(13)             -0.00000      -0.00000      -0.00000      -0.00000
     2  C(13)             -0.00000      -0.00000      -0.00000      -0.00000
     3  C(13)             -0.00000      -0.00000      -0.00000      -0.00000
     4  C(13)             -0.00000      -0.00000      -0.00000      -0.00000
     5  C(13)              0.00000       0.00000       0.00000       0.00000
     6  C(13)             -0.00000      -0.00000      -0.00000      -0.00000
     7  C(13)              0.00000       0.00000       0.00000       0.00000
     8  C(13)             -0.00000      -0.00000      -0.00000      -0.00000
     9  C(13)             -0.00000      -0.00000      -0.00000      -0.00000
    10  C(13)             -0.00000      -0.00000      -0.00000      -0.00000
    11  S(33)              0.00000       0.00000       0.00000       0.00000
    12  H(1)               0.00000       0.00000       0.00000       0.00000
    13  H(1)               0.00000       0.00000       0.00000       0.00000
    14  H(1)               0.00000       0.00000       0.00000       0.00000
    15  H(1)              -0.00000      -0.00000      -0.00000      -0.00000
    16  H(1)              -0.00000      -0.00000      -0.00000      -0.00000
    17  H(1)              -0.00000      -0.00000      -0.00000      -0.00000
    18  H(1)               0.00000       0.00000       0.00000       0.00000
    19  H(1)               0.00000       0.00000       0.00000       0.00000
 --------------------------------------------------------
       Center         ----  Spin Dipole Couplings  ----
                      3XX-RR        3YY-RR        3ZZ-RR
 --------------------------------------------------------
     1   Atom       -0.000000     -0.000000      0.000000
     2   Atom        0.000000     -0.000000     -0.000000
     3   Atom        0.000000     -0.000000     -0.000000
     4   Atom       -0.000000      0.000000      0.000000
     5   Atom       -0.000000     -0.000000      0.000000
     6   Atom        0.000000     -0.000000      0.000000
     7   Atom        0.000000      0.000000     -0.000000
     8   Atom        0.000000     -0.000000      0.000000
     9   Atom       -0.000000      0.000000      0.000000
    10   Atom       -0.000000      0.000000      0.000000
    11   Atom        0.000000     -0.000000     -0.000000
    12   Atom       -0.000000      0.000000      0.000000
    13   Atom       -0.000000      0.000000     -0.000000
    14   Atom        0.000000      0.000000     -0.000000
    15   Atom       -0.000000     -0.000000      0.000000
    16   Atom       -0.000000      0.000000      0.000000
    17   Atom        0.000000     -0.000000      0.000000
    18   Atom       -0.000000      0.000000      0.000000
    19   Atom       -0.000000      0.000000      0.000000
 --------------------------------------------------------
                        XY            XZ            YZ
 --------------------------------------------------------
     1   Atom        0.000000     -0.000000      0.000000
     2   Atom       -0.000000     -0.000000      0.000000
     3   Atom        0.000000      0.000000     -0.000000
     4   Atom        0.000000      0.000000      0.000000
     5   Atom       -0.000000      0.000000      0.000000
     6   Atom        0.000000     -0.000000      0.000000
     7   Atom       -0.000000     -0.000000      0.000000
     8   Atom       -0.000000     -0.000000      0.000000
     9   Atom        0.000000      0.000000      0.000000
    10   Atom       -0.000000     -0.000000      0.000000
    11   Atom       -0.000000      0.000000      0.000000
    12   Atom       -0.000000      0.000000     -0.000000
    13   Atom        0.000000     -0.000000     -0.000000
    14   Atom       -0.000000      0.000000      0.000000
    15   Atom       -0.000000      0.000000      0.000000
    16   Atom        0.000000     -0.000000      0.000000
    17   Atom        0.000000     -0.000000     -0.000000
    18   Atom        0.000000     -0.000000      0.000000
    19   Atom       -0.000000     -0.000000     -0.000000
 --------------------------------------------------------


 ---------------------------------------------------------------------------------
              Anisotropic Spin Dipole Couplings in Principal Axis System
 ---------------------------------------------------------------------------------

       Atom             a.u.   MegaHertz   Gauss  10(-4) cm-1        Axes

              Baa    -0.0000    -0.000    -0.000    -0.000  0.8461 -0.5080  0.1613
     1 C(13)  Bbb     0.0000     0.000     0.000     0.000  0.5209  0.8522 -0.0484
              Bcc     0.0000     0.000     0.000     0.000 -0.1129  0.1249  0.9857
 
              Baa    -0.0000    -0.000    -0.000    -0.000 -0.0206 -0.1398  0.9900
     2 C(13)  Bbb    -0.0000    -0.000    -0.000    -0.000  0.2613  0.9550  0.1403
              Bcc     0.0000     0.000     0.000     0.000  0.9650 -0.2616 -0.0169
 
              Baa    -0.0000    -0.000    -0.000    -0.000 -0.0936  0.9943  0.0506
     3 C(13)  Bbb    -0.0000    -0.000    -0.000    -0.000 -0.0455 -0.0550  0.9974
              Bcc     0.0000     0.000     0.000     0.000  0.9946  0.0911  0.0504
 
              Baa    -0.0000    -0.000    -0.000    -0.000  0.9998 -0.0118 -0.0178
     4 C(13)  Bbb     0.0000     0.000     0.000     0.000  0.0108  0.9985 -0.0543
              Bcc     0.0000     0.000     0.000     0.000  0.0184  0.0541  0.9984
 
              Baa    -0.0000    -0.000    -0.000    -0.000  0.6966  0.7083 -0.1140
     5 C(13)  Bbb    -0.0000    -0.000    -0.000    -0.000  0.7152 -0.6982  0.0317
              Bcc     0.0000     0.000     0.000     0.000  0.0572  0.1037  0.9930
 
              Baa    -0.0000    -0.000    -0.000    -0.000 -0.1017  0.9856 -0.1354
     6 C(13)  Bbb     0.0000     0.000     0.000     0.000 -0.0553  0.1303  0.9899
              Bcc     0.0000     0.000     0.000     0.000  0.9933  0.1081  0.0412
 
              Baa    -0.0000    -0.000    -0.000    -0.000  0.2196  0.0646  0.9734
     7 C(13)  Bbb    -0.0000    -0.000    -0.000    -0.000  0.6040  0.7745 -0.1877
              Bcc     0.0000     0.000     0.000     0.000  0.7661 -0.6292 -0.1311
 
              Baa    -0.0000    -0.000    -0.000    -0.000  0.5836  0.8073  0.0875
     8 C(13)  Bbb     0.0000     0.000     0.000     0.000  0.1682 -0.2256  0.9596
              Bcc     0.0000     0.000     0.000     0.000  0.7944 -0.5452 -0.2675
 
              Baa    -0.0000    -0.000    -0.000    -0.000  0.7400 -0.6538 -0.1576
     9 C(13)  Bbb     0.0000     0.000     0.000     0.000 -0.0458 -0.2829  0.9581
              Bcc     0.0000     0.000     0.000     0.000  0.6710  0.7018  0.2393
 
              Baa    -0.0000    -0.000    -0.000    -0.000  0.9899  0.0453  0.1340
    10 C(13)  Bbb     0.0000     0.000     0.000     0.000 -0.1241 -0.1770  0.9764
              Bcc     0.0000     0.000     0.000     0.000 -0.0679  0.9832  0.1696
 
              Baa    -0.0000    -0.000    -0.000    -0.000 -0.0735 -0.3002  0.9510
    11 S(33)  Bbb     0.0000     0.000     0.000     0.000  0.0660  0.9501  0.3050
              Bcc     0.0000     0.000     0.000     0.000  0.9951 -0.0852  0.0500
 
              Baa    -0.0000    -0.000    -0.000    -0.000  0.9755  0.1059 -0.1929
    12 H(1)   Bbb     0.0000     0.000     0.000     0.000 -0.0628  0.9741  0.2171
              Bcc     0.0000     0.000     0.000     0.000  0.2109 -0.1997  0.9569
 
              Baa    -0.0000    -0.000    -0.000    -0.000 -0.1081  0.3619  0.9259
    13 H(1)   Bbb    -0.0000    -0.000    -0.000    -0.000  0.9516 -0.2319  0.2017
              Bcc     0.0000     0.000     0.000     0.000  0.2878  0.9029 -0.3193
 
              Baa    -0.0000    -0.000    -0.000    -0.000 -0.1888 -0.2558  0.9481
    14 H(1)   Bbb    -0.0000    -0.000    -0.000    -0.000  0.5557  0.7682  0.3179
              Bcc     0.0000     0.000     0.000     0.000  0.8097 -0.5868  0.0029
 
              Baa    -0.0000    -0.000    -0.000    -0.000  0.4672  0.8551 -0.2248
    15 H(1)   Bbb    -0.0000    -0.000    -0.000    -0.000  0.8841 -0.4485  0.1313
              Bcc     0.0000     0.000     0.000     0.000 -0.0115  0.2601  0.9655
 
              Baa    -0.0000    -0.000    -0.000    -0.000  0.9145 -0.3988  0.0690
    16 H(1)   Bbb     0.0000     0.000     0.000     0.000  0.3998  0.8636 -0.3071
              Bcc     0.0000     0.000     0.000     0.000  0.0629  0.3084  0.9492
 
              Baa    -0.0000    -0.000    -0.000    -0.000 -0.0475  0.9414  0.3338
    17 H(1)   Bbb     0.0000     0.000     0.000     0.000  0.9789 -0.0226  0.2030
              Bcc     0.0000     0.000     0.000     0.000 -0.1986 -0.3364  0.9205
 
              Baa    -0.0000    -0.000    -0.000    -0.000  0.9270 -0.3691  0.0669
    18 H(1)   Bbb     0.0000     0.000     0.000     0.000 -0.2640 -0.5152  0.8154
              Bcc     0.0000     0.000     0.000     0.000  0.2664  0.7735  0.5750
 
              Baa    -0.0000    -0.000    -0.000    -0.000  0.9929  0.0601  0.1031
    19 H(1)   Bbb     0.0000     0.000     0.000     0.000 -0.1064  0.0538  0.9929
              Bcc     0.0000     0.000     0.000     0.000 -0.0541  0.9967 -0.0598
 

 ---------------------------------------------------------------------------------

 No NMR shielding tensors so no spin-rotation constants.
 Leave Link  601 at Sat Jul 25 10:33:49 2020, MaxMem=  4026531840 cpu:               5.6 elap:               1.4
 (Enter /opt/ohpc/pub/libs/gaussian/g16-A.03/sandybridge/g16/l9999.exe)

 Test job not archived.
 1\1\GINC-SKYLAKE040\FOpt\ULC-wPBE\CC-pVDZ\C10H8S1\RDU230\25-Jul-2020\0
 \\#P uLC-wPBE/cc-pVDZ iop(3/107=0106100000, 3/108=0106100000) opt\\H8 
 C10 S1\\0,1\C,3.5250519948,-0.0568904578,0.0046312889\C,2.8957709779,1
 .181408194,-0.1939573427\C,1.4991001189,1.2707060465,-0.2162327339\C,0
 .6966268077,0.1221909575,-0.0259710518\C,1.3440779543,-1.1178785017,0.
 1748387065\C,2.741243046,-1.206271847,0.1844956865\C,-0.7705972076,0.2
 334590312,-0.0328142147\C,-1.561665026,1.3314530431,0.2748830438\C,-2.
 9605517305,1.0785815861,0.1605047837\C,-3.2370380425,-0.2126484353,-0.
 2377292684\S,-1.7841936095,-1.1291247119,-0.48092504\H,4.6220800654,-0
 .1261793043,0.0160847924\H,3.4989446176,2.0882854311,-0.3455234369\H,1
 .0175634811,2.2406412675,-0.4047532959\H,0.7399234201,-2.0219151682,0.
 343074959\H,3.2216526426,-2.1824236057,0.3438902592\H,-1.1410691665,2.
 2892238185,0.6061705493\H,-3.7381691791,1.823212746,0.3720547569\H,-4.
 2111871648,-0.6830600897,-0.4079744417\\Version=EM64L-G16RevA.03\State
 =1-A\HF=-783.535917\S2=0.\S2-1=0.\S2A=0.\RMSD=8.703e-09\RMSF=2.718e-05
 \Dipole=-0.0147609,0.1579404,0.0531476\Quadrupole=4.7647819,1.6984635,
 -6.4632454,-0.2930561,0.0800418,0.1849438\PG=C01 [X(C10H8S1)]\\@


 LENDING MONEY TO FRIENDS CAUSES THEM TO LOSE THEIR MEMORIES.

    --  PETER'S THEORY OF RECIPROCAL INHIBITION OF FISCAL RECALL
 Job cpu time:       0 days  2 hours  8 minutes 24.6 seconds.
 Elapsed time:       0 days  0 hours 19 minutes 15.4 seconds.
 File lengths (MBytes):  RWF=    100 Int=      0 D2E=      0 Chk=     12 Scr=      8
 Normal termination of Gaussian 16 at Sat Jul 25 10:33:50 2020.
