 Entering Gaussian System, Link 0=g16
 Input=mols_55_5_07_N-N_opt_0.gjf
 Output=mols_55_5_07_N-N_opt_0.log
 Initial command:
 /opt/ohpc/pub/libs/gaussian/g16-A.03/sandybridge/g16/l1.exe "/mnt/gpfs2_4m/scratch/rdu230/ondemand/projects/dihedral_energies/7trial/wtuning/mols_55_5_07_N-N/Gau-175507.inp" -scrdir="/mnt/gpfs2_4m/scratch/rdu230/ondemand/projects/dihedral_energies/7trial/wtuning/mols_55_5_07_N-N/"
 Entering Link 1 = /opt/ohpc/pub/libs/gaussian/g16-A.03/sandybridge/g16/l1.exe PID=    175517.
  
 Copyright (c) 1988,1990,1992,1993,1995,1998,2003,2009,2016,
            Gaussian, Inc.  All Rights Reserved.
  
 This is part of the Gaussian(R) 16 program.  It is based on
 the Gaussian(R) 09 system (copyright 2009, Gaussian, Inc.),
 the Gaussian(R) 03 system (copyright 2003, Gaussian, Inc.),
 the Gaussian(R) 98 system (copyright 1998, Gaussian, Inc.),
 the Gaussian(R) 94 system (copyright 1995, Gaussian, Inc.),
 the Gaussian 92(TM) system (copyright 1992, Gaussian, Inc.),
 the Gaussian 90(TM) system (copyright 1990, Gaussian, Inc.),
 the Gaussian 88(TM) system (copyright 1988, Gaussian, Inc.),
 the Gaussian 86(TM) system (copyright 1986, Carnegie Mellon
 University), and the Gaussian 82(TM) system (copyright 1983,
 Carnegie Mellon University). Gaussian is a federally registered
 trademark of Gaussian, Inc.
  
 This software contains proprietary and confidential information,
 including trade secrets, belonging to Gaussian, Inc.
  
 This software is provided under written license and may be
 used, copied, transmitted, or stored only in accord with that
 written license.
  
 The following legend is applicable only to US Government
 contracts under FAR:
  
                    RESTRICTED RIGHTS LEGEND
  
 Use, reproduction and disclosure by the US Government is
 subject to restrictions as set forth in subparagraphs (a)
 and (c) of the Commercial Computer Software - Restricted
 Rights clause in FAR 52.227-19.
  
 Gaussian, Inc.
 340 Quinnipiac St., Bldg. 40, Wallingford CT 06492
  
  
 ---------------------------------------------------------------
 Warning -- This program may not be used in any manner that
 competes with the business of Gaussian, Inc. or will provide
 assistance to any competitor of Gaussian, Inc.  The licensee
 of this program is prohibited from giving any competitor of
 Gaussian, Inc. access to this program.  By using this program,
 the user acknowledges that Gaussian, Inc. is engaged in the
 business of creating and licensing software in the field of
 computational chemistry and represents and warrants to the
 licensee that it is not a competitor of Gaussian, Inc. and that
 it will not use this program in any manner prohibited above.
 ---------------------------------------------------------------
  

 Cite this work as:
 Gaussian 16, Revision A.03,
 M. J. Frisch, G. W. Trucks, H. B. Schlegel, G. E. Scuseria, 
 M. A. Robb, J. R. Cheeseman, G. Scalmani, V. Barone, 
 G. A. Petersson, H. Nakatsuji, X. Li, M. Caricato, A. V. Marenich, 
 J. Bloino, B. G. Janesko, R. Gomperts, B. Mennucci, H. P. Hratchian, 
 J. V. Ortiz, A. F. Izmaylov, J. L. Sonnenberg, D. Williams-Young, 
 F. Ding, F. Lipparini, F. Egidi, J. Goings, B. Peng, A. Petrone, 
 T. Henderson, D. Ranasinghe, V. G. Zakrzewski, J. Gao, N. Rega, 
 G. Zheng, W. Liang, M. Hada, M. Ehara, K. Toyota, R. Fukuda, 
 J. Hasegawa, M. Ishida, T. Nakajima, Y. Honda, O. Kitao, H. Nakai, 
 T. Vreven, K. Throssell, J. A. Montgomery, Jr., J. E. Peralta, 
 F. Ogliaro, M. J. Bearpark, J. J. Heyd, E. N. Brothers, K. N. Kudin, 
 V. N. Staroverov, T. A. Keith, R. Kobayashi, J. Normand, 
 K. Raghavachari, A. P. Rendell, J. C. Burant, S. S. Iyengar, 
 J. Tomasi, M. Cossi, J. M. Millam, M. Klene, C. Adamo, R. Cammi, 
 J. W. Ochterski, R. L. Martin, K. Morokuma, O. Farkas, 
 J. B. Foresman, and D. J. Fox, Gaussian, Inc., Wallingford CT, 2016.
 
 ******************************************
 Gaussian 16:  EM64L-G16RevA.03 25-Dec-2016
                24-Jul-2020 
 ******************************************
 %mem=30GB
 %nproc=8
 Will use up to    8 processors via shared memory.
 ---------------------------------------------------------------
 #P uLC-wPBE/cc-pVDZ iop(3/107=0499100000, 3/108=0499100000) opt
 ---------------------------------------------------------------
 1/18=20,19=15,26=3,38=1/1,3;
 2/9=110,12=2,17=6,18=5,40=1/2;
 3/5=16,11=2,25=1,30=1,71=1,74=-41,107=499100000,108=499100000,116=2/1,2,3;
 4//1;
 5/5=2,38=5/2;
 6/7=2,8=2,9=2,10=2,28=1/1;
 7//1,2,3,16;
 1/18=20,19=15,26=3/3(2);
 2/9=110/2;
 99//99;
 2/9=110/2;
 3/5=16,11=2,25=1,30=1,71=1,74=-41,107=499100000,108=499100000,116=2/1,2,3;
 4/5=5,16=3,69=1/1;
 5/5=2,38=5/2;
 7//1,2,3,16;
 1/18=20,19=15,26=3/3(-5);
 2/9=110/2;
 6/7=2,8=2,9=2,10=2,19=2,28=1/1;
 99/9=1/99;
 Leave Link    1 at Fri Jul 24 14:47:15 2020, MaxMem=  4026531840 cpu:               1.4 elap:               0.2
 (Enter /opt/ohpc/pub/libs/gaussian/g16-A.03/sandybridge/g16/l101.exe)
 ---------------
 H12 C30 S10 N10
 ---------------
 Symbolic Z-matrix:
 Charge =  0 Multiplicity = 1
 C                    -18.11223   1.81264  -0.02479 
 C                    -17.05438   2.82916  -0.01945 
 N                    -15.78702   2.32371  -0.05074 
 C                    -15.76329   0.97122   0.0026 
 S                    -17.37403   0.2378   -0.0163 
 C                    -14.60381   0.22421  -0.0348 
 N                    -14.60733  -1.17762   0.01698 
 C                    -13.36724  -1.60184   0.0048 
 C                    -12.26385  -0.65562   0.01973 
 S                    -13.0304   0.86418  -0.03407 
 C                    -10.8826  -0.93295   0.01567 
 C                    -10.24576  -2.05951   0.02071 
 N                    -8.84565  -2.0282   -0.04175 
 C                    -8.47673  -0.8209   -0.0221 
 S                    -9.65777   0.36939  -0.00067 
 C                    -7.07812  -0.366    -0.01562 
 N                    -6.60759   0.83987  -0.03104 
 C                    -5.29326   0.93882   0.01292 
 C                    -4.6093   -0.35452  -0.03119 
 S                    -5.79589  -1.61594  -0.00959 
 C                    -3.2187   -0.54604   0.01261 
 C                    -2.55843  -1.84186  -0.0101 
 N                    -1.18587  -1.7649    0.03156 
 C                    -0.77013  -0.53573   0.01798 
 S                    -2.03992   0.6945    0.02819 
 C                     0.61839  -0.06711   0.00116 
 N                     1.04551   1.12324   0.0393 
 C                     2.45628   1.20333   0.04065 
 C                     3.13854  -0.02908  -0.02047 
 S                     1.91547  -1.31693  -0.02514 
 C                     4.5175   -0.32629  -0.03574 
 C                     5.12908  -1.49029  -0.03404 
 N                     6.56838  -1.49445  -0.0326 
 C                     6.94929  -0.24521  -0.02998 
 S                     5.70695   0.9243   -0.02799 
 C                     8.36523   0.21992  -0.03359 
 N                     8.78946   1.4147   -0.01298 
 C                     10.13714   1.44144  -0.00529 
 C                     10.7807   0.24017  -0.03763 
 S                     9.57847  -1.0103    0.02082 
 C                     12.23096   0.04468  -0.01627 
 C                     12.89728  -1.18048  -0.01805 
 N                     14.26478  -1.1184    0.00397 
 C                     14.64287   0.13671  -0.01831 
 S                     13.34668   1.24218  -0.02653 
 C                     16.07196   0.48106   0.04283 
 N                     16.46665   1.724     0.04774 
 C                     17.86155   1.81869  -0.02059 
 C                     18.49752   0.54195   0.01984 
 S                     17.30115  -0.64032   0.0234 
 H                    -19.11135   1.98715   0.02503 
 H                    -17.26747   3.91168   0.02372 
 H                    -13.17405  -2.72047  -0.02515 
 H                    -10.70527  -3.09442  -0.04187 
 H                    -4.74051   1.85454  -0.00695 
 H                    -3.02353  -2.77225  -0.04581 
 H                     2.91791   2.21542  -0.02585 
 H                     4.70848  -2.4744   -0.05087 
 H                     10.57052   2.44209  -0.02092 
 H                     12.34519  -2.20877   0.01552 
 H                     18.3095   2.74784  -0.03756 
 H                     19.49969   0.40371   0.03363 
 
 ITRead=  0  0  0  0  0  0  0  0  0  0  0  0  0  0  0  0  0  0  0  0
 ITRead=  0  0  0  0  0  0  0  0  0  0  0  0  0  0  0  0  0  0  0  0
 ITRead=  0  0  0  0  0  0  0  0  0  0  0  0  0  0  0  0  0  0  0  0
 ITRead=  0  0
 MicOpt= -1 -1 -1 -1 -1 -1 -1 -1 -1 -1 -1 -1 -1 -1 -1 -1 -1 -1 -1 -1
 MicOpt= -1 -1 -1 -1 -1 -1 -1 -1 -1 -1 -1 -1 -1 -1 -1 -1 -1 -1 -1 -1
 MicOpt= -1 -1 -1 -1 -1 -1 -1 -1 -1 -1 -1 -1 -1 -1 -1 -1 -1 -1 -1 -1
 MicOpt= -1 -1
 NAtoms=     62 NQM=       62 NQMF=       0 NMMI=      0 NMMIF=      0
                NMic=       0 NMicF=      0.
                    Isotopes and Nuclear Properties:
 (Nuclear quadrupole moments (NQMom) in fm**2, nuclear magnetic moments (NMagM)
  in nuclear magnetons)

  Atom         1           2           3           4           5           6           7           8           9          10
 IAtWgt=          12          12          14          12          32          12          14          12          12          32
 AtmWgt=  12.0000000  12.0000000  14.0030740  12.0000000  31.9720718  12.0000000  14.0030740  12.0000000  12.0000000  31.9720718
 NucSpn=           0           0           2           0           0           0           2           0           0           0
 AtZEff=  -0.0000000  -0.0000000  -0.0000000  -0.0000000  -0.0000000  -0.0000000  -0.0000000  -0.0000000  -0.0000000  -0.0000000
 NQMom=    0.0000000   0.0000000   2.0440000   0.0000000   0.0000000   0.0000000   2.0440000   0.0000000   0.0000000   0.0000000
 NMagM=    0.0000000   0.0000000   0.4037610   0.0000000   0.0000000   0.0000000   0.4037610   0.0000000   0.0000000   0.0000000
 AtZNuc=   6.0000000   6.0000000   7.0000000   6.0000000  16.0000000   6.0000000   7.0000000   6.0000000   6.0000000  16.0000000

  Atom        11          12          13          14          15          16          17          18          19          20
 IAtWgt=          12          12          14          12          32          12          14          12          12          32
 AtmWgt=  12.0000000  12.0000000  14.0030740  12.0000000  31.9720718  12.0000000  14.0030740  12.0000000  12.0000000  31.9720718
 NucSpn=           0           0           2           0           0           0           2           0           0           0
 AtZEff=  -0.0000000  -0.0000000  -0.0000000  -0.0000000  -0.0000000  -0.0000000  -0.0000000  -0.0000000  -0.0000000  -0.0000000
 NQMom=    0.0000000   0.0000000   2.0440000   0.0000000   0.0000000   0.0000000   2.0440000   0.0000000   0.0000000   0.0000000
 NMagM=    0.0000000   0.0000000   0.4037610   0.0000000   0.0000000   0.0000000   0.4037610   0.0000000   0.0000000   0.0000000
 AtZNuc=   6.0000000   6.0000000   7.0000000   6.0000000  16.0000000   6.0000000   7.0000000   6.0000000   6.0000000  16.0000000

  Atom        21          22          23          24          25          26          27          28          29          30
 IAtWgt=          12          12          14          12          32          12          14          12          12          32
 AtmWgt=  12.0000000  12.0000000  14.0030740  12.0000000  31.9720718  12.0000000  14.0030740  12.0000000  12.0000000  31.9720718
 NucSpn=           0           0           2           0           0           0           2           0           0           0
 AtZEff=  -0.0000000  -0.0000000  -0.0000000  -0.0000000  -0.0000000  -0.0000000  -0.0000000  -0.0000000  -0.0000000  -0.0000000
 NQMom=    0.0000000   0.0000000   2.0440000   0.0000000   0.0000000   0.0000000   2.0440000   0.0000000   0.0000000   0.0000000
 NMagM=    0.0000000   0.0000000   0.4037610   0.0000000   0.0000000   0.0000000   0.4037610   0.0000000   0.0000000   0.0000000
 AtZNuc=   6.0000000   6.0000000   7.0000000   6.0000000  16.0000000   6.0000000   7.0000000   6.0000000   6.0000000  16.0000000

  Atom        31          32          33          34          35          36          37          38          39          40
 IAtWgt=          12          12          14          12          32          12          14          12          12          32
 AtmWgt=  12.0000000  12.0000000  14.0030740  12.0000000  31.9720718  12.0000000  14.0030740  12.0000000  12.0000000  31.9720718
 NucSpn=           0           0           2           0           0           0           2           0           0           0
 AtZEff=  -0.0000000  -0.0000000  -0.0000000  -0.0000000  -0.0000000  -0.0000000  -0.0000000  -0.0000000  -0.0000000  -0.0000000
 NQMom=    0.0000000   0.0000000   2.0440000   0.0000000   0.0000000   0.0000000   2.0440000   0.0000000   0.0000000   0.0000000
 NMagM=    0.0000000   0.0000000   0.4037610   0.0000000   0.0000000   0.0000000   0.4037610   0.0000000   0.0000000   0.0000000
 AtZNuc=   6.0000000   6.0000000   7.0000000   6.0000000  16.0000000   6.0000000   7.0000000   6.0000000   6.0000000  16.0000000

  Atom        41          42          43          44          45          46          47          48          49          50
 IAtWgt=          12          12          14          12          32          12          14          12          12          32
 AtmWgt=  12.0000000  12.0000000  14.0030740  12.0000000  31.9720718  12.0000000  14.0030740  12.0000000  12.0000000  31.9720718
 NucSpn=           0           0           2           0           0           0           2           0           0           0
 AtZEff=  -0.0000000  -0.0000000  -0.0000000  -0.0000000  -0.0000000  -0.0000000  -0.0000000  -0.0000000  -0.0000000  -0.0000000
 NQMom=    0.0000000   0.0000000   2.0440000   0.0000000   0.0000000   0.0000000   2.0440000   0.0000000   0.0000000   0.0000000
 NMagM=    0.0000000   0.0000000   0.4037610   0.0000000   0.0000000   0.0000000   0.4037610   0.0000000   0.0000000   0.0000000
 AtZNuc=   6.0000000   6.0000000   7.0000000   6.0000000  16.0000000   6.0000000   7.0000000   6.0000000   6.0000000  16.0000000

  Atom        51          52          53          54          55          56          57          58          59          60
 IAtWgt=           1           1           1           1           1           1           1           1           1           1
 AtmWgt=   1.0078250   1.0078250   1.0078250   1.0078250   1.0078250   1.0078250   1.0078250   1.0078250   1.0078250   1.0078250
 NucSpn=           1           1           1           1           1           1           1           1           1           1
 AtZEff=  -0.0000000  -0.0000000  -0.0000000  -0.0000000  -0.0000000  -0.0000000  -0.0000000  -0.0000000  -0.0000000  -0.0000000
 NQMom=    0.0000000   0.0000000   0.0000000   0.0000000   0.0000000   0.0000000   0.0000000   0.0000000   0.0000000   0.0000000
 NMagM=    2.7928460   2.7928460   2.7928460   2.7928460   2.7928460   2.7928460   2.7928460   2.7928460   2.7928460   2.7928460
 AtZNuc=   1.0000000   1.0000000   1.0000000   1.0000000   1.0000000   1.0000000   1.0000000   1.0000000   1.0000000   1.0000000

  Atom        61          62
 IAtWgt=           1           1
 AtmWgt=   1.0078250   1.0078250
 NucSpn=           1           1
 AtZEff=  -0.0000000  -0.0000000
 NQMom=    0.0000000   0.0000000
 NMagM=    2.7928460   2.7928460
 AtZNuc=   1.0000000   1.0000000
 Leave Link  101 at Fri Jul 24 14:47:16 2020, MaxMem=  4026531840 cpu:               2.9 elap:               0.4
 (Enter /opt/ohpc/pub/libs/gaussian/g16-A.03/sandybridge/g16/l103.exe)

 GradGradGradGradGradGradGradGradGradGradGradGradGradGradGradGradGradGrad
 Berny optimization.
 Initialization pass.
                           ----------------------------
                           !    Initial Parameters    !
                           ! (Angstroms and Degrees)  !
 --------------------------                            --------------------------
 ! Name  Definition              Value          Derivative Info.                !
 --------------------------------------------------------------------------------
 ! R1    R(1,2)                  1.4671         estimate D2E/DX2                !
 ! R2    R(1,5)                  1.7393         estimate D2E/DX2                !
 ! R3    R(1,51)                 1.0155         estimate D2E/DX2                !
 ! R4    R(2,3)                  1.3648         estimate D2E/DX2                !
 ! R5    R(2,52)                 1.1041         estimate D2E/DX2                !
 ! R6    R(3,4)                  1.3538         estimate D2E/DX2                !
 ! R7    R(4,5)                  1.77           estimate D2E/DX2                !
 ! R8    R(4,6)                  1.3798         estimate D2E/DX2                !
 ! R9    R(6,7)                  1.4028         estimate D2E/DX2                !
 ! R10   R(6,10)                 1.6986         estimate D2E/DX2                !
 ! R11   R(7,8)                  1.3107         estimate D2E/DX2                !
 ! R12   R(8,9)                  1.4536         estimate D2E/DX2                !
 ! R13   R(8,53)                 1.1356         estimate D2E/DX2                !
 ! R14   R(9,10)                 1.703          estimate D2E/DX2                !
 ! R15   R(9,11)                 1.4088         estimate D2E/DX2                !
 ! R16   R(11,12)                1.2941         estimate D2E/DX2                !
 ! R17   R(11,15)                1.7879         estimate D2E/DX2                !
 ! R18   R(12,13)                1.4019         estimate D2E/DX2                !
 ! R19   R(12,54)                1.1341         estimate D2E/DX2                !
 ! R20   R(13,14)                1.2626         estimate D2E/DX2                !
 ! R21   R(14,15)                1.6769         estimate D2E/DX2                !
 ! R22   R(14,16)                1.4707         estimate D2E/DX2                !
 ! R23   R(16,17)                1.2945         estimate D2E/DX2                !
 ! R24   R(16,20)                1.7907         estimate D2E/DX2                !
 ! R25   R(17,18)                1.3188         estimate D2E/DX2                !
 ! R26   R(18,19)                1.4637         estimate D2E/DX2                !
 ! R27   R(18,55)                1.0698         estimate D2E/DX2                !
 ! R28   R(19,20)                1.7319         estimate D2E/DX2                !
 ! R29   R(19,21)                1.4044         estimate D2E/DX2                !
 ! R30   R(21,22)                1.4545         estimate D2E/DX2                !
 ! R31   R(21,25)                1.7113         estimate D2E/DX2                !
 ! R32   R(22,23)                1.3753         estimate D2E/DX2                !
 ! R33   R(22,56)                1.0408         estimate D2E/DX2                !
 ! R34   R(23,24)                1.2976         estimate D2E/DX2                !
 ! R35   R(24,25)                1.768          estimate D2E/DX2                !
 ! R36   R(24,26)                1.4656         estimate D2E/DX2                !
 ! R37   R(26,27)                1.2652         estimate D2E/DX2                !
 ! R38   R(26,30)                1.8014         estimate D2E/DX2                !
 ! R39   R(27,28)                1.413          estimate D2E/DX2                !
 ! R40   R(28,29)                1.41           estimate D2E/DX2                !
 ! R41   R(28,57)                1.1144         estimate D2E/DX2                !
 ! R42   R(29,30)                1.7761         estimate D2E/DX2                !
 ! R43   R(29,31)                1.4107         estimate D2E/DX2                !
 ! R44   R(31,32)                1.3149         estimate D2E/DX2                !
 ! R45   R(31,35)                1.7259         estimate D2E/DX2                !
 ! R46   R(32,33)                1.4393         estimate D2E/DX2                !
 ! R47   R(32,58)                1.0704         estimate D2E/DX2                !
 ! R48   R(33,34)                1.306          estimate D2E/DX2                !
 ! R49   R(34,35)                1.7062         estimate D2E/DX2                !
 ! R50   R(34,36)                1.4904         estimate D2E/DX2                !
 ! R51   R(36,37)                1.268          estimate D2E/DX2                !
 ! R52   R(36,40)                1.7287         estimate D2E/DX2                !
 ! R53   R(37,38)                1.348          estimate D2E/DX2                !
 ! R54   R(38,39)                1.3632         estimate D2E/DX2                !
 ! R55   R(38,59)                1.0906         estimate D2E/DX2                !
 ! R56   R(39,40)                1.7356         estimate D2E/DX2                !
 ! R57   R(39,41)                1.4635         estimate D2E/DX2                !
 ! R58   R(41,42)                1.3946         estimate D2E/DX2                !
 ! R59   R(41,45)                1.6367         estimate D2E/DX2                !
 ! R60   R(42,43)                1.3691         estimate D2E/DX2                !
 ! R61   R(42,60)                1.1676         estimate D2E/DX2                !
 ! R62   R(43,44)                1.311          estimate D2E/DX2                !
 ! R63   R(44,45)                1.7036         estimate D2E/DX2                !
 ! R64   R(44,46)                1.4713         estimate D2E/DX2                !
 ! R65   R(46,47)                1.3041         estimate D2E/DX2                !
 ! R66   R(46,50)                1.664          estimate D2E/DX2                !
 ! R67   R(47,48)                1.3998         estimate D2E/DX2                !
 ! R68   R(48,49)                1.4269         estimate D2E/DX2                !
 ! R69   R(48,61)                1.0316         estimate D2E/DX2                !
 ! R70   R(49,50)                1.682          estimate D2E/DX2                !
 ! R71   R(49,62)                1.0118         estimate D2E/DX2                !
 ! A1    A(2,1,5)              108.7423         estimate D2E/DX2                !
 ! A2    A(2,1,51)             126.1701         estimate D2E/DX2                !
 ! A3    A(5,1,51)             124.9571         estimate D2E/DX2                !
 ! A4    A(1,2,3)              114.3859         estimate D2E/DX2                !
 ! A5    A(1,2,52)             122.7035         estimate D2E/DX2                !
 ! A6    A(3,2,52)             122.9028         estimate D2E/DX2                !
 ! A7    A(2,3,4)              112.6675         estimate D2E/DX2                !
 ! A8    A(3,4,5)              113.429          estimate D2E/DX2                !
 ! A9    A(3,4,6)              123.6802         estimate D2E/DX2                !
 ! A10   A(5,4,6)              122.691          estimate D2E/DX2                !
 ! A11   A(1,5,4)               90.6364         estimate D2E/DX2                !
 ! A12   A(4,6,7)              122.5417         estimate D2E/DX2                !
 ! A13   A(4,6,10)             125.0585         estimate D2E/DX2                !
 ! A14   A(7,6,10)             112.2607         estimate D2E/DX2                !
 ! A15   A(6,7,8)              108.7064         estimate D2E/DX2                !
 ! A16   A(7,8,9)              120.4904         estimate D2E/DX2                !
 ! A17   A(7,8,53)             118.6877         estimate D2E/DX2                !
 ! A18   A(9,8,53)             120.8204         estimate D2E/DX2                !
 ! A19   A(8,9,10)             103.8224         estimate D2E/DX2                !
 ! A20   A(8,9,11)             128.0275         estimate D2E/DX2                !
 ! A21   A(10,9,11)            128.0892         estimate D2E/DX2                !
 ! A22   A(6,10,9)              94.6303         estimate D2E/DX2                !
 ! A23   A(9,11,12)            130.831          estimate D2E/DX2                !
 ! A24   A(9,11,15)            121.8905         estimate D2E/DX2                !
 ! A25   A(12,11,15)           107.2784         estimate D2E/DX2                !
 ! A26   A(11,12,13)           118.1565         estimate D2E/DX2                !
 ! A27   A(11,12,54)           126.4985         estimate D2E/DX2                !
 ! A28   A(13,12,54)           114.9992         estimate D2E/DX2                !
 ! A29   A(12,13,14)           108.2096         estimate D2E/DX2                !
 ! A30   A(13,14,15)           118.2389         estimate D2E/DX2                !
 ! A31   A(13,14,16)           125.0081         estimate D2E/DX2                !
 ! A32   A(15,14,16)           116.753          estimate D2E/DX2                !
 ! A33   A(11,15,14)            88.0266         estimate D2E/DX2                !
 ! A34   A(14,16,17)           129.3254         estimate D2E/DX2                !
 ! A35   A(14,16,20)           117.714          estimate D2E/DX2                !
 ! A36   A(17,16,20)           112.954          estimate D2E/DX2                !
 ! A37   A(16,17,18)           115.5791         estimate D2E/DX2                !
 ! A38   A(17,18,19)           113.4777         estimate D2E/DX2                !
 ! A39   A(17,18,55)           125.3487         estimate D2E/DX2                !
 ! A40   A(19,18,55)           120.9535         estimate D2E/DX2                !
 ! A41   A(18,19,20)           108.8464         estimate D2E/DX2                !
 ! A42   A(18,19,21)           125.6077         estimate D2E/DX2                !
 ! A43   A(20,19,21)           125.3574         estimate D2E/DX2                !
 ! A44   A(16,20,19)            88.9775         estimate D2E/DX2                !
 ! A45   A(19,21,22)           124.784          estimate D2E/DX2                !
 ! A46   A(19,21,25)           125.6947         estimate D2E/DX2                !
 ! A47   A(22,21,25)           109.4668         estimate D2E/DX2                !
 ! A48   A(21,22,23)           113.747          estimate D2E/DX2                !
 ! A49   A(21,22,56)           126.4467         estimate D2E/DX2                !
 ! A50   A(23,22,56)           119.8044         estimate D2E/DX2                !
 ! A51   A(22,23,24)           111.8653         estimate D2E/DX2                !
 ! A52   A(23,24,25)           115.4002         estimate D2E/DX2                !
 ! A53   A(23,24,26)           127.34           estimate D2E/DX2                !
 ! A54   A(25,24,26)           117.2593         estimate D2E/DX2                !
 ! A55   A(21,25,24)            89.4416         estimate D2E/DX2                !
 ! A56   A(24,26,27)           128.3393         estimate D2E/DX2                !
 ! A57   A(24,26,30)           117.4194         estimate D2E/DX2                !
 ! A58   A(27,26,30)           114.2113         estimate D2E/DX2                !
 ! A59   A(26,27,28)           112.9788         estimate D2E/DX2                !
 ! A60   A(27,28,29)           115.6909         estimate D2E/DX2                !
 ! A61   A(27,28,57)           117.7101         estimate D2E/DX2                !
 ! A62   A(29,28,57)           126.2138         estimate D2E/DX2                !
 ! A63   A(28,29,30)           107.4989         estimate D2E/DX2                !
 ! A64   A(28,29,31)           131.1174         estimate D2E/DX2                !
 ! A65   A(30,29,31)           121.3552         estimate D2E/DX2                !
 ! A66   A(26,30,29)            89.5832         estimate D2E/DX2                !
 ! A67   A(29,31,32)           129.8769         estimate D2E/DX2                !
 ! A68   A(29,31,35)           121.3956         estimate D2E/DX2                !
 ! A69   A(32,31,35)           108.7174         estimate D2E/DX2                !
 ! A70   A(31,32,33)           117.8831         estimate D2E/DX2                !
 ! A71   A(31,32,58)           129.1334         estimate D2E/DX2                !
 ! A72   A(33,32,58)           112.9742         estimate D2E/DX2                !
 ! A73   A(32,33,34)           106.7923         estimate D2E/DX2                !
 ! A74   A(33,34,35)           116.3129         estimate D2E/DX2                !
 ! A75   A(33,34,36)           125.1421         estimate D2E/DX2                !
 ! A76   A(35,34,36)           118.5446         estimate D2E/DX2                !
 ! A77   A(31,35,34)            90.2936         estimate D2E/DX2                !
 ! A78   A(34,36,37)           127.7247         estimate D2E/DX2                !
 ! A79   A(34,36,40)           116.3978         estimate D2E/DX2                !
 ! A80   A(37,36,40)           115.7996         estimate D2E/DX2                !
 ! A81   A(36,37,38)           110.6872         estimate D2E/DX2                !
 ! A82   A(37,38,39)           117.0256         estimate D2E/DX2                !
 ! A83   A(37,38,59)           114.5452         estimate D2E/DX2                !
 ! A84   A(39,38,59)           128.3613         estimate D2E/DX2                !
 ! A85   A(38,39,40)           107.8836         estimate D2E/DX2                !
 ! A86   A(38,39,41)           125.8157         estimate D2E/DX2                !
 ! A87   A(40,39,41)           126.1332         estimate D2E/DX2                !
 ! A88   A(36,40,39)            88.4161         estimate D2E/DX2                !
 ! A89   A(39,41,42)           126.2113         estimate D2E/DX2                !
 ! A90   A(39,41,45)           125.2869         estimate D2E/DX2                !
 ! A91   A(42,41,45)           108.4836         estimate D2E/DX2                !
 ! A92   A(41,42,43)           115.9361         estimate D2E/DX2                !
 ! A93   A(41,42,60)           123.2104         estimate D2E/DX2                !
 ! A94   A(43,42,60)           120.7811         estimate D2E/DX2                !
 ! A95   A(42,43,44)           109.3416         estimate D2E/DX2                !
 ! A96   A(43,44,45)           113.6963         estimate D2E/DX2                !
 ! A97   A(43,44,46)           120.2314         estimate D2E/DX2                !
 ! A98   A(45,44,46)           125.9707         estimate D2E/DX2                !
 ! A99   A(41,45,44)            92.5139         estimate D2E/DX2                !
 ! A100  A(44,46,47)           121.1445         estimate D2E/DX2                !
 ! A101  A(44,46,50)           124.0089         estimate D2E/DX2                !
 ! A102  A(47,46,50)           114.758          estimate D2E/DX2                !
 ! A103  A(46,47,48)           111.4618         estimate D2E/DX2                !
 ! A104  A(47,48,49)           112.4716         estimate D2E/DX2                !
 ! A105  A(47,48,61)           119.6323         estimate D2E/DX2                !
 ! A106  A(49,48,61)           127.7919         estimate D2E/DX2                !
 ! A107  A(48,49,50)           108.1778         estimate D2E/DX2                !
 ! A108  A(48,49,62)           124.3403         estimate D2E/DX2                !
 ! A109  A(50,49,62)           127.4791         estimate D2E/DX2                !
 ! A110  A(46,50,49)            92.9668         estimate D2E/DX2                !
 ! D1    D(5,1,2,3)              1.9028         estimate D2E/DX2                !
 ! D2    D(5,1,2,52)          -177.1044         estimate D2E/DX2                !
 ! D3    D(51,1,2,3)           177.9            estimate D2E/DX2                !
 ! D4    D(51,1,2,52)           -1.1073         estimate D2E/DX2                !
 ! D5    D(2,1,5,4)              0.294          estimate D2E/DX2                !
 ! D6    D(51,1,5,4)          -175.7635         estimate D2E/DX2                !
 ! D7    D(1,2,3,4)             -3.8219         estimate D2E/DX2                !
 ! D8    D(52,2,3,4)           175.1831         estimate D2E/DX2                !
 ! D9    D(2,3,4,5)              4.0157         estimate D2E/DX2                !
 ! D10   D(2,3,4,6)            178.9931         estimate D2E/DX2                !
 ! D11   D(3,4,5,1)             -2.4541         estimate D2E/DX2                !
 ! D12   D(6,4,5,1)           -177.4881         estimate D2E/DX2                !
 ! D13   D(3,4,6,7)           -179.7511         estimate D2E/DX2                !
 ! D14   D(3,4,6,10)             4.8731         estimate D2E/DX2                !
 ! D15   D(5,4,6,7)             -5.2283         estimate D2E/DX2                !
 ! D16   D(5,4,6,10)           179.3959         estimate D2E/DX2                !
 ! D17   D(4,6,7,8)           -178.0832         estimate D2E/DX2                !
 ! D18   D(10,6,7,8)            -2.1723         estimate D2E/DX2                !
 ! D19   D(4,6,10,9)           176.2705         estimate D2E/DX2                !
 ! D20   D(7,6,10,9)             0.4818         estimate D2E/DX2                !
 ! D21   D(6,7,8,9)              3.4104         estimate D2E/DX2                !
 ! D22   D(6,7,8,53)          -176.1549         estimate D2E/DX2                !
 ! D23   D(7,8,9,10)            -2.9737         estimate D2E/DX2                !
 ! D24   D(7,8,9,11)           179.7055         estimate D2E/DX2                !
 ! D25   D(53,8,9,10)          176.5823         estimate D2E/DX2                !
 ! D26   D(53,8,9,11)           -0.7386         estimate D2E/DX2                !
 ! D27   D(8,9,10,6)             1.1738         estimate D2E/DX2                !
 ! D28   D(11,9,10,6)          178.4924         estimate D2E/DX2                !
 ! D29   D(8,9,11,12)           -1.3138         estimate D2E/DX2                !
 ! D30   D(8,9,11,15)          178.6094         estimate D2E/DX2                !
 ! D31   D(10,9,11,12)        -178.0077         estimate D2E/DX2                !
 ! D32   D(10,9,11,15)           1.9154         estimate D2E/DX2                !
 ! D33   D(9,11,12,13)         177.3944         estimate D2E/DX2                !
 ! D34   D(9,11,12,54)           4.5129         estimate D2E/DX2                !
 ! D35   D(15,11,12,13)         -2.5373         estimate D2E/DX2                !
 ! D36   D(15,11,12,54)       -175.4187         estimate D2E/DX2                !
 ! D37   D(9,11,15,14)        -179.1178         estimate D2E/DX2                !
 ! D38   D(12,11,15,14)          0.8213         estimate D2E/DX2                !
 ! D39   D(11,12,13,14)          3.4021         estimate D2E/DX2                !
 ! D40   D(54,12,13,14)        177.0917         estimate D2E/DX2                !
 ! D41   D(12,13,14,15)         -2.6308         estimate D2E/DX2                !
 ! D42   D(12,13,14,16)        177.3339         estimate D2E/DX2                !
 ! D43   D(13,14,15,11)          1.1688         estimate D2E/DX2                !
 ! D44   D(16,14,15,11)       -178.7988         estimate D2E/DX2                !
 ! D45   D(13,14,16,17)        177.9985         estimate D2E/DX2                !
 ! D46   D(13,14,16,20)         -0.9974         estimate D2E/DX2                !
 ! D47   D(15,14,16,17)         -2.0363         estimate D2E/DX2                !
 ! D48   D(15,14,16,20)        178.9677         estimate D2E/DX2                !
 ! D49   D(14,16,17,18)        178.4404         estimate D2E/DX2                !
 ! D50   D(20,16,17,18)         -2.5249         estimate D2E/DX2                !
 ! D51   D(14,16,20,19)        179.1051         estimate D2E/DX2                !
 ! D52   D(17,16,20,19)         -0.0515         estimate D2E/DX2                !
 ! D53   D(16,17,18,19)          4.3867         estimate D2E/DX2                !
 ! D54   D(16,17,18,55)        179.0108         estimate D2E/DX2                !
 ! D55   D(17,18,19,20)         -4.1797         estimate D2E/DX2                !
 ! D56   D(17,18,19,21)       -179.3965         estimate D2E/DX2                !
 ! D57   D(55,18,19,20)       -179.0674         estimate D2E/DX2                !
 ! D58   D(55,18,19,21)          5.7158         estimate D2E/DX2                !
 ! D59   D(18,19,20,16)          2.249          estimate D2E/DX2                !
 ! D60   D(21,19,20,16)        177.4807         estimate D2E/DX2                !
 ! D61   D(18,19,21,22)        178.9251         estimate D2E/DX2                !
 ! D62   D(18,19,21,25)         -4.0493         estimate D2E/DX2                !
 ! D63   D(20,19,21,22)          4.4778         estimate D2E/DX2                !
 ! D64   D(20,19,21,25)       -178.4965         estimate D2E/DX2                !
 ! D65   D(19,21,22,23)        179.4915         estimate D2E/DX2                !
 ! D66   D(19,21,22,56)         -1.0149         estimate D2E/DX2                !
 ! D67   D(25,21,22,23)          2.0532         estimate D2E/DX2                !
 ! D68   D(25,21,22,56)       -178.4532         estimate D2E/DX2                !
 ! D69   D(19,21,25,24)       -177.8479         estimate D2E/DX2                !
 ! D70   D(22,21,25,24)         -0.4386         estimate D2E/DX2                !
 ! D71   D(21,22,23,24)         -3.0849         estimate D2E/DX2                !
 ! D72   D(56,22,23,24)        177.3845         estimate D2E/DX2                !
 ! D73   D(22,23,24,25)          2.7621         estimate D2E/DX2                !
 ! D74   D(22,23,24,26)       -177.5196         estimate D2E/DX2                !
 ! D75   D(23,24,25,21)         -1.3393         estimate D2E/DX2                !
 ! D76   D(26,24,25,21)        178.9126         estimate D2E/DX2                !
 ! D77   D(23,24,26,27)       -177.0241         estimate D2E/DX2                !
 ! D78   D(23,24,26,30)          0.8538         estimate D2E/DX2                !
 ! D79   D(25,24,26,27)          2.6897         estimate D2E/DX2                !
 ! D80   D(25,24,26,30)       -179.4324         estimate D2E/DX2                !
 ! D81   D(24,26,27,28)        178.4674         estimate D2E/DX2                !
 ! D82   D(30,26,27,28)          0.5328         estimate D2E/DX2                !
 ! D83   D(24,26,30,29)       -179.5486         estimate D2E/DX2                !
 ! D84   D(27,26,30,29)         -1.3736         estimate D2E/DX2                !
 ! D85   D(26,27,28,29)          0.9304         estimate D2E/DX2                !
 ! D86   D(26,27,28,57)        174.2532         estimate D2E/DX2                !
 ! D87   D(27,28,29,30)         -1.8827         estimate D2E/DX2                !
 ! D88   D(27,28,29,31)       -179.9109         estimate D2E/DX2                !
 ! D89   D(57,28,29,30)       -174.5524         estimate D2E/DX2                !
 ! D90   D(57,28,29,31)          7.4193         estimate D2E/DX2                !
 ! D91   D(28,29,30,26)          1.7223         estimate D2E/DX2                !
 ! D92   D(31,29,30,26)        179.9829         estimate D2E/DX2                !
 ! D93   D(28,29,31,32)        176.6286         estimate D2E/DX2                !
 ! D94   D(28,29,31,35)         -2.0767         estimate D2E/DX2                !
 ! D95   D(30,29,31,32)         -1.1692         estimate D2E/DX2                !
 ! D96   D(30,29,31,35)       -179.8745         estimate D2E/DX2                !
 ! D97   D(29,31,32,33)       -179.1043         estimate D2E/DX2                !
 ! D98   D(29,31,32,58)          2.0926         estimate D2E/DX2                !
 ! D99   D(35,31,32,33)         -0.2711         estimate D2E/DX2                !
 ! D100  D(35,31,32,58)       -179.0742         estimate D2E/DX2                !
 ! D101  D(29,31,35,34)        179.1843         estimate D2E/DX2                !
 ! D102  D(32,31,35,34)          0.2333         estimate D2E/DX2                !
 ! D103  D(31,32,33,34)          0.1566         estimate D2E/DX2                !
 ! D104  D(58,32,33,34)        179.1483         estimate D2E/DX2                !
 ! D105  D(32,33,34,35)          0.0423         estimate D2E/DX2                !
 ! D106  D(32,33,34,36)       -179.724          estimate D2E/DX2                !
 ! D107  D(33,34,35,31)         -0.1619         estimate D2E/DX2                !
 ! D108  D(36,34,35,31)        179.6205         estimate D2E/DX2                !
 ! D109  D(33,34,36,37)       -178.9535         estimate D2E/DX2                !
 ! D110  D(33,34,36,40)         -2.3213         estimate D2E/DX2                !
 ! D111  D(35,34,36,37)          1.2849         estimate D2E/DX2                !
 ! D112  D(35,34,36,40)        177.9172         estimate D2E/DX2                !
 ! D113  D(34,36,37,38)        179.106          estimate D2E/DX2                !
 ! D114  D(40,36,37,38)          2.4566         estimate D2E/DX2                !
 ! D115  D(34,36,40,39)        179.1694         estimate D2E/DX2                !
 ! D116  D(37,36,40,39)         -3.7889         estimate D2E/DX2                !
 ! D117  D(36,37,38,39)          0.8206         estimate D2E/DX2                !
 ! D118  D(36,37,38,59)        178.0762         estimate D2E/DX2                !
 ! D119  D(37,38,39,40)         -3.5279         estimate D2E/DX2                !
 ! D120  D(37,38,39,41)       -179.0474         estimate D2E/DX2                !
 ! D121  D(59,38,39,40)        179.6563         estimate D2E/DX2                !
 ! D122  D(59,38,39,41)          4.1368         estimate D2E/DX2                !
 ! D123  D(38,39,40,36)          3.8042         estimate D2E/DX2                !
 ! D124  D(41,39,40,36)        179.3056         estimate D2E/DX2                !
 ! D125  D(38,39,41,42)        178.4229         estimate D2E/DX2                !
 ! D126  D(38,39,41,45)         -3.3125         estimate D2E/DX2                !
 ! D127  D(40,39,41,42)          3.7045         estimate D2E/DX2                !
 ! D128  D(40,39,41,45)       -178.0309         estimate D2E/DX2                !
 ! D129  D(39,41,42,43)        179.9701         estimate D2E/DX2                !
 ! D130  D(39,41,42,60)         -3.1074         estimate D2E/DX2                !
 ! D131  D(45,41,42,43)          1.4636         estimate D2E/DX2                !
 ! D132  D(45,41,42,60)        178.3861         estimate D2E/DX2                !
 ! D133  D(39,41,45,44)       -179.0134         estimate D2E/DX2                !
 ! D134  D(42,41,45,44)         -0.4897         estimate D2E/DX2                !
 ! D135  D(41,42,43,44)         -1.8854         estimate D2E/DX2                !
 ! D136  D(60,42,43,44)       -178.8885         estimate D2E/DX2                !
 ! D137  D(42,43,44,45)          1.4443         estimate D2E/DX2                !
 ! D138  D(42,43,44,46)        177.993          estimate D2E/DX2                !
 ! D139  D(43,44,45,41)         -0.5705         estimate D2E/DX2                !
 ! D140  D(46,44,45,41)       -176.8857         estimate D2E/DX2                !
 ! D141  D(43,44,46,47)       -178.6705         estimate D2E/DX2                !
 ! D142  D(43,44,46,50)          4.9341         estimate D2E/DX2                !
 ! D143  D(45,44,46,47)         -2.5761         estimate D2E/DX2                !
 ! D144  D(45,44,46,50)       -178.9715         estimate D2E/DX2                !
 ! D145  D(44,46,47,48)       -174.2557         estimate D2E/DX2                !
 ! D146  D(50,46,47,48)          2.4543         estimate D2E/DX2                !
 ! D147  D(44,46,50,49)        176.5872         estimate D2E/DX2                !
 ! D148  D(47,46,50,49)         -0.0157         estimate D2E/DX2                !
 ! D149  D(46,47,48,49)         -4.2515         estimate D2E/DX2                !
 ! D150  D(46,47,48,61)        179.1745         estimate D2E/DX2                !
 ! D151  D(47,48,49,50)          4.1078         estimate D2E/DX2                !
 ! D152  D(47,48,49,62)       -176.4609         estimate D2E/DX2                !
 ! D153  D(61,48,49,50)       -179.661          estimate D2E/DX2                !
 ! D154  D(61,48,49,62)         -0.2297         estimate D2E/DX2                !
 ! D155  D(48,49,50,46)         -2.3328         estimate D2E/DX2                !
 ! D156  D(62,49,50,46)        178.259          estimate D2E/DX2                !
 --------------------------------------------------------------------------------
 Trust Radius=3.00D-01 FncErr=1.00D-07 GrdErr=1.00D-06 EigMax=2.50D+02 EigMin=1.00D-04
 Number of steps in this run=    347 maximum allowed number of steps=    372.
 GradGradGradGradGradGradGradGradGradGradGradGradGradGradGradGradGradGrad

 Leave Link  103 at Fri Jul 24 14:47:16 2020, MaxMem=  4026531840 cpu:               0.1 elap:               0.0
 (Enter /opt/ohpc/pub/libs/gaussian/g16-A.03/sandybridge/g16/l202.exe)
 Stoichiometry    C30H12N10S10
 Framework group  C1[X(C30H12N10S10)]
 Deg. of freedom   180
 Full point group                 C1      NOp   1
 Largest Abelian subgroup         C1      NOp   1
 Largest concise Abelian subgroup C1      NOp   1
                         Standard orientation:                         
 ---------------------------------------------------------------------
 Center     Atomic      Atomic             Coordinates (Angstroms)
 Number     Number       Type             X           Y           Z
 ---------------------------------------------------------------------
      1          6           0      -18.111681    1.832387   -0.008724
      2          6           0      -17.053211    2.848270   -0.002703
      3          7           0      -15.786176    2.342093   -0.035076
      4          6           0      -15.763234    0.989529    0.016761
      5         16           0      -17.374420    0.257096   -0.002285
      6          6           0      -14.604219    0.241861   -0.021953
      7          7           0      -14.608565   -1.160025    0.028277
      8          6           0      -13.368734   -1.584978    0.015115
      9          6           0      -12.264762   -0.639437    0.030635
     10         16           0      -13.030427    0.880885   -0.021163
     11          6           0      -10.883689   -0.917590    0.025696
     12          6           0      -10.247521   -2.044537    0.029224
     13          7           0       -8.847413   -2.014002   -0.033789
     14          6           0       -8.477766   -0.806946   -0.012954
     15         16           0       -9.658075    0.384033    0.010279
     16          6           0       -7.078881   -0.352897   -0.006555
     17          7           0       -6.607625    0.852705   -0.020840
     18          6           0       -5.293219    0.950819    0.022684
     19          6           0       -4.610058   -0.342886   -0.023140
     20         16           0       -5.797400   -1.603614   -0.002444
     21          6           0       -3.219556   -0.535285    0.019873
     22          6           0       -2.560070   -1.831480   -0.004542
     23          7           0       -1.187452   -1.755387    0.036624
     24          6           0       -0.770973   -0.526459    0.024229
     25         16           0       -2.040025    0.704520    0.036330
     26          6           0        0.617821   -0.058656    0.007352
     27          7           0        1.045670    1.131395    0.046632
     28          6           0        2.456489    1.210635    0.047485
     29          6           0        3.137977   -0.022118   -0.015280
     30         16           0        1.914132   -1.309220   -0.020864
     31          6           0        4.516760   -0.320141   -0.031455
     32          6           0        5.127634   -1.484509   -0.031294
     33          7           0        6.566927   -1.489528   -0.030461
     34          6           0        6.948595   -0.240528   -0.026614
     35         16           0        5.706955    0.929729   -0.022822
     36          6           0        8.364809    0.223754   -0.030305
     37          7           0        8.789768    1.418260   -0.008549
     38          6           0       10.137470    1.444173   -0.001392
     39          6           0       10.780291    0.242554   -0.035325
     40         16           0        9.577338   -1.007254    0.022238
     41          6           0       12.230440    0.046172   -0.014781
     42          6           0       12.896023   -1.179384   -0.018198
     43          7           0       14.263568   -1.118152    0.003319
     44          6           0       14.642405    0.136752   -0.017729
     45         16           0       13.346877    1.243010   -0.024182
     46          6           0       16.071733    0.480173    0.043200
     47          7           0       16.467167    1.722875    0.049320
     48          6           0       17.862099    1.816801   -0.019487
     49          6           0       18.497317    0.539635    0.019266
     50         16           0       17.300241   -0.641922    0.022016
     51          1           0      -19.110671    2.007447    0.041703
     52          1           0      -17.265638    3.930867    0.041759
     53          1           0      -13.176224   -2.703689   -0.016148
     54          1           0      -10.707682   -3.079107   -0.034315
     55          1           0       -4.739923    1.866227    0.003603
     56          1           0       -3.025752   -2.761552   -0.041088
     57          1           0        2.918700    2.222525   -0.018086
     58          1           0        4.706433   -2.468346   -0.049045
     59          1           0       10.571444    2.444588   -0.016089
     60          1           0       12.343330   -2.207379    0.014460
     61          1           0       18.310603    2.745699   -0.035611
     62          1           0       19.499411    0.400773    0.032488
 ---------------------------------------------------------------------
 Rotational constants (GHZ):           0.4295988           0.0049913           0.0049340
 Leave Link  202 at Fri Jul 24 14:47:16 2020, MaxMem=  4026531840 cpu:               0.3 elap:               0.1
 (Enter /opt/ohpc/pub/libs/gaussian/g16-A.03/sandybridge/g16/l301.exe)
 Standard basis: CC-pVDZ (5D, 7F)
 Ernie: Thresh=  0.10000D-02 Tol=  0.10000D-05 Strict=F.
 Ernie:  180 primitive shells out of 1440 were deleted.
 There are   850 symmetry adapted cartesian basis functions of A   symmetry.
 There are   800 symmetry adapted basis functions of A   symmetry.
   800 basis functions,  2114 primitive gaussians,   850 cartesian basis functions
   211 alpha electrons      211 beta electrons
       nuclear repulsion energy      6602.6221982407 Hartrees.
 IExCor=32609 DFT=T Ex+Corr=LC-wPBE ExCW=0 ScaHFX=  1.000000
 ScaDFX=  1.000000  0.000000  1.000000  1.000000 ScalE2=  1.000000  1.000000
 IRadAn=      5 IRanWt=     -1 IRanGd=            0 ICorTp=0 IEmpDi=  4
 HFx  wShort=  0.000000 wLong=  0.499100 cFull=  0.000000 cShort=  0.000000 cLong=  1.000000
 DFx  wShort=  0.000000 wLong=  0.499100 cFull=  0.000000 cShort=  0.000000 cLong=  1.000000
 NAtoms=   62 NActive=   62 NUniq=   62 SFac= 1.00D+00 NAtFMM=   60 NAOKFM=T Big=T
 Integral buffers will be    131072 words long.
 Raffenetti 2 integral format.
 Two-electron integral symmetry is turned on.
 Leave Link  301 at Fri Jul 24 14:47:16 2020, MaxMem=  4026531840 cpu:               0.6 elap:               0.1
 (Enter /opt/ohpc/pub/libs/gaussian/g16-A.03/sandybridge/g16/l302.exe)
 NPDir=0 NMtPBC=     1 NCelOv=     1 NCel=       1 NClECP=     1 NCelD=      1
         NCelK=      1 NCelE2=     1 NClLst=     1 CellRange=     0.0.
 One-electron integrals computed using PRISM.
 One-electron integral symmetry used in STVInt
 NBasis=   800 RedAO= T EigKep=  3.49D-04  NBF=   800
 NBsUse=   800 1.00D-06 EigRej= -1.00D+00 NBFU=   800
 Precomputing XC quadrature grid using
 IXCGrd= 4 IRadAn=           5 IRanWt=          -1 IRanGd=           0 AccXCQ= 0.00D+00.
 Generated NRdTot=       0 NPtTot=           0 NUsed=           0 NTot=          32
 NSgBfM=   499   499   499   499   499 MxSgAt=    62 MxSgA2=    58.
 Leave Link  302 at Fri Jul 24 14:47:18 2020, MaxMem=  4026531840 cpu:              13.9 elap:               1.8
 (Enter /opt/ohpc/pub/libs/gaussian/g16-A.03/sandybridge/g16/l303.exe)
 DipDrv:  MaxL=1.
 Leave Link  303 at Fri Jul 24 14:47:18 2020, MaxMem=  4026531840 cpu:               1.4 elap:               0.2
 (Enter /opt/ohpc/pub/libs/gaussian/g16-A.03/sandybridge/g16/l401.exe)
 ExpMin= 1.22D-01 ExpMax= 1.11D+05 ExpMxC= 1.07D+03 IAcc=3 IRadAn=         5 AccDes= 0.00D+00
 Harris functional with IExCor=32609 and IRadAn=       5 diagonalized for initial guess.
 HarFok:  IExCor=32609 AccDes= 0.00D+00 IRadAn=         5 IDoV= 1 UseB2=F ITyADJ=14
 ICtDFT=  3500011 ScaDFX=  1.000000  1.000000  1.000000  1.000000
 FoFCou: FMM=F IPFlag=           0 FMFlag=      100000 FMFlg1=        2001
         NFxFlg=           0 DoJE=T BraDBF=F KetDBF=T FulRan=T
         wScrn=  0.000000 ICntrl=       500 IOpCl=  0 I1Cent=   200000004 NGrid=           0
         NMat0=    1 NMatS0=      1 NMatT0=    0 NMatD0=    1 NMtDS0=    0 NMtDT0=    0
 Petite list used in FoFCou.
 Harris En= -5676.52887557982    
 JPrj=0 DoOrth=F DoCkMO=F.
 Initial guess <Sx>= 0.0000 <Sy>= 0.0000 <Sz>= 0.0000 <S**2>=-0.0000 S=-0.0000
 Leave Link  401 at Fri Jul 24 14:47:24 2020, MaxMem=  4026531840 cpu:              50.2 elap:               6.3
 (Enter /opt/ohpc/pub/libs/gaussian/g16-A.03/sandybridge/g16/l502.exe)
 Integral symmetry usage will be decided dynamically.
 UHF open shell SCF:
 Using DIIS extrapolation, IDIIS=  1040.
 NGot=  4026531840 LenX=  4025071814 LenY=  4024348464
 Requested convergence on RMS density matrix=1.00D-08 within 128 cycles.
 Requested convergence on MAX density matrix=1.00D-06.
 Requested convergence on             energy=1.00D-06.
 No special actions if energy rises.
 Fock matrices will be formed incrementally for  20 cycles.
 Integral accuracy reduced to 1.0D-05 until final iterations.

 Cycle   1  Pass 0  IDiag  1:
 FoFJK:  IHMeth= 1 ICntrl=       0 DoSepK=T KAlg= 0 I1Cent=           0 FoldK=F
 IRaf=         1 NMat=       1 IRICut=       1 DoRegI=T DoRafI=F ISym2E= 0 IDoP0=0 IntGTp=1.
 FoFCou: FMM=T IPFlag=           0 FMFlag=      100000 FMFlg1=        2001
         NFxFlg=           0 DoJE=T BraDBF=F KetDBF=F FulRan=T
         wScrn=  0.000000 ICntrl=       500 IOpCl=  0 I1Cent=           0 NGrid=           0
         NMat0=    1 NMatS0=      1 NMatT0=    0 NMatD0=    1 NMtDS0=    0 NMtDT0=    0
 Symmetry not used in FoFCou.
 FMM levels:  10  Number of levels for PrismC:   9
 E= -5676.30655657115    
 DIIS: error= 2.36D-02 at cycle   1 NSaved=   1.
 NSaved= 1 IEnMin= 1 EnMin= -5676.30655657115     IErMin= 1 ErrMin= 2.36D-02
 ErrMax= 2.36D-02  0.00D+00 EMaxC= 1.00D-01 BMatC= 3.94D+00 BMatP= 3.94D+00
 IDIUse=3 WtCom= 7.64D-01 WtEn= 2.36D-01
 Coeff-Com:  0.100D+01
 Coeff-En:   0.100D+01
 Coeff:      0.100D+01
 Gap=     0.189 Goal=   None    Shift=    0.000
 Gap=     0.189 Goal=   None    Shift=    0.000
 GapD=    0.189 DampG=1.000 DampE=0.500 DampFc=0.5000 IDamp=-1.
 Damping current iteration by 5.00D-01
 RMSDP=2.55D-03 MaxDP=1.28D-01              OVMax= 2.42D-01

 Cycle   2  Pass 0  IDiag  1:
 RMSU=  1.27D-03    CP:  9.92D-01
 E= -5676.89592106445     Delta-E=       -0.589364493304 Rises=F Damp=T
 DIIS: error= 4.91D-03 at cycle   2 NSaved=   2.
 NSaved= 2 IEnMin= 2 EnMin= -5676.89592106445     IErMin= 2 ErrMin= 4.91D-03
 ErrMax= 4.91D-03  0.00D+00 EMaxC= 1.00D-01 BMatC= 1.84D-01 BMatP= 3.94D+00
 IDIUse=3 WtCom= 9.51D-01 WtEn= 4.91D-02
 Coeff-Com: -0.835D-01 0.108D+01
 Coeff-En:   0.000D+00 0.100D+01
 Coeff:     -0.794D-01 0.108D+01
 Gap=     0.236 Goal=   None    Shift=    0.000
 Gap=     0.236 Goal=   None    Shift=    0.000
 RMSDP=6.93D-04 MaxDP=2.48D-02 DE=-5.89D-01 OVMax= 1.07D-01

 Cycle   3  Pass 0  IDiag  1:
 RMSU=  6.38D-04    CP:  9.86D-01  1.20D+00
 E= -5677.44658479820     Delta-E=       -0.550663733751 Rises=F Damp=F
 DIIS: error= 2.21D-03 at cycle   3 NSaved=   3.
 NSaved= 3 IEnMin= 3 EnMin= -5677.44658479820     IErMin= 3 ErrMin= 2.21D-03
 ErrMax= 2.21D-03  0.00D+00 EMaxC= 1.00D-01 BMatC= 4.27D-02 BMatP= 1.84D-01
 IDIUse=3 WtCom= 9.78D-01 WtEn= 2.21D-02
 Coeff-Com: -0.345D-01 0.274D+00 0.760D+00
 Coeff-En:   0.000D+00 0.000D+00 0.100D+01
 Coeff:     -0.337D-01 0.268D+00 0.766D+00
 Gap=     0.243 Goal=   None    Shift=    0.000
 Gap=     0.243 Goal=   None    Shift=    0.000
 RMSDP=1.63D-04 MaxDP=1.26D-02 DE=-5.51D-01 OVMax= 2.31D-02

 Cycle   4  Pass 0  IDiag  1:
 RMSU=  1.60D-04    CP:  9.86D-01  1.22D+00  1.04D+00
 E= -5677.45789720814     Delta-E=       -0.011312409939 Rises=F Damp=F
 DIIS: error= 1.51D-03 at cycle   4 NSaved=   4.
 NSaved= 4 IEnMin= 4 EnMin= -5677.45789720814     IErMin= 4 ErrMin= 1.51D-03
 ErrMax= 1.51D-03  0.00D+00 EMaxC= 1.00D-01 BMatC= 1.11D-02 BMatP= 4.27D-02
 IDIUse=3 WtCom= 9.85D-01 WtEn= 1.51D-02
 Coeff-Com:  0.852D-02-0.770D-01 0.294D+00 0.775D+00
 Coeff-En:   0.000D+00 0.000D+00 0.000D+00 0.100D+01
 Coeff:      0.839D-02-0.758D-01 0.289D+00 0.778D+00
 Gap=     0.248 Goal=   None    Shift=    0.000
 Gap=     0.248 Goal=   None    Shift=    0.000
 RMSDP=9.70D-05 MaxDP=4.79D-03 DE=-1.13D-02 OVMax= 1.60D-02

 Cycle   5  Pass 0  IDiag  1:
 RMSU=  7.47D-05    CP:  9.85D-01  1.22D+00  1.13D+00  9.73D-01
 E= -5677.46222155894     Delta-E=       -0.004324350799 Rises=F Damp=F
 DIIS: error= 7.20D-04 at cycle   5 NSaved=   5.
 NSaved= 5 IEnMin= 5 EnMin= -5677.46222155894     IErMin= 5 ErrMin= 7.20D-04
 ErrMax= 7.20D-04  0.00D+00 EMaxC= 1.00D-01 BMatC= 9.17D-04 BMatP= 1.11D-02
 IDIUse=3 WtCom= 9.93D-01 WtEn= 7.20D-03
 Coeff-Com:  0.777D-02-0.418D-01-0.395D-01 0.115D+00 0.958D+00
 Coeff-En:   0.000D+00 0.000D+00 0.000D+00 0.000D+00 0.100D+01
 Coeff:      0.772D-02-0.415D-01-0.392D-01 0.115D+00 0.958D+00
 Gap=     0.251 Goal=   None    Shift=    0.000
 Gap=     0.251 Goal=   None    Shift=    0.000
 RMSDP=4.61D-05 MaxDP=1.99D-03 DE=-4.32D-03 OVMax= 7.74D-03

 Cycle   6  Pass 0  IDiag  1:
 RMSU=  2.73D-05    CP:  9.85D-01  1.22D+00  1.16D+00  1.13D+00  1.25D+00
 E= -5677.46296828642     Delta-E=       -0.000746727481 Rises=F Damp=F
 DIIS: error= 2.92D-04 at cycle   6 NSaved=   6.
 NSaved= 6 IEnMin= 6 EnMin= -5677.46296828642     IErMin= 6 ErrMin= 2.92D-04
 ErrMax= 2.92D-04  0.00D+00 EMaxC= 1.00D-01 BMatC= 2.85D-04 BMatP= 9.17D-04
 IDIUse=3 WtCom= 9.97D-01 WtEn= 2.92D-03
 Coeff-Com:  0.301D-02-0.718D-02-0.642D-01-0.794D-01 0.368D+00 0.780D+00
 Coeff-En:   0.000D+00 0.000D+00 0.000D+00 0.000D+00 0.000D+00 0.100D+01
 Coeff:      0.300D-02-0.716D-02-0.640D-01-0.792D-01 0.367D+00 0.780D+00
 Gap=     0.252 Goal=   None    Shift=    0.000
 Gap=     0.252 Goal=   None    Shift=    0.000
 RMSDP=2.33D-05 MaxDP=1.09D-03 DE=-7.47D-04 OVMax= 4.88D-03

 Cycle   7  Pass 0  IDiag  1:
 RMSU=  1.62D-05    CP:  9.85D-01  1.21D+00  1.17D+00  1.17D+00  1.42D+00
                    CP:  1.16D+00
 E= -5677.46317718438     Delta-E=       -0.000208897958 Rises=F Damp=F
 DIIS: error= 1.98D-04 at cycle   7 NSaved=   7.
 NSaved= 7 IEnMin= 7 EnMin= -5677.46317718438     IErMin= 7 ErrMin= 1.98D-04
 ErrMax= 1.98D-04  0.00D+00 EMaxC= 1.00D-01 BMatC= 6.55D-05 BMatP= 2.85D-04
 IDIUse=3 WtCom= 9.98D-01 WtEn= 1.98D-03
 Coeff-Com: -0.524D-03 0.765D-02-0.576D-02-0.511D-01-0.182D+00 0.257D+00
 Coeff-Com:  0.975D+00
 Coeff-En:   0.000D+00 0.000D+00 0.000D+00 0.000D+00 0.000D+00 0.000D+00
 Coeff-En:   0.100D+01
 Coeff:     -0.523D-03 0.764D-02-0.575D-02-0.510D-01-0.181D+00 0.256D+00
 Coeff:      0.975D+00
 Gap=     0.253 Goal=   None    Shift=    0.000
 Gap=     0.253 Goal=   None    Shift=    0.000
 RMSDP=1.61D-05 MaxDP=6.72D-04 DE=-2.09D-04 OVMax= 2.63D-03

 Cycle   8  Pass 0  IDiag  1:
 RMSU=  7.13D-06    CP:  9.85D-01  1.21D+00  1.18D+00  1.20D+00  1.52D+00
                    CP:  1.54D+00  1.25D+00
 E= -5677.46323543192     Delta-E=       -0.000058247537 Rises=F Damp=F
 DIIS: error= 4.07D-05 at cycle   8 NSaved=   8.
 NSaved= 8 IEnMin= 8 EnMin= -5677.46323543192     IErMin= 8 ErrMin= 4.07D-05
 ErrMax= 4.07D-05  0.00D+00 EMaxC= 1.00D-01 BMatC= 7.66D-06 BMatP= 6.55D-05
 IDIUse=1 WtCom= 1.00D+00 WtEn= 0.00D+00
 Coeff-Com: -0.384D-03 0.281D-02 0.704D-02-0.203D-02-0.990D-01-0.310D-01
 Coeff-Com:  0.259D+00 0.864D+00
 Coeff:     -0.384D-03 0.281D-02 0.704D-02-0.203D-02-0.990D-01-0.310D-01
 Coeff:      0.259D+00 0.864D+00
 Gap=     0.253 Goal=   None    Shift=    0.000
 Gap=     0.253 Goal=   None    Shift=    0.000
 RMSDP=6.95D-06 MaxDP=2.43D-04 DE=-5.82D-05 OVMax= 8.87D-04

 Initial convergence to 1.0D-05 achieved.  Increase integral accuracy.
 Cycle   9  Pass 1  IDiag  1:
 E= -5677.46265812095     Delta-E=        0.000577310966 Rises=F Damp=F
 DIIS: error= 2.40D-04 at cycle   1 NSaved=   1.
 NSaved= 1 IEnMin= 1 EnMin= -5677.46265812095     IErMin= 1 ErrMin= 2.40D-04
 ErrMax= 2.40D-04  0.00D+00 EMaxC= 1.00D-01 BMatC= 5.43D-05 BMatP= 5.43D-05
 IDIUse=3 WtCom= 9.98D-01 WtEn= 2.40D-03
 Coeff-Com:  0.100D+01
 Coeff-En:   0.100D+01
 Coeff:      0.100D+01
 Gap=     0.253 Goal=   None    Shift=    0.000
 Gap=     0.253 Goal=   None    Shift=    0.000
 RMSDP=6.95D-06 MaxDP=2.43D-04 DE= 5.77D-04 OVMax= 2.66D-04

 Cycle  10  Pass 1  IDiag  1:
 RMSU=  6.11D-05    CP:  1.00D+00
 E= -5677.46266811314     Delta-E=       -0.000009992185 Rises=F Damp=F
 DIIS: error= 1.83D-05 at cycle   2 NSaved=   2.
 NSaved= 2 IEnMin= 2 EnMin= -5677.46266811314     IErMin= 2 ErrMin= 1.83D-05
 ErrMax= 1.83D-05  0.00D+00 EMaxC= 1.00D-01 BMatC= 1.46D-06 BMatP= 5.43D-05
 IDIUse=1 WtCom= 1.00D+00 WtEn= 0.00D+00
 Coeff-Com:  0.109D-01 0.989D+00
 Coeff:      0.109D-01 0.989D+00
 Gap=     0.253 Goal=   None    Shift=    0.000
 Gap=     0.253 Goal=   None    Shift=    0.000
 RMSDP=3.13D-06 MaxDP=1.38D-04 DE=-9.99D-06 OVMax= 2.42D-04

 Cycle  11  Pass 1  IDiag  1:
 RMSU=  1.83D-06    CP:  1.00D+00  1.04D+00
 E= -5677.46266828400     Delta-E=       -0.000000170859 Rises=F Damp=F
 DIIS: error= 2.48D-05 at cycle   3 NSaved=   3.
 NSaved= 3 IEnMin= 3 EnMin= -5677.46266828400     IErMin= 2 ErrMin= 1.83D-05
 ErrMax= 2.48D-05  0.00D+00 EMaxC= 1.00D-01 BMatC= 1.85D-06 BMatP= 1.46D-06
 IDIUse=1 WtCom= 1.00D+00 WtEn= 0.00D+00
 Coeff-Com: -0.206D-01 0.541D+00 0.480D+00
 Coeff:     -0.206D-01 0.541D+00 0.480D+00
 Gap=     0.253 Goal=   None    Shift=    0.000
 Gap=     0.253 Goal=   None    Shift=    0.000
 RMSDP=8.49D-07 MaxDP=8.45D-05 DE=-1.71D-07 OVMax= 1.19D-04

 Cycle  12  Pass 1  IDiag  1:
 RMSU=  6.45D-07    CP:  1.00D+00  1.04D+00  7.14D-01
 E= -5677.46266872529     Delta-E=       -0.000000441292 Rises=F Damp=F
 DIIS: error= 3.71D-06 at cycle   4 NSaved=   4.
 NSaved= 4 IEnMin= 4 EnMin= -5677.46266872529     IErMin= 4 ErrMin= 3.71D-06
 ErrMax= 3.71D-06  0.00D+00 EMaxC= 1.00D-01 BMatC= 3.37D-08 BMatP= 1.46D-06
 IDIUse=1 WtCom= 1.00D+00 WtEn= 0.00D+00
 Coeff-Com: -0.314D-02 0.251D-01 0.480D-01 0.930D+00
 Coeff:     -0.314D-02 0.251D-01 0.480D-01 0.930D+00
 Gap=     0.253 Goal=   None    Shift=    0.000
 Gap=     0.253 Goal=   None    Shift=    0.000
 RMSDP=2.83D-07 MaxDP=1.76D-05 DE=-4.41D-07 OVMax= 4.77D-05

 Cycle  13  Pass 1  IDiag  1:
 RMSU=  2.11D-07    CP:  1.00D+00  1.05D+00  7.88D-01  1.19D+00
 E= -5677.46266874299     Delta-E=       -0.000000017701 Rises=F Damp=F
 DIIS: error= 2.65D-06 at cycle   5 NSaved=   5.
 NSaved= 5 IEnMin= 5 EnMin= -5677.46266874299     IErMin= 5 ErrMin= 2.65D-06
 ErrMax= 2.65D-06  0.00D+00 EMaxC= 1.00D-01 BMatC= 1.57D-08 BMatP= 3.37D-08
 IDIUse=1 WtCom= 1.00D+00 WtEn= 0.00D+00
 Coeff-Com:  0.776D-02-0.226D+00-0.203D+00 0.358D+00 0.106D+01
 Coeff:      0.776D-02-0.226D+00-0.203D+00 0.358D+00 0.106D+01
 Gap=     0.253 Goal=   None    Shift=    0.000
 Gap=     0.253 Goal=   None    Shift=    0.000
 RMSDP=2.75D-07 MaxDP=1.51D-05 DE=-1.77D-08 OVMax= 5.13D-05

 Cycle  14  Pass 1  IDiag  1:
 RMSU=  1.36D-07    CP:  1.00D+00  1.05D+00  8.33D-01  1.46D+00  1.65D+00
 E= -5677.46266876062     Delta-E=       -0.000000017630 Rises=F Damp=F
 DIIS: error= 6.85D-07 at cycle   6 NSaved=   6.
 NSaved= 6 IEnMin= 6 EnMin= -5677.46266876062     IErMin= 6 ErrMin= 6.85D-07
 ErrMax= 6.85D-07  0.00D+00 EMaxC= 1.00D-01 BMatC= 1.35D-09 BMatP= 1.57D-08
 IDIUse=1 WtCom= 1.00D+00 WtEn= 0.00D+00
 Coeff-Com:  0.217D-02-0.553D-01-0.558D-01-0.207D-01 0.255D+00 0.874D+00
 Coeff:      0.217D-02-0.553D-01-0.558D-01-0.207D-01 0.255D+00 0.874D+00
 Gap=     0.253 Goal=   None    Shift=    0.000
 Gap=     0.253 Goal=   None    Shift=    0.000
 RMSDP=6.91D-08 MaxDP=4.43D-06 DE=-1.76D-08 OVMax= 1.40D-05

 Cycle  15  Pass 1  IDiag  1:
 RMSU=  3.60D-08    CP:  1.00D+00  1.05D+00  8.37D-01  1.49D+00  1.88D+00
                    CP:  1.18D+00
 E= -5677.46266876159     Delta-E=       -0.000000000970 Rises=F Damp=F
 DIIS: error= 2.79D-07 at cycle   7 NSaved=   7.
 NSaved= 7 IEnMin= 7 EnMin= -5677.46266876159     IErMin= 7 ErrMin= 2.79D-07
 ErrMax= 2.79D-07  0.00D+00 EMaxC= 1.00D-01 BMatC= 3.94D-10 BMatP= 1.35D-09
 IDIUse=1 WtCom= 1.00D+00 WtEn= 0.00D+00
 Coeff-Com: -0.725D-03 0.245D-01 0.180D-01-0.872D-01-0.117D+00 0.386D+00
 Coeff-Com:  0.776D+00
 Coeff:     -0.725D-03 0.245D-01 0.180D-01-0.872D-01-0.117D+00 0.386D+00
 Coeff:      0.776D+00
 Gap=     0.253 Goal=   None    Shift=    0.000
 Gap=     0.253 Goal=   None    Shift=    0.000
 RMSDP=2.98D-08 MaxDP=1.67D-06 DE=-9.70D-10 OVMax= 5.45D-06

 Cycle  16  Pass 1  IDiag  1:
 RMSU=  1.65D-08    CP:  1.00D+00  1.05D+00  8.37D-01  1.50D+00  1.96D+00
                    CP:  1.30D+00  1.04D+00
 E= -5677.46266876134     Delta-E=        0.000000000247 Rises=F Damp=F
 DIIS: error= 6.75D-08 at cycle   8 NSaved=   8.
 NSaved= 8 IEnMin= 7 EnMin= -5677.46266876159     IErMin= 8 ErrMin= 6.75D-08
 ErrMax= 6.75D-08  0.00D+00 EMaxC= 1.00D-01 BMatC= 2.27D-11 BMatP= 3.94D-10
 IDIUse=1 WtCom= 1.00D+00 WtEn= 0.00D+00
 Coeff-Com: -0.268D-03 0.766D-02 0.621D-02-0.101D-01-0.354D-01-0.257D-01
 Coeff-Com:  0.103D+00 0.954D+00
 Coeff:     -0.268D-03 0.766D-02 0.621D-02-0.101D-01-0.354D-01-0.257D-01
 Coeff:      0.103D+00 0.954D+00
 Gap=     0.253 Goal=   None    Shift=    0.000
 Gap=     0.253 Goal=   None    Shift=    0.000
 RMSDP=8.91D-09 MaxDP=5.74D-07 DE= 2.47D-10 OVMax= 2.02D-06

 SCF Done:  E(ULC-wPBE) =  -5677.46266876     A.U. after   16 cycles
            NFock= 16  Conv=0.89D-08     -V/T= 2.0036
 <Sx>= 0.0000 <Sy>= 0.0000 <Sz>= 0.0000 <S**2>=-0.0000 S=-0.0000
 <L.S>= 0.000000000000E+00
 KE= 5.657065054082D+03 PE=-2.660841907902D+04 EE= 8.671269157941D+03
 Annihilation of the first spin contaminant:
 S**2 before annihilation    -0.0000,   after     0.0000
 Leave Link  502 at Fri Jul 24 14:53:53 2020, MaxMem=  4026531840 cpu:            3029.4 elap:             388.4
 (Enter /opt/ohpc/pub/libs/gaussian/g16-A.03/sandybridge/g16/l601.exe)
 Copying SCF densities to generalized density rwf, IOpCl= 1 IROHF=0.

 **********************************************************************

            Population analysis using the SCF density.

 **********************************************************************

 Orbital symmetries:
 Alpha Orbitals:
       Occupied  (A) (A) (A) (A) (A) (A) (A) (A) (A) (A) (A) (A)
                 (A) (A) (A) (A) (A) (A) (A) (A) (A) (A) (A) (A)
                 (A) (A) (A) (A) (A) (A) (A) (A) (A) (A) (A) (A)
                 (A) (A) (A) (A) (A) (A) (A) (A) (A) (A) (A) (A)
                 (A) (A) (A) (A) (A) (A) (A) (A) (A) (A) (A) (A)
                 (A) (A) (A) (A) (A) (A) (A) (A) (A) (A) (A) (A)
                 (A) (A) (A) (A) (A) (A) (A) (A) (A) (A) (A) (A)
                 (A) (A) (A) (A) (A) (A) (A) (A) (A) (A) (A) (A)
                 (A) (A) (A) (A) (A) (A) (A) (A) (A) (A) (A) (A)
                 (A) (A) (A) (A) (A) (A) (A) (A) (A) (A) (A) (A)
                 (A) (A) (A) (A) (A) (A) (A) (A) (A) (A) (A) (A)
                 (A) (A) (A) (A) (A) (A) (A) (A) (A) (A) (A) (A)
                 (A) (A) (A) (A) (A) (A) (A) (A) (A) (A) (A) (A)
                 (A) (A) (A) (A) (A) (A) (A) (A) (A) (A) (A) (A)
                 (A) (A) (A) (A) (A) (A) (A) (A) (A) (A) (A) (A)
                 (A) (A) (A) (A) (A) (A) (A) (A) (A) (A) (A) (A)
                 (A) (A) (A) (A) (A) (A) (A) (A) (A) (A) (A) (A)
                 (A) (A) (A) (A) (A) (A) (A)
       Virtual   (A) (A) (A) (A) (A) (A) (A) (A) (A) (A) (A) (A)
                 (A) (A) (A) (A) (A) (A) (A) (A) (A) (A) (A) (A)
                 (A) (A) (A) (A) (A) (A) (A) (A) (A) (A) (A) (A)
                 (A) (A) (A) (A) (A) (A) (A) (A) (A) (A) (A) (A)
                 (A) (A) (A) (A) (A) (A) (A) (A) (A) (A) (A) (A)
                 (A) (A) (A) (A) (A) (A) (A) (A) (A) (A) (A) (A)
                 (A) (A) (A) (A) (A) (A) (A) (A) (A) (A) (A) (A)
                 (A) (A) (A) (A) (A) (A) (A) (A) (A) (A) (A) (A)
                 (A) (A) (A) (A) (A) (A) (A) (A) (A) (A) (A) (A)
                 (A) (A) (A) (A) (A) (A) (A) (A) (A) (A) (A) (A)
                 (A) (A) (A) (A) (A) (A) (A) (A) (A) (A) (A) (A)
                 (A) (A) (A) (A) (A) (A) (A) (A) (A) (A) (A) (A)
                 (A) (A) (A) (A) (A) (A) (A) (A) (A) (A) (A) (A)
                 (A) (A) (A) (A) (A) (A) (A) (A) (A) (A) (A) (A)
                 (A) (A) (A) (A) (A) (A) (A) (A) (A) (A) (A) (A)
                 (A) (A) (A) (A) (A) (A) (A) (A) (A) (A) (A) (A)
                 (A) (A) (A) (A) (A) (A) (A) (A) (A) (A) (A) (A)
                 (A) (A) (A) (A) (A) (A) (A) (A) (A) (A) (A) (A)
                 (A) (A) (A) (A) (A) (A) (A) (A) (A) (A) (A) (A)
                 (A) (A) (A) (A) (A) (A) (A) (A) (A) (A) (A) (A)
                 (A) (A) (A) (A) (A) (A) (A) (A) (A) (A) (A) (A)
                 (A) (A) (A) (A) (A) (A) (A) (A) (A) (A) (A) (A)
                 (A) (A) (A) (A) (A) (A) (A) (A) (A) (A) (A) (A)
                 (A) (A) (A) (A) (A) (A) (A) (A) (A) (A) (A) (A)
                 (A) (A) (A) (A) (A) (A) (A) (A) (A) (A) (A) (A)
                 (A) (A) (A) (A) (A) (A) (A) (A) (A) (A) (A) (A)
                 (A) (A) (A) (A) (A) (A) (A) (A) (A) (A) (A) (A)
                 (A) (A) (A) (A) (A) (A) (A) (A) (A) (A) (A) (A)
                 (A) (A) (A) (A) (A) (A) (A) (A) (A) (A) (A) (A)
                 (A) (A) (A) (A) (A) (A) (A) (A) (A) (A) (A) (A)
                 (A) (A) (A) (A) (A) (A) (A) (A) (A) (A) (A) (A)
                 (A) (A) (A) (A) (A) (A) (A) (A) (A) (A) (A) (A)
                 (A) (A) (A) (A) (A) (A) (A) (A) (A) (A) (A) (A)
                 (A) (A) (A) (A) (A) (A) (A) (A) (A) (A) (A) (A)
                 (A) (A) (A) (A) (A) (A) (A) (A) (A) (A) (A) (A)
                 (A) (A) (A) (A) (A) (A) (A) (A) (A) (A) (A) (A)
                 (A) (A) (A) (A) (A) (A) (A) (A) (A) (A) (A) (A)
                 (A) (A) (A) (A) (A) (A) (A) (A) (A) (A) (A) (A)
                 (A) (A) (A) (A) (A) (A) (A) (A) (A) (A) (A) (A)
                 (A) (A) (A) (A) (A) (A) (A) (A) (A) (A) (A) (A)
                 (A) (A) (A) (A) (A) (A) (A) (A) (A) (A) (A) (A)
                 (A) (A) (A) (A) (A) (A) (A) (A) (A) (A) (A) (A)
                 (A) (A) (A) (A) (A) (A) (A) (A) (A) (A) (A) (A)
                 (A) (A) (A) (A) (A) (A) (A) (A) (A) (A) (A) (A)
                 (A) (A) (A) (A) (A) (A) (A) (A) (A) (A) (A) (A)
                 (A) (A) (A) (A) (A) (A) (A) (A) (A) (A) (A) (A)
                 (A) (A) (A) (A) (A) (A) (A) (A) (A) (A) (A) (A)
                 (A) (A) (A) (A) (A) (A) (A) (A) (A) (A) (A) (A)
                 (A) (A) (A) (A) (A) (A) (A) (A) (A) (A) (A) (A)
                 (A)
 Beta  Orbitals:
       Occupied  (A) (A) (A) (A) (A) (A) (A) (A) (A) (A) (A) (A)
                 (A) (A) (A) (A) (A) (A) (A) (A) (A) (A) (A) (A)
                 (A) (A) (A) (A) (A) (A) (A) (A) (A) (A) (A) (A)
                 (A) (A) (A) (A) (A) (A) (A) (A) (A) (A) (A) (A)
                 (A) (A) (A) (A) (A) (A) (A) (A) (A) (A) (A) (A)
                 (A) (A) (A) (A) (A) (A) (A) (A) (A) (A) (A) (A)
                 (A) (A) (A) (A) (A) (A) (A) (A) (A) (A) (A) (A)
                 (A) (A) (A) (A) (A) (A) (A) (A) (A) (A) (A) (A)
                 (A) (A) (A) (A) (A) (A) (A) (A) (A) (A) (A) (A)
                 (A) (A) (A) (A) (A) (A) (A) (A) (A) (A) (A) (A)
                 (A) (A) (A) (A) (A) (A) (A) (A) (A) (A) (A) (A)
                 (A) (A) (A) (A) (A) (A) (A) (A) (A) (A) (A) (A)
                 (A) (A) (A) (A) (A) (A) (A) (A) (A) (A) (A) (A)
                 (A) (A) (A) (A) (A) (A) (A) (A) (A) (A) (A) (A)
                 (A) (A) (A) (A) (A) (A) (A) (A) (A) (A) (A) (A)
                 (A) (A) (A) (A) (A) (A) (A) (A) (A) (A) (A) (A)
                 (A) (A) (A) (A) (A) (A) (A) (A) (A) (A) (A) (A)
                 (A) (A) (A) (A) (A) (A) (A)
       Virtual   (A) (A) (A) (A) (A) (A) (A) (A) (A) (A) (A) (A)
                 (A) (A) (A) (A) (A) (A) (A) (A) (A) (A) (A) (A)
                 (A) (A) (A) (A) (A) (A) (A) (A) (A) (A) (A) (A)
                 (A) (A) (A) (A) (A) (A) (A) (A) (A) (A) (A) (A)
                 (A) (A) (A) (A) (A) (A) (A) (A) (A) (A) (A) (A)
                 (A) (A) (A) (A) (A) (A) (A) (A) (A) (A) (A) (A)
                 (A) (A) (A) (A) (A) (A) (A) (A) (A) (A) (A) (A)
                 (A) (A) (A) (A) (A) (A) (A) (A) (A) (A) (A) (A)
                 (A) (A) (A) (A) (A) (A) (A) (A) (A) (A) (A) (A)
                 (A) (A) (A) (A) (A) (A) (A) (A) (A) (A) (A) (A)
                 (A) (A) (A) (A) (A) (A) (A) (A) (A) (A) (A) (A)
                 (A) (A) (A) (A) (A) (A) (A) (A) (A) (A) (A) (A)
                 (A) (A) (A) (A) (A) (A) (A) (A) (A) (A) (A) (A)
                 (A) (A) (A) (A) (A) (A) (A) (A) (A) (A) (A) (A)
                 (A) (A) (A) (A) (A) (A) (A) (A) (A) (A) (A) (A)
                 (A) (A) (A) (A) (A) (A) (A) (A) (A) (A) (A) (A)
                 (A) (A) (A) (A) (A) (A) (A) (A) (A) (A) (A) (A)
                 (A) (A) (A) (A) (A) (A) (A) (A) (A) (A) (A) (A)
                 (A) (A) (A) (A) (A) (A) (A) (A) (A) (A) (A) (A)
                 (A) (A) (A) (A) (A) (A) (A) (A) (A) (A) (A) (A)
                 (A) (A) (A) (A) (A) (A) (A) (A) (A) (A) (A) (A)
                 (A) (A) (A) (A) (A) (A) (A) (A) (A) (A) (A) (A)
                 (A) (A) (A) (A) (A) (A) (A) (A) (A) (A) (A) (A)
                 (A) (A) (A) (A) (A) (A) (A) (A) (A) (A) (A) (A)
                 (A) (A) (A) (A) (A) (A) (A) (A) (A) (A) (A) (A)
                 (A) (A) (A) (A) (A) (A) (A) (A) (A) (A) (A) (A)
                 (A) (A) (A) (A) (A) (A) (A) (A) (A) (A) (A) (A)
                 (A) (A) (A) (A) (A) (A) (A) (A) (A) (A) (A) (A)
                 (A) (A) (A) (A) (A) (A) (A) (A) (A) (A) (A) (A)
                 (A) (A) (A) (A) (A) (A) (A) (A) (A) (A) (A) (A)
                 (A) (A) (A) (A) (A) (A) (A) (A) (A) (A) (A) (A)
                 (A) (A) (A) (A) (A) (A) (A) (A) (A) (A) (A) (A)
                 (A) (A) (A) (A) (A) (A) (A) (A) (A) (A) (A) (A)
                 (A) (A) (A) (A) (A) (A) (A) (A) (A) (A) (A) (A)
                 (A) (A) (A) (A) (A) (A) (A) (A) (A) (A) (A) (A)
                 (A) (A) (A) (A) (A) (A) (A) (A) (A) (A) (A) (A)
                 (A) (A) (A) (A) (A) (A) (A) (A) (A) (A) (A) (A)
                 (A) (A) (A) (A) (A) (A) (A) (A) (A) (A) (A) (A)
                 (A) (A) (A) (A) (A) (A) (A) (A) (A) (A) (A) (A)
                 (A) (A) (A) (A) (A) (A) (A) (A) (A) (A) (A) (A)
                 (A) (A) (A) (A) (A) (A) (A) (A) (A) (A) (A) (A)
                 (A) (A) (A) (A) (A) (A) (A) (A) (A) (A) (A) (A)
                 (A) (A) (A) (A) (A) (A) (A) (A) (A) (A) (A) (A)
                 (A) (A) (A) (A) (A) (A) (A) (A) (A) (A) (A) (A)
                 (A) (A) (A) (A) (A) (A) (A) (A) (A) (A) (A) (A)
                 (A) (A) (A) (A) (A) (A) (A) (A) (A) (A) (A) (A)
                 (A) (A) (A) (A) (A) (A) (A) (A) (A) (A) (A) (A)
                 (A) (A) (A) (A) (A) (A) (A) (A) (A) (A) (A) (A)
                 (A) (A) (A) (A) (A) (A) (A) (A) (A) (A) (A) (A)
                 (A)
 The electronic state is 1-A.
 Alpha  occ. eigenvalues --  -88.41672 -88.41037 -88.40838 -88.40678 -88.40473
 Alpha  occ. eigenvalues --  -88.40395 -88.40108 -88.39937 -88.39862 -88.39838
 Alpha  occ. eigenvalues --  -14.30619 -14.30222 -14.30220 -14.30214 -14.30000
 Alpha  occ. eigenvalues --  -14.29526 -14.29503 -14.29368 -14.29360 -14.28505
 Alpha  occ. eigenvalues --  -10.28210 -10.28027 -10.27905 -10.27829 -10.27458
 Alpha  occ. eigenvalues --  -10.27245 -10.27094 -10.27019 -10.26828 -10.26012
 Alpha  occ. eigenvalues --  -10.25594 -10.25482 -10.25342 -10.24868 -10.24666
 Alpha  occ. eigenvalues --  -10.24438 -10.24256 -10.24170 -10.24060 -10.23914
 Alpha  occ. eigenvalues --  -10.23833 -10.23799 -10.23647 -10.23478 -10.23006
 Alpha  occ. eigenvalues --  -10.22940 -10.22794 -10.22663 -10.22340 -10.22068
 Alpha  occ. eigenvalues --   -8.02602  -8.01951  -8.01687  -8.01647  -8.01413
 Alpha  occ. eigenvalues --   -8.01372  -8.01225  -8.01093  -8.00954  -8.00671
 Alpha  occ. eigenvalues --   -6.03600  -6.03039  -6.02994  -6.02818  -6.02699
 Alpha  occ. eigenvalues --   -6.02681  -6.02458  -6.02449  -6.02425  -6.02294
 Alpha  occ. eigenvalues --   -6.02164  -6.02118  -6.02099  -6.02069  -6.02030
 Alpha  occ. eigenvalues --   -6.01914  -6.01875  -6.01816  -6.01796  -6.01769
 Alpha  occ. eigenvalues --   -6.01710  -6.01591  -6.01510  -6.01465  -6.01461
 Alpha  occ. eigenvalues --   -6.01280  -6.01261  -6.01218  -6.00986  -6.00723
 Alpha  occ. eigenvalues --   -1.20837  -1.20817  -1.19742  -1.19624  -1.18793
 Alpha  occ. eigenvalues --   -1.18402  -1.18080  -1.17180  -1.16975  -1.15509
 Alpha  occ. eigenvalues --   -1.05555  -1.05324  -1.05320  -1.05262  -1.01327
 Alpha  occ. eigenvalues --   -1.01115  -1.00417  -1.00150  -0.99681  -0.99492
 Alpha  occ. eigenvalues --   -0.99333  -0.98410  -0.98266  -0.97674  -0.97389
 Alpha  occ. eigenvalues --   -0.94001  -0.93266  -0.91335  -0.91095  -0.89601
 Alpha  occ. eigenvalues --   -0.84049  -0.83566  -0.83239  -0.82685  -0.81033
 Alpha  occ. eigenvalues --   -0.79833  -0.79650  -0.78733  -0.77699  -0.76300
 Alpha  occ. eigenvalues --   -0.76114  -0.73944  -0.73196  -0.72670  -0.72434
 Alpha  occ. eigenvalues --   -0.71784  -0.71216  -0.69680  -0.69190  -0.68836
 Alpha  occ. eigenvalues --   -0.68306  -0.68231  -0.67741  -0.66301  -0.65355
 Alpha  occ. eigenvalues --   -0.64918  -0.63493  -0.62843  -0.62730  -0.62676
 Alpha  occ. eigenvalues --   -0.62289  -0.61899  -0.61817  -0.61362  -0.60950
 Alpha  occ. eigenvalues --   -0.60865  -0.59617  -0.59406  -0.59277  -0.59202
 Alpha  occ. eigenvalues --   -0.58406  -0.57917  -0.57763  -0.57337  -0.57120
 Alpha  occ. eigenvalues --   -0.56546  -0.56428  -0.56246  -0.55723  -0.55550
 Alpha  occ. eigenvalues --   -0.54611  -0.54128  -0.53772  -0.53032  -0.52792
 Alpha  occ. eigenvalues --   -0.50958  -0.50420  -0.49882  -0.49691  -0.49334
 Alpha  occ. eigenvalues --   -0.49101  -0.48817  -0.48020  -0.46587  -0.45698
 Alpha  occ. eigenvalues --   -0.44878  -0.44546  -0.44026  -0.43605  -0.43576
 Alpha  occ. eigenvalues --   -0.43021  -0.42788  -0.42743  -0.42500  -0.42488
 Alpha  occ. eigenvalues --   -0.42320  -0.42272  -0.42064  -0.41885  -0.41706
 Alpha  occ. eigenvalues --   -0.41536  -0.41281  -0.40700  -0.40497  -0.40045
 Alpha  occ. eigenvalues --   -0.39257  -0.37946  -0.35601  -0.32833  -0.31846
 Alpha  occ. eigenvalues --   -0.30055
 Alpha virt. eigenvalues --   -0.04768  -0.03034  -0.01854   0.00426   0.02398
 Alpha virt. eigenvalues --    0.04513   0.06292   0.07717   0.08405   0.09055
 Alpha virt. eigenvalues --    0.09540   0.10434   0.10525   0.10702   0.10956
 Alpha virt. eigenvalues --    0.11081   0.11371   0.11829   0.12777   0.13862
 Alpha virt. eigenvalues --    0.14078   0.14800   0.14863   0.15193   0.15902
 Alpha virt. eigenvalues --    0.15977   0.16186   0.16445   0.16734   0.16889
 Alpha virt. eigenvalues --    0.17136   0.17696   0.17795   0.17814   0.18040
 Alpha virt. eigenvalues --    0.18202   0.18543   0.18719   0.19307   0.19447
 Alpha virt. eigenvalues --    0.20764   0.21178   0.21830   0.22216   0.22558
 Alpha virt. eigenvalues --    0.22951   0.23505   0.23861   0.25209   0.26487
 Alpha virt. eigenvalues --    0.26737   0.27804   0.28760   0.30437   0.30933
 Alpha virt. eigenvalues --    0.31198   0.31583   0.31790   0.31872   0.32414
 Alpha virt. eigenvalues --    0.32829   0.33858   0.34511   0.35137   0.35655
 Alpha virt. eigenvalues --    0.36034   0.36368   0.36642   0.37288   0.38006
 Alpha virt. eigenvalues --    0.38061   0.38779   0.39121   0.39310   0.39866
 Alpha virt. eigenvalues --    0.40728   0.41832   0.42136   0.42986   0.43328
 Alpha virt. eigenvalues --    0.44230   0.44877   0.45248   0.46002   0.46941
 Alpha virt. eigenvalues --    0.47686   0.48475   0.48658   0.48956   0.49329
[...]
    60   Atom        0.000000      0.000000      0.000000
    61   Atom        0.000000      0.000000     -0.000000
    62   Atom       -0.000000     -0.000000     -0.000000
 --------------------------------------------------------


 ---------------------------------------------------------------------------------
              Anisotropic Spin Dipole Couplings in Principal Axis System
 ---------------------------------------------------------------------------------

       Atom             a.u.   MegaHertz   Gauss  10(-4) cm-1        Axes

              Baa    -0.0000    -0.000    -0.000    -0.000  0.8052  0.4375 -0.4004
     1 C(13)  Bbb    -0.0000    -0.000    -0.000    -0.000  0.1365  0.5202  0.8430
              Bcc     0.0000     0.000     0.000     0.000 -0.5771  0.7335 -0.3592
 
              Baa    -0.0000    -0.000    -0.000    -0.000 -0.0967  0.7741 -0.6256
     2 C(13)  Bbb    -0.0000    -0.000    -0.000    -0.000  0.9456 -0.1247 -0.3006
              Bcc     0.0000     0.000     0.000     0.000  0.3107  0.6206  0.7199
 
              Baa    -0.0000    -0.000    -0.000    -0.000  0.9956  0.0586 -0.0732
     3 N(14)  Bbb    -0.0000    -0.000    -0.000    -0.000  0.0398  0.4425  0.8959
              Bcc     0.0000     0.000     0.000     0.000 -0.0849  0.8949 -0.4382
 
              Baa    -0.0000    -0.000    -0.000    -0.000  0.7689 -0.5728  0.2841
     4 C(13)  Bbb     0.0000     0.000     0.000     0.000  0.6393  0.6835 -0.3523
              Bcc     0.0000     0.000     0.000     0.000  0.0077  0.4525  0.8917
 
              Baa    -0.0000    -0.000    -0.000    -0.000  0.8234  0.2529 -0.5080
     5 S(33)  Bbb    -0.0000    -0.000    -0.000    -0.000  0.1693  0.7449  0.6453
              Bcc     0.0000     0.000     0.000     0.000 -0.5416  0.6174 -0.5706
 
              Baa    -0.0000    -0.000    -0.000    -0.000 -0.1030  0.6960  0.7106
     6 C(13)  Bbb     0.0000     0.000     0.000     0.000  0.7945  0.4874 -0.3622
              Bcc     0.0000     0.000     0.000     0.000  0.5984 -0.5273  0.6032
 
              Baa    -0.0000    -0.000    -0.000    -0.000  0.9945 -0.0607  0.0854
     7 N(14)  Bbb     0.0000     0.000     0.000     0.000  0.0902  0.9108 -0.4029
              Bcc     0.0000     0.000     0.000     0.000 -0.0533  0.4084  0.9113
 
              Baa    -0.0000    -0.000    -0.000    -0.000 -0.2069  0.8616 -0.4635
     8 C(13)  Bbb    -0.0000    -0.000    -0.000    -0.000  0.9238  0.0160 -0.3825
              Bcc     0.0000     0.000     0.000     0.000  0.3222  0.5073  0.7993
 
              Baa    -0.0000    -0.000    -0.000    -0.000 -0.1706  0.8785 -0.4463
     9 C(13)  Bbb    -0.0000    -0.000    -0.000    -0.000 -0.0701  0.4409  0.8948
              Bcc     0.0000     0.000     0.000     0.000  0.9828  0.1840 -0.0136
 
              Baa    -0.0000    -0.000    -0.000    -0.000 -0.1116 -0.4627  0.8794
    10 S(33)  Bbb    -0.0000    -0.000    -0.000    -0.000  0.4491  0.7660  0.4600
              Bcc     0.0000     0.000     0.000     0.000  0.8865 -0.4463 -0.1224
 
              Baa    -0.0000    -0.000    -0.000    -0.000  0.9557  0.2926  0.0317
    11 C(13)  Bbb    -0.0000    -0.000    -0.000    -0.000 -0.0193 -0.0451  0.9988
              Bcc     0.0000     0.000     0.000     0.000 -0.2936  0.9552  0.0374
 
              Baa    -0.0000    -0.000    -0.000    -0.000 -0.0137  0.0392  0.9991
    12 C(13)  Bbb    -0.0000    -0.000    -0.000    -0.000  0.9823 -0.1859  0.0208
              Bcc     0.0000     0.000     0.000     0.000  0.1866  0.9818 -0.0359
 
              Baa    -0.0000    -0.000    -0.000    -0.000  0.0904  0.9812  0.1705
    13 N(14)  Bbb    -0.0000    -0.000    -0.000    -0.000 -0.0225 -0.1692  0.9853
              Bcc     0.0000     0.000     0.000     0.000  0.9956 -0.0930  0.0068
 
              Baa    -0.0000    -0.000    -0.000    -0.000 -0.0237  0.9967  0.0781
    14 C(13)  Bbb    -0.0000    -0.000    -0.000    -0.000  0.0402 -0.0771  0.9962
              Bcc     0.0000     0.000     0.000     0.000  0.9989  0.0267 -0.0382
 
              Baa    -0.0000    -0.000    -0.000    -0.000  0.9906 -0.1295  0.0436
    15 S(33)  Bbb    -0.0000    -0.000    -0.000    -0.000 -0.0423  0.0125  0.9990
              Bcc     0.0000     0.000     0.000     0.000  0.1299  0.9915 -0.0070
 
              Baa    -0.0000    -0.000    -0.000    -0.000 -0.1502  0.9760 -0.1574
    16 C(13)  Bbb    -0.0000    -0.000    -0.000    -0.000 -0.0113  0.1575  0.9874
              Bcc     0.0000     0.000     0.000     0.000  0.9886  0.1501 -0.0127
 
              Baa    -0.0000    -0.000    -0.000    -0.000  0.9854  0.1690 -0.0202
    17 N(14)  Bbb     0.0000     0.000     0.000     0.000 -0.1688  0.9856  0.0131
              Bcc     0.0000     0.000     0.000     0.000  0.0222 -0.0095  0.9997
 
              Baa    -0.0000    -0.000    -0.000    -0.000  0.0802  0.9943 -0.0698
    18 C(13)  Bbb     0.0000     0.000     0.000     0.000  0.9931 -0.0737  0.0913
              Bcc     0.0000     0.000     0.000     0.000 -0.0857  0.0766  0.9934
 
              Baa    -0.0000    -0.000    -0.000    -0.000  0.0668  0.8568 -0.5112
    19 C(13)  Bbb    -0.0000    -0.000    -0.000    -0.000  0.0920  0.5049  0.8583
              Bcc     0.0000     0.000     0.000     0.000  0.9935 -0.1044 -0.0451
 
              Baa    -0.0000    -0.000    -0.000    -0.000  0.7836 -0.5870 -0.2038
    20 S(33)  Bbb    -0.0000    -0.000    -0.000    -0.000  0.2152 -0.0513  0.9752
              Bcc     0.0000     0.000     0.000     0.000  0.5829  0.8080 -0.0861
 
              Baa    -0.0000    -0.000    -0.000    -0.000  0.8763  0.4433 -0.1886
    21 C(13)  Bbb    -0.0000    -0.000    -0.000    -0.000  0.3591 -0.3400  0.8691
              Bcc     0.0000     0.000     0.000     0.000 -0.3212  0.8294  0.4572
 
              Baa    -0.0000    -0.000    -0.000    -0.000  0.0001 -0.6796  0.7335
    22 C(13)  Bbb     0.0000     0.000     0.000     0.000  0.0815  0.7311  0.6774
              Bcc     0.0000     0.000     0.000     0.000  0.9967 -0.0597 -0.0555
 
              Baa    -0.0000    -0.000    -0.000    -0.000 -0.0542  0.7574  0.6507
    23 N(14)  Bbb    -0.0000    -0.000    -0.000    -0.000  0.1330 -0.6403  0.7565
              Bcc     0.0000     0.000     0.000     0.000  0.9896  0.1276 -0.0660
 
              Baa    -0.0000    -0.000    -0.000    -0.000 -0.0179  0.8993 -0.4370
    24 C(13)  Bbb    -0.0000    -0.000    -0.000    -0.000 -0.0496  0.4357  0.8987
              Bcc     0.0000     0.000     0.000     0.000  0.9986  0.0377  0.0368
 
              Baa    -0.0000    -0.000    -0.000    -0.000  0.7864 -0.6126 -0.0794
    25 S(33)  Bbb     0.0000     0.000     0.000     0.000  0.1739  0.0963  0.9800
              Bcc     0.0000     0.000     0.000     0.000  0.5927  0.7845 -0.1823
 
              Baa    -0.0000    -0.000    -0.000    -0.000  0.8370  0.4890  0.2457
    26 C(13)  Bbb     0.0000     0.000     0.000     0.000 -0.4668  0.8722 -0.1458
              Bcc     0.0000     0.000     0.000     0.000 -0.2856  0.0074  0.9583
 
              Baa    -0.0000    -0.000    -0.000    -0.000 -0.0448 -0.4468  0.8935
    27 N(14)  Bbb     0.0000     0.000     0.000     0.000 -0.4099  0.8239  0.3914
              Bcc     0.0000     0.000     0.000     0.000  0.9110  0.3487  0.2200
 
              Baa    -0.0000    -0.000    -0.000    -0.000 -0.5432  0.7634 -0.3496
    28 C(13)  Bbb    -0.0000    -0.000    -0.000    -0.000 -0.4179  0.1153  0.9011
              Bcc     0.0000     0.000     0.000     0.000  0.7282  0.6356  0.2564
 
              Baa    -0.0000    -0.000    -0.000    -0.000  0.9599  0.2193  0.1746
    29 C(13)  Bbb    -0.0000    -0.000    -0.000    -0.000 -0.0880  0.8270 -0.5553
              Bcc     0.0000     0.000     0.000     0.000 -0.2662  0.5177  0.8131
 
              Baa    -0.0000    -0.000    -0.000    -0.000  0.6914  0.3225  0.6465
    30 S(33)  Bbb     0.0000     0.000     0.000     0.000 -0.5174 -0.4037  0.7546
              Bcc     0.0000     0.000     0.000     0.000 -0.5043  0.8562  0.1122
 
              Baa    -0.0000    -0.000    -0.000    -0.000  0.9985 -0.0205 -0.0516
    31 C(13)  Bbb     0.0000     0.000     0.000     0.000  0.0537  0.1176  0.9916
              Bcc     0.0000     0.000     0.000     0.000  0.0142  0.9929 -0.1185
 
              Baa    -0.0000    -0.000    -0.000    -0.000  0.9843  0.1728  0.0354
    32 C(13)  Bbb    -0.0000    -0.000    -0.000    -0.000 -0.1718  0.9847 -0.0291
              Bcc     0.0000     0.000     0.000     0.000 -0.0398  0.0226  0.9989
 
              Baa    -0.0000    -0.000    -0.000    -0.000  0.8780  0.4786 -0.0108
    33 N(14)  Bbb    -0.0000    -0.000    -0.000    -0.000  0.0013  0.0202  0.9998
              Bcc     0.0000     0.000     0.000     0.000 -0.4787  0.8778 -0.0171
 
              Baa    -0.0000    -0.000    -0.000    -0.000  0.0323 -0.0325  0.9989
    34 C(13)  Bbb    -0.0000    -0.000    -0.000    -0.000 -0.5877  0.8078  0.0453
              Bcc     0.0000     0.000     0.000     0.000  0.8085  0.5885 -0.0070
 
              Baa    -0.0000    -0.000    -0.000    -0.000  0.2160 -0.0347  0.9758
    35 S(33)  Bbb    -0.0000    -0.000    -0.000    -0.000  0.9740 -0.0625 -0.2178
              Bcc     0.0000     0.000     0.000     0.000  0.0685  0.9974  0.0203
 
              Baa    -0.0000    -0.000    -0.000    -0.000  0.9873  0.1521  0.0456
    36 C(13)  Bbb     0.0000     0.000     0.000     0.000 -0.0869  0.2768  0.9570
              Bcc     0.0000     0.000     0.000     0.000 -0.1329  0.9488 -0.2865
 
              Baa    -0.0000    -0.000    -0.000    -0.000  0.9450  0.3255 -0.0332
    37 N(14)  Bbb     0.0000     0.000     0.000     0.000 -0.3259  0.9454 -0.0057
              Bcc     0.0000     0.000     0.000     0.000  0.0295  0.0162  0.9994
 
              Baa    -0.0000    -0.000    -0.000    -0.000  0.1186  0.0610  0.9911
    38 C(13)  Bbb    -0.0000    -0.000    -0.000    -0.000  0.8923  0.4313 -0.1333
              Bcc     0.0000     0.000     0.000     0.000 -0.4356  0.9001 -0.0033
 
              Baa    -0.0000    -0.000    -0.000    -0.000  0.9991 -0.0021 -0.0429
    39 C(13)  Bbb    -0.0000    -0.000    -0.000    -0.000  0.0043  0.9987  0.0516
              Bcc     0.0000     0.000     0.000     0.000  0.0428 -0.0517  0.9977
 
              Baa    -0.0000    -0.000    -0.000    -0.000  0.9922  0.1130 -0.0520
    40 S(33)  Bbb     0.0000     0.000     0.000     0.000 -0.1196  0.7519 -0.6483
              Bcc     0.0000     0.000     0.000     0.000 -0.0342  0.6495  0.7596
 
              Baa    -0.0000    -0.000    -0.000    -0.000  0.9811 -0.1512 -0.1206
    41 C(13)  Bbb     0.0000     0.000     0.000     0.000  0.1825  0.9305  0.3176
              Bcc     0.0000     0.000     0.000     0.000  0.0642 -0.3336  0.9405
 
              Baa    -0.0000    -0.000    -0.000    -0.000 -0.1717 -0.1863  0.9674
    42 C(13)  Bbb    -0.0000    -0.000    -0.000    -0.000  0.2159  0.9510  0.2214
              Bcc     0.0000     0.000     0.000     0.000  0.9612 -0.2468  0.1231
 
              Baa    -0.0000    -0.000    -0.000    -0.000  0.8766 -0.4588 -0.1451
    43 N(14)  Bbb     0.0000     0.000     0.000     0.000  0.4812  0.8397  0.2519
              Bcc     0.0000     0.000     0.000     0.000  0.0062 -0.2906  0.9568
 
              Baa    -0.0000    -0.000    -0.000    -0.000  0.1242 -0.5608  0.8186
    44 C(13)  Bbb     0.0000     0.000     0.000     0.000  0.9915  0.1025 -0.0802
              Bcc     0.0000     0.000     0.000     0.000 -0.0389  0.8216  0.5687
 
              Baa    -0.0000    -0.000    -0.000    -0.000  0.3416 -0.2236  0.9129
    45 S(33)  Bbb     0.0000     0.000     0.000     0.000  0.9040  0.3439 -0.2541
              Bcc     0.0000     0.000     0.000     0.000 -0.2571  0.9120  0.3196
 
              Baa    -0.0000    -0.000    -0.000    -0.000 -0.0242 -0.3386  0.9406
    46 C(13)  Bbb    -0.0000    -0.000    -0.000    -0.000 -0.3536  0.8830  0.3087
              Bcc     0.0000     0.000     0.000     0.000  0.9351  0.3251  0.1411
 
              Baa    -0.0000    -0.000    -0.000    -0.000 -0.2520 -0.2333  0.9392
    47 N(14)  Bbb     0.0000     0.000     0.000     0.000 -0.4160  0.9024  0.1125
              Bcc     0.0000     0.000     0.000     0.000  0.8737  0.3624  0.3245
 
              Baa    -0.0000    -0.000    -0.000    -0.000 -0.0293 -0.5046  0.8629
    48 C(13)  Bbb     0.0000     0.000     0.000     0.000  0.9957 -0.0910 -0.0194
              Bcc     0.0000     0.000     0.000     0.000  0.0883  0.8586  0.5050
 
              Baa    -0.0000    -0.000    -0.000    -0.000  0.7636 -0.5783 -0.2872
    49 C(13)  Bbb     0.0000     0.000     0.000     0.000  0.3945  0.0658  0.9165
              Bcc     0.0000     0.000     0.000     0.000  0.5111  0.8132 -0.2784
 
              Baa    -0.0000    -0.000    -0.000    -0.000  0.0685  0.0537  0.9962
    50 S(33)  Bbb    -0.0000    -0.000    -0.000    -0.000  0.6793  0.7288 -0.0860
              Bcc     0.0000     0.000     0.000     0.000  0.7306 -0.6827 -0.0135
 
              Baa    -0.0000    -0.000    -0.000    -0.000  0.9910  0.0084 -0.1338
    51 H(1)   Bbb     0.0000     0.000     0.000     0.000 -0.0521  0.9437 -0.3267
              Bcc     0.0000     0.000     0.000     0.000  0.1235  0.3307  0.9356
 
              Baa    -0.0000    -0.000    -0.000    -0.000 -0.3349  0.8006 -0.4969
    52 H(1)   Bbb     0.0000     0.000     0.000     0.000  0.9420  0.2717 -0.1972
              Bcc     0.0000     0.000     0.000     0.000  0.0229  0.5341  0.8451
 
              Baa    -0.0000    -0.000    -0.000    -0.000 -0.1997  0.8075 -0.5551
    53 H(1)   Bbb     0.0000     0.000     0.000     0.000  0.5572  0.5596  0.6135
              Bcc     0.0000     0.000     0.000     0.000  0.8060 -0.1867 -0.5617
 
              Baa    -0.0000    -0.000    -0.000    -0.000  0.8554 -0.4551  0.2474
    54 H(1)   Bbb    -0.0000    -0.000    -0.000    -0.000 -0.2418  0.0715  0.9677
              Bcc     0.0000     0.000     0.000     0.000  0.4581  0.8876  0.0489
 
              Baa    -0.0000    -0.000    -0.000    -0.000 -0.2166  0.9754 -0.0407
    55 H(1)   Bbb     0.0000     0.000     0.000     0.000 -0.5064 -0.0767  0.8589
              Bcc     0.0000     0.000     0.000     0.000  0.8346  0.2067  0.5106
 
              Baa    -0.0000    -0.000    -0.000    -0.000  0.0905  0.6766  0.7308
    56 H(1)   Bbb     0.0000     0.000     0.000     0.000 -0.3917 -0.6505  0.6508
              Bcc     0.0000     0.000     0.000     0.000  0.9156 -0.3451  0.2062
 
              Baa    -0.0000    -0.000    -0.000    -0.000  0.8416 -0.0648 -0.5362
    57 H(1)   Bbb    -0.0000    -0.000    -0.000    -0.000  0.4870 -0.3384  0.8052
              Bcc     0.0000     0.000     0.000     0.000  0.2336  0.9388  0.2532
 
              Baa    -0.0000    -0.000    -0.000    -0.000  0.6293  0.7772 -0.0036
    58 H(1)   Bbb     0.0000     0.000     0.000     0.000 -0.1213  0.1027  0.9873
              Bcc     0.0000     0.000     0.000     0.000  0.7676 -0.6209  0.1589
 
              Baa    -0.0000    -0.000    -0.000    -0.000  0.5944  0.8005 -0.0767
    59 H(1)   Bbb     0.0000     0.000     0.000     0.000  0.1511 -0.0175  0.9884
              Bcc     0.0000     0.000     0.000     0.000  0.7899 -0.5990 -0.1314
 
              Baa    -0.0000    -0.000    -0.000    -0.000  0.2599 -0.6686  0.6968
    60 H(1)   Bbb    -0.0000    -0.000    -0.000    -0.000  0.9275 -0.0280 -0.3728
              Bcc     0.0000     0.000     0.000     0.000  0.2687  0.7431  0.6128
 
              Baa    -0.0000    -0.000    -0.000    -0.000  0.7820 -0.4379 -0.4435
    61 H(1)   Bbb    -0.0000    -0.000    -0.000    -0.000  0.3440 -0.2900  0.8931
              Bcc     0.0000     0.000     0.000     0.000  0.5197  0.8510  0.0761
 
              Baa    -0.0000    -0.000    -0.000    -0.000  0.1415  0.1595  0.9770
    62 H(1)   Bbb    -0.0000    -0.000    -0.000    -0.000  0.0531  0.9843 -0.1684
              Bcc     0.0000     0.000     0.000     0.000  0.9885 -0.0757 -0.1308
 

 ---------------------------------------------------------------------------------

 No NMR shielding tensors so no spin-rotation constants.
 Leave Link  601 at Fri Jul 24 19:59:20 2020, MaxMem=  4026531840 cpu:               7.9 elap:               1.1
 (Enter /opt/ohpc/pub/libs/gaussian/g16-A.03/sandybridge/g16/l9999.exe)

 Test job not archived.
 1\1\GINC-SKYLAKE054\FOpt\ULC-wPBE\CC-pVDZ\C30H12N10S10\RDU230\24-Jul-2
 020\0\\#P uLC-wPBE/cc-pVDZ iop(3/107=0499100000, 3/108=0499100000) opt
 \\H12 C30 S10 N10\\0,1\C,-18.0065457114,1.5957490922,-0.2924318545\C,-
 17.0969570615,2.3539812444,-0.9491694188\N,-15.8048046993,1.9269571427
 ,-0.8592942666\C,-15.7382840647,0.8552083619,-0.1404256348\S,-17.23175
 48419,0.2857410077,0.4785729574\C,-14.4899568434,0.157357753,0.1402405
 467\N,-14.4115503272,-0.914194619,0.8580962986\C,-13.1190761429,-1.327
 8743028,0.9502836593\C,-12.2043953981,-0.5698316674,0.2879135326\S,-13
 .0046170612,0.7378541513,-0.4894275766\C,-10.7693759362,-0.7957647169,
 0.1984513665\C,-10.1258709194,-1.9903364628,0.097107423\N,-8.768083163
 6,-1.9309218331,0.0545778083\C,-8.3704915051,-0.7024156258,0.112271392
 1\S,-9.6113502531,0.4732987765,0.2367801782\C,-6.9688193271,-0.3099167
 69,0.0780999411\N,-6.5679990576,0.9171979372,0.1319090896\C,-5.2108552
 206,0.9736545518,0.0741814503\C,-4.5692906962,-0.2228055369,-0.0222311
 491\S,-5.7298642916,-1.489974988,-0.034709461\C,-3.1415130116,-0.47971
 68218,-0.1091788437\C,-2.5063840201,-1.5782323568,-0.6017147249\N,-1.1
 477829833,-1.5448495038,-0.5661470825\C,-0.7395496707,-0.4312250489,-0
 .0533591241\S,-1.9723068407,0.65552078,0.4354729705\C,0.6655513613,-0.
 0902623674,0.1147135652\N,1.0739932722,1.0231401262,0.6277669608\C,2.4
 326117823,1.0564975227,0.6629131127\C,3.0675659996,-0.0418686944,0.169
 8204952\S,1.8981412548,-1.176920189,-0.3748327886\C,4.495267309,-0.298
 8030062,0.0821502056\C,5.1365137842,-1.4951634618,-0.0179851585\N,6.49
 36343521,-1.4389683243,-0.0756354813\C,6.8948094085,-0.2119617822,-0.0
 184681635\S,5.6561623027,0.9680182067,0.0980383394\C,8.2964084762,0.17
 95712446,-0.0504828497\N,8.6958551894,1.4070805605,0.0068644772\C,10.0
 529596269,1.4651924254,-0.0511512321\C,10.6959449181,0.269694432,-0.15
 18738705\S,9.5366895847,-0.9984485344,-0.1674064478\C,12.1239649314,0.
 0143117526,-0.2399352635\C,12.759576834,-1.0835907101,-0.7318927541\N,
 14.1187219868,-1.0492091912,-0.6981951684\C,14.5269125847,0.0649058242
 ,-0.1873705471\S,13.2933546866,1.1515235586,0.3015822887\C,15.93156052
 69,0.4129278173,-0.0172641398\N,16.3271648953,1.5324692011,0.492985544
 8\C,17.6897724064,1.5786042845,0.5272159133\C,18.3207173665,0.48463025
 33,0.0385833133\S,17.176954459,-0.6645421236,-0.4924362878\H,-19.07791
 96034,1.7434059949,-0.2266569815\H,-17.3245472563,3.2474411492,-1.5214
 85675\H,-12.876391225,-2.2042980398,1.5429983622\H,-10.6243850599,-2.9
 522904878,0.032124866\H,-4.7158796584,1.9401361261,0.0960537495\H,-3.0
 079850696,-2.4469889054,-1.0178497951\H,2.9343047112,1.9251739455,1.07
 91150223\H,4.6411785455,-2.4613907993,-0.0427785011\H,10.5472529952,2.
 4318766919,-0.0259810678\H,12.2585344524,-1.9534714326,-1.1465853337\H
 ,18.1835363771,2.4572434718,0.9294637262\H,19.3865405399,0.3033469147,
 -0.0330099133\\Version=EM64L-G16RevA.03\State=1-A\HF=-5677.6043553\S2=
 0.\S2-1=0.\S2A=0.\RMSD=8.767e-09\RMSF=9.693e-07\Dipole=0.0073702,0.067
 7604,-0.0147337\Quadrupole=64.3290248,-28.6038196,-35.7252051,-0.18922
 49,2.3203414,-0.0361203\PG=C01 [X(C30H12N10S10)]\\@


 THE RED LIGHT IS ALWAYS LONGER THAN THE GREEN LIGHT.

                     -- PETER'S THEORY OF RELATIVITY
 Job cpu time:       1 days 16 hours 34 minutes 39.9 seconds.
 Elapsed time:       0 days  5 hours 12 minutes  1.0 seconds.
 File lengths (MBytes):  RWF=    756 Int=      0 D2E=      0 Chk=     68 Scr=      8
 Normal termination of Gaussian 16 at Fri Jul 24 19:59:20 2020.
