 Entering Gaussian System, Link 0=g16
 Input=mols_66_1_15_c-c-cOC-cOC_opt_0.gjf
 Output=mols_66_1_15_c-c-cOC-cOC_opt_0.log
 Initial command:
 /opt/ohpc/pub/libs/gaussian/g16-A.03/sandybridge/g16/l1.exe "/mnt/gpfs2_4m/scratch/rdu230/ondemand/projects/dihedral_energies/7trial/wtuning/mols_66_1_15_c-c-cOC-cOC/Gau-141982.inp" -scrdir="/mnt/gpfs2_4m/scratch/rdu230/ondemand/projects/dihedral_energies/7trial/wtuning/mols_66_1_15_c-c-cOC-cOC/"
 Entering Link 1 = /opt/ohpc/pub/libs/gaussian/g16-A.03/sandybridge/g16/l1.exe PID=    141985.
  
 Copyright (c) 1988,1990,1992,1993,1995,1998,2003,2009,2016,
            Gaussian, Inc.  All Rights Reserved.
  
 This is part of the Gaussian(R) 16 program.  It is based on
 the Gaussian(R) 09 system (copyright 2009, Gaussian, Inc.),
 the Gaussian(R) 03 system (copyright 2003, Gaussian, Inc.),
 the Gaussian(R) 98 system (copyright 1998, Gaussian, Inc.),
 the Gaussian(R) 94 system (copyright 1995, Gaussian, Inc.),
 the Gaussian 92(TM) system (copyright 1992, Gaussian, Inc.),
 the Gaussian 90(TM) system (copyright 1990, Gaussian, Inc.),
 the Gaussian 88(TM) system (copyright 1988, Gaussian, Inc.),
 the Gaussian 86(TM) system (copyright 1986, Carnegie Mellon
 University), and the Gaussian 82(TM) system (copyright 1983,
 Carnegie Mellon University). Gaussian is a federally registered
 trademark of Gaussian, Inc.
  
 This software contains proprietary and confidential information,
 including trade secrets, belonging to Gaussian, Inc.
  
 This software is provided under written license and may be
 used, copied, transmitted, or stored only in accord with that
 written license.
  
 The following legend is applicable only to US Government
 contracts under FAR:
  
                    RESTRICTED RIGHTS LEGEND
  
 Use, reproduction and disclosure by the US Government is
 subject to restrictions as set forth in subparagraphs (a)
 and (c) of the Commercial Computer Software - Restricted
 Rights clause in FAR 52.227-19.
  
 Gaussian, Inc.
 340 Quinnipiac St., Bldg. 40, Wallingford CT 06492
  
  
 ---------------------------------------------------------------
 Warning -- This program may not be used in any manner that
 competes with the business of Gaussian, Inc. or will provide
 assistance to any competitor of Gaussian, Inc.  The licensee
 of this program is prohibited from giving any competitor of
 Gaussian, Inc. access to this program.  By using this program,
 the user acknowledges that Gaussian, Inc. is engaged in the
 business of creating and licensing software in the field of
 computational chemistry and represents and warrants to the
 licensee that it is not a competitor of Gaussian, Inc. and that
 it will not use this program in any manner prohibited above.
 ---------------------------------------------------------------
  

 Cite this work as:
 Gaussian 16, Revision A.03,
 M. J. Frisch, G. W. Trucks, H. B. Schlegel, G. E. Scuseria, 
 M. A. Robb, J. R. Cheeseman, G. Scalmani, V. Barone, 
 G. A. Petersson, H. Nakatsuji, X. Li, M. Caricato, A. V. Marenich, 
 J. Bloino, B. G. Janesko, R. Gomperts, B. Mennucci, H. P. Hratchian, 
 J. V. Ortiz, A. F. Izmaylov, J. L. Sonnenberg, D. Williams-Young, 
 F. Ding, F. Lipparini, F. Egidi, J. Goings, B. Peng, A. Petrone, 
 T. Henderson, D. Ranasinghe, V. G. Zakrzewski, J. Gao, N. Rega, 
 G. Zheng, W. Liang, M. Hada, M. Ehara, K. Toyota, R. Fukuda, 
 J. Hasegawa, M. Ishida, T. Nakajima, Y. Honda, O. Kitao, H. Nakai, 
 T. Vreven, K. Throssell, J. A. Montgomery, Jr., J. E. Peralta, 
 F. Ogliaro, M. J. Bearpark, J. J. Heyd, E. N. Brothers, K. N. Kudin, 
 V. N. Staroverov, T. A. Keith, R. Kobayashi, J. Normand, 
 K. Raghavachari, A. P. Rendell, J. C. Burant, S. S. Iyengar, 
 J. Tomasi, M. Cossi, J. M. Millam, M. Klene, C. Adamo, R. Cammi, 
 J. W. Ochterski, R. L. Martin, K. Morokuma, O. Farkas, 
 J. B. Foresman, and D. J. Fox, Gaussian, Inc., Wallingford CT, 2016.
 
 ******************************************
 Gaussian 16:  EM64L-G16RevA.03 25-Dec-2016
                24-Jul-2020 
 ******************************************
 %mem=30GB
 %nproc=8
 Will use up to    8 processors via shared memory.
 ---------------------------------------------------------------
 #P uLC-wPBE/cc-pVDZ iop(3/107=0092500000, 3/108=0092500000) opt
 ---------------------------------------------------------------
 1/18=20,19=15,26=3,38=1/1,3;
 2/9=110,12=2,17=6,18=5,40=1/2;
 3/5=16,11=2,25=1,30=1,71=1,74=-41,107=92500000,108=92500000,116=2/1,2,3;
 4//1;
 5/5=2,38=5/2;
 6/7=2,8=2,9=2,10=2,28=1/1;
 7//1,2,3,16;
 1/18=20,19=15,26=3/3(2);
 2/9=110/2;
 99//99;
 2/9=110/2;
 3/5=16,11=2,25=1,30=1,71=1,74=-41,107=92500000,108=92500000,116=2/1,2,3;
 4/5=5,16=3,69=1/1;
 5/5=2,38=5/2;
 7//1,2,3,16;
 1/18=20,19=15,26=3/3(-5);
 2/9=110/2;
 6/7=2,8=2,9=2,10=2,19=2,28=1/1;
 99/9=1/99;
 Leave Link    1 at Fri Jul 24 20:32:46 2020, MaxMem=  4026531840 cpu:               1.3 elap:               0.2
 (Enter /opt/ohpc/pub/libs/gaussian/g16-A.03/sandybridge/g16/l101.exe)
 ----------
 H14 C14 O2
 ----------
 Symbolic Z-matrix:
 Charge =  0 Multiplicity = 1
 C                    -3.34027   1.11661  -0.55125 
 C                    -3.06948  -0.04579   0.10613 
 C                    -1.72013  -0.52317   0.15671 
 O                    -1.37132  -1.57818   0.83569 
 C                    -2.32763  -2.29311   1.69265 
 C                    -0.69504   0.23955  -0.44309 
 C                    -1.03564   1.44498  -1.16808 
 C                    -2.3449    1.86738  -1.27962 
 C                     0.72737  -0.21162  -0.45044 
 C                     1.0124   -1.4014   -1.23068 
 C                     2.32598  -1.87617  -1.19565 
 C                     3.37787  -1.19709  -0.54806 
 C                     3.05608   0.04866   0.10159 
 C                     1.75411   0.49976   0.14355 
 O                     1.31848   1.61644   0.803 
 C                     2.33668   2.2823    1.7004 
 H                    -4.4215    1.54131  -0.58231 
 H                    -3.88436  -0.53583   0.58302 
 H                    -3.13573  -2.72105   1.08167 
 H                    -2.6823   -1.56047   2.38893 
 H                    -1.83371  -3.06481   2.23367 
 H                    -0.27562   1.95142  -1.66167 
 H                    -2.63972   2.79926  -1.76689 
 H                     0.25649  -1.92824  -1.67577 
 H                     2.625    -2.73697  -1.75591 
 H                     4.42488  -1.52441  -0.57498 
 H                     3.87034   0.49213   0.65458 
 H                     3.11865   2.63806   1.0416 
 H                     2.68413   1.55203   2.48606 
 H                     1.76681   3.09424   2.20732 
 
 ITRead=  0  0  0  0  0  0  0  0  0  0  0  0  0  0  0  0  0  0  0  0
 ITRead=  0  0  0  0  0  0  0  0  0  0
 MicOpt= -1 -1 -1 -1 -1 -1 -1 -1 -1 -1 -1 -1 -1 -1 -1 -1 -1 -1 -1 -1
 MicOpt= -1 -1 -1 -1 -1 -1 -1 -1 -1 -1
 NAtoms=     30 NQM=       30 NQMF=       0 NMMI=      0 NMMIF=      0
                NMic=       0 NMicF=      0.
                    Isotopes and Nuclear Properties:
 (Nuclear quadrupole moments (NQMom) in fm**2, nuclear magnetic moments (NMagM)
  in nuclear magnetons)

  Atom         1           2           3           4           5           6           7           8           9          10
 IAtWgt=          12          12          12          16          12          12          12          12          12          12
 AtmWgt=  12.0000000  12.0000000  12.0000000  15.9949146  12.0000000  12.0000000  12.0000000  12.0000000  12.0000000  12.0000000
 NucSpn=           0           0           0           0           0           0           0           0           0           0
 AtZEff=  -0.0000000  -0.0000000  -0.0000000  -0.0000000  -0.0000000  -0.0000000  -0.0000000  -0.0000000  -0.0000000  -0.0000000
 NQMom=    0.0000000   0.0000000   0.0000000   0.0000000   0.0000000   0.0000000   0.0000000   0.0000000   0.0000000   0.0000000
 NMagM=    0.0000000   0.0000000   0.0000000   0.0000000   0.0000000   0.0000000   0.0000000   0.0000000   0.0000000   0.0000000
 AtZNuc=   6.0000000   6.0000000   6.0000000   8.0000000   6.0000000   6.0000000   6.0000000   6.0000000   6.0000000   6.0000000

  Atom        11          12          13          14          15          16          17          18          19          20
 IAtWgt=          12          12          12          12          16          12           1           1           1           1
 AtmWgt=  12.0000000  12.0000000  12.0000000  12.0000000  15.9949146  12.0000000   1.0078250   1.0078250   1.0078250   1.0078250
 NucSpn=           0           0           0           0           0           0           1           1           1           1
 AtZEff=  -0.0000000  -0.0000000  -0.0000000  -0.0000000  -0.0000000  -0.0000000  -0.0000000  -0.0000000  -0.0000000  -0.0000000
 NQMom=    0.0000000   0.0000000   0.0000000   0.0000000   0.0000000   0.0000000   0.0000000   0.0000000   0.0000000   0.0000000
 NMagM=    0.0000000   0.0000000   0.0000000   0.0000000   0.0000000   0.0000000   2.7928460   2.7928460   2.7928460   2.7928460
 AtZNuc=   6.0000000   6.0000000   6.0000000   6.0000000   8.0000000   6.0000000   1.0000000   1.0000000   1.0000000   1.0000000

  Atom        21          22          23          24          25          26          27          28          29          30
 IAtWgt=           1           1           1           1           1           1           1           1           1           1
 AtmWgt=   1.0078250   1.0078250   1.0078250   1.0078250   1.0078250   1.0078250   1.0078250   1.0078250   1.0078250   1.0078250
 NucSpn=           1           1           1           1           1           1           1           1           1           1
 AtZEff=  -0.0000000  -0.0000000  -0.0000000  -0.0000000  -0.0000000  -0.0000000  -0.0000000  -0.0000000  -0.0000000  -0.0000000
 NQMom=    0.0000000   0.0000000   0.0000000   0.0000000   0.0000000   0.0000000   0.0000000   0.0000000   0.0000000   0.0000000
 NMagM=    2.7928460   2.7928460   2.7928460   2.7928460   2.7928460   2.7928460   2.7928460   2.7928460   2.7928460   2.7928460
 AtZNuc=   1.0000000   1.0000000   1.0000000   1.0000000   1.0000000   1.0000000   1.0000000   1.0000000   1.0000000   1.0000000
 Leave Link  101 at Fri Jul 24 20:32:47 2020, MaxMem=  4026531840 cpu:               3.0 elap:               0.5
 (Enter /opt/ohpc/pub/libs/gaussian/g16-A.03/sandybridge/g16/l103.exe)

 GradGradGradGradGradGradGradGradGradGradGradGradGradGradGradGradGradGrad
 Berny optimization.
 Initialization pass.
                           ----------------------------
                           !    Initial Parameters    !
                           ! (Angstroms and Degrees)  !
 --------------------------                            --------------------------
 ! Name  Definition              Value          Derivative Info.                !
 --------------------------------------------------------------------------------
 ! R1    R(1,2)                  1.3626         estimate D2E/DX2                !
 ! R2    R(1,8)                  1.4439         estimate D2E/DX2                !
 ! R3    R(1,17)                 1.1621         estimate D2E/DX2                !
 ! R4    R(2,3)                  1.4322         estimate D2E/DX2                !
 ! R5    R(2,18)                 1.0638         estimate D2E/DX2                !
 ! R6    R(3,4)                  1.3022         estimate D2E/DX2                !
 ! R7    R(3,6)                  1.4115         estimate D2E/DX2                !
 ! R8    R(4,5)                  1.4697         estimate D2E/DX2                !
 ! R9    R(5,19)                 1.0998         estimate D2E/DX2                !
 ! R10   R(5,20)                 1.0711         estimate D2E/DX2                !
 ! R11   R(5,21)                 1.064          estimate D2E/DX2                !
 ! R12   R(6,7)                  1.4473         estimate D2E/DX2                !
 ! R13   R(6,9)                  1.4923         estimate D2E/DX2                !
 ! R14   R(7,8)                  1.3802         estimate D2E/DX2                !
 ! R15   R(7,22)                 1.0381         estimate D2E/DX2                !
 ! R16   R(8,23)                 1.0921         estimate D2E/DX2                !
 ! R17   R(9,10)                 1.4511         estimate D2E/DX2                !
 ! R18   R(9,14)                 1.3831         estimate D2E/DX2                !
 ! R19   R(10,11)                1.3972         estimate D2E/DX2                !
 ! R20   R(10,24)                1.0233         estimate D2E/DX2                !
 ! R21   R(11,12)                1.4096         estimate D2E/DX2                !
 ! R22   R(11,25)                1.0697         estimate D2E/DX2                !
 ! R23   R(12,13)                1.4414         estimate D2E/DX2                !
 ! R24   R(12,26)                1.0973         estimate D2E/DX2                !
 ! R25   R(13,14)                1.3785         estimate D2E/DX2                !
 ! R26   R(13,27)                1.0796         estimate D2E/DX2                !
 ! R27   R(14,15)                1.3681         estimate D2E/DX2                !
 ! R28   R(15,16)                1.5118         estimate D2E/DX2                !
 ! R29   R(16,28)                1.0826         estimate D2E/DX2                !
 ! R30   R(16,29)                1.1275         estimate D2E/DX2                !
 ! R31   R(16,30)                1.114          estimate D2E/DX2                !
 ! A1    A(2,1,8)              123.3618         estimate D2E/DX2                !
 ! A2    A(2,1,17)             120.636          estimate D2E/DX2                !
 ! A3    A(8,1,17)             115.9692         estimate D2E/DX2                !
 ! A4    A(1,2,3)              119.2501         estimate D2E/DX2                !
 ! A5    A(1,2,18)             117.1958         estimate D2E/DX2                !
 ! A6    A(3,2,18)             123.5279         estimate D2E/DX2                !
 ! A7    A(2,3,4)              122.74           estimate D2E/DX2                !
 ! A8    A(2,3,6)              119.2826         estimate D2E/DX2                !
 ! A9    A(4,3,6)              117.6985         estimate D2E/DX2                !
 ! A10   A(3,4,5)              121.5898         estimate D2E/DX2                !
 ! A11   A(4,5,19)             110.088          estimate D2E/DX2                !
 ! A12   A(4,5,20)             105.1744         estimate D2E/DX2                !
 ! A13   A(4,5,21)             110.3178         estimate D2E/DX2                !
 ! A14   A(19,5,20)            112.581          estimate D2E/DX2                !
 ! A15   A(19,5,21)            109.959          estimate D2E/DX2                !
 ! A16   A(20,5,21)            108.6175         estimate D2E/DX2                !
 ! A17   A(3,6,7)              119.4726         estimate D2E/DX2                !
 ! A18   A(3,6,9)              122.071          estimate D2E/DX2                !
 ! A19   A(7,6,9)              118.2726         estimate D2E/DX2                !
 ! A20   A(6,7,8)              121.2387         estimate D2E/DX2                !
 ! A21   A(6,7,22)             118.1761         estimate D2E/DX2                !
 ! A22   A(8,7,22)             120.447          estimate D2E/DX2                !
 ! A23   A(1,8,7)              117.002          estimate D2E/DX2                !
 ! A24   A(1,8,23)             118.8569         estimate D2E/DX2                !
 ! A25   A(7,8,23)             123.5906         estimate D2E/DX2                !
 ! A26   A(6,9,10)             115.9622         estimate D2E/DX2                !
 ! A27   A(6,9,14)             123.3642         estimate D2E/DX2                !
 ! A28   A(10,9,14)            120.4519         estimate D2E/DX2                !
 ! A29   A(9,10,11)            116.7316         estimate D2E/DX2                !
 ! A30   A(9,10,24)            120.726          estimate D2E/DX2                !
 ! A31   A(11,10,24)           122.0374         estimate D2E/DX2                !
 ! A32   A(10,11,12)           123.3252         estimate D2E/DX2                !
 ! A33   A(10,11,25)           121.5414         estimate D2E/DX2                !
 ! A34   A(12,11,25)           114.8152         estimate D2E/DX2                !
 ! A35   A(11,12,13)           117.1837         estimate D2E/DX2                !
 ! A36   A(11,12,26)           123.8516         estimate D2E/DX2                !
 ! A37   A(13,12,26)           118.8091         estimate D2E/DX2                !
 ! A38   A(12,13,14)           120.4904         estimate D2E/DX2                !
 ! A39   A(12,13,27)           114.6784         estimate D2E/DX2                !
 ! A40   A(14,13,27)           124.2176         estimate D2E/DX2                !
 ! A41   A(9,14,13)            121.3134         estimate D2E/DX2                !
 ! A42   A(9,14,15)            112.9824         estimate D2E/DX2                !
 ! A43   A(13,14,15)           125.6269         estimate D2E/DX2                !
 ! A44   A(14,15,16)           115.5432         estimate D2E/DX2                !
 ! A45   A(15,16,28)           105.6639         estimate D2E/DX2                !
 ! A46   A(15,16,29)           109.6275         estimate D2E/DX2                !
 ! A47   A(15,16,30)           104.2768         estimate D2E/DX2                !
 ! A48   A(28,16,29)           114.4744         estimate D2E/DX2                !
 ! A49   A(28,16,30)           114.0101         estimate D2E/DX2                !
 ! A50   A(29,16,30)           108.2173         estimate D2E/DX2                !
 ! D1    D(8,1,2,3)              3.8748         estimate D2E/DX2                !
 ! D2    D(8,1,2,18)          -177.9238         estimate D2E/DX2                !
 ! D3    D(17,1,2,3)          -178.3015         estimate D2E/DX2                !
 ! D4    D(17,1,2,18)           -0.1            estimate D2E/DX2                !
 ! D5    D(2,1,8,7)             -7.2304         estimate D2E/DX2                !
 ! D6    D(2,1,8,23)          -179.0301         estimate D2E/DX2                !
 ! D7    D(17,1,8,7)           174.8524         estimate D2E/DX2                !
 ! D8    D(17,1,8,23)            3.0527         estimate D2E/DX2                !
 ! D9    D(1,2,3,4)            175.5478         estimate D2E/DX2                !
 ! D10   D(1,2,3,6)              1.7574         estimate D2E/DX2                !
 ! D11   D(18,2,3,4)            -2.5331         estimate D2E/DX2                !
 ! D12   D(18,2,3,6)          -176.3235         estimate D2E/DX2                !
 ! D13   D(2,3,4,5)             -5.1399         estimate D2E/DX2                !
 ! D14   D(6,3,4,5)            168.7433         estimate D2E/DX2                !
 ! D15   D(2,3,6,7)             -3.7989         estimate D2E/DX2                !
 ! D16   D(2,3,6,9)           -178.7847         estimate D2E/DX2                !
 ! D17   D(4,3,6,7)           -177.9009         estimate D2E/DX2                !
 ! D18   D(4,3,6,9)              7.1133         estimate D2E/DX2                !
 ! D19   D(3,4,5,19)            63.9635         estimate D2E/DX2                !
 ! D20   D(3,4,5,20)           -57.558          estimate D2E/DX2                !
 ! D21   D(3,4,5,21)          -174.504          estimate D2E/DX2                !
 ! D22   D(3,6,7,8)              0.2939         estimate D2E/DX2                !
 ! D23   D(3,6,7,22)          -175.4517         estimate D2E/DX2                !
 ! D24   D(9,6,7,8)            175.4699         estimate D2E/DX2                !
 ! D25   D(9,6,7,22)            -0.2758         estimate D2E/DX2                !
 ! D26   D(3,6,9,10)            66.4537         estimate D2E/DX2                !
 ! D27   D(3,6,9,14)          -118.946          estimate D2E/DX2                !
 ! D28   D(7,6,9,10)          -108.5898         estimate D2E/DX2                !
 ! D29   D(7,6,9,14)            66.0105         estimate D2E/DX2                !
 ! D30   D(6,7,8,1)              4.9509         estimate D2E/DX2                !
 ! D31   D(6,7,8,23)           176.326          estimate D2E/DX2                !
 ! D32   D(22,7,8,1)          -179.3994         estimate D2E/DX2                !
 ! D33   D(22,7,8,23)           -8.0243         estimate D2E/DX2                !
 ! D34   D(6,9,10,11)         -176.9383         estimate D2E/DX2                !
 ! D35   D(6,9,10,24)           -4.9265         estimate D2E/DX2                !
 ! D36   D(14,9,10,11)           8.2927         estimate D2E/DX2                !
 ! D37   D(14,9,10,24)        -179.6955         estimate D2E/DX2                !
 ! D38   D(6,9,14,13)         -179.4506         estimate D2E/DX2                !
 ! D39   D(6,9,14,15)            3.5741         estimate D2E/DX2                !
 ! D40   D(10,9,14,13)          -5.083          estimate D2E/DX2                !
 ! D41   D(10,9,14,15)         177.9418         estimate D2E/DX2                !
 ! D42   D(9,10,11,12)          -5.6997         estimate D2E/DX2                !
 ! D43   D(9,10,11,25)        -178.8827         estimate D2E/DX2                !
 ! D44   D(24,10,11,12)       -177.5984         estimate D2E/DX2                !
 ! D45   D(24,10,11,25)          9.2186         estimate D2E/DX2                !
 ! D46   D(10,11,12,13)         -0.0886         estimate D2E/DX2                !
 ! D47   D(10,11,12,26)       -175.4914         estimate D2E/DX2                !
 ! D48   D(25,11,12,13)        173.5123         estimate D2E/DX2                !
 ! D49   D(25,11,12,26)         -1.8906         estimate D2E/DX2                !
 ! D50   D(11,12,13,14)          3.6807         estimate D2E/DX2                !
 ! D51   D(11,12,13,27)        175.0711         estimate D2E/DX2                !
 ! D52   D(26,12,13,14)        179.324          estimate D2E/DX2                !
 ! D53   D(26,12,13,27)         -9.2856         estimate D2E/DX2                !
 ! D54   D(12,13,14,9)          -1.0715         estimate D2E/DX2                !
 ! D55   D(12,13,14,15)        175.5021         estimate D2E/DX2                !
 ! D56   D(27,13,14,9)        -171.6032         estimate D2E/DX2                !
 ! D57   D(27,13,14,15)          4.9705         estimate D2E/DX2                !
 ! D58   D(9,14,15,16)         168.1941         estimate D2E/DX2                !
 ! D59   D(13,14,15,16)         -8.6265         estimate D2E/DX2                !
 ! D60   D(14,15,16,28)         64.6819         estimate D2E/DX2                !
 ! D61   D(14,15,16,29)        -59.1535         estimate D2E/DX2                !
 ! D62   D(14,15,16,30)       -174.8264         estimate D2E/DX2                !
 --------------------------------------------------------------------------------
 Trust Radius=3.00D-01 FncErr=1.00D-07 GrdErr=1.00D-06 EigMax=2.50D+02 EigMin=1.00D-04
 Number of steps in this run=    153 maximum allowed number of steps=    180.
 GradGradGradGradGradGradGradGradGradGradGradGradGradGradGradGradGradGrad

 Leave Link  103 at Fri Jul 24 20:32:47 2020, MaxMem=  4026531840 cpu:               0.2 elap:               0.1
 (Enter /opt/ohpc/pub/libs/gaussian/g16-A.03/sandybridge/g16/l202.exe)
                          Input orientation:                          
 ---------------------------------------------------------------------
 Center     Atomic      Atomic             Coordinates (Angstroms)
 Number     Number       Type             X           Y           Z
 ---------------------------------------------------------------------
      1          6           0       -3.340271    1.116609   -0.551248
      2          6           0       -3.069479   -0.045793    0.106128
      3          6           0       -1.720132   -0.523168    0.156706
      4          8           0       -1.371319   -1.578182    0.835685
      5          6           0       -2.327630   -2.293106    1.692654
      6          6           0       -0.695040    0.239547   -0.443093
      7          6           0       -1.035643    1.444984   -1.168084
      8          6           0       -2.344898    1.867379   -1.279616
      9          6           0        0.727368   -0.211624   -0.450438
     10          6           0        1.012397   -1.401400   -1.230677
     11          6           0        2.325984   -1.876173   -1.195651
     12          6           0        3.377874   -1.197089   -0.548063
     13          6           0        3.056084    0.048661    0.101594
     14          6           0        1.754107    0.499762    0.143548
     15          8           0        1.318482    1.616438    0.803003
     16          6           0        2.336684    2.282301    1.700396
     17          1           0       -4.421504    1.541311   -0.582310
     18          1           0       -3.884361   -0.535834    0.583017
     19          1           0       -3.135726   -2.721053    1.081670
     20          1           0       -2.682299   -1.560466    2.388929
     21          1           0       -1.833713   -3.064806    2.233669
     22          1           0       -0.275624    1.951421   -1.661674
     23          1           0       -2.639720    2.799256   -1.766886
     24          1           0        0.256489   -1.928236   -1.675771
     25          1           0        2.624996   -2.736965   -1.755907
     26          1           0        4.424885   -1.524414   -0.574981
     27          1           0        3.870341    0.492134    0.654575
     28          1           0        3.118648    2.638062    1.041599
     29          1           0        2.684131    1.552031    2.486056
     30          1           0        1.766808    3.094244    2.207325
 ---------------------------------------------------------------------
                    Distance matrix (angstroms):
                    1          2          3          4          5
     1  C    0.000000
     2  C    1.362589   0.000000
     3  C    2.411414   1.432195   0.000000
     4  O    3.614174   2.400878   1.302205   0.000000
     5  C    4.205555   2.849179   2.420924   1.469708   0.000000
     6  C    2.788939   2.453777   1.411491   2.323094   3.693386
     7  C    2.408241   2.825336   2.469254   3.642431   4.881226
     8  C    1.443933   2.470937   2.857983   4.158635   5.113152
     9  C    4.280193   3.841004   2.540854   2.815330   4.272988
    10  C    5.074220   4.504046   3.187921   3.159621   4.527337
    11  C    6.440376   5.844308   4.475550   4.229087   5.492928
    12  C    7.105398   6.581930   5.190427   4.961333   6.226945
    13  C    6.517674   6.126293   4.810641   4.773616   6.082740
    14  C    5.178410   4.854484   3.621725   3.816437   5.182704
    15  O    4.877274   4.743717   3.772107   4.176325   5.419423
    16  C    6.217440   6.098222   5.168306   5.422208   6.533776
    17  H    1.162068   2.195636   3.479314   4.587546   4.925700
    18  H    2.076815   1.063765   2.205853   2.732345   2.596673
    19  H    4.175633   2.848348   2.773114   2.116553   1.099754
    20  H    4.030422   2.766825   2.642834   2.032621   1.071144
    21  H    5.244970   3.894610   3.284296   2.092419   1.064036
    22  H    3.364821   3.862592   3.393626   4.460431   5.786040
    23  H    2.190856   3.433246   3.947702   5.248255   6.164249
    24  H    4.844824   4.216731   3.039608   3.013255   4.261113
    25  H    7.203169   6.567848   5.238237   4.902006   6.051288
    26  H    8.202025   7.669141   6.268899   5.965639   7.164462
    27  H    7.337364   6.982210   5.703692   5.638618   6.873865
    28  H    6.824193   6.809633   5.847239   6.162704   7.375787
    29  H    6.760786   6.428151   5.397208   5.382252   6.366499
    30  H    6.132130   6.137144   5.426736   5.793169   6.786225
                    6          7          8          9         10
     6  C    0.000000
     7  C    1.447308   0.000000
     8  C    2.464070   1.380219   0.000000
     9  C    1.492265   2.523405   3.801132   0.000000
    10  C    2.495664   3.507177   4.686015   1.451062   0.000000
    11  C    3.764200   4.725609   5.986516   2.425209   1.397193
    12  C    4.320135   5.181130   6.532706   2.829462   2.470463
    13  C    3.795267   4.505999   5.863965   2.407365   2.838006
    14  C    2.531833   3.224365   4.549463   1.383142   2.460294
    15  O    2.739134   3.075140   4.221448   2.293979   3.651971
    16  C    4.237775   4.505759   5.565055   3.665467   4.890253
    17  H    3.949747   3.437509   2.214689   5.440685   6.213470
    18  H    3.438879   3.886539   3.408046   4.737213   5.293102
    19  H    4.128802   5.179537   5.220612   4.854697   4.929032
    20  H    3.899948   4.939286   5.032115   4.637587   5.174710
    21  H    4.402315   5.705002   6.077082   4.680194   4.782150
    22  H    2.142746   1.038142   2.105926   2.674294   3.617481
    23  H    3.476538   2.183044   1.092129   4.704861   5.592047
    24  H    2.669117   3.647734   4.618533   2.161001   1.023260
    25  H    4.648198   5.588784   6.791663   3.417980   2.158721
    26  H    5.416880   6.243914   7.604652   3.925629   3.477088
    27  H    4.702274   5.319651   6.652938   3.405086   3.912479
    28  H    4.743564   4.854304   5.986011   4.008130   5.090853
    29  H    4.660614   5.215450   6.290538   3.944920   5.033046
    30  H    4.608113   4.686915   5.529022   4.367253   5.709624
                   11         12         13         14         15
    11  C    0.000000
    12  C    1.409609   0.000000
    13  C    2.433285   1.441352   0.000000
    14  C    2.786676   2.448315   1.378549   0.000000
    15  O    4.148254   3.739306   2.443186   1.368070   0.000000
    16  C    5.067555   4.271510   2.839516   2.437338   1.511762
    17  H    7.588411   8.266215   7.655720   6.304749   5.905267
    18  H    6.597617   7.379475   6.981632   5.749601   5.634735
    19  H    5.977482   6.885164   6.853494   5.929940   6.223460
    20  H    6.166991   6.744158   6.383591   5.382190   5.349218
    21  H    5.520522   6.195727   6.176531   5.472404   5.822129
    22  H    4.651453   4.949878   4.222545   3.079927   2.954322
    23  H    6.844280   7.325827   6.595390   5.314428   4.865260
    24  H    2.125097   3.398433   3.860684   3.383483   4.453859
    25  H    1.069700   2.096886   3.375775   3.852633   5.216044
    26  H    2.216834   1.097314   2.192244   3.427335   4.627476
    27  H    3.378943   2.131276   1.079570   2.177074   2.792503
    28  H    5.100188   4.159640   2.755453   2.690872   2.083565
    29  H    5.043394   4.152688   2.843260   2.731219   2.168366
    30  H    6.049625   5.348199   3.920703   3.315218   2.087349
                   16         17         18         19         20
    16  C    0.000000
    17  H    7.171675   0.000000
    18  H    6.920392   2.441524   0.000000
    19  H    7.440675   4.752873   2.363111   0.000000
    20  H    6.358547   4.634017   2.399196   1.805958   0.000000
    21  H    6.802069   5.986878   3.650412   1.772147   1.734140
    22  H    4.270498   4.303666   4.924232   6.126837   5.876463
    23  H    6.087190   2.482015   4.265443   6.231702   6.023270
    24  H    5.783972   5.925963   4.918083   4.442878   5.029266
    25  H    6.100999   8.326712   7.258600   6.421683   6.836022
    26  H    4.901939   9.362549   8.447592   7.831939   7.700528
    27  H    2.578865   8.448985   7.822867   7.719583   7.082248
    28  H    1.082611   7.790625   7.702340   8.236438   7.286558
    29  H    1.127508   7.739834   7.150233   7.355425   6.204486
    30  H    1.113996   6.963395   6.910250   7.688928   6.441573
                   21         22         23         24         25
    21  H    0.000000
    22  H    6.539409   0.000000
    23  H    7.144320   2.513731   0.000000
    24  H    4.576511   3.916003   5.544863   0.000000
    25  H    5.992018   5.513931   7.639836   2.504055   0.000000
    26  H    7.030745   5.946185   8.367999   4.330166   2.470722
    27  H    6.905186   4.968255   7.318960   4.934433   4.217628
    28  H    7.646543   4.393204   6.408773   6.035489   6.079527
    29  H    6.464503   5.111098   6.927227   5.943611   6.032680
    30  H    7.134307   4.521806   5.941284   6.525703   7.102584
                   26         27         28         29         30
    26  H    0.000000
    27  H    2.426065   0.000000
    28  H    4.652504   2.306477   0.000000
    29  H    4.675969   2.425860   1.858689   0.000000
    30  H    6.011539   3.688748   1.842414   1.815928   0.000000
 Stoichiometry    C14H14O2
 Framework group  C1[X(C14H14O2)]
 Deg. of freedom    84
 Full point group                 C1      NOp   1
 Largest Abelian subgroup         C1      NOp   1
 Largest concise Abelian subgroup C1      NOp   1
                         Standard orientation:                         
 ---------------------------------------------------------------------
 Center     Atomic      Atomic             Coordinates (Angstroms)
 Number     Number       Type             X           Y           Z
 ---------------------------------------------------------------------
      1          6           0        3.327814   -1.153686   -0.538839
      2          6           0        3.067863    0.016114    0.109730
      3          6           0        1.723280    0.507247    0.155201
      4          8           0        1.384219    1.570601    0.826060
      5          6           0        2.346627    2.282204    1.678958
      6          6           0        0.691326   -0.249584   -0.440269
      7          6           0        1.020732   -1.463604   -1.156054
      8          6           0        2.325842   -1.899806   -1.262926
      9          6           0       -0.726509    0.215651   -0.452618
     10          6           0       -0.998790    1.402484   -1.241841
     11          6           0       -2.307623    1.890545   -1.211860
     12          6           0       -3.366958    1.226700   -0.560618
     13          6           0       -3.058327   -0.017420    0.098478
     14          6           0       -1.760956   -0.481135    0.145289
     15          8           0       -1.337222   -1.597252    0.813381
     16          6           0       -2.363023   -2.246391    1.714366
     17          1           0        4.404798   -1.589340   -0.565502
     18          1           0        3.887042    0.501487    0.584024
     19          1           0        3.159638    2.697624    1.065852
     20          1           0        2.693191    1.551168    2.380975
     21          1           0        1.859805    3.062704    2.213743
     22          1           0        0.256270   -1.966039   -1.646863
     23          1           0        2.611924   -2.838098   -1.743043
     24          1           0       -0.237167    1.918514   -1.689844
     25          1           0       -2.597411    2.750162   -1.778728
     26          1           0       -4.410626    1.564221   -0.591184
     27          1           0       -3.877588   -0.448726    0.653688
     28          1           0       -3.147742   -2.599148    1.057231
     29          1           0       -2.704073   -1.506992    2.494268
     30          1           0       -1.801837   -3.060246    2.227880
 ---------------------------------------------------------------------
 Rotational constants (GHZ):           0.7673904           0.4005215           0.3378035
 Leave Link  202 at Fri Jul 24 20:32:47 2020, MaxMem=  4026531840 cpu:               0.3 elap:               0.1
 (Enter /opt/ohpc/pub/libs/gaussian/g16-A.03/sandybridge/g16/l301.exe)
 Standard basis: CC-pVDZ (5D, 7F)
 Ernie: Thresh=  0.10000D-02 Tol=  0.10000D-05 Strict=F.
 Ernie:  32 primitive shells out of 422 were deleted.
 There are   310 symmetry adapted cartesian basis functions of A   symmetry.
 There are   294 symmetry adapted basis functions of A   symmetry.
   294 basis functions,   626 primitive gaussians,   310 cartesian basis functions
    57 alpha electrons       57 beta electrons
       nuclear repulsion energy      1049.7378482205 Hartrees.
 IExCor=32609 DFT=T Ex+Corr=LC-wPBE ExCW=0 ScaHFX=  1.000000
 ScaDFX=  1.000000  0.000000  1.000000  1.000000 ScalE2=  1.000000  1.000000
 IRadAn=      5 IRanWt=     -1 IRanGd=            0 ICorTp=0 IEmpDi=  4
 HFx  wShort=  0.000000 wLong=  0.092500 cFull=  0.000000 cShort=  0.000000 cLong=  1.000000
 DFx  wShort=  0.000000 wLong=  0.092500 cFull=  0.000000 cShort=  0.000000 cLong=  1.000000
 NAtoms=   30 NActive=   30 NUniq=   30 SFac= 1.00D+00 NAtFMM=   60 NAOKFM=F Big=F
 Integral buffers will be    131072 words long.
 Raffenetti 2 integral format.
 Two-electron integral symmetry is turned on.
 Leave Link  301 at Fri Jul 24 20:32:47 2020, MaxMem=  4026531840 cpu:               0.5 elap:               0.1
 (Enter /opt/ohpc/pub/libs/gaussian/g16-A.03/sandybridge/g16/l302.exe)
 NPDir=0 NMtPBC=     1 NCelOv=     1 NCel=       1 NClECP=     1 NCelD=      1
         NCelK=      1 NCelE2=     1 NClLst=     1 CellRange=     0.0.
 One-electron integrals computed using PRISM.
 One-electron integral symmetry used in STVInt
 NBasis=   294 RedAO= T EigKep=  3.54D-04  NBF=   294
 NBsUse=   294 1.00D-06 EigRej= -1.00D+00 NBFU=   294
 Precomputing XC quadrature grid using
 IXCGrd= 4 IRadAn=           5 IRanWt=          -1 IRanGd=           0 AccXCQ= 0.00D+00.
 Generated NRdTot=       0 NPtTot=           0 NUsed=           0 NTot=          32
 NSgBfM=   309   309   309   309   309 MxSgAt=    30 MxSgA2=    30.
 Leave Link  302 at Fri Jul 24 20:32:47 2020, MaxMem=  4026531840 cpu:               3.4 elap:               0.5
 (Enter /opt/ohpc/pub/libs/gaussian/g16-A.03/sandybridge/g16/l303.exe)
 DipDrv:  MaxL=1.
 Leave Link  303 at Fri Jul 24 20:32:48 2020, MaxMem=  4026531840 cpu:               0.4 elap:               0.1
 (Enter /opt/ohpc/pub/libs/gaussian/g16-A.03/sandybridge/g16/l401.exe)
 ExpMin= 1.22D-01 ExpMax= 1.17D+04 ExpMxC= 4.01D+02 IAcc=3 IRadAn=         5 AccDes= 0.00D+00
 Harris functional with IExCor=32609 and IRadAn=       5 diagonalized for initial guess.
 HarFok:  IExCor=32609 AccDes= 0.00D+00 IRadAn=         5 IDoV= 1 UseB2=F ITyADJ=14
 ICtDFT=  3500011 ScaDFX=  1.000000  1.000000  1.000000  1.000000
 FoFCou: FMM=F IPFlag=           0 FMFlag=      100000 FMFlg1=           0
         NFxFlg=           0 DoJE=T BraDBF=F KetDBF=T FulRan=T
         wScrn=  0.000000 ICntrl=       500 IOpCl=  0 I1Cent=   200000004 NGrid=           0
         NMat0=    1 NMatS0=      1 NMatT0=    0 NMatD0=    1 NMtDS0=    0 NMtDT0=    0
 Petite list used in FoFCou.
 Harris En= -691.799406078024    
 JPrj=0 DoOrth=F DoCkMO=F.
 Initial guess <Sx>= 0.0000 <Sy>= 0.0000 <Sz>= 0.0000 <S**2>= 0.0000 S= 0.0000
 Leave Link  401 at Fri Jul 24 20:32:50 2020, MaxMem=  4026531840 cpu:              18.7 elap:               2.4
 (Enter /opt/ohpc/pub/libs/gaussian/g16-A.03/sandybridge/g16/l502.exe)
 Integral symmetry usage will be decided dynamically.
 UHF open shell SCF:
 Using DIIS extrapolation, IDIIS=  1040.
 NGot=  4026531840 LenX=  4026333766 LenY=  4026237225
 Requested convergence on RMS density matrix=1.00D-08 within 128 cycles.
 Requested convergence on MAX density matrix=1.00D-06.
 Requested convergence on             energy=1.00D-06.
 No special actions if energy rises.
 Fock matrices will be formed incrementally for  20 cycles.
 Integral accuracy reduced to 1.0D-05 until final iterations.

 Cycle   1  Pass 0  IDiag  1:
 FoFJK:  IHMeth= 1 ICntrl=       0 DoSepK=T KAlg= 0 I1Cent=           0 FoldK=F
 IRaf=         1 NMat=       1 IRICut=       1 DoRegI=T DoRafI=F ISym2E= 0 IDoP0=0 IntGTp=1.
 FoFCou: FMM=F IPFlag=           0 FMFlag=      100000 FMFlg1=           0
         NFxFlg=           0 DoJE=T BraDBF=F KetDBF=F FulRan=T
         wScrn=  0.000000 ICntrl=       500 IOpCl=  0 I1Cent=           0 NGrid=           0
         NMat0=    1 NMatS0=      1 NMatT0=    0 NMatD0=    1 NMtDS0=    0 NMtDT0=    0
 Symmetry not used in FoFCou.
 E= -691.353104717765    
 DIIS: error= 2.00D-02 at cycle   1 NSaved=   1.
 NSaved= 1 IEnMin= 1 EnMin= -691.353104717765     IErMin= 1 ErrMin= 2.00D-02
 ErrMax= 2.00D-02  0.00D+00 EMaxC= 1.00D-01 BMatC= 8.53D-01 BMatP= 8.53D-01
 IDIUse=3 WtCom= 8.00D-01 WtEn= 2.00D-01
 Coeff-Com:  0.100D+01
 Coeff-En:   0.100D+01
 Coeff:      0.100D+01
 Gap=     0.242 Goal=   None    Shift=    0.000
 Gap=     0.242 Goal=   None    Shift=    0.000
 GapD=    0.242 DampG=1.000 DampE=0.500 DampFc=0.5000 IDamp=-1.
 Damping current iteration by 5.00D-01
 RMSDP=3.77D-03 MaxDP=8.74D-02              OVMax= 1.56D-01

 Cycle   2  Pass 0  IDiag  1:
 RMSU=  1.86D-03    CP:  9.85D-01
 E= -691.478163758126     Delta-E=       -0.125059040361 Rises=F Damp=T
 DIIS: error= 3.44D-03 at cycle   2 NSaved=   2.
 NSaved= 2 IEnMin= 2 EnMin= -691.478163758126     IErMin= 2 ErrMin= 3.44D-03
 ErrMax= 3.44D-03  0.00D+00 EMaxC= 1.00D-01 BMatC= 3.56D-02 BMatP= 8.53D-01
 IDIUse=3 WtCom= 9.66D-01 WtEn= 3.44D-02
 Coeff-Com:  0.186D-01 0.981D+00
 Coeff-En:   0.000D+00 0.100D+01
 Coeff:      0.179D-01 0.982D+00
 Gap=     0.232 Goal=   None    Shift=    0.000
 Gap=     0.232 Goal=   None    Shift=    0.000
 RMSDP=8.73D-04 MaxDP=2.41D-02 DE=-1.25D-01 OVMax= 1.09D-01

 Cycle   3  Pass 0  IDiag  1:
 RMSU=  8.46D-04    CP:  9.82D-01  1.11D+00
 E= -691.605862279159     Delta-E=       -0.127698521033 Rises=F Damp=F
 DIIS: error= 4.12D-03 at cycle   3 NSaved=   3.
 NSaved= 3 IEnMin= 3 EnMin= -691.605862279159     IErMin= 2 ErrMin= 3.44D-03
 ErrMax= 4.12D-03  0.00D+00 EMaxC= 1.00D-01 BMatC= 2.94D-02 BMatP= 3.56D-02
 IDIUse=3 WtCom= 9.59D-01 WtEn= 4.12D-02
 Coeff-Com: -0.175D-01 0.480D+00 0.537D+00
 Coeff-En:   0.000D+00 0.000D+00 0.100D+01
 Coeff:     -0.167D-01 0.460D+00 0.556D+00
 Gap=     0.228 Goal=   None    Shift=    0.000
 Gap=     0.228 Goal=   None    Shift=    0.000
 RMSDP=4.50D-04 MaxDP=1.68D-02 DE=-1.28D-01 OVMax= 4.14D-02

 Cycle   4  Pass 0  IDiag  1:
 RMSU=  2.94D-04    CP:  9.83D-01  1.11D+00  5.99D-01
 E= -691.611462152384     Delta-E=       -0.005599873225 Rises=F Damp=F
 DIIS: error= 1.63D-03 at cycle   4 NSaved=   4.
 NSaved= 4 IEnMin= 4 EnMin= -691.611462152384     IErMin= 4 ErrMin= 1.63D-03
 ErrMax= 1.63D-03  0.00D+00 EMaxC= 1.00D-01 BMatC= 7.51D-03 BMatP= 2.94D-02
 IDIUse=3 WtCom= 9.84D-01 WtEn= 1.63D-02
 Coeff-Com: -0.855D-02 0.145D+00 0.349D+00 0.515D+00
 Coeff-En:   0.000D+00 0.000D+00 0.230D+00 0.770D+00
 Coeff:     -0.841D-02 0.142D+00 0.347D+00 0.519D+00
 Gap=     0.225 Goal=   None    Shift=    0.000
 Gap=     0.225 Goal=   None    Shift=    0.000
 RMSDP=1.82D-04 MaxDP=5.11D-03 DE=-5.60D-03 OVMax= 1.48D-02

 Cycle   5  Pass 0  IDiag  1:
 RMSU=  6.59D-05    CP:  9.83D-01  1.12D+00  7.11D-01  5.29D-01
 E= -691.613355944165     Delta-E=       -0.001893791781 Rises=F Damp=F
 DIIS: error= 3.25D-04 at cycle   5 NSaved=   5.
 NSaved= 5 IEnMin= 5 EnMin= -691.613355944165     IErMin= 5 ErrMin= 3.25D-04
 ErrMax= 3.25D-04  0.00D+00 EMaxC= 1.00D-01 BMatC= 3.42D-04 BMatP= 7.51D-03
 IDIUse=3 WtCom= 9.97D-01 WtEn= 3.25D-03
 Coeff-Com: -0.173D-02 0.383D-01 0.135D+00 0.263D+00 0.566D+00
 Coeff-En:   0.000D+00 0.000D+00 0.000D+00 0.000D+00 0.100D+01
 Coeff:     -0.173D-02 0.382D-01 0.134D+00 0.262D+00 0.567D+00
 Gap=     0.225 Goal=   None    Shift=    0.000
 Gap=     0.225 Goal=   None    Shift=    0.000
 RMSDP=3.84D-05 MaxDP=1.40D-03 DE=-1.89D-03 OVMax= 3.04D-03

 Cycle   6  Pass 0  IDiag  1:
 RMSU=  2.92D-05    CP:  9.83D-01  1.12D+00  7.10D-01  5.68D-01  6.73D-01
 E= -691.613418999263     Delta-E=       -0.000063055098 Rises=F Damp=F
 DIIS: error= 1.79D-04 at cycle   6 NSaved=   6.
 NSaved= 6 IEnMin= 6 EnMin= -691.613418999263     IErMin= 6 ErrMin= 1.79D-04
 ErrMax= 1.79D-04  0.00D+00 EMaxC= 1.00D-01 BMatC= 6.91D-05 BMatP= 3.42D-04
 IDIUse=3 WtCom= 9.98D-01 WtEn= 1.79D-03
 Coeff-Com:  0.543D-03 0.229D-02 0.327D-01 0.883D-01 0.345D+00 0.531D+00
 Coeff-En:   0.000D+00 0.000D+00 0.000D+00 0.000D+00 0.175D+00 0.825D+00
 Coeff:      0.542D-03 0.228D-02 0.326D-01 0.881D-01 0.345D+00 0.532D+00
 Gap=     0.225 Goal=   None    Shift=    0.000
 Gap=     0.225 Goal=   None    Shift=    0.000
 RMSDP=1.60D-05 MaxDP=4.94D-04 DE=-6.31D-05 OVMax= 1.48D-03

 Cycle   7  Pass 0  IDiag  1:
 RMSU=  8.52D-06    CP:  9.83D-01  1.12D+00  7.11D-01  5.73D-01  7.78D-01
                    CP:  6.12D-01
 E= -691.613435830106     Delta-E=       -0.000016830843 Rises=F Damp=F
 DIIS: error= 6.75D-05 at cycle   7 NSaved=   7.
 NSaved= 7 IEnMin= 7 EnMin= -691.613435830106     IErMin= 7 ErrMin= 6.75D-05
 ErrMax= 6.75D-05  0.00D+00 EMaxC= 1.00D-01 BMatC= 4.39D-06 BMatP= 6.91D-05
 IDIUse=1 WtCom= 1.00D+00 WtEn= 0.00D+00
 Coeff-Com:  0.535D-03-0.112D-02 0.101D-01 0.325D-01 0.155D+00 0.300D+00
 Coeff-Com:  0.502D+00
 Coeff:      0.535D-03-0.112D-02 0.101D-01 0.325D-01 0.155D+00 0.300D+00
 Coeff:      0.502D+00
 Gap=     0.225 Goal=   None    Shift=    0.000
 Gap=     0.225 Goal=   None    Shift=    0.000
 RMSDP=4.58D-06 MaxDP=1.38D-04 DE=-1.68D-05 OVMax= 3.45D-04

 Initial convergence to 1.0D-05 achieved.  Increase integral accuracy.
 Cycle   8  Pass 1  IDiag  1:
 E= -691.613239708108     Delta-E=        0.000196121998 Rises=F Damp=F
 DIIS: error= 9.37D-05 at cycle   1 NSaved=   1.
 NSaved= 1 IEnMin= 1 EnMin= -691.613239708108     IErMin= 1 ErrMin= 9.37D-05
 ErrMax= 9.37D-05  0.00D+00 EMaxC= 1.00D-01 BMatC= 5.63D-06 BMatP= 5.63D-06
 IDIUse=1 WtCom= 1.00D+00 WtEn= 0.00D+00
 Coeff-Com:  0.100D+01
 Coeff:      0.100D+01
 Gap=     0.225 Goal=   None    Shift=    0.000
 Gap=     0.225 Goal=   None    Shift=    0.000
 RMSDP=4.58D-06 MaxDP=1.38D-04 DE= 1.96D-04 OVMax= 2.40D-04

 Cycle   9  Pass 1  IDiag  1:
 RMSU=  6.99D-05    CP:  1.00D+00
 E= -691.613240554663     Delta-E=       -0.000000846555 Rises=F Damp=F
 DIIS: error= 2.37D-05 at cycle   2 NSaved=   2.
 NSaved= 2 IEnMin= 2 EnMin= -691.613240554663     IErMin= 2 ErrMin= 2.37D-05
 ErrMax= 2.37D-05  0.00D+00 EMaxC= 1.00D-01 BMatC= 1.12D-06 BMatP= 5.63D-06
 IDIUse=1 WtCom= 1.00D+00 WtEn= 0.00D+00
 Coeff-Com:  0.206D+00 0.794D+00
 Coeff:      0.206D+00 0.794D+00
 Gap=     0.225 Goal=   None    Shift=    0.000
 Gap=     0.225 Goal=   None    Shift=    0.000
 RMSDP=4.98D-06 MaxDP=1.04D-04 DE=-8.47D-07 OVMax= 3.43D-04

 Cycle  10  Pass 1  IDiag  1:
 RMSU=  4.32D-06    CP:  1.00D+00  1.04D+00
 E= -691.613240349939     Delta-E=        0.000000204725 Rises=F Damp=F
 DIIS: error= 3.09D-05 at cycle   3 NSaved=   3.
 NSaved= 3 IEnMin= 2 EnMin= -691.613240554663     IErMin= 2 ErrMin= 2.37D-05
 ErrMax= 3.09D-05  0.00D+00 EMaxC= 1.00D-01 BMatC= 2.00D-06 BMatP= 1.12D-06
 IDIUse=1 WtCom= 1.00D+00 WtEn= 0.00D+00
 Coeff-Com: -0.112D-01 0.577D+00 0.434D+00
 Coeff:     -0.112D-01 0.577D+00 0.434D+00
 Gap=     0.225 Goal=   None    Shift=    0.000
 Gap=     0.225 Goal=   None    Shift=    0.000
 RMSDP=2.66D-06 MaxDP=7.40D-05 DE= 2.05D-07 OVMax= 2.09D-04

 Cycle  11  Pass 1  IDiag  1:
 RMSU=  6.96D-07    CP:  1.00D+00  1.05D+00  4.39D-01
 E= -691.613240826601     Delta-E=       -0.000000476663 Rises=F Damp=F
 DIIS: error= 3.15D-06 at cycle   4 NSaved=   4.
 NSaved= 4 IEnMin= 4 EnMin= -691.613240826601     IErMin= 4 ErrMin= 3.15D-06
 ErrMax= 3.15D-06  0.00D+00 EMaxC= 1.00D-01 BMatC= 3.86D-08 BMatP= 1.12D-06
 IDIUse=1 WtCom= 1.00D+00 WtEn= 0.00D+00
 Coeff-Com: -0.117D-01 0.335D+00 0.265D+00 0.412D+00
 Coeff:     -0.117D-01 0.335D+00 0.265D+00 0.412D+00
 Gap=     0.225 Goal=   None    Shift=    0.000
 Gap=     0.225 Goal=   None    Shift=    0.000
 RMSDP=2.97D-07 MaxDP=1.11D-05 DE=-4.77D-07 OVMax= 2.07D-05

 Cycle  12  Pass 1  IDiag  1:
 RMSU=  2.16D-07    CP:  1.00D+00  1.05D+00  4.65D-01  7.65D-01
 E= -691.613240835163     Delta-E=       -0.000000008562 Rises=F Damp=F
 DIIS: error= 4.06D-07 at cycle   5 NSaved=   5.
 NSaved= 5 IEnMin= 5 EnMin= -691.613240835163     IErMin= 5 ErrMin= 4.06D-07
 ErrMax= 4.06D-07  0.00D+00 EMaxC= 1.00D-01 BMatC= 3.84D-10 BMatP= 3.86D-08
 IDIUse=1 WtCom= 1.00D+00 WtEn= 0.00D+00
 Coeff-Com: -0.349D-02 0.858D-01 0.693D-01 0.134D+00 0.714D+00
 Coeff:     -0.349D-02 0.858D-01 0.693D-01 0.134D+00 0.714D+00
 Gap=     0.225 Goal=   None    Shift=    0.000
 Gap=     0.225 Goal=   None    Shift=    0.000
 RMSDP=7.92D-08 MaxDP=2.42D-06 DE=-8.56D-09 OVMax= 4.33D-06

 Cycle  13  Pass 1  IDiag  1:
 RMSU=  6.11D-08    CP:  1.00D+00  1.05D+00  4.65D-01  8.10D-01  1.01D+00
 E= -691.613240835274     Delta-E=       -0.000000000111 Rises=F Damp=F
 DIIS: error= 2.92D-07 at cycle   6 NSaved=   6.
 NSaved= 6 IEnMin= 6 EnMin= -691.613240835274     IErMin= 6 ErrMin= 2.92D-07
 ErrMax= 2.92D-07  0.00D+00 EMaxC= 1.00D-01 BMatC= 2.00D-10 BMatP= 3.84D-10
 IDIUse=1 WtCom= 1.00D+00 WtEn= 0.00D+00
 Coeff-Com: -0.330D-03 0.167D-02 0.232D-02 0.148D-01 0.428D+00 0.553D+00
 Coeff:     -0.330D-03 0.167D-02 0.232D-02 0.148D-01 0.428D+00 0.553D+00
 Gap=     0.225 Goal=   None    Shift=    0.000
 Gap=     0.225 Goal=   None    Shift=    0.000
 RMSDP=3.53D-08 MaxDP=1.43D-06 DE=-1.11D-10 OVMax= 3.70D-06

 Cycle  14  Pass 1  IDiag  1:
 RMSU=  2.33D-08    CP:  1.00D+00  1.05D+00  4.67D-01  8.19D-01  1.06D+00
                    CP:  6.83D-01
 E= -691.613240835326     Delta-E=       -0.000000000052 Rises=F Damp=F
 DIIS: error= 1.16D-07 at cycle   7 NSaved=   7.
 NSaved= 7 IEnMin= 7 EnMin= -691.613240835326     IErMin= 7 ErrMin= 1.16D-07
 ErrMax= 1.16D-07  0.00D+00 EMaxC= 1.00D-01 BMatC= 2.44D-11 BMatP= 2.00D-10
 IDIUse=1 WtCom= 1.00D+00 WtEn= 0.00D+00
 Coeff-Com:  0.419D-03-0.139D-01-0.106D-01-0.166D-01 0.103D+00 0.308D+00
 Coeff-Com:  0.629D+00
 Coeff:      0.419D-03-0.139D-01-0.106D-01-0.166D-01 0.103D+00 0.308D+00
 Coeff:      0.629D+00
 Gap=     0.225 Goal=   None    Shift=    0.000
 Gap=     0.225 Goal=   None    Shift=    0.000
 RMSDP=1.32D-08 MaxDP=3.30D-07 DE=-5.18D-11 OVMax= 1.16D-06

 Cycle  15  Pass 1  IDiag  1:
 RMSU=  8.55D-09    CP:  1.00D+00  1.05D+00  4.67D-01  8.24D-01  1.08D+00
                    CP:  8.01D-01  9.19D-01
 E= -691.613240835309     Delta-E=        0.000000000017 Rises=F Damp=F
 DIIS: error= 2.98D-08 at cycle   8 NSaved=   8.
 NSaved= 8 IEnMin= 7 EnMin= -691.613240835326     IErMin= 8 ErrMin= 2.98D-08
 ErrMax= 2.98D-08  0.00D+00 EMaxC= 1.00D-01 BMatC= 1.54D-12 BMatP= 2.44D-11
 IDIUse=1 WtCom= 1.00D+00 WtEn= 0.00D+00
 Coeff-Com:  0.213D-03-0.634D-02-0.488D-02-0.915D-02 0.130D-01 0.107D+00
 Coeff-Com:  0.282D+00 0.619D+00
 Coeff:      0.213D-03-0.634D-02-0.488D-02-0.915D-02 0.130D-01 0.107D+00
 Coeff:      0.282D+00 0.619D+00
 Gap=     0.225 Goal=   None    Shift=    0.000
 Gap=     0.225 Goal=   None    Shift=    0.000
 RMSDP=3.72D-09 MaxDP=8.86D-08 DE= 1.73D-11 OVMax= 4.35D-07

 SCF Done:  E(ULC-wPBE) =  -691.613240835     A.U. after   15 cycles
            NFock= 15  Conv=0.37D-08     -V/T= 2.0064
 <Sx>= 0.0000 <Sy>= 0.0000 <Sz>= 0.0000 <S**2>=-0.0000 S=-0.0000
 <L.S>= 0.000000000000E+00
 KE= 6.872164262686D+02 PE=-3.710384004177D+03 EE= 1.281816488853D+03
 Annihilation of the first spin contaminant:
 S**2 before annihilation    -0.0000,   after    -0.0000
 Leave Link  502 at Fri Jul 24 20:34:45 2020, MaxMem=  4026531840 cpu:             914.6 elap:             114.7
 (Enter /opt/ohpc/pub/libs/gaussian/g16-A.03/sandybridge/g16/l601.exe)
 Copying SCF densities to generalized density rwf, IOpCl= 1 IROHF=0.

 **********************************************************************

            Population analysis using the SCF density.

 **********************************************************************

 Orbital symmetries:
 Alpha Orbitals:
       Occupied  (A) (A) (A) (A) (A) (A) (A) (A) (A) (A) (A) (A)
                 (A) (A) (A) (A) (A) (A) (A) (A) (A) (A) (A) (A)
                 (A) (A) (A) (A) (A) (A) (A) (A) (A) (A) (A) (A)
                 (A) (A) (A) (A) (A) (A) (A) (A) (A) (A) (A) (A)
                 (A) (A) (A) (A) (A) (A) (A) (A) (A)
       Virtual   (A) (A) (A) (A) (A) (A) (A) (A) (A) (A) (A) (A)
                 (A) (A) (A) (A) (A) (A) (A) (A) (A) (A) (A) (A)
                 (A) (A) (A) (A) (A) (A) (A) (A) (A) (A) (A) (A)
                 (A) (A) (A) (A) (A) (A) (A) (A) (A) (A) (A) (A)
                 (A) (A) (A) (A) (A) (A) (A) (A) (A) (A) (A) (A)
                 (A) (A) (A) (A) (A) (A) (A) (A) (A) (A) (A) (A)
                 (A) (A) (A) (A) (A) (A) (A) (A) (A) (A) (A) (A)
                 (A) (A) (A) (A) (A) (A) (A) (A) (A) (A) (A) (A)
                 (A) (A) (A) (A) (A) (A) (A) (A) (A) (A) (A) (A)
                 (A) (A) (A) (A) (A) (A) (A) (A) (A) (A) (A) (A)
                 (A) (A) (A) (A) (A) (A) (A) (A) (A) (A) (A) (A)
                 (A) (A) (A) (A) (A) (A) (A) (A) (A) (A) (A) (A)
                 (A) (A) (A) (A) (A) (A) (A) (A) (A) (A) (A) (A)
                 (A) (A) (A) (A) (A) (A) (A) (A) (A) (A) (A) (A)
                 (A) (A) (A) (A) (A) (A) (A) (A) (A) (A) (A) (A)
                 (A) (A) (A) (A) (A) (A) (A) (A) (A) (A) (A) (A)
                 (A) (A) (A) (A) (A) (A) (A) (A) (A) (A) (A) (A)
                 (A) (A) (A) (A) (A) (A) (A) (A) (A) (A) (A) (A)
                 (A) (A) (A) (A) (A) (A) (A) (A) (A) (A) (A) (A)
                 (A) (A) (A) (A) (A) (A) (A) (A) (A)
 Beta  Orbitals:
       Occupied  (A) (A) (A) (A) (A) (A) (A) (A) (A) (A) (A) (A)
                 (A) (A) (A) (A) (A) (A) (A) (A) (A) (A) (A) (A)
                 (A) (A) (A) (A) (A) (A) (A) (A) (A) (A) (A) (A)
                 (A) (A) (A) (A) (A) (A) (A) (A) (A) (A) (A) (A)
                 (A) (A) (A) (A) (A) (A) (A) (A) (A)
       Virtual   (A) (A) (A) (A) (A) (A) (A) (A) (A) (A) (A) (A)
                 (A) (A) (A) (A) (A) (A) (A) (A) (A) (A) (A) (A)
                 (A) (A) (A) (A) (A) (A) (A) (A) (A) (A) (A) (A)
                 (A) (A) (A) (A) (A) (A) (A) (A) (A) (A) (A) (A)
                 (A) (A) (A) (A) (A) (A) (A) (A) (A) (A) (A) (A)
                 (A) (A) (A) (A) (A) (A) (A) (A) (A) (A) (A) (A)
                 (A) (A) (A) (A) (A) (A) (A) (A) (A) (A) (A) (A)
                 (A) (A) (A) (A) (A) (A) (A) (A) (A) (A) (A) (A)
                 (A) (A) (A) (A) (A) (A) (A) (A) (A) (A) (A) (A)
                 (A) (A) (A) (A) (A) (A) (A) (A) (A) (A) (A) (A)
                 (A) (A) (A) (A) (A) (A) (A) (A) (A) (A) (A) (A)
                 (A) (A) (A) (A) (A) (A) (A) (A) (A) (A) (A) (A)
                 (A) (A) (A) (A) (A) (A) (A) (A) (A) (A) (A) (A)
                 (A) (A) (A) (A) (A) (A) (A) (A) (A) (A) (A) (A)
                 (A) (A) (A) (A) (A) (A) (A) (A) (A) (A) (A) (A)
                 (A) (A) (A) (A) (A) (A) (A) (A) (A) (A) (A) (A)
                 (A) (A) (A) (A) (A) (A) (A) (A) (A) (A) (A) (A)
                 (A) (A) (A) (A) (A) (A) (A) (A) (A) (A) (A) (A)
                 (A) (A) (A) (A) (A) (A) (A) (A) (A) (A) (A) (A)
                 (A) (A) (A) (A) (A) (A) (A) (A) (A)
 The electronic state is 1-A.
 Alpha  occ. eigenvalues --  -18.84710 -18.83902 -10.00595 -10.00559 -10.00162
 Alpha  occ. eigenvalues --   -9.99307  -9.94877  -9.94791  -9.94718  -9.94599
 Alpha  occ. eigenvalues --   -9.94235  -9.94013  -9.93747  -9.93685  -9.93528
 Alpha  occ. eigenvalues --   -9.93445  -1.03785  -1.00409  -0.82133  -0.80349
 Alpha  occ. eigenvalues --   -0.74689  -0.73138  -0.71945  -0.70470  -0.68002
 Alpha  occ. eigenvalues --   -0.66544  -0.60389  -0.58976  -0.57531  -0.55752
 Alpha  occ. eigenvalues --   -0.52705  -0.51359  -0.48325  -0.47681  -0.47361
 Alpha  occ. eigenvalues --   -0.46532  -0.45659  -0.45171  -0.44442  -0.43826
 Alpha  occ. eigenvalues --   -0.41765  -0.41392  -0.40101  -0.38401  -0.38236
 Alpha  occ. eigenvalues --   -0.37365  -0.35904  -0.35363  -0.34101  -0.33277
 Alpha  occ. eigenvalues --   -0.32785  -0.31877  -0.31070  -0.26697  -0.25365
 Alpha  occ. eigenvalues --   -0.23413  -0.22042
 Alpha virt. eigenvalues --    0.00505   0.03005   0.03424   0.04546   0.08795
 Alpha virt. eigenvalues --    0.09112   0.09847   0.10581   0.11123   0.11521
 Alpha virt. eigenvalues --    0.14067   0.14184   0.14942   0.15377   0.15770
 Alpha virt. eigenvalues --    0.15845   0.16545   0.17015   0.17964   0.18227
 Alpha virt. eigenvalues --    0.18892   0.19423   0.23263   0.26030   0.26428
 Alpha virt. eigenvalues --    0.30087   0.31448   0.32433   0.32536   0.33782
 Alpha virt. eigenvalues --    0.35112   0.36766   0.39515   0.43393   0.44167
 Alpha virt. eigenvalues --    0.44696   0.44941   0.45594   0.45748   0.46675
 Alpha virt. eigenvalues --    0.46790   0.47749   0.48825   0.49665   0.49787
 Alpha virt. eigenvalues --    0.50721   0.51139   0.51779   0.52876   0.53276
 Alpha virt. eigenvalues --    0.53328   0.53947   0.55318   0.55635   0.56062
 Alpha virt. eigenvalues --    0.56258   0.57134   0.58154   0.59170   0.60079
 Alpha virt. eigenvalues --    0.60459   0.61614   0.62005   0.63723   0.64407
 Alpha virt. eigenvalues --    0.64918   0.65459   0.65641   0.65826   0.67206
 Alpha virt. eigenvalues --    0.67573   0.67860   0.68502   0.69596   0.70344
 Alpha virt. eigenvalues --    0.71499   0.73008   0.73563   0.74505   0.75140
 Alpha virt. eigenvalues --    0.75825   0.77799   0.80790   0.83630   0.84984
 Alpha virt. eigenvalues --    0.86711   0.87903   0.89194   0.90012   0.90550
 Alpha virt. eigenvalues --    0.90907   0.91857   0.92196   0.92493   0.93847
 Alpha virt. eigenvalues --    0.95564   0.96629   0.98770   0.99558   1.00185
 Alpha virt. eigenvalues --    1.01388   1.01723   1.02209   1.04501   1.04719
 Alpha virt. eigenvalues --    1.05682   1.06187   1.07048   1.09886   1.10892
 Alpha virt. eigenvalues --    1.12181   1.13285   1.14908   1.18483   1.20784
 Alpha virt. eigenvalues --    1.22200   1.23221   1.24770   1.25109   1.28062
 Alpha virt. eigenvalues --    1.29736   1.30682   1.34888   1.36098   1.36563
 Alpha virt. eigenvalues --    1.38418   1.39233   1.39538   1.43175   1.46665
 Alpha virt. eigenvalues --    1.46780   1.47688   1.48655   1.49112   1.49773
 Alpha virt. eigenvalues --    1.50277   1.51600   1.52974   1.54253   1.54754
 Alpha virt. eigenvalues --    1.55921   1.56377   1.57507   1.57603   1.59257
 Alpha virt. eigenvalues --    1.61363   1.62034   1.62898   1.63082   1.64012
 Alpha virt. eigenvalues --    1.64486   1.64718   1.66009   1.66632   1.67718
 Alpha virt. eigenvalues --    1.68108   1.68504   1.68789   1.69805   1.70981
 Alpha virt. eigenvalues --    1.72378   1.73010   1.73661   1.74887   1.75683
 Alpha virt. eigenvalues --    1.76471   1.77162   1.78623   1.79702   1.80491
 Alpha virt. eigenvalues --    1.82361   1.83876   1.83927   1.85446   1.87477
 Alpha virt. eigenvalues --    1.87956   1.88884   1.89141   1.91091   1.91463
 Alpha virt. eigenvalues --    1.94158   1.95842   1.96116   1.98981   1.99766
 Alpha virt. eigenvalues --    2.02552   2.03490   2.04062   2.05403   2.06529
 Alpha virt. eigenvalues --    2.06759   2.09344   2.11955   2.14376   2.14787
 Alpha virt. eigenvalues --    2.14902   2.18675   2.20437   2.23975   2.24941
 Alpha virt. eigenvalues --    2.28205   2.32053   2.33192   2.35580   2.36213
 Alpha virt. eigenvalues --    2.37287   2.39413   2.40224   2.40392   2.41963
 Alpha virt. eigenvalues --    2.45286   2.47252   2.48093   2.48883   2.50949
 Alpha virt. eigenvalues --    2.56467   2.60811   2.63337   2.64789   2.65853
 Alpha virt. eigenvalues --    2.70107   2.72183   2.75685   2.82273   2.83553
 Alpha virt. eigenvalues --    2.84712   2.87609   2.94570   2.98547   2.99349
 Alpha virt. eigenvalues --    3.00655   3.23756   3.28213   3.33746   3.39610
 Alpha virt. eigenvalues --    3.51991   3.60058
  Beta  occ. eigenvalues --  -18.84710 -18.83902 -10.00595 -10.00559 -10.00162
  Beta  occ. eigenvalues --   -9.99307  -9.94877  -9.94791  -9.94718  -9.94599
  Beta  occ. eigenvalues --   -9.94235  -9.94013  -9.93747  -9.93685  -9.93528
  Beta  occ. eigenvalues --   -9.93445  -1.03785  -1.00409  -0.82133  -0.80349
  Beta  occ. eigenvalues --   -0.74689  -0.73138  -0.71945  -0.70470  -0.68002
  Beta  occ. eigenvalues --   -0.66544  -0.60389  -0.58976  -0.57531  -0.55752
  Beta  occ. eigenvalues --   -0.52705  -0.51359  -0.48325  -0.47681  -0.47361
  Beta  occ. eigenvalues --   -0.46532  -0.45659  -0.45171  -0.44442  -0.43826
  Beta  occ. eigenvalues --   -0.41765  -0.41392  -0.40101  -0.38401  -0.38236
  Beta  occ. eigenvalues --   -0.37365  -0.35904  -0.35363  -0.34101  -0.33277
  Beta  occ. eigenvalues --   -0.32785  -0.31877  -0.31070  -0.26697  -0.25365
  Beta  occ. eigenvalues --   -0.23413  -0.22042
  Beta virt. eigenvalues --    0.00505   0.03005   0.03424   0.04546   0.08795
  Beta virt. eigenvalues --    0.09112   0.09847   0.10581   0.11123   0.11521
  Beta virt. eigenvalues --    0.14067   0.14184   0.14942   0.15377   0.15770
  Beta virt. eigenvalues --    0.15845   0.16545   0.17015   0.17964   0.18227
  Beta virt. eigenvalues --    0.18892   0.19423   0.23263   0.26030   0.26428
  Beta virt. eigenvalues --    0.30087   0.31448   0.32433   0.32536   0.33782
  Beta virt. eigenvalues --    0.35112   0.36766   0.39515   0.43393   0.44167
  Beta virt. eigenvalues --    0.44696   0.44941   0.45594   0.45748   0.46675
  Beta virt. eigenvalues --    0.46790   0.47749   0.48825   0.49665   0.49787
  Beta virt. eigenvalues --    0.50721   0.51139   0.51779   0.52876   0.53276
  Beta virt. eigenvalues --    0.53328   0.53947   0.55318   0.55635   0.56062
  Beta virt. eigenvalues --    0.56258   0.57134   0.58154   0.59170   0.60079
  Beta virt. eigenvalues --    0.60459   0.61614   0.62005   0.63723   0.64407
  Beta virt. eigenvalues --    0.64918   0.65459   0.65641   0.65826   0.67206
  Beta virt. eigenvalues --    0.67573   0.67860   0.68502   0.69596   0.70344
  Beta virt. eigenvalues --    0.71499   0.73008   0.73563   0.74505   0.75140
  Beta virt. eigenvalues --    0.75825   0.77799   0.80790   0.83630   0.84984
  Beta virt. eigenvalues --    0.86711   0.87903   0.89194   0.90012   0.90550
  Beta virt. eigenvalues --    0.90907   0.91857   0.92196   0.92493   0.93847
  Beta virt. eigenvalues --    0.95564   0.96629   0.98770   0.99558   1.00185
  Beta virt. eigenvalues --    1.01388   1.01723   1.02209   1.04501   1.04719
  Beta virt. eigenvalues --    1.05682   1.06187   1.07048   1.09886   1.10892
  Beta virt. eigenvalues --    1.12181   1.13285   1.14908   1.18483   1.20784
  Beta virt. eigenvalues --    1.22200   1.23221   1.24770   1.25109   1.28062
  Beta virt. eigenvalues --    1.29736   1.30682   1.34888   1.36098   1.36563
  Beta virt. eigenvalues --    1.38418   1.39233   1.39538   1.43175   1.46665
  Beta virt. eigenvalues --    1.46780   1.47688   1.48655   1.49112   1.49773
  Beta virt. eigenvalues --    1.50277   1.51600   1.52974   1.54253   1.54754
  Beta virt. eigenvalues --    1.55921   1.56377   1.57507   1.57603   1.59257
  Beta virt. eigenvalues --    1.61363   1.62034   1.62898   1.63082   1.64012
  Beta virt. eigenvalues --    1.64486   1.64718   1.66009   1.66632   1.67718
  Beta virt. eigenvalues --    1.68108   1.68504   1.68789   1.69805   1.70981
  Beta virt. eigenvalues --    1.72378   1.73010   1.73661   1.74887   1.75683
  Beta virt. eigenvalues --    1.76471   1.77162   1.78623   1.79702   1.80491
  Beta virt. eigenvalues --    1.82361   1.83876   1.83927   1.85446   1.87477
  Beta virt. eigenvalues --    1.87956   1.88884   1.89141   1.91091   1.91463
  Beta virt. eigenvalues --    1.94158   1.95842   1.96116   1.98981   1.99766
  Beta virt. eigenvalues --    2.02552   2.03490   2.04062   2.05403   2.06529
  Beta virt. eigenvalues --    2.06759   2.09344   2.11955   2.14376   2.14787
  Beta virt. eigenvalues --    2.14902   2.18675   2.20437   2.23975   2.24941
  Beta virt. eigenvalues --    2.28205   2.32053   2.33192   2.35580   2.36213
  Beta virt. eigenvalues --    2.37287   2.39413   2.40224   2.40392   2.41963
  Beta virt. eigenvalues --    2.45286   2.47252   2.48093   2.48883   2.50949
  Beta virt. eigenvalues --    2.56467   2.60811   2.63337   2.64789   2.65853
  Beta virt. eigenvalues --    2.70107   2.72183   2.75685   2.82273   2.83553
  Beta virt. eigenvalues --    2.84712   2.87609   2.94570   2.98547   2.99349
  Beta virt. eigenvalues --    3.00655   3.23756   3.28213   3.33746   3.39610
  Beta virt. eigenvalues --    3.51991   3.60058
          Condensed to atoms (all electrons):
               1          2          3          4          5          6
     1  C    4.820157   0.476536   0.018466   0.004630   0.001748  -0.060748
     2  C    0.476536   5.013974   0.315858  -0.073913  -0.002400  -0.030415
     3  C    0.018466   0.315858   5.002076   0.481514  -0.081036   0.368642
     4  O    0.004630  -0.073913   0.481514   7.608341   0.337212  -0.082260
     5  C    0.001748  -0.002400  -0.081036   0.337212   4.457659   0.007924
     6  C   -0.060748  -0.030415   0.368642  -0.082260   0.007924   5.307941
     7  C    0.007011  -0.078043   0.009208   0.002062   0.000048   0.510938
     8  C    0.467644  -0.001046  -0.081201   0.000182  -0.000020   0.011494
     9  C   -0.000155   0.013712  -0.081737   0.010891  -0.000938   0.201925
    10  C   -0.000026   0.000504  -0.007205   0.002698  -0.000136  -0.088276
    11  C    0.000000  -0.000006  -0.000449  -0.000379   0.000012   0.010803
    12  C   -0.000000   0.000001   0.000073   0.000026  -0.000001  -0.000245
    13  C   -0.000000   0.000006  -0.000277   0.000010  -0.000002   0.015840
    14  C    0.000035  -0.000245   0.003314  -0.000618   0.000015  -0.075251
    15  O    0.000008   0.000015  -0.001207  -0.000012  -0.000003   0.008448
    16  C   -0.000001  -0.000002   0.000031  -0.000003  -0.000000  -0.000478
    17  H    0.366051  -0.040992   0.009183  -0.000103  -0.000048   0.000422
    18  H   -0.029024   0.374106  -0.060788  -0.007703   0.007912   0.006463
    19  H    0.000094   0.009818  -0.006556  -0.026741   0.384016  -0.000422
    20  H    0.000130   0.013893  -0.005260  -0.031809   0.385194   0.000429
    21  H   -0.000060  -0.000573   0.002552  -0.013875   0.398234  -0.000156
    22  H    0.012309  -0.001553   0.018841  -0.000085   0.000018  -0.036519
    23  H   -0.048599   0.012505  -0.000636   0.000004  -0.000001   0.010548
    24  H   -0.000077   0.000260   0.005229   0.003075  -0.000159  -0.028471
    25  H    0.000000  -0.000000  -0.000019  -0.000004  -0.000000  -0.000458
    26  H   -0.000000   0.000000  -0.000000   0.000000  -0.000000   0.000020
    27  H    0.000000  -0.000000   0.000003   0.000001   0.000000  -0.000395
    28  H    0.000000   0.000000  -0.000006  -0.000000  -0.000000   0.000131
    29  H    0.000000   0.000000   0.000001   0.000002   0.000000   0.000158
    30  H   -0.000001  -0.000000   0.000008  -0.000000  -0.000000  -0.000068
               7          8          9         10         11         12
     1  C    0.007011   0.467644  -0.000155  -0.000026   0.000000  -0.000000
     2  C   -0.078043  -0.001046   0.013712   0.000504  -0.000006   0.000001
     3  C    0.009208  -0.081201  -0.081737  -0.007205  -0.000449   0.000073
     4  O    0.002062   0.000182   0.010891   0.002698  -0.000379   0.000026
     5  C    0.000048  -0.000020  -0.000938  -0.000136   0.000012  -0.000001
     6  C    0.510938   0.011494   0.201925  -0.088276   0.010803  -0.000245
     7  C    4.685712   0.483547  -0.084797  -0.002046   0.000137  -0.000051
     8  C    0.483547   4.820619   0.009356  -0.000031   0.000009   0.000000
     9  C   -0.084797   0.009356   5.320280   0.499648   0.023713  -0.064897
    10  C   -0.002046  -0.000031   0.499648   4.728559   0.464406   0.006828
    11  C    0.000137   0.000009   0.023713   0.464406   4.780917   0.481840
    12  C   -0.000051   0.000000  -0.064897   0.006828   0.481840   4.795775
    13  C    0.000548   0.000000  -0.020622  -0.083210   0.009124   0.451643
    14  C   -0.007054  -0.000289   0.356089   0.005789  -0.088134   0.021275
    15  O    0.004307   0.000006  -0.088221   0.002646   0.000001   0.003845
    16  C   -0.000159   0.000004   0.009466   0.000065  -0.000071   0.001234
    17  H    0.009473  -0.048870   0.000028   0.000001   0.000000   0.000000
    18  H    0.000540   0.010342  -0.000402   0.000002  -0.000000   0.000000
    19  H   -0.000052   0.000011   0.000092  -0.000004   0.000000   0.000000
    20  H   -0.000150  -0.000047   0.000303   0.000010  -0.000002   0.000000
    21  H    0.000022  -0.000000  -0.000088   0.000045   0.000004  -0.000001
    22  H    0.386335  -0.069420  -0.030777  -0.000434  -0.000027  -0.000074
    23  H   -0.054441   0.384813  -0.000270  -0.000004  -0.000000   0.000000
    24  H   -0.000801  -0.000006  -0.039238   0.390454  -0.062453   0.011796
    25  H    0.000003  -0.000000   0.010590  -0.057612   0.381115  -0.053367
    26  H    0.000001   0.000000  -0.000259   0.009441  -0.050629   0.382206
    27  H    0.000004  -0.000000   0.006999   0.000864   0.010242  -0.034790
    28  H   -0.000029  -0.000003  -0.000913   0.000010  -0.000043   0.000277
    29  H    0.000027   0.000001   0.001052  -0.000191   0.000029  -0.000313
    30  H    0.000041   0.000000  -0.000262   0.000021   0.000000  -0.000039
              13         14         15         16         17         18
     1  C   -0.000000   0.000035   0.000008  -0.000001   0.366051  -0.029024
     2  C    0.000006  -0.000245   0.000015  -0.000002  -0.040992   0.374106
     3  C   -0.000277   0.003314  -0.001207   0.000031   0.009183  -0.060788
     4  O    0.000010  -0.000618  -0.000012  -0.000003  -0.000103  -0.007703
     5  C   -0.000002   0.000015  -0.000003  -0.000000  -0.000048   0.007912
     6  C    0.015840  -0.075251   0.008448  -0.000478   0.000422   0.006463
     7  C    0.000548  -0.007054   0.004307  -0.000159   0.009473   0.000540
     8  C    0.000000  -0.000289   0.000006   0.000004  -0.048870   0.010342
     9  C   -0.020622   0.356089  -0.088221   0.009466   0.000028  -0.000402
    10  C   -0.083210   0.005789   0.002646   0.000065   0.000001   0.000002
    11  C    0.009124  -0.088134   0.000001  -0.000071   0.000000  -0.000000
    12  C    0.451643   0.021275   0.003845   0.001234   0.000000   0.000000
    13  C    5.085359   0.294526  -0.078726  -0.006143   0.000000  -0.000000
    14  C    0.294526   5.013488   0.469675  -0.073971  -0.000000   0.000003
    15  O   -0.078726   0.469675   7.702539   0.314807   0.000000   0.000001
    16  C   -0.006143  -0.073971   0.314807   4.534677   0.000000  -0.000000
    17  H    0.000000  -0.000000   0.000000   0.000000   0.752479  -0.018279
    18  H   -0.000000   0.000003   0.000001  -0.000000  -0.018279   0.755961
    19  H    0.000000  -0.000005  -0.000000  -0.000000   0.000026   0.001806
    20  H    0.000000   0.000010   0.000002   0.000000   0.000043   0.002512
    21  H   -0.000000   0.000006  -0.000000  -0.000000  -0.000001  -0.000350
    22  H    0.000221   0.004268   0.002536  -0.000139  -0.000440   0.000056
    23  H   -0.000000  -0.000005   0.000006  -0.000000  -0.014487  -0.000323
    24  H   -0.001948   0.019083  -0.000086   0.000018  -0.000000   0.000017
    25  H    0.012814   0.000078   0.000006  -0.000002  -0.000000   0.000000
    26  H   -0.038587   0.010497  -0.000068  -0.000022  -0.000000  -0.000000
    27  H    0.371912  -0.058079  -0.008199   0.007179  -0.000000   0.000000
    28  H    0.012818  -0.010380  -0.028446   0.387942  -0.000000   0.000000
    29  H    0.009266  -0.005683  -0.025949   0.376138  -0.000000  -0.000000
    30  H   -0.000255   0.003537  -0.016075   0.390066  -0.000000  -0.000000
              19         20         21         22         23         24
     1  C    0.000094   0.000130  -0.000060   0.012309  -0.048599  -0.000077
     2  C    0.009818   0.013893  -0.000573  -0.001553   0.012505   0.000260
     3  C   -0.006556  -0.005260   0.002552   0.018841  -0.000636   0.005229
     4  O   -0.026741  -0.031809  -0.013875  -0.000085   0.000004   0.003075
     5  C    0.384016   0.385194   0.398234   0.000018  -0.000001  -0.000159
     6  C   -0.000422   0.000429  -0.000156  -0.036519   0.010548  -0.028471
     7  C   -0.000052  -0.000150   0.000022   0.386335  -0.054441  -0.000801
     8  C    0.000011  -0.000047  -0.000000  -0.069420   0.384813  -0.000006
     9  C    0.000092   0.000303  -0.000088  -0.030777  -0.000270  -0.039238
    10  C   -0.000004   0.000010   0.000045  -0.000434  -0.000004   0.390454
    11  C    0.000000  -0.000002   0.000004  -0.000027  -0.000000  -0.062453
    12  C    0.000000   0.000000  -0.000001  -0.000074   0.000000   0.011796
    13  C    0.000000   0.000000  -0.000000   0.000221  -0.000000  -0.001948
    14  C   -0.000005   0.000010   0.000006   0.004268  -0.000005   0.019083
    15  O   -0.000000   0.000002  -0.000000   0.002536   0.000006  -0.000086
    16  C   -0.000000   0.000000  -0.000000  -0.000139  -0.000000   0.000018
    17  H    0.000026   0.000043  -0.000001  -0.000440  -0.014487  -0.000000
    18  H    0.001806   0.002512  -0.000350   0.000056  -0.000323   0.000017
    19  H    0.661608  -0.041049  -0.031249  -0.000001   0.000001   0.000000
    20  H   -0.041049   0.662571  -0.028338  -0.000001  -0.000001   0.000037
    21  H   -0.031249  -0.028338   0.631387   0.000000  -0.000000  -0.000037
    22  H   -0.000001  -0.000001   0.000000   0.797489  -0.016083  -0.000037
    23  H    0.000001  -0.000001  -0.000000  -0.016083   0.758832   0.000003
    24  H    0.000000   0.000037  -0.000037  -0.000037   0.000003   0.788441
    25  H   -0.000000   0.000000   0.000000   0.000002   0.000000  -0.016340
    26  H    0.000000  -0.000000  -0.000000  -0.000001   0.000000  -0.000211
    27  H    0.000000  -0.000000  -0.000000   0.000023   0.000000   0.000050
    28  H    0.000000   0.000000  -0.000000  -0.000010  -0.000000   0.000000
    29  H    0.000000  -0.000000   0.000000   0.000024   0.000000  -0.000002
    30  H   -0.000000   0.000000  -0.000000  -0.000025   0.000000  -0.000000
              25         26         27         28         29         30
     1  C    0.000000  -0.000000   0.000000   0.000000   0.000000  -0.000001
     2  C   -0.000000   0.000000  -0.000000   0.000000   0.000000  -0.000000
     3  C   -0.000019  -0.000000   0.000003  -0.000006   0.000001   0.000008
     4  O   -0.000004   0.000000   0.000001  -0.000000   0.000002  -0.000000
     5  C   -0.000000  -0.000000   0.000000  -0.000000   0.000000  -0.000000
     6  C   -0.000458   0.000020  -0.000395   0.000131   0.000158  -0.000068
     7  C    0.000003   0.000001   0.000004  -0.000029   0.000027   0.000041
     8  C   -0.000000   0.000000  -0.000000  -0.000003   0.000001   0.000000
     9  C    0.010590  -0.000259   0.006999  -0.000913   0.001052  -0.000262
    10  C   -0.057612   0.009441   0.000864   0.000010  -0.000191   0.000021
    11  C    0.381115  -0.050629   0.010242  -0.000043   0.000029   0.000000
    12  C   -0.053367   0.382206  -0.034790   0.000277  -0.000313  -0.000039
    13  C    0.012814  -0.038587   0.371912   0.012818   0.009266  -0.000255
    14  C    0.000078   0.010497  -0.058079  -0.010380  -0.005683   0.003537
    15  O    0.000006  -0.000068  -0.008199  -0.028446  -0.025949  -0.016075
    16  C   -0.000002  -0.000022   0.007179   0.387942   0.376138   0.390066
    17  H   -0.000000  -0.000000  -0.000000  -0.000000  -0.000000  -0.000000
    18  H    0.000000  -0.000000   0.000000   0.000000  -0.000000  -0.000000
    19  H   -0.000000   0.000000   0.000000   0.000000   0.000000  -0.000000
    20  H    0.000000  -0.000000  -0.000000   0.000000  -0.000000   0.000000
    21  H    0.000000  -0.000000  -0.000000  -0.000000   0.000000  -0.000000
    22  H    0.000002  -0.000001   0.000023  -0.000010   0.000024  -0.000025
    23  H    0.000000   0.000000   0.000000  -0.000000   0.000000   0.000000
    24  H   -0.016340  -0.000211   0.000050   0.000000  -0.000002  -0.000000
    25  H    0.782317  -0.016348  -0.000482  -0.000000   0.000001  -0.000000
    26  H   -0.016348   0.744943  -0.015457   0.000024   0.000006   0.000000
    27  H   -0.000482  -0.015457   0.746559   0.002093   0.003588  -0.000351
    28  H   -0.000000   0.000024   0.002093   0.646935  -0.042409  -0.024987
    29  H    0.000001   0.000006   0.003588  -0.042409   0.656992  -0.027911
    30  H   -0.000000   0.000000  -0.000351  -0.024987  -0.027911   0.619276
          Atomic-Atomic Spin Densities.
               1          2          3          4          5          6
     1  C    0.000000  -0.000000   0.000000   0.000000  -0.000000  -0.000000
     2  C   -0.000000   0.000000  -0.000000  -0.000000  -0.000000   0.000000
     3  C    0.000000  -0.000000   0.000000   0.000000   0.000000  -0.000000
     4  O    0.000000  -0.000000   0.000000   0.000000   0.000000   0.000000
     5  C   -0.000000  -0.000000   0.000000   0.000000  -0.000000  -0.000000
     6  C   -0.000000   0.000000  -0.000000   0.000000  -0.000000   0.000000
     7  C    0.000000  -0.000000   0.000000   0.000000  -0.000000  -0.000000
     8  C   -0.000000   0.000000  -0.000000  -0.000000  -0.000000   0.000000
     9  C   -0.000000   0.000000  -0.000000  -0.000000  -0.000000   0.000000
    10  C   -0.000000   0.000000  -0.000000   0.000000  -0.000000  -0.000000
    11  C   -0.000000   0.000000  -0.000000   0.000000  -0.000000   0.000000
    12  C    0.000000  -0.000000   0.000000   0.000000   0.000000  -0.000000
    13  C   -0.000000   0.000000  -0.000000  -0.000000  -0.000000   0.000000
    14  C    0.000000  -0.000000   0.000000  -0.000000   0.000000  -0.000000
    15  O   -0.000000   0.000000  -0.000000   0.000000  -0.000000   0.000000
    16  C    0.000000  -0.000000   0.000000  -0.000000   0.000000  -0.000000
    17  H    0.000000  -0.000000   0.000000   0.000000   0.000000  -0.000000
    18  H   -0.000000   0.000000  -0.000000  -0.000000  -0.000000   0.000000
    19  H   -0.000000  -0.000000   0.000000  -0.000000  -0.000000   0.000000
    20  H   -0.000000  -0.000000   0.000000  -0.000000   0.000000   0.000000
    21  H    0.000000  -0.000000  -0.000000  -0.000000   0.000000  -0.000000
    22  H    0.000000  -0.000000   0.000000   0.000000   0.000000   0.000000
    23  H    0.000000   0.000000  -0.000000  -0.000000  -0.000000   0.000000
    24  H   -0.000000  -0.000000   0.000000   0.000000   0.000000  -0.000000
    25  H    0.000000   0.000000   0.000000   0.000000  -0.000000  -0.000000
    26  H   -0.000000  -0.000000  -0.000000   0.000000   0.000000   0.000000
    27  H   -0.000000   0.000000  -0.000000   0.000000  -0.000000   0.000000
    28  H   -0.000000   0.000000  -0.000000   0.000000   0.000000   0.000000
    29  H   -0.000000   0.000000   0.000000  -0.000000  -0.000000  -0.000000
    30  H    0.000000  -0.000000   0.000000  -0.000000   0.000000  -0.000000
               7          8          9         10         11         12
     1  C    0.000000  -0.000000  -0.000000  -0.000000  -0.000000   0.000000
     2  C   -0.000000   0.000000   0.000000   0.000000   0.000000  -0.000000
     3  C    0.000000  -0.000000  -0.000000  -0.000000  -0.000000   0.000000
     4  O    0.000000  -0.000000  -0.000000   0.000000   0.000000   0.000000
     5  C   -0.000000  -0.000000  -0.000000  -0.000000  -0.000000   0.000000
     6  C   -0.000000   0.000000   0.000000  -0.000000   0.000000  -0.000000
     7  C    0.000000  -0.000000   0.000000  -0.000000   0.000000   0.000000
     8  C   -0.000000   0.000000   0.000000   0.000000   0.000000  -0.000000
     9  C    0.000000   0.000000   0.000000  -0.000000   0.000000  -0.000000
    10  C   -0.000000   0.000000  -0.000000   0.000000  -0.000000   0.000000
    11  C    0.000000   0.000000   0.000000  -0.000000   0.000000  -0.000000
    12  C    0.000000  -0.000000  -0.000000   0.000000  -0.000000   0.000000
    13  C    0.000000   0.000000   0.000000  -0.000000   0.000000  -0.000000
    14  C    0.000000  -0.000000  -0.000000   0.000000  -0.000000   0.000000
    15  O   -0.000000   0.000000  -0.000000   0.000000  -0.000000   0.000000
    16  C    0.000000  -0.000000   0.000000   0.000000   0.000000  -0.000000
    17  H    0.000000  -0.000000  -0.000000   0.000000   0.000000  -0.000000
    18  H   -0.000000   0.000000   0.000000   0.000000  -0.000000   0.000000
    19  H   -0.000000   0.000000  -0.000000   0.000000   0.000000  -0.000000
    20  H   -0.000000   0.000000   0.000000  -0.000000  -0.000000   0.000000
    21  H    0.000000  -0.000000  -0.000000  -0.000000  -0.000000   0.000000
    22  H    0.000000  -0.000000  -0.000000  -0.000000  -0.000000   0.000000
[...]
     4  O   -0.231619   0.000000
     5  C    0.064498  -0.000000
     6  C   -0.005504   0.000000
     7  C    0.050149  -0.000000
     8  C    0.027147   0.000000
     9  C   -0.005470   0.000000
    10  C    0.050100  -0.000000
    11  C    0.027155  -0.000000
    12  C    0.026270   0.000000
    13  C   -0.025993  -0.000000
    14  C    0.088048   0.000000
    15  O   -0.231636  -0.000000
    16  C    0.064505  -0.000000
    17  H   -0.026641  -0.000000
    18  H   -0.026612  -0.000000
    19  H    0.040720   0.000000
    20  H    0.041750   0.000000
    21  H    0.047103   0.000000
    22  H   -0.038937  -0.000000
    23  H   -0.030366  -0.000000
    24  H   -0.038924  -0.000000
    25  H   -0.030367  -0.000000
    26  H   -0.026643  -0.000000
    27  H   -0.026613   0.000000
    28  H    0.040715   0.000000
    29  H    0.041748   0.000000
    30  H    0.047098   0.000000
 Sum of Mulliken charges =  -0.00000  -0.00000
 Mulliken charges and spin densities with hydrogens summed into heavy atoms:
               1          2
     1  C   -0.000367   0.000000
     2  C   -0.052614  -0.000000
     3  C    0.088046   0.000000
     4  O   -0.231619   0.000000
     5  C    0.194071   0.000000
     6  C   -0.005504   0.000000
     7  C    0.011211  -0.000000
     8  C   -0.003219  -0.000000
     9  C   -0.005470   0.000000
    10  C    0.011176  -0.000000
    11  C   -0.003212  -0.000000
    12  C   -0.000372   0.000000
    13  C   -0.052606  -0.000000
    14  C    0.088048   0.000000
    15  O   -0.231636  -0.000000
    16  C    0.194066  -0.000000
 Electronic spatial extent (au):  <R**2>=           3698.7110
 Charge=             -0.0000 electrons
 Dipole moment (field-independent basis, Debye):
    X=              0.0000    Y=              0.0002    Z=              1.1993  Tot=              1.1993
 Quadrupole moment (field-independent basis, Debye-Ang):
   XX=            -79.9413   YY=            -84.1938   ZZ=            -94.3216
   XY=              7.3631   XZ=              0.0000   YZ=              0.0007
 Traceless Quadrupole moment (field-independent basis, Debye-Ang):
   XX=              6.2109   YY=              1.9584   ZZ=             -8.1694
   XY=              7.3631   XZ=              0.0000   YZ=              0.0007
 Octapole moment (field-independent basis, Debye-Ang**2):
  XXX=             -0.0020  YYY=              0.0004  ZZZ=             19.9331  XYY=             -0.0008
  XXY=             -0.0012  XXZ=             22.5094  XZZ=              0.0007  YZZ=              0.0019
  YYZ=              4.0580  XYZ=             18.6254
 Hexadecapole moment (field-independent basis, Debye-Ang**3):
 XXXX=          -2837.2874 YYYY=          -1415.7297 ZZZZ=           -478.6315 XXXY=             61.1535
 XXXZ=             -0.0130 YYYX=             70.9602 YYYZ=              0.0004 ZZZX=             -0.0001
 ZZZY=              0.0011 XXYY=           -677.7258 XXZZ=           -599.7141 YYZZ=           -302.8995
 XXYZ=              0.0025 YYXZ=             -0.0001 ZZXY=             35.9514
 N-N= 1.048722554386D+03 E-N=-3.707844860632D+03  KE= 6.869284092089D+02
                          Isotropic Fermi Contact Couplings
        Atom                 a.u.       MegaHertz       Gauss      10(-4) cm-1
     1  C(13)             -0.00000      -0.00000      -0.00000      -0.00000
     2  C(13)             -0.00000      -0.00000      -0.00000      -0.00000
     3  C(13)              0.00000       0.00000       0.00000       0.00000
     4  O(17)             -0.00000       0.00000       0.00000       0.00000
     5  C(13)              0.00000       0.00000       0.00000       0.00000
     6  C(13)              0.00000       0.00000       0.00000       0.00000
     7  C(13)             -0.00000      -0.00000      -0.00000      -0.00000
     8  C(13)             -0.00000      -0.00000      -0.00000      -0.00000
     9  C(13)              0.00000       0.00000       0.00000       0.00000
    10  C(13)             -0.00000      -0.00000      -0.00000      -0.00000
    11  C(13)             -0.00000      -0.00000      -0.00000      -0.00000
    12  C(13)             -0.00000      -0.00000      -0.00000      -0.00000
    13  C(13)             -0.00000      -0.00000      -0.00000      -0.00000
    14  C(13)              0.00000       0.00000       0.00000       0.00000
    15  O(17)              0.00000      -0.00000      -0.00000      -0.00000
    16  C(13)              0.00000       0.00000       0.00000       0.00000
    17  H(1)              -0.00000      -0.00000      -0.00000      -0.00000
    18  H(1)               0.00000       0.00000       0.00000       0.00000
    19  H(1)               0.00000       0.00000       0.00000       0.00000
    20  H(1)               0.00000       0.00000       0.00000       0.00000
    21  H(1)               0.00000       0.00000       0.00000       0.00000
    22  H(1)              -0.00000      -0.00000      -0.00000      -0.00000
    23  H(1)              -0.00000      -0.00000      -0.00000      -0.00000
    24  H(1)               0.00000       0.00000       0.00000       0.00000
    25  H(1)               0.00000       0.00000       0.00000       0.00000
    26  H(1)              -0.00000      -0.00000      -0.00000      -0.00000
    27  H(1)               0.00000       0.00000       0.00000       0.00000
    28  H(1)               0.00000       0.00000       0.00000       0.00000
    29  H(1)              -0.00000      -0.00000      -0.00000      -0.00000
    30  H(1)               0.00000       0.00000       0.00000       0.00000
 --------------------------------------------------------
       Center         ----  Spin Dipole Couplings  ----
                      3XX-RR        3YY-RR        3ZZ-RR
 --------------------------------------------------------
     1   Atom       -0.000000     -0.000000      0.000000
     2   Atom       -0.000000     -0.000000      0.000000
     3   Atom        0.000000     -0.000000      0.000000
     4   Atom        0.000000     -0.000000     -0.000000
     5   Atom        0.000000     -0.000000      0.000000
     6   Atom        0.000000      0.000000     -0.000000
     7   Atom       -0.000000     -0.000000      0.000000
     8   Atom       -0.000000     -0.000000      0.000000
     9   Atom       -0.000000      0.000000      0.000000
    10   Atom       -0.000000     -0.000000      0.000000
    11   Atom       -0.000000     -0.000000      0.000000
    12   Atom       -0.000000      0.000000      0.000000
    13   Atom        0.000000     -0.000000      0.000000
    14   Atom        0.000000     -0.000000      0.000000
    15   Atom        0.000000     -0.000000      0.000000
    16   Atom        0.000000      0.000000     -0.000000
    17   Atom       -0.000000      0.000000      0.000000
    18   Atom       -0.000000     -0.000000      0.000000
    19   Atom        0.000000     -0.000000     -0.000000
    20   Atom        0.000000      0.000000     -0.000000
    21   Atom       -0.000000      0.000000     -0.000000
    22   Atom       -0.000000      0.000000      0.000000
    23   Atom        0.000000     -0.000000      0.000000
    24   Atom       -0.000000      0.000000      0.000000
    25   Atom        0.000000     -0.000000      0.000000
    26   Atom       -0.000000      0.000000      0.000000
    27   Atom       -0.000000      0.000000      0.000000
    28   Atom        0.000000      0.000000     -0.000000
    29   Atom        0.000000     -0.000000      0.000000
    30   Atom       -0.000000      0.000000     -0.000000
 --------------------------------------------------------
                        XY            XZ            YZ
 --------------------------------------------------------
     1   Atom        0.000000     -0.000000     -0.000000
     2   Atom        0.000000     -0.000000     -0.000000
     3   Atom        0.000000      0.000000     -0.000000
     4   Atom       -0.000000      0.000000     -0.000000
     5   Atom        0.000000      0.000000      0.000000
     6   Atom       -0.000000     -0.000000      0.000000
     7   Atom        0.000000     -0.000000     -0.000000
     8   Atom       -0.000000     -0.000000     -0.000000
     9   Atom       -0.000000      0.000000     -0.000000
    10   Atom        0.000000      0.000000      0.000000
    11   Atom        0.000000      0.000000      0.000000
    12   Atom        0.000000      0.000000      0.000000
    13   Atom       -0.000000      0.000000      0.000000
    14   Atom        0.000000     -0.000000      0.000000
    15   Atom        0.000000     -0.000000     -0.000000
    16   Atom        0.000000     -0.000000     -0.000000
    17   Atom        0.000000     -0.000000     -0.000000
    18   Atom       -0.000000     -0.000000     -0.000000
    19   Atom       -0.000000     -0.000000      0.000000
    20   Atom       -0.000000      0.000000      0.000000
    21   Atom       -0.000000      0.000000      0.000000
    22   Atom       -0.000000     -0.000000     -0.000000
    23   Atom        0.000000      0.000000     -0.000000
    24   Atom       -0.000000      0.000000      0.000000
    25   Atom        0.000000      0.000000      0.000000
    26   Atom        0.000000      0.000000      0.000000
    27   Atom        0.000000     -0.000000     -0.000000
    28   Atom       -0.000000     -0.000000     -0.000000
    29   Atom       -0.000000     -0.000000     -0.000000
    30   Atom        0.000000      0.000000     -0.000000
 --------------------------------------------------------


 ---------------------------------------------------------------------------------
              Anisotropic Spin Dipole Couplings in Principal Axis System
 ---------------------------------------------------------------------------------

       Atom             a.u.   MegaHertz   Gauss  10(-4) cm-1        Axes

              Baa    -0.0000    -0.000    -0.000    -0.000 -0.4325  0.8518  0.2956
     1 C(13)  Bbb     0.0000     0.000     0.000     0.000  0.8833  0.3344  0.3287
              Bcc     0.0000     0.000     0.000     0.000 -0.1811 -0.4033  0.8970
 
              Baa    -0.0000    -0.000    -0.000    -0.000  0.9928 -0.0931  0.0750
     2 C(13)  Bbb    -0.0000    -0.000    -0.000    -0.000  0.0462  0.8773  0.4777
              Bcc     0.0000     0.000     0.000     0.000 -0.1103 -0.4708  0.8753
 
              Baa    -0.0000    -0.000    -0.000    -0.000 -0.5040  0.8081  0.3050
     3 C(13)  Bbb    -0.0000    -0.000    -0.000    -0.000 -0.4217 -0.5384  0.7296
              Bcc     0.0000     0.000     0.000     0.000  0.7538  0.2391  0.6121
 
              Baa    -0.0000     0.000     0.000     0.000  0.1891  0.9530  0.2369
     4 O(17)  Bbb    -0.0000     0.000     0.000     0.000 -0.0675 -0.2280  0.9713
              Bcc     0.0000    -0.000    -0.000    -0.000  0.9796 -0.1997  0.0213
 
              Baa    -0.0000    -0.000    -0.000    -0.000 -0.6682  0.7168  0.1992
     5 C(13)  Bbb    -0.0000    -0.000    -0.000    -0.000 -0.2781 -0.4890  0.8268
              Bcc     0.0000     0.000     0.000     0.000  0.6901  0.4970  0.5260
 
              Baa    -0.0000    -0.000    -0.000    -0.000  0.1438 -0.4621  0.8751
     6 C(13)  Bbb    -0.0000    -0.000    -0.000    -0.000  0.6850  0.6847  0.2490
              Bcc     0.0000     0.000     0.000     0.000  0.7142 -0.5636 -0.4150
 
              Baa    -0.0000    -0.000    -0.000    -0.000 -0.5250  0.8213  0.2234
     7 C(13)  Bbb    -0.0000    -0.000    -0.000    -0.000  0.8318  0.4395  0.3392
              Bcc     0.0000     0.000     0.000     0.000 -0.1804 -0.3639  0.9138
 
              Baa    -0.0000    -0.000    -0.000    -0.000  0.1549  0.8772  0.4544
     8 C(13)  Bbb    -0.0000    -0.000    -0.000    -0.000  0.9869 -0.1588 -0.0298
              Bcc     0.0000     0.000     0.000     0.000 -0.0460 -0.4531  0.8903
 
              Baa    -0.0000    -0.000    -0.000    -0.000 -0.6026  0.4408  0.6653
     9 C(13)  Bbb    -0.0000    -0.000    -0.000    -0.000  0.7902  0.4461  0.4201
              Bcc     0.0000     0.000     0.000     0.000 -0.1117  0.7789 -0.6171
 
              Baa    -0.0000    -0.000    -0.000    -0.000  0.0353  0.8921 -0.4505
    10 C(13)  Bbb    -0.0000    -0.000    -0.000    -0.000  0.9725 -0.1345 -0.1901
              Bcc     0.0000     0.000     0.000     0.000  0.2302  0.4314  0.8723
 
              Baa    -0.0000    -0.000    -0.000    -0.000 -0.5889  0.7855 -0.1903
    11 C(13)  Bbb     0.0000     0.000     0.000     0.000  0.7690  0.4720 -0.4312
              Bcc     0.0000     0.000     0.000     0.000  0.2489  0.4002  0.8820
 
              Baa    -0.0000    -0.000    -0.000    -0.000  0.9940 -0.0099 -0.1087
    12 C(13)  Bbb     0.0000     0.000     0.000     0.000 -0.0120  0.9799 -0.1990
              Bcc     0.0000     0.000     0.000     0.000  0.1085  0.1992  0.9739
 
              Baa    -0.0000    -0.000    -0.000    -0.000  0.3314  0.8375 -0.4344
    13 C(13)  Bbb     0.0000     0.000     0.000     0.000  0.1660  0.4015  0.9007
              Bcc     0.0000     0.000     0.000     0.000  0.9288 -0.3706 -0.0060
 
              Baa    -0.0000    -0.000    -0.000    -0.000 -0.6144  0.7311 -0.2967
    14 C(13)  Bbb     0.0000     0.000     0.000     0.000  0.0558  0.4154  0.9079
              Bcc     0.0000     0.000     0.000     0.000  0.7871  0.5412 -0.2960
 
              Baa    -0.0000     0.000     0.000     0.000 -0.1646  0.9716  0.1702
    15 O(17)  Bbb     0.0000    -0.000    -0.000    -0.000  0.8022  0.0315  0.5962
              Bcc     0.0000    -0.000    -0.000    -0.000 -0.5739 -0.2346  0.7846
 
              Baa    -0.0000    -0.000    -0.000    -0.000  0.3191  0.0721  0.9450
    16 C(13)  Bbb    -0.0000    -0.000    -0.000    -0.000  0.7335 -0.6502 -0.1981
              Bcc     0.0000     0.000     0.000     0.000  0.6002  0.7563 -0.2604
 
              Baa    -0.0000    -0.000    -0.000    -0.000  0.9537 -0.2971  0.0478
    17 H(1)   Bbb     0.0000     0.000     0.000     0.000  0.2638  0.9019  0.3421
              Bcc     0.0000     0.000     0.000     0.000 -0.1447 -0.3136  0.9385
 
              Baa    -0.0000    -0.000    -0.000    -0.000  0.6718  0.6020  0.4315
    18 H(1)   Bbb     0.0000     0.000     0.000     0.000 -0.2127  0.7148 -0.6662
              Bcc     0.0000     0.000     0.000     0.000  0.7095 -0.3558 -0.6083
 
              Baa    -0.0000    -0.000    -0.000    -0.000  0.1217 -0.6485  0.7514
    19 H(1)   Bbb    -0.0000    -0.000    -0.000    -0.000  0.2233  0.7555  0.6159
              Bcc     0.0000     0.000     0.000     0.000  0.9671 -0.0928 -0.2368
 
              Baa    -0.0000    -0.000    -0.000    -0.000 -0.3942 -0.2232  0.8915
    20 H(1)   Bbb    -0.0000    -0.000    -0.000    -0.000  0.5270  0.7398  0.4182
              Bcc     0.0000     0.000     0.000     0.000  0.7529 -0.6347  0.1740
 
              Baa    -0.0000    -0.000    -0.000    -0.000 -0.5764 -0.2674  0.7721
    21 H(1)   Bbb    -0.0000    -0.000    -0.000    -0.000  0.8162 -0.1421  0.5601
              Bcc     0.0000     0.000     0.000     0.000 -0.0401  0.9531  0.3001
 
              Baa    -0.0000    -0.000    -0.000    -0.000  0.6357  0.6269  0.4504
    22 H(1)   Bbb     0.0000     0.000     0.000     0.000  0.7457 -0.3480 -0.5682
              Bcc     0.0000     0.000     0.000     0.000 -0.1995  0.6971 -0.6887
 
              Baa    -0.0000    -0.000    -0.000    -0.000 -0.2206  0.8851  0.4097
    23 H(1)   Bbb     0.0000     0.000     0.000     0.000  0.9700  0.1550  0.1873
              Bcc     0.0000     0.000     0.000     0.000 -0.1023 -0.4387  0.8928
 
              Baa    -0.0000    -0.000    -0.000    -0.000  0.8972  0.3522 -0.2666
    24 H(1)   Bbb     0.0000     0.000     0.000     0.000 -0.4315  0.8278 -0.3587
              Bcc     0.0000     0.000     0.000     0.000  0.0943  0.4368  0.8946
 
              Baa    -0.0000    -0.000    -0.000    -0.000 -0.0470  0.9078 -0.4168
    25 H(1)   Bbb     0.0000     0.000     0.000     0.000  0.9882 -0.0187 -0.1523
              Bcc     0.0000     0.000     0.000     0.000  0.1461  0.4190  0.8962
 
              Baa    -0.0000    -0.000    -0.000    -0.000  0.9611 -0.2761 -0.0006
    26 H(1)   Bbb     0.0000     0.000     0.000     0.000  0.2754  0.9589 -0.0678
              Bcc     0.0000     0.000     0.000     0.000  0.0193  0.0650  0.9977
 
              Baa    -0.0000    -0.000    -0.000    -0.000  0.9879 -0.1545 -0.0106
    27 H(1)   Bbb     0.0000     0.000     0.000     0.000  0.0936  0.5415  0.8355
              Bcc     0.0000     0.000     0.000     0.000  0.1233  0.8264 -0.5494
 
              Baa    -0.0000    -0.000    -0.000    -0.000  0.1165  0.2307  0.9660
    28 H(1)   Bbb     0.0000     0.000     0.000     0.000  0.8692  0.4470 -0.2115
              Bcc     0.0000     0.000     0.000     0.000 -0.4806  0.8643 -0.1484
 
              Baa    -0.0000    -0.000    -0.000    -0.000  0.2389  0.8009  0.5490
    29 H(1)   Bbb     0.0000     0.000     0.000     0.000  0.7132 -0.5284  0.4606
              Bcc     0.0000     0.000     0.000     0.000 -0.6591 -0.2815  0.6974
 
              Baa    -0.0000    -0.000    -0.000    -0.000 -0.4266  0.6595  0.6190
    30 H(1)   Bbb    -0.0000    -0.000    -0.000    -0.000  0.8293  0.0120  0.5587
              Bcc     0.0000     0.000     0.000     0.000  0.3610  0.7516 -0.5520
 

 ---------------------------------------------------------------------------------

 No NMR shielding tensors so no spin-rotation constants.
 Leave Link  601 at Fri Jul 24 20:57:50 2020, MaxMem=  4026531840 cpu:               2.1 elap:               0.3
 (Enter /opt/ohpc/pub/libs/gaussian/g16-A.03/sandybridge/g16/l9999.exe)

 Test job not archived.
 1\1\GINC-SKYLAKE018\FOpt\ULC-wPBE\CC-pVDZ\C14H14O2\RDU230\24-Jul-2020\
 0\\#P uLC-wPBE/cc-pVDZ iop(3/107=0092500000, 3/108=0092500000) opt\\H1
 4 C14 O2\\0,1\C,-3.3679762879,1.2162822138,-0.417450883\C,-3.092358189
 8,-0.0375302515,0.1490492895\C,-1.7709895428,-0.5219580877,0.185854209
 \O,-1.4225750788,-1.7328288646,0.7288040114\C,-2.4560790192,-2.5207974
 834,1.3065688254\C,-0.7042561906,0.2537024512,-0.3491233452\C,-1.01694
 96267,1.5090171867,-0.9022758954\C,-2.3318035445,1.9944562357,-0.94559
 44837\C,0.6985176679,-0.2541336588,-0.3456704899\C,1.0141093583,-1.508
 9209284,-0.8983277016\C,2.3291668975,-1.9944147982,-0.9351156115\C,3.3
 625172431,-1.2168139303,-0.4006717058\C,3.0839577946,0.0364667797,0.16
 56031846\C,1.7624451537,0.5209269272,0.1957754744\O,1.4111613602,1.731
 2670026,0.7381521582\C,2.4416711213,2.5187653679,1.3218758683\H,-4.405
 8928959,1.579176169,-0.4411484963\H,-3.9142046953,-0.6348787262,0.5634
 325496\H,-3.2252125831,-2.8129661708,0.5571703813\H,-2.9574523377,-1.9
 934735823,2.1483427724\H,-1.9607530797,-3.43055028,1.6914436073\H,-0.1
 966479407,2.1138398537,-1.3118954303\H,-2.5420615099,2.9764702,-1.3918
 213555\H,0.1959930942,-2.1133296166,-1.3129584092\H,2.5416911728,-2.97
 60211974,-1.3811483519\H,4.40052539,-1.5797472718,-0.4191301594\H,3.90
 36345204,0.6332748774,0.5849941117\H,3.214657705,2.8115296792,0.576684
 9464\H,2.9386969026,1.9908025358,2.1658196597\H,1.944386141,3.42821836
 79,1.7049162692\\Version=EM64L-G16RevA.03\State=1-A\HF=-691.6549105\S2
 =0.\S2-1=0.\S2A=0.\RMSD=3.227e-09\RMSF=9.511e-06\Dipole=-0.0012569,-0.
 0002922,0.4718533\Quadrupole=3.9362355,2.137394,-6.0736295,5.6264786,0
 .0294082,0.0183923\PG=C01 [X(C14H14O2)]\\@


 IT IS THE GODS' CUSTOM TO BRING LOW ALL THINGS OF SURPASSING GREATNESS.
     -- HERODOTUS
 IT IS THE LOFTY PINE THAT BY THE STORM IS OFTENER TOSSED;
 TOWERS FALL WITH HEAVIER CRASH WHICH HIGHER SOAR.
     -- HORACE
 THE BIGGER THEY COME, THE HARDER THEY FALL.
     -- BOB FITZSIMONS HEAVYWEIGHT CHAMPION, 1897-1899
 Job cpu time:       0 days  3 hours 18 minutes 32.8 seconds.
 Elapsed time:       0 days  0 hours 25 minutes  3.1 seconds.
 File lengths (MBytes):  RWF=    156 Int=      0 D2E=      0 Chk=     16 Scr=      8
 Normal termination of Gaussian 16 at Fri Jul 24 20:57:50 2020.
