 Entering Gaussian System, Link 0=g16
 Input=mols_65_5_25_n-cOC-N_opt_0.gjf
 Output=mols_65_5_25_n-cOC-N_opt_0.log
 Initial command:
 /opt/ohpc/pub/libs/gaussian/g16-A.03/sandybridge/g16/l1.exe "/mnt/gpfs2_4m/scratch/rdu230/ondemand/projects/dihedral_energies/7trial/wtuning/mols_65_5_25_n-cOC-N/Gau-111732.inp" -scrdir="/mnt/gpfs2_4m/scratch/rdu230/ondemand/projects/dihedral_energies/7trial/wtuning/mols_65_5_25_n-cOC-N/"
 Entering Link 1 = /opt/ohpc/pub/libs/gaussian/g16-A.03/sandybridge/g16/l1.exe PID=    111733.
  
 Copyright (c) 1988,1990,1992,1993,1995,1998,2003,2009,2016,
            Gaussian, Inc.  All Rights Reserved.
  
 This is part of the Gaussian(R) 16 program.  It is based on
 the Gaussian(R) 09 system (copyright 2009, Gaussian, Inc.),
 the Gaussian(R) 03 system (copyright 2003, Gaussian, Inc.),
 the Gaussian(R) 98 system (copyright 1998, Gaussian, Inc.),
 the Gaussian(R) 94 system (copyright 1995, Gaussian, Inc.),
 the Gaussian 92(TM) system (copyright 1992, Gaussian, Inc.),
 the Gaussian 90(TM) system (copyright 1990, Gaussian, Inc.),
 the Gaussian 88(TM) system (copyright 1988, Gaussian, Inc.),
 the Gaussian 86(TM) system (copyright 1986, Carnegie Mellon
 University), and the Gaussian 82(TM) system (copyright 1983,
 Carnegie Mellon University). Gaussian is a federally registered
 trademark of Gaussian, Inc.
  
 This software contains proprietary and confidential information,
 including trade secrets, belonging to Gaussian, Inc.
  
 This software is provided under written license and may be
 used, copied, transmitted, or stored only in accord with that
 written license.
  
 The following legend is applicable only to US Government
 contracts under FAR:
  
                    RESTRICTED RIGHTS LEGEND
  
 Use, reproduction and disclosure by the US Government is
 subject to restrictions as set forth in subparagraphs (a)
 and (c) of the Commercial Computer Software - Restricted
 Rights clause in FAR 52.227-19.
  
 Gaussian, Inc.
 340 Quinnipiac St., Bldg. 40, Wallingford CT 06492
  
  
 ---------------------------------------------------------------
 Warning -- This program may not be used in any manner that
 competes with the business of Gaussian, Inc. or will provide
 assistance to any competitor of Gaussian, Inc.  The licensee
 of this program is prohibited from giving any competitor of
 Gaussian, Inc. access to this program.  By using this program,
 the user acknowledges that Gaussian, Inc. is engaged in the
 business of creating and licensing software in the field of
 computational chemistry and represents and warrants to the
 licensee that it is not a competitor of Gaussian, Inc. and that
 it will not use this program in any manner prohibited above.
 ---------------------------------------------------------------
  

 Cite this work as:
 Gaussian 16, Revision A.03,
 M. J. Frisch, G. W. Trucks, H. B. Schlegel, G. E. Scuseria, 
 M. A. Robb, J. R. Cheeseman, G. Scalmani, V. Barone, 
 G. A. Petersson, H. Nakatsuji, X. Li, M. Caricato, A. V. Marenich, 
 J. Bloino, B. G. Janesko, R. Gomperts, B. Mennucci, H. P. Hratchian, 
 J. V. Ortiz, A. F. Izmaylov, J. L. Sonnenberg, D. Williams-Young, 
 F. Ding, F. Lipparini, F. Egidi, J. Goings, B. Peng, A. Petrone, 
 T. Henderson, D. Ranasinghe, V. G. Zakrzewski, J. Gao, N. Rega, 
 G. Zheng, W. Liang, M. Hada, M. Ehara, K. Toyota, R. Fukuda, 
 J. Hasegawa, M. Ishida, T. Nakajima, Y. Honda, O. Kitao, H. Nakai, 
 T. Vreven, K. Throssell, J. A. Montgomery, Jr., J. E. Peralta, 
 F. Ogliaro, M. J. Bearpark, J. J. Heyd, E. N. Brothers, K. N. Kudin, 
 V. N. Staroverov, T. A. Keith, R. Kobayashi, J. Normand, 
 K. Raghavachari, A. P. Rendell, J. C. Burant, S. S. Iyengar, 
 J. Tomasi, M. Cossi, J. M. Millam, M. Klene, C. Adamo, R. Cammi, 
 J. W. Ochterski, R. L. Martin, K. Morokuma, O. Farkas, 
 J. B. Foresman, and D. J. Fox, Gaussian, Inc., Wallingford CT, 2016.
 
 ******************************************
 Gaussian 16:  EM64L-G16RevA.03 25-Dec-2016
                25-Jul-2020 
 ******************************************
 %mem=30GB
 %nproc=8
 Will use up to    8 processors via shared memory.
 ---------------------------------------------------------------
 #P uLC-wPBE/cc-pVDZ iop(3/107=0120400000, 3/108=0120400000) opt
 ---------------------------------------------------------------
 1/18=20,19=15,26=3,38=1/1,3;
 2/9=110,12=2,17=6,18=5,40=1/2;
 3/5=16,11=2,25=1,30=1,71=1,74=-41,107=120400000,108=120400000,116=2/1,2,3;
 4//1;
 5/5=2,38=5/2;
 6/7=2,8=2,9=2,10=2,28=1/1;
 7//1,2,3,16;
 1/18=20,19=15,26=3/3(2);
 2/9=110/2;
 99//99;
 2/9=110/2;
 3/5=16,11=2,25=1,30=1,71=1,74=-41,107=120400000,108=120400000,116=2/1,2,3;
 4/5=5,16=3,69=1/1;
 5/5=2,38=5/2;
 7//1,2,3,16;
 1/18=20,19=15,26=3/3(-5);
 2/9=110/2;
 6/7=2,8=2,9=2,10=2,19=2,28=1/1;
 99/9=1/99;
 Leave Link    1 at Sat Jul 25 06:40:39 2020, MaxMem=  4026531840 cpu:               1.4 elap:               0.2
 (Enter /opt/ohpc/pub/libs/gaussian/g16-A.03/sandybridge/g16/l101.exe)
 -----------------
 H32 C45 S5 N10 O5
 -----------------
 Symbolic Z-matrix:
 Charge =  0 Multiplicity = 1
 C                     18.86307  -0.03592  -0.29633 
 C                     17.85295  -0.8688   -0.94919 
 N                     16.56994  -0.47004  -0.88258 
 C                     16.23903   0.74293  -0.31456 
 C                     17.20182   1.52149   0.3103 
 O                     16.67168   2.60337   0.95989 
 C                     17.66264   3.49266   1.49255 
 C                     18.46745   1.07298   0.33294 
 C                     14.8304   1.00827  -0.39337 
 N                     14.27608   2.22498  -0.81507 
 C                     12.88099   2.16612  -0.69754 
 C                     12.33114   0.92479  -0.2552 
 S                     13.57772  -0.11492   0.10468 
 C                     10.92412   0.60112  -0.10744 
 C                     10.48889  -0.65644  -0.26125 
 N                     9.20247  -1.0612   -0.07958 
 C                     8.32628  -0.12577   0.35927 
 C                     8.6691    1.20923   0.47112 
 O                     7.67699   2.10662   0.91978 
 C                     7.83683   3.45173   0.46226 
 C                     10.04561   1.61394   0.31041 
 C                     6.89137  -0.5375    0.57525 
 N                     6.55458  -1.22547   1.61311 
 C                     5.14333  -1.57031   1.47231 
 C                     4.57606  -1.09821   0.39202 
 S                     5.68558  -0.21085  -0.56991 
 C                     3.19654  -1.17322  -0.01422 
 C                     2.3802   -0.1006   -0.25255 
 N                     1.08859  -0.15882  -0.56191 
 C                     0.56278  -1.3835   -0.78689 
 C                     1.21742  -2.56616  -0.61365 
 O                     0.64573  -3.7114   -0.86469 
 C                     1.40443  -4.90012  -0.88714 
 C                     2.63894  -2.40695  -0.28045 
 C                    -0.87341  -1.40328  -1.13067 
 N                    -1.43754  -1.65385  -2.23226 
 C                    -2.75963  -1.64325  -2.16413 
 C                    -3.33822  -1.31305  -0.92827 
 S                    -2.04769  -1.11432   0.14505 
 C                    -4.71677  -1.31202  -0.55078 
 C                    -5.71774  -0.60244  -1.31343 
 N                    -7.0057   -0.43473  -0.96864 
 C                    -7.40086  -1.04649   0.21054 
 C                    -6.57688  -1.75674   0.98644 
 O                    -6.92575  -2.42601   2.13872 
 C                    -7.2493   -3.77668   1.93244 
 C                    -5.20733  -1.89107   0.59679 
 C                    -8.83407  -0.85285   0.48146 
 N                    -9.56029  -1.57083   1.31708 
 C                    -10.85559  -1.19208   1.35571 
 C                    -11.21853  -0.13581   0.59563 
 S                    -9.82852   0.289    -0.31774 
 C                    -12.42737   0.54797   0.40822 
 C                    -12.56268   1.96354   0.16916 
 N                    -13.71791   2.64378   0.00448 
 C                    -14.91311   1.86262   0.07272 
 C                    -14.92589   0.54155   0.29353 
 O                    -16.13894  -0.07156   0.46662 
 C                    -16.16215  -1.44925   0.72543 
 C                    -13.65592  -0.10919   0.44056 
 C                    -16.0553   2.73327  -0.11664 
 N                    -16.48813   3.63079   0.7214 
 C                    -17.66488   4.28323   0.21038 
 C                    -18.09726   3.73503  -0.91373 
 S                    -17.10659   2.40278  -1.43507 
 H                     19.87448  -0.45558  -0.33418 
 H                     18.09272  -1.77111  -1.39693 
 H                     18.22938   3.09767   2.29563 
 H                     17.09347   4.42348   1.93614 
 H                     18.33218   3.86106   0.74225 
 H                     19.23222   1.67307   0.79376 
 H                     12.34576   2.975    -1.04068 
 H                     11.156   -1.46517  -0.54234 
 H                     8.67092   3.96652   1.07754 
 H                     6.92902   3.98425   0.57855 
 H                     8.13421   3.49404  -0.62582 
 H                     10.30056   2.64409   0.48564 
 H                     4.73629  -2.10147   2.24318 
 H                     2.70755   0.96025  -0.10227 
 H                     2.15474  -4.87019  -1.65576 
 H                     0.74936  -5.79968  -1.13344 
 H                     1.82484  -5.16889   0.11198 
 H                     3.24827  -3.28114  -0.16431 
 H                    -3.42269  -1.89406  -3.07061 
 H                    -5.35276  -0.10467  -2.19238 
 H                    -7.86452  -4.10559   2.81762 
 H                    -7.93102  -3.82763   1.04309 
 H                    -6.35586  -4.37069   1.77087 
 H                    -4.47521  -2.44931   1.27011 
 H                    -11.50741  -1.64816   2.04944 
 H                    -11.69383   2.57712   0.02736 
 H                    -15.73674  -2.09648  -0.1132 
 H                    -15.65801  -1.69396   1.65578 
 H                    -17.19283  -1.73966   0.74306 
 H                    -13.61386  -1.21915   0.69136 
 H                    -18.0681   5.02491   0.74973 
 H                    -19.03837   3.97319  -1.45196 
 
 ITRead=  0  0  0  0  0  0  0  0  0  0  0  0  0  0  0  0  0  0  0  0
 ITRead=  0  0  0  0  0  0  0  0  0  0  0  0  0  0  0  0  0  0  0  0
 ITRead=  0  0  0  0  0  0  0  0  0  0  0  0  0  0  0  0  0  0  0  0
 ITRead=  0  0  0  0  0  0  0  0  0  0  0  0  0  0  0  0  0  0  0  0
 ITRead=  0  0  0  0  0  0  0  0  0  0  0  0  0  0  0  0  0
 MicOpt= -1 -1 -1 -1 -1 -1 -1 -1 -1 -1 -1 -1 -1 -1 -1 -1 -1 -1 -1 -1
 MicOpt= -1 -1 -1 -1 -1 -1 -1 -1 -1 -1 -1 -1 -1 -1 -1 -1 -1 -1 -1 -1
 MicOpt= -1 -1 -1 -1 -1 -1 -1 -1 -1 -1 -1 -1 -1 -1 -1 -1 -1 -1 -1 -1
 MicOpt= -1 -1 -1 -1 -1 -1 -1 -1 -1 -1 -1 -1 -1 -1 -1 -1 -1 -1 -1 -1
 MicOpt= -1 -1 -1 -1 -1 -1 -1 -1 -1 -1 -1 -1 -1 -1 -1 -1 -1
 NAtoms=     97 NQM=       97 NQMF=       0 NMMI=      0 NMMIF=      0
                NMic=       0 NMicF=      0.
                    Isotopes and Nuclear Properties:
 (Nuclear quadrupole moments (NQMom) in fm**2, nuclear magnetic moments (NMagM)
  in nuclear magnetons)

  Atom         1           2           3           4           5           6           7           8           9          10
 IAtWgt=          12          12          14          12          12          16          12          12          12          14
 AtmWgt=  12.0000000  12.0000000  14.0030740  12.0000000  12.0000000  15.9949146  12.0000000  12.0000000  12.0000000  14.0030740
 NucSpn=           0           0           2           0           0           0           0           0           0           2
 AtZEff=  -0.0000000  -0.0000000  -0.0000000  -0.0000000  -0.0000000  -0.0000000  -0.0000000  -0.0000000  -0.0000000  -0.0000000
 NQMom=    0.0000000   0.0000000   2.0440000   0.0000000   0.0000000   0.0000000   0.0000000   0.0000000   0.0000000   2.0440000
 NMagM=    0.0000000   0.0000000   0.4037610   0.0000000   0.0000000   0.0000000   0.0000000   0.0000000   0.0000000   0.4037610
 AtZNuc=   6.0000000   6.0000000   7.0000000   6.0000000   6.0000000   8.0000000   6.0000000   6.0000000   6.0000000   7.0000000

  Atom        11          12          13          14          15          16          17          18          19          20
 IAtWgt=          12          12          32          12          12          14          12          12          16          12
 AtmWgt=  12.0000000  12.0000000  31.9720718  12.0000000  12.0000000  14.0030740  12.0000000  12.0000000  15.9949146  12.0000000
 NucSpn=           0           0           0           0           0           2           0           0           0           0
 AtZEff=  -0.0000000  -0.0000000  -0.0000000  -0.0000000  -0.0000000  -0.0000000  -0.0000000  -0.0000000  -0.0000000  -0.0000000
 NQMom=    0.0000000   0.0000000   0.0000000   0.0000000   0.0000000   2.0440000   0.0000000   0.0000000   0.0000000   0.0000000
 NMagM=    0.0000000   0.0000000   0.0000000   0.0000000   0.0000000   0.4037610   0.0000000   0.0000000   0.0000000   0.0000000
 AtZNuc=   6.0000000   6.0000000  16.0000000   6.0000000   6.0000000   7.0000000   6.0000000   6.0000000   8.0000000   6.0000000

  Atom        21          22          23          24          25          26          27          28          29          30
 IAtWgt=          12          12          14          12          12          32          12          12          14          12
 AtmWgt=  12.0000000  12.0000000  14.0030740  12.0000000  12.0000000  31.9720718  12.0000000  12.0000000  14.0030740  12.0000000
 NucSpn=           0           0           2           0           0           0           0           0           2           0
 AtZEff=  -0.0000000  -0.0000000  -0.0000000  -0.0000000  -0.0000000  -0.0000000  -0.0000000  -0.0000000  -0.0000000  -0.0000000
 NQMom=    0.0000000   0.0000000   2.0440000   0.0000000   0.0000000   0.0000000   0.0000000   0.0000000   2.0440000   0.0000000
 NMagM=    0.0000000   0.0000000   0.4037610   0.0000000   0.0000000   0.0000000   0.0000000   0.0000000   0.4037610   0.0000000
 AtZNuc=   6.0000000   6.0000000   7.0000000   6.0000000   6.0000000  16.0000000   6.0000000   6.0000000   7.0000000   6.0000000

  Atom        31          32          33          34          35          36          37          38          39          40
 IAtWgt=          12          16          12          12          12          14          12          12          32          12
 AtmWgt=  12.0000000  15.9949146  12.0000000  12.0000000  12.0000000  14.0030740  12.0000000  12.0000000  31.9720718  12.0000000
 NucSpn=           0           0           0           0           0           2           0           0           0           0
 AtZEff=  -0.0000000  -0.0000000  -0.0000000  -0.0000000  -0.0000000  -0.0000000  -0.0000000  -0.0000000  -0.0000000  -0.0000000
 NQMom=    0.0000000   0.0000000   0.0000000   0.0000000   0.0000000   2.0440000   0.0000000   0.0000000   0.0000000   0.0000000
 NMagM=    0.0000000   0.0000000   0.0000000   0.0000000   0.0000000   0.4037610   0.0000000   0.0000000   0.0000000   0.0000000
 AtZNuc=   6.0000000   8.0000000   6.0000000   6.0000000   6.0000000   7.0000000   6.0000000   6.0000000  16.0000000   6.0000000

  Atom        41          42          43          44          45          46          47          48          49          50
 IAtWgt=          12          14          12          12          16          12          12          12          14          12
 AtmWgt=  12.0000000  14.0030740  12.0000000  12.0000000  15.9949146  12.0000000  12.0000000  12.0000000  14.0030740  12.0000000
 NucSpn=           0           2           0           0           0           0           0           0           2           0
 AtZEff=  -0.0000000  -0.0000000  -0.0000000  -0.0000000  -0.0000000  -0.0000000  -0.0000000  -0.0000000  -0.0000000  -0.0000000
 NQMom=    0.0000000   2.0440000   0.0000000   0.0000000   0.0000000   0.0000000   0.0000000   0.0000000   2.0440000   0.0000000
 NMagM=    0.0000000   0.4037610   0.0000000   0.0000000   0.0000000   0.0000000   0.0000000   0.0000000   0.4037610   0.0000000
 AtZNuc=   6.0000000   7.0000000   6.0000000   6.0000000   8.0000000   6.0000000   6.0000000   6.0000000   7.0000000   6.0000000

  Atom        51          52          53          54          55          56          57          58          59          60
 IAtWgt=          12          32          12          12          14          12          12          16          12          12
 AtmWgt=  12.0000000  31.9720718  12.0000000  12.0000000  14.0030740  12.0000000  12.0000000  15.9949146  12.0000000  12.0000000
 NucSpn=           0           0           0           0           2           0           0           0           0           0
 AtZEff=  -0.0000000  -0.0000000  -0.0000000  -0.0000000  -0.0000000  -0.0000000  -0.0000000  -0.0000000  -0.0000000  -0.0000000
 NQMom=    0.0000000   0.0000000   0.0000000   0.0000000   2.0440000   0.0000000   0.0000000   0.0000000   0.0000000   0.0000000
 NMagM=    0.0000000   0.0000000   0.0000000   0.0000000   0.4037610   0.0000000   0.0000000   0.0000000   0.0000000   0.0000000
 AtZNuc=   6.0000000  16.0000000   6.0000000   6.0000000   7.0000000   6.0000000   6.0000000   8.0000000   6.0000000   6.0000000

  Atom        61          62          63          64          65          66          67          68          69          70
 IAtWgt=          12          14          12          12          32           1           1           1           1           1
 AtmWgt=  12.0000000  14.0030740  12.0000000  12.0000000  31.9720718   1.0078250   1.0078250   1.0078250   1.0078250   1.0078250
 NucSpn=           0           2           0           0           0           1           1           1           1           1
 AtZEff=  -0.0000000  -0.0000000  -0.0000000  -0.0000000  -0.0000000  -0.0000000  -0.0000000  -0.0000000  -0.0000000  -0.0000000
 NQMom=    0.0000000   2.0440000   0.0000000   0.0000000   0.0000000   0.0000000   0.0000000   0.0000000   0.0000000   0.0000000
 NMagM=    0.0000000   0.4037610   0.0000000   0.0000000   0.0000000   2.7928460   2.7928460   2.7928460   2.7928460   2.7928460
 AtZNuc=   6.0000000   7.0000000   6.0000000   6.0000000  16.0000000   1.0000000   1.0000000   1.0000000   1.0000000   1.0000000

  Atom        71          72          73          74          75          76          77          78          79          80
 IAtWgt=           1           1           1           1           1           1           1           1           1           1
 AtmWgt=   1.0078250   1.0078250   1.0078250   1.0078250   1.0078250   1.0078250   1.0078250   1.0078250   1.0078250   1.0078250
 NucSpn=           1           1           1           1           1           1           1           1           1           1
 AtZEff=  -0.0000000  -0.0000000  -0.0000000  -0.0000000  -0.0000000  -0.0000000  -0.0000000  -0.0000000  -0.0000000  -0.0000000
 NQMom=    0.0000000   0.0000000   0.0000000   0.0000000   0.0000000   0.0000000   0.0000000   0.0000000   0.0000000   0.0000000
 NMagM=    2.7928460   2.7928460   2.7928460   2.7928460   2.7928460   2.7928460   2.7928460   2.7928460   2.7928460   2.7928460
 AtZNuc=   1.0000000   1.0000000   1.0000000   1.0000000   1.0000000   1.0000000   1.0000000   1.0000000   1.0000000   1.0000000

  Atom        81          82          83          84          85          86          87          88          89          90
 IAtWgt=           1           1           1           1           1           1           1           1           1           1
 AtmWgt=   1.0078250   1.0078250   1.0078250   1.0078250   1.0078250   1.0078250   1.0078250   1.0078250   1.0078250   1.0078250
 NucSpn=           1           1           1           1           1           1           1           1           1           1
 AtZEff=  -0.0000000  -0.0000000  -0.0000000  -0.0000000  -0.0000000  -0.0000000  -0.0000000  -0.0000000  -0.0000000  -0.0000000
 NQMom=    0.0000000   0.0000000   0.0000000   0.0000000   0.0000000   0.0000000   0.0000000   0.0000000   0.0000000   0.0000000
 NMagM=    2.7928460   2.7928460   2.7928460   2.7928460   2.7928460   2.7928460   2.7928460   2.7928460   2.7928460   2.7928460
 AtZNuc=   1.0000000   1.0000000   1.0000000   1.0000000   1.0000000   1.0000000   1.0000000   1.0000000   1.0000000   1.0000000

  Atom        91          92          93          94          95          96          97
 IAtWgt=           1           1           1           1           1           1           1
 AtmWgt=   1.0078250   1.0078250   1.0078250   1.0078250   1.0078250   1.0078250   1.0078250
 NucSpn=           1           1           1           1           1           1           1
 AtZEff=  -0.0000000  -0.0000000  -0.0000000  -0.0000000  -0.0000000  -0.0000000  -0.0000000
 NQMom=    0.0000000   0.0000000   0.0000000   0.0000000   0.0000000   0.0000000   0.0000000
 NMagM=    2.7928460   2.7928460   2.7928460   2.7928460   2.7928460   2.7928460   2.7928460
 AtZNuc=   1.0000000   1.0000000   1.0000000   1.0000000   1.0000000   1.0000000   1.0000000
 Leave Link  101 at Sat Jul 25 06:40:39 2020, MaxMem=  4026531840 cpu:               3.7 elap:               0.5
 (Enter /opt/ohpc/pub/libs/gaussian/g16-A.03/sandybridge/g16/l103.exe)

 GradGradGradGradGradGradGradGradGradGradGradGradGradGradGradGradGradGrad
 Berny optimization.
 Initialization pass.
                           ----------------------------
                           !    Initial Parameters    !
                           ! (Angstroms and Degrees)  !
 --------------------------                            --------------------------
 ! Name  Definition              Value          Derivative Info.                !
 --------------------------------------------------------------------------------
 ! R1    R(1,2)                  1.463          estimate D2E/DX2                !
 ! R2    R(1,8)                  1.335          estimate D2E/DX2                !
 ! R3    R(1,66)                 1.0957         estimate D2E/DX2                !
 ! R4    R(2,3)                  1.3452         estimate D2E/DX2                !
 ! R5    R(2,67)                 1.0354         estimate D2E/DX2                !
 ! R6    R(3,4)                  1.3797         estimate D2E/DX2                !
 ! R7    R(4,5)                  1.3869         estimate D2E/DX2                !
 ! R8    R(4,9)                  1.4356         estimate D2E/DX2                !
 ! R9    R(5,6)                  1.3687         estimate D2E/DX2                !
 ! R10   R(5,8)                  1.3429         estimate D2E/DX2                !
 ! R11   R(6,7)                  1.4341         estimate D2E/DX2                !
 ! R12   R(7,68)                 1.0593         estimate D2E/DX2                !
 ! R13   R(7,69)                 1.1778         estimate D2E/DX2                !
 ! R14   R(7,70)                 1.071          estimate D2E/DX2                !
 ! R15   R(8,71)                 1.0758         estimate D2E/DX2                !
 ! R16   R(9,10)                 1.402          estimate D2E/DX2                !
 ! R17   R(9,13)                 1.7547         estimate D2E/DX2                !
 ! R18   R(10,11)                1.4013         estimate D2E/DX2                !
 ! R19   R(11,12)                1.4279         estimate D2E/DX2                !
 ! R20   R(11,72)                1.0288         estimate D2E/DX2                !
 ! R21   R(12,13)                1.6627         estimate D2E/DX2                !
 ! R22   R(12,14)                1.4513         estimate D2E/DX2                !
 ! R23   R(14,15)                1.3396         estimate D2E/DX2                !
 ! R24   R(14,21)                1.4043         estimate D2E/DX2                !
 ! R25   R(15,16)                1.3608         estimate D2E/DX2                !
 ! R26   R(15,73)                1.0854         estimate D2E/DX2                !
 ! R27   R(16,17)                1.3547         estimate D2E/DX2                !
 ! R28   R(17,18)                1.3828         estimate D2E/DX2                !
 ! R29   R(17,22)                1.5084         estimate D2E/DX2                !
 ! R30   R(18,19)                1.411          estimate D2E/DX2                !
 ! R31   R(18,21)                1.4438         estimate D2E/DX2                !
 ! R32   R(19,20)                1.4298         estimate D2E/DX2                !
 ! R33   R(20,74)                1.1573         estimate D2E/DX2                !
 ! R34   R(20,75)                1.0589         estimate D2E/DX2                !
 ! R35   R(20,76)                1.1288         estimate D2E/DX2                !
 ! R36   R(21,77)                1.0756         estimate D2E/DX2                !
 ! R37   R(22,23)                1.2899         estimate D2E/DX2                !
 ! R38   R(22,26)                1.6947         estimate D2E/DX2                !
 ! R39   R(23,24)                1.4596         estimate D2E/DX2                !
 ! R40   R(24,25)                1.3083         estimate D2E/DX2                !
 ! R41   R(24,78)                1.0208         estimate D2E/DX2                !
 ! R42   R(25,26)                1.7157         estimate D2E/DX2                !
 ! R43   R(25,27)                1.44           estimate D2E/DX2                !
 ! R44   R(27,28)                1.3688         estimate D2E/DX2                !
 ! R45   R(27,34)                1.3798         estimate D2E/DX2                !
 ! R46   R(28,29)                1.3294         estimate D2E/DX2                !
 ! R47   R(28,79)                1.1203         estimate D2E/DX2                !
 ! R48   R(29,30)                1.3516         estimate D2E/DX2                !
 ! R49   R(30,31)                1.3628         estimate D2E/DX2                !
 ! R50   R(30,35)                1.4769         estimate D2E/DX2                !
 ! R51   R(31,32)                1.3044         estimate D2E/DX2                !
 ! R52   R(31,34)                1.4687         estimate D2E/DX2                !
 ! R53   R(32,33)                1.4104         estimate D2E/DX2                !
 ! R54   R(33,80)                1.0745         estimate D2E/DX2                !
 ! R55   R(33,81)                1.1397         estimate D2E/DX2                !
 ! R56   R(33,82)                1.1168         estimate D2E/DX2                !
 ! R57   R(34,83)                1.0719         estimate D2E/DX2                !
 ! R58   R(35,36)                1.2628         estimate D2E/DX2                !
 ! R59   R(35,39)                1.7578         estimate D2E/DX2                !
 ! R60   R(36,37)                1.3239         estimate D2E/DX2                !
 ! R61   R(37,38)                1.404          estimate D2E/DX2                !
 ! R62   R(37,84)                1.1508         estimate D2E/DX2                !
 ! R63   R(38,39)                1.6903         estimate D2E/DX2                !
 ! R64   R(38,40)                1.4293         estimate D2E/DX2                !
 ! R65   R(40,41)                1.4447         estimate D2E/DX2                !
 ! R66   R(40,47)                1.3758         estimate D2E/DX2                !
 ! R67   R(41,42)                1.3438         estimate D2E/DX2                !
 ! R68   R(41,85)                1.074          estimate D2E/DX2                !
 ! R69   R(42,43)                1.386          estimate D2E/DX2                !
 ! R70   R(43,44)                1.3362         estimate D2E/DX2                !
 ! R71   R(43,48)                1.4714         estimate D2E/DX2                !
 ! R72   R(44,45)                1.3775         estimate D2E/DX2                !
 ! R73   R(44,47)                1.4302         estimate D2E/DX2                !
 ! R74   R(45,46)                1.4041         estimate D2E/DX2                !
 ! R75   R(46,86)                1.127          estimate D2E/DX2                !
 ! R76   R(46,87)                1.1217         estimate D2E/DX2                !
 ! R77   R(46,88)                1.085          estimate D2E/DX2                !
 ! R78   R(47,89)                1.1406         estimate D2E/DX2                !
 ! R79   R(48,49)                1.3195         estimate D2E/DX2                !
 ! R80   R(48,52)                1.7122         estimate D2E/DX2                !
 ! R81   R(49,50)                1.3501         estimate D2E/DX2                !
 ! R82   R(50,51)                1.351          estimate D2E/DX2                !
 ! R83   R(50,90)                1.0555         estimate D2E/DX2                !
 ! R84   R(51,52)                1.7166         estimate D2E/DX2                !
 ! R85   R(51,53)                1.4014         estimate D2E/DX2                !
 ! R86   R(53,54)                1.442          estimate D2E/DX2                !
 ! R87   R(53,60)                1.3936         estimate D2E/DX2                !
 ! R88   R(54,55)                1.3507         estimate D2E/DX2                !
 ! R89   R(54,91)                1.0731         estimate D2E/DX2                !
 ! R90   R(55,56)                1.4295         estimate D2E/DX2                !
 ! R91   R(56,57)                1.3395         estimate D2E/DX2                !
 ! R92   R(56,61)                1.4486         estimate D2E/DX2                !
 ! R93   R(57,58)                1.3702         estimate D2E/DX2                !
 ! R94   R(57,60)                1.4345         estimate D2E/DX2                !
 ! R95   R(58,59)                1.402          estimate D2E/DX2                !
 ! R96   R(59,92)                1.1416         estimate D2E/DX2                !
 ! R97   R(59,93)                1.0861         estimate D2E/DX2                !
 ! R98   R(59,94)                1.071          estimate D2E/DX2                !
 ! R99   R(60,95)                1.1387         estimate D2E/DX2                !
 ! R100  R(61,62)                1.302          estimate D2E/DX2                !
 ! R101  R(61,65)                1.7183         estimate D2E/DX2                !
 ! R102  R(62,63)                1.4393         estimate D2E/DX2                !
 ! R103  R(63,64)                1.3233         estimate D2E/DX2                !
 ! R104  R(63,96)                1.0018         estimate D2E/DX2                !
 ! R105  R(64,65)                1.7401         estimate D2E/DX2                !
 ! R106  R(64,97)                1.11           estimate D2E/DX2                !
 ! A1    A(2,1,8)              118.5963         estimate D2E/DX2                !
 ! A2    A(2,1,66)             113.8212         estimate D2E/DX2                !
 ! A3    A(8,1,66)             127.4452         estimate D2E/DX2                !
 ! A4    A(1,2,3)              117.8836         estimate D2E/DX2                !
 ! A5    A(1,2,67)             121.9518         estimate D2E/DX2                !
 ! A6    A(3,2,67)             120.0391         estimate D2E/DX2                !
 ! A7    A(2,3,4)              120.6485         estimate D2E/DX2                !
 ! A8    A(3,4,5)              120.8318         estimate D2E/DX2                !
 ! A9    A(3,4,9)              112.0397         estimate D2E/DX2                !
 ! A10   A(5,4,9)              127.0237         estimate D2E/DX2                !
 ! A11   A(4,5,6)              112.8701         estimate D2E/DX2                !
 ! A12   A(4,5,8)              118.3166         estimate D2E/DX2                !
 ! A13   A(6,5,8)              128.3892         estimate D2E/DX2                !
 ! A14   A(5,6,7)              113.5023         estimate D2E/DX2                !
 ! A15   A(6,7,68)             114.8387         estimate D2E/DX2                !
 ! A16   A(6,7,69)             107.2209         estimate D2E/DX2                !
 ! A17   A(6,7,70)             112.6494         estimate D2E/DX2                !
 ! A18   A(68,7,69)            105.5277         estimate D2E/DX2                !
 ! A19   A(68,7,70)            108.96           estimate D2E/DX2                !
 ! A20   A(69,7,70)            107.1049         estimate D2E/DX2                !
 ! A21   A(1,8,5)              123.2825         estimate D2E/DX2                !
 ! A22   A(1,8,71)             117.0379         estimate D2E/DX2                !
 ! A23   A(5,8,71)             119.3992         estimate D2E/DX2                !
 ! A24   A(4,9,10)             124.3954         estimate D2E/DX2                !
 ! A25   A(4,9,13)             124.515          estimate D2E/DX2                !
 ! A26   A(10,9,13)            111.0164         estimate D2E/DX2                !
 ! A27   A(9,10,11)            109.3883         estimate D2E/DX2                !
 ! A28   A(10,11,12)           116.4792         estimate D2E/DX2                !
 ! A29   A(10,11,72)           117.1891         estimate D2E/DX2                !
 ! A30   A(12,11,72)           125.9079         estimate D2E/DX2                !
 ! A31   A(11,12,13)           108.7818         estimate D2E/DX2                !
 ! A32   A(11,12,14)           126.7794         estimate D2E/DX2                !
 ! A33   A(13,12,14)           124.4283         estimate D2E/DX2                !
 ! A34   A(9,13,12)             94.2173         estimate D2E/DX2                !
 ! A35   A(12,14,15)           120.8399         estimate D2E/DX2                !
 ! A36   A(12,14,21)           118.4199         estimate D2E/DX2                !
 ! A37   A(15,14,21)           120.528          estimate D2E/DX2                !
 ! A38   A(14,15,16)           124.8226         estimate D2E/DX2                !
 ! A39   A(14,15,73)           121.9726         estimate D2E/DX2                !
 ! A40   A(16,15,73)           113.203          estimate D2E/DX2                !
 ! A41   A(15,16,17)           116.6975         estimate D2E/DX2                !
 ! A42   A(16,17,18)           122.1721         estimate D2E/DX2                !
 ! A43   A(16,17,22)           118.2398         estimate D2E/DX2                !
 ! A44   A(18,17,22)           119.1948         estimate D2E/DX2                !
 ! A45   A(17,18,19)           117.7366         estimate D2E/DX2                !
 ! A46   A(17,18,21)           119.8666         estimate D2E/DX2                !
 ! A47   A(19,18,21)           121.8362         estimate D2E/DX2                !
 ! A48   A(18,19,20)           114.7078         estimate D2E/DX2                !
 ! A49   A(19,20,74)           109.2043         estimate D2E/DX2                !
 ! A50   A(19,20,75)           110.0073         estimate D2E/DX2                !
 ! A51   A(19,20,76)           111.9117         estimate D2E/DX2                !
 ! A52   A(74,20,75)           109.6217         estimate D2E/DX2                !
 ! A53   A(74,20,76)           107.8151         estimate D2E/DX2                !
 ! A54   A(75,20,76)           108.2334         estimate D2E/DX2                !
 ! A55   A(14,21,18)           115.3016         estimate D2E/DX2                !
 ! A56   A(14,21,77)           126.2233         estimate D2E/DX2                !
 ! A57   A(18,21,77)           118.4458         estimate D2E/DX2                !
 ! A58   A(17,22,23)           120.6089         estimate D2E/DX2                !
 ! A59   A(17,22,26)           121.836          estimate D2E/DX2                !
 ! A60   A(23,22,26)           117.4336         estimate D2E/DX2                !
 ! A61   A(22,23,24)           107.5083         estimate D2E/DX2                !
 ! A62   A(23,24,25)           114.4328         estimate D2E/DX2                !
 ! A63   A(23,24,78)           115.8251         estimate D2E/DX2                !
 ! A64   A(25,24,78)           129.6735         estimate D2E/DX2                !
 ! A65   A(24,25,26)           111.6645         estimate D2E/DX2                !
 ! A66   A(24,25,27)           129.0132         estimate D2E/DX2                !
 ! A67   A(26,25,27)           119.227          estimate D2E/DX2                !
 ! A68   A(22,26,25)            88.9443         estimate D2E/DX2                !
 ! A69   A(25,27,28)           125.4233         estimate D2E/DX2                !
 ! A70   A(25,27,34)           119.2175         estimate D2E/DX2                !
 ! A71   A(28,27,34)           115.2165         estimate D2E/DX2                !
 ! A72   A(27,28,29)           125.846          estimate D2E/DX2                !
 ! A73   A(27,28,79)           122.982          estimate D2E/DX2                !
 ! A74   A(29,28,79)           110.8901         estimate D2E/DX2                !
 ! A75   A(28,29,30)           117.1532         estimate D2E/DX2                !
 ! A76   A(29,30,31)           125.3286         estimate D2E/DX2                !
 ! A77   A(29,30,35)           115.4152         estimate D2E/DX2                !
 ! A78   A(31,30,35)           119.0185         estimate D2E/DX2                !
 ! A79   A(30,31,32)           121.7979         estimate D2E/DX2                !
 ! A80   A(30,31,34)           113.5594         estimate D2E/DX2                !
 ! A81   A(32,31,34)           124.2665         estimate D2E/DX2                !
 ! A82   A(31,32,33)           120.4837         estimate D2E/DX2                !
 ! A83   A(32,33,80)           111.3174         estimate D2E/DX2                !
 ! A84   A(32,33,81)           111.0686         estimate D2E/DX2                !
 ! A85   A(32,33,82)           113.0232         estimate D2E/DX2                !
 ! A86   A(80,33,81)           105.5891         estimate D2E/DX2                !
 ! A87   A(80,33,82)           112.5677         estimate D2E/DX2                !
 ! A88   A(81,33,82)           102.6941         estimate D2E/DX2                !
 ! A89   A(27,34,31)           122.1291         estimate D2E/DX2                !
 ! A90   A(27,34,83)           118.5925         estimate D2E/DX2                !
 ! A91   A(31,34,83)           119.1021         estimate D2E/DX2                !
 ! A92   A(30,35,36)           129.8035         estimate D2E/DX2                !
 ! A93   A(30,35,39)           118.587          estimate D2E/DX2                !
 ! A94   A(36,35,39)           111.5489         estimate D2E/DX2                !
 ! A95   A(35,36,37)           113.5565         estimate D2E/DX2                !
 ! A96   A(36,37,38)           117.3059         estimate D2E/DX2                !
 ! A97   A(36,37,84)           122.2164         estimate D2E/DX2                !
 ! A98   A(38,37,84)           120.4776         estimate D2E/DX2                !
 ! A99   A(37,38,39)           105.781          estimate D2E/DX2                !
 ! A100  A(37,38,40)           129.0598         estimate D2E/DX2                !
 ! A101  A(39,38,40)           124.6533         estimate D2E/DX2                !
 ! A102  A(35,39,38)            91.7123         estimate D2E/DX2                !
 ! A103  A(38,40,41)           121.9515         estimate D2E/DX2                !
 ! A104  A(38,40,47)           124.325          estimate D2E/DX2                !
 ! A105  A(41,40,47)           113.5782         estimate D2E/DX2                !
 ! A106  A(40,41,42)           126.1517         estimate D2E/DX2                !
 ! A107  A(40,41,85)           115.0999         estimate D2E/DX2                !
 ! A108  A(42,41,85)           118.544          estimate D2E/DX2                !
 ! A109  A(41,42,43)           115.8792         estimate D2E/DX2                !
 ! A110  A(42,43,44)           123.5629         estimate D2E/DX2                !
 ! A111  A(42,43,48)           112.1041         estimate D2E/DX2                !
 ! A112  A(44,43,48)           124.3113         estimate D2E/DX2                !
 ! A113  A(43,44,45)           126.0039         estimate D2E/DX2                !
 ! A114  A(43,44,47)           118.8306         estimate D2E/DX2                !
 ! A115  A(45,44,47)           115.1376         estimate D2E/DX2                !
 ! A116  A(44,45,46)           113.756          estimate D2E/DX2                !
 ! A117  A(45,46,86)           106.9251         estimate D2E/DX2                !
 ! A118  A(45,46,87)           107.4703         estimate D2E/DX2                !
 ! A119  A(45,46,88)           111.0251         estimate D2E/DX2                !
 ! A120  A(86,46,87)           106.1228         estimate D2E/DX2                !
 ! A121  A(86,46,88)           113.9962         estimate D2E/DX2                !
 ! A122  A(87,46,88)           110.9481         estimate D2E/DX2                !
 ! A123  A(40,47,44)           121.9476         estimate D2E/DX2                !
 ! A124  A(40,47,89)           118.0024         estimate D2E/DX2                !
 ! A125  A(44,47,89)           119.9855         estimate D2E/DX2                !
 ! A126  A(43,48,49)           125.5265         estimate D2E/DX2                !
 ! A127  A(43,48,52)           124.5807         estimate D2E/DX2                !
 ! A128  A(49,48,52)           109.8047         estimate D2E/DX2                !
 ! A129  A(48,49,50)           113.1725         estimate D2E/DX2                !
 ! A130  A(49,50,51)           117.4512         estimate D2E/DX2                !
 ! A131  A(49,50,90)           119.3441         estimate D2E/DX2                !
 ! A132  A(51,50,90)           122.7992         estimate D2E/DX2                !
 ! A133  A(50,51,52)           105.9795         estimate D2E/DX2                !
 ! A134  A(50,51,53)           133.5079         estimate D2E/DX2                !
 ! A135  A(52,51,53)           120.4352         estimate D2E/DX2                !
 ! A136  A(48,52,51)            93.2625         estimate D2E/DX2                !
 ! A137  A(51,53,54)           125.5982         estimate D2E/DX2                !
 ! A138  A(51,53,60)           121.8178         estimate D2E/DX2                !
 ! A139  A(54,53,60)           112.5839         estimate D2E/DX2                !
 ! A140  A(53,54,55)           126.5029         estimate D2E/DX2                !
 ! A141  A(53,54,91)           120.4814         estimate D2E/DX2                !
 ! A142  A(55,54,91)           112.8565         estimate D2E/DX2                !
 ! A143  A(54,55,56)           115.727          estimate D2E/DX2                !
 ! A144  A(55,56,57)           123.6981         estimate D2E/DX2                !
 ! A145  A(55,56,61)           108.94           estimate D2E/DX2                !
 ! A146  A(57,56,61)           127.3579         estimate D2E/DX2                !
 ! A147  A(56,57,58)           118.0737         estimate D2E/DX2                !
 ! A148  A(56,57,60)           117.1191         estimate D2E/DX2                !
 ! A149  A(58,57,60)           124.5993         estimate D2E/DX2                !
 ! A150  A(57,58,59)           118.5354         estimate D2E/DX2                !
 ! A151  A(58,59,92)           114.5415         estimate D2E/DX2                !
 ! A152  A(58,59,93)           111.8304         estimate D2E/DX2                !
 ! A153  A(58,59,94)           106.5854         estimate D2E/DX2                !
 ! A154  A(92,59,93)           109.1816         estimate D2E/DX2                !
 ! A155  A(92,59,94)           102.5319         estimate D2E/DX2                !
 ! A156  A(93,59,94)           111.8099         estimate D2E/DX2                !
 ! A157  A(53,60,57)           124.3417         estimate D2E/DX2                !
 ! A158  A(53,60,95)           115.6063         estimate D2E/DX2                !
 ! A159  A(57,60,95)           119.8307         estimate D2E/DX2                !
 ! A160  A(56,61,62)           126.3194         estimate D2E/DX2                !
 ! A161  A(56,61,65)           117.8461         estimate D2E/DX2                !
 ! A162  A(62,61,65)           115.0273         estimate D2E/DX2                !
 ! A163  A(61,62,63)           110.8395         estimate D2E/DX2                !
 ! A164  A(62,63,64)           112.3932         estimate D2E/DX2                !
 ! A165  A(62,63,96)           118.2645         estimate D2E/DX2                !
 ! A166  A(64,63,96)           129.2376         estimate D2E/DX2                !
 ! A167  A(63,64,65)           112.684          estimate D2E/DX2                !
 ! A168  A(63,64,97)           126.8735         estimate D2E/DX2                !
 ! A169  A(65,64,97)           120.1109         estimate D2E/DX2                !
 ! A170  A(61,65,64)            88.3488         estimate D2E/DX2                !
 ! D1    D(8,1,2,3)              0.0978         estimate D2E/DX2                !
 ! D2    D(8,1,2,67)          -175.8272         estimate D2E/DX2                !
 ! D3    D(66,1,2,3)           176.1568         estimate D2E/DX2                !
 ! D4    D(66,1,2,67)            0.2318         estimate D2E/DX2                !
 ! D5    D(2,1,8,5)             -5.3894         estimate D2E/DX2                !
 ! D6    D(2,1,8,71)          -179.2586         estimate D2E/DX2                !
 ! D7    D(66,1,8,5)           179.1528         estimate D2E/DX2                !
 ! D8    D(66,1,8,71)            5.2836         estimate D2E/DX2                !
 ! D9    D(1,2,3,4)              5.3934         estimate D2E/DX2                !
 ! D10   D(67,2,3,4)          -178.6006         estimate D2E/DX2                !
 ! D11   D(2,3,4,5)             -6.0211         estimate D2E/DX2                !
 ! D12   D(2,3,4,9)            177.4496         estimate D2E/DX2                !
 ! D13   D(3,4,5,6)           -172.2911         estimate D2E/DX2                !
 ! D14   D(3,4,5,8)              0.8626         estimate D2E/DX2                !
 ! D15   D(9,4,5,6)              3.6787         estimate D2E/DX2                !
 ! D16   D(9,4,5,8)            176.8323         estimate D2E/DX2                !
 ! D17   D(3,4,9,10)          -133.0405         estimate D2E/DX2                !
 ! D18   D(3,4,9,13)            50.3546         estimate D2E/DX2                !
 ! D19   D(5,4,9,10)            50.6925         estimate D2E/DX2                !
 ! D20   D(5,4,9,13)          -125.9123         estimate D2E/DX2                !
 ! D21   D(4,5,6,7)           -173.8909         estimate D2E/DX2                !
 ! D22   D(8,5,6,7)             13.8035         estimate D2E/DX2                !
 ! D23   D(4,5,8,1)              4.9176         estimate D2E/DX2                !
 ! D24   D(4,5,8,71)           178.6491         estimate D2E/DX2                !
 ! D25   D(6,5,8,1)            176.8621         estimate D2E/DX2                !
 ! D26   D(6,5,8,71)            -9.4063         estimate D2E/DX2                !
 ! D27   D(5,6,7,68)           -68.1544         estimate D2E/DX2                !
 ! D28   D(5,6,7,69)           174.9536         estimate D2E/DX2                !
 ! D29   D(5,6,7,70)            57.3732         estimate D2E/DX2                !
 ! D30   D(4,9,10,11)         -176.6193         estimate D2E/DX2                !
 ! D31   D(13,9,10,11)           0.3841         estimate D2E/DX2                !
 ! D32   D(4,9,13,12)          178.5232         estimate D2E/DX2                !
 ! D33   D(10,9,13,12)           1.524          estimate D2E/DX2                !
 ! D34   D(9,10,11,12)          -2.6832         estimate D2E/DX2                !
 ! D35   D(9,10,11,72)        -175.6598         estimate D2E/DX2                !
 ! D36   D(10,11,12,13)          3.7948         estimate D2E/DX2                !
 ! D37   D(10,11,12,14)       -177.3475         estimate D2E/DX2                !
 ! D38   D(72,11,12,13)        176.0777         estimate D2E/DX2                !
 ! D39   D(72,11,12,14)         -5.0645         estimate D2E/DX2                !
 ! D40   D(11,12,13,9)          -2.8757         estimate D2E/DX2                !
 ! D41   D(14,12,13,9)         178.2335         estimate D2E/DX2                !
 ! D42   D(11,12,14,15)        150.5275         estimate D2E/DX2                !
 ! D43   D(11,12,14,21)        -34.7374         estimate D2E/DX2                !
 ! D44   D(13,12,14,15)        -30.7836         estimate D2E/DX2                !
 ! D45   D(13,12,14,21)        143.9515         estimate D2E/DX2                !
 ! D46   D(12,14,15,16)        176.7292         estimate D2E/DX2                !
 ! D47   D(12,14,15,73)         -2.7439         estimate D2E/DX2                !
 ! D48   D(21,14,15,16)          2.1051         estimate D2E/DX2                !
 ! D49   D(21,14,15,73)       -177.3681         estimate D2E/DX2                !
 ! D50   D(12,14,21,18)       -178.336          estimate D2E/DX2                !
 ! D51   D(12,14,21,77)          3.6772         estimate D2E/DX2                !
 ! D52   D(15,14,21,18)         -3.5839         estimate D2E/DX2                !
 ! D53   D(15,14,21,77)        178.4294         estimate D2E/DX2                !
 ! D54   D(14,15,16,17)         -3.763          estimate D2E/DX2                !
 ! D55   D(73,15,16,17)        175.7507         estimate D2E/DX2                !
 ! D56   D(15,16,17,18)          7.3838         estimate D2E/DX2                !
 ! D57   D(15,16,17,22)       -179.8778         estimate D2E/DX2                !
 ! D58   D(16,17,18,19)        179.0827         estimate D2E/DX2                !
 ! D59   D(16,17,18,21)         -9.3445         estimate D2E/DX2                !
 ! D60   D(22,17,18,19)          6.4112         estimate D2E/DX2                !
 ! D61   D(22,17,18,21)        177.984          estimate D2E/DX2                !
 ! D62   D(16,17,22,23)         76.2914         estimate D2E/DX2                !
 ! D63   D(16,17,22,26)        -99.5973         estimate D2E/DX2                !
 ! D64   D(18,17,22,23)       -110.7484         estimate D2E/DX2                !
 ! D65   D(18,17,22,26)         73.3629         estimate D2E/DX2                !
 ! D66   D(17,18,19,20)       -152.8614         estimate D2E/DX2                !
 ! D67   D(21,18,19,20)         35.7419         estimate D2E/DX2                !
 ! D68   D(17,18,21,14)          7.0532         estimate D2E/DX2                !
 ! D69   D(17,18,21,77)       -174.7939         estimate D2E/DX2                !
 ! D70   D(19,18,21,14)        178.2708         estimate D2E/DX2                !
 ! D71   D(19,18,21,77)         -3.5763         estimate D2E/DX2                !
 ! D72   D(18,19,20,74)        -77.0476         estimate D2E/DX2                !
 ! D73   D(18,19,20,75)        162.6035         estimate D2E/DX2                !
 ! D74   D(18,19,20,76)         42.2475         estimate D2E/DX2                !
 ! D75   D(17,22,23,24)       -174.7183         estimate D2E/DX2                !
 ! D76   D(26,22,23,24)          1.3466         estimate D2E/DX2                !
 ! D77   D(17,22,26,25)        175.1357         estimate D2E/DX2                !
 ! D78   D(23,22,26,25)         -0.8777         estimate D2E/DX2                !
 ! D79   D(22,23,24,25)         -1.2984         estimate D2E/DX2                !
 ! D80   D(22,23,24,78)       -178.5814         estimate D2E/DX2                !
 ! D81   D(23,24,25,26)          0.7063         estimate D2E/DX2                !
 ! D82   D(23,24,25,27)       -175.6621         estimate D2E/DX2                !
 ! D83   D(78,24,25,26)        177.5286         estimate D2E/DX2                !
 ! D84   D(78,24,25,27)          1.1602         estimate D2E/DX2                !
 ! D85   D(24,25,26,22)          0.0292         estimate D2E/DX2                !
 ! D86   D(27,25,26,22)        176.7963         estimate D2E/DX2                !
 ! D87   D(24,25,27,28)        120.382          estimate D2E/DX2                !
 ! D88   D(24,25,27,34)        -64.1785         estimate D2E/DX2                !
 ! D89   D(26,25,27,28)        -55.7502         estimate D2E/DX2                !
 ! D90   D(26,25,27,34)        119.6892         estimate D2E/DX2                !
 ! D91   D(25,27,28,29)       -176.3778         estimate D2E/DX2                !
 ! D92   D(25,27,28,79)         -3.0406         estimate D2E/DX2                !
 ! D93   D(34,27,28,29)          8.0215         estimate D2E/DX2                !
 ! D94   D(34,27,28,79)       -178.6413         estimate D2E/DX2                !
 ! D95   D(25,27,34,31)        175.9241         estimate D2E/DX2                !
 ! D96   D(25,27,34,83)          0.7948         estimate D2E/DX2                !
 ! D97   D(28,27,34,31)         -8.183          estimate D2E/DX2                !
 ! D98   D(28,27,34,83)        176.6877         estimate D2E/DX2                !
 ! D99   D(27,28,29,30)         -6.7441         estimate D2E/DX2                !
 ! D100  D(79,28,29,30)        179.2355         estimate D2E/DX2                !
 ! D101  D(28,29,30,31)          5.8303         estimate D2E/DX2                !
 ! D102  D(28,29,30,35)       -179.8541         estimate D2E/DX2                !
 ! D103  D(29,30,31,32)       -179.3258         estimate D2E/DX2                !
 ! D104  D(29,30,31,34)         -6.0842         estimate D2E/DX2                !
 ! D105  D(35,30,31,32)          6.5462         estimate D2E/DX2                !
 ! D106  D(35,30,31,34)        179.7878         estimate D2E/DX2                !
 ! D107  D(29,30,35,36)        108.8379         estimate D2E/DX2                !
 ! D108  D(29,30,35,39)        -74.2541         estimate D2E/DX2                !
 ! D109  D(31,30,35,36)        -76.4644         estimate D2E/DX2                !
 ! D110  D(31,30,35,39)        100.4437         estimate D2E/DX2                !
 ! D111  D(30,31,32,33)        169.6418         estimate D2E/DX2                !
 ! D112  D(34,31,32,33)         -2.858          estimate D2E/DX2                !
 ! D113  D(30,31,34,27)          7.3681         estimate D2E/DX2                !
 ! D114  D(30,31,34,83)       -177.5265         estimate D2E/DX2                !
 ! D115  D(32,31,34,27)       -179.5833         estimate D2E/DX2                !
 ! D116  D(32,31,34,83)         -4.4779         estimate D2E/DX2                !
 ! D117  D(31,32,33,80)        -61.9714         estimate D2E/DX2                !
 ! D118  D(31,32,33,81)       -179.3245         estimate D2E/DX2                !
 ! D119  D(31,32,33,82)         65.8676         estimate D2E/DX2                !
 ! D120  D(30,35,36,37)        176.8967         estimate D2E/DX2                !
 ! D121  D(39,35,36,37)         -0.1844         estimate D2E/DX2                !
 ! D122  D(30,35,39,38)       -178.9643         estimate D2E/DX2                !
 ! D123  D(36,35,39,38)         -1.5179         estimate D2E/DX2                !
 ! D124  D(35,36,37,38)          2.3963         estimate D2E/DX2                !
 ! D125  D(35,36,37,84)       -177.479          estimate D2E/DX2                !
 ! D126  D(36,37,38,39)         -3.3556         estimate D2E/DX2                !
 ! D127  D(36,37,38,40)       -175.3729         estimate D2E/DX2                !
 ! D128  D(84,37,38,39)        176.522          estimate D2E/DX2                !
 ! D129  D(84,37,38,40)          4.5046         estimate D2E/DX2                !
 ! D130  D(37,38,39,35)          2.5392         estimate D2E/DX2                !
 ! D131  D(40,38,39,35)        175.0068         estimate D2E/DX2                !
 ! D132  D(37,38,40,41)        -52.9354         estimate D2E/DX2                !
 ! D133  D(37,38,40,47)        131.7318         estimate D2E/DX2                !
 ! D134  D(39,38,40,41)        136.4142         estimate D2E/DX2                !
 ! D135  D(39,38,40,47)        -38.9187         estimate D2E/DX2                !
 ! D136  D(38,40,41,42)       -173.0329         estimate D2E/DX2                !
 ! D137  D(38,40,41,85)          1.6616         estimate D2E/DX2                !
 ! D138  D(47,40,41,42)          2.7625         estimate D2E/DX2                !
 ! D139  D(47,40,41,85)        177.457          estimate D2E/DX2                !
 ! D140  D(38,40,47,44)        174.2375         estimate D2E/DX2                !
 ! D141  D(38,40,47,89)         -2.8397         estimate D2E/DX2                !
 ! D142  D(41,40,47,44)         -1.4424         estimate D2E/DX2                !
 ! D143  D(41,40,47,89)       -178.5196         estimate D2E/DX2                !
 ! D144  D(40,41,42,43)         -2.3329         estimate D2E/DX2                !
 ! D145  D(85,41,42,43)       -176.8632         estimate D2E/DX2                !
 ! D146  D(41,42,43,44)          0.5416         estimate D2E/DX2                !
 ! D147  D(41,42,43,48)       -177.8271         estimate D2E/DX2                !
 ! D148  D(42,43,44,45)       -177.4065         estimate D2E/DX2                !
 ! D149  D(42,43,44,47)          0.5757         estimate D2E/DX2                !
 ! D150  D(48,43,44,45)          0.7637         estimate D2E/DX2                !
 ! D151  D(48,43,44,47)        178.7459         estimate D2E/DX2                !
 ! D152  D(42,43,48,49)        162.0267         estimate D2E/DX2                !
 ! D153  D(42,43,48,52)        -14.2079         estimate D2E/DX2                !
 ! D154  D(44,43,48,49)        -16.3276         estimate D2E/DX2                !
 ! D155  D(44,43,48,52)        167.4378         estimate D2E/DX2                !
 ! D156  D(43,44,45,46)         93.647          estimate D2E/DX2                !
 ! D157  D(47,44,45,46)        -84.4004         estimate D2E/DX2                !
 ! D158  D(43,44,47,40)         -0.0323         estimate D2E/DX2                !
 ! D159  D(43,44,47,89)        176.9883         estimate D2E/DX2                !
 ! D160  D(45,44,47,40)        178.1646         estimate D2E/DX2                !
 ! D161  D(45,44,47,89)         -4.8148         estimate D2E/DX2                !
 ! D162  D(44,45,46,86)       -159.4274         estimate D2E/DX2                !
 ! D163  D(44,45,46,87)        -45.8443         estimate D2E/DX2                !
 ! D164  D(44,45,46,88)         75.6568         estimate D2E/DX2                !
 ! D165  D(43,48,49,50)       -178.9104         estimate D2E/DX2                !
 ! D166  D(52,48,49,50)         -2.2048         estimate D2E/DX2                !
 ! D167  D(43,48,52,51)       -178.8283         estimate D2E/DX2                !
 ! D168  D(49,48,52,51)          4.4282         estimate D2E/DX2                !
 ! D169  D(48,49,50,51)         -2.1246         estimate D2E/DX2                !
 ! D170  D(48,49,50,90)       -175.0226         estimate D2E/DX2                !
 ! D171  D(49,50,51,52)          5.2204         estimate D2E/DX2                !
 ! D172  D(49,50,51,53)       -178.0905         estimate D2E/DX2                !
 ! D173  D(90,50,51,52)        177.854          estimate D2E/DX2                !
 ! D174  D(90,50,51,53)         -5.4568         estimate D2E/DX2                !
 ! D175  D(50,51,52,48)         -5.2696         estimate D2E/DX2                !
 ! D176  D(53,51,52,48)        177.515          estimate D2E/DX2                !
 ! D177  D(50,51,53,54)        145.3717         estimate D2E/DX2                !
 ! D178  D(50,51,53,60)        -34.5044         estimate D2E/DX2                !
 ! D179  D(52,51,53,54)        -38.3204         estimate D2E/DX2                !
 ! D180  D(52,51,53,60)        141.8036         estimate D2E/DX2                !
 ! D181  D(51,53,54,55)       -179.0237         estimate D2E/DX2                !
 ! D182  D(51,53,54,91)          5.9018         estimate D2E/DX2                !
 ! D183  D(60,53,54,55)          0.8623         estimate D2E/DX2                !
 ! D184  D(60,53,54,91)       -174.2123         estimate D2E/DX2                !
 ! D185  D(51,53,60,57)        178.1553         estimate D2E/DX2                !
 ! D186  D(51,53,60,95)          3.5901         estimate D2E/DX2                !
 ! D187  D(54,53,60,57)         -1.7355         estimate D2E/DX2                !
 ! D188  D(54,53,60,95)       -176.3008         estimate D2E/DX2                !
 ! D189  D(53,54,55,56)         -0.2485         estimate D2E/DX2                !
 ! D190  D(91,54,55,56)        175.1458         estimate D2E/DX2                !
 ! D191  D(54,55,56,57)          0.4629         estimate D2E/DX2                !
 ! D192  D(54,55,56,61)        179.7819         estimate D2E/DX2                !
 ! D193  D(55,56,57,58)        173.7351         estimate D2E/DX2                !
 ! D194  D(55,56,57,60)         -1.2689         estimate D2E/DX2                !
 ! D195  D(61,56,57,58)         -5.4545         estimate D2E/DX2                !
 ! D196  D(61,56,57,60)        179.5415         estimate D2E/DX2                !
 ! D197  D(55,56,61,62)        -70.0317         estimate D2E/DX2                !
 ! D198  D(55,56,61,65)        120.8131         estimate D2E/DX2                !
 ! D199  D(57,56,61,62)        109.2555         estimate D2E/DX2                !
 ! D200  D(57,56,61,65)        -59.8997         estimate D2E/DX2                !
 ! D201  D(56,57,58,59)       -178.7187         estimate D2E/DX2                !
 ! D202  D(60,57,58,59)         -4.1221         estimate D2E/DX2                !
 ! D203  D(56,57,60,53)          2.0059         estimate D2E/DX2                !
 ! D204  D(56,57,60,95)        176.3556         estimate D2E/DX2                !
 ! D205  D(58,57,60,53)       -172.6378         estimate D2E/DX2                !
 ! D206  D(58,57,60,95)          1.712          estimate D2E/DX2                !
 ! D207  D(57,58,59,92)        -62.6273         estimate D2E/DX2                !
 ! D208  D(57,58,59,93)         62.2628         estimate D2E/DX2                !
 ! D209  D(57,58,59,94)       -175.2636         estimate D2E/DX2                !
 ! D210  D(56,61,62,63)       -178.6178         estimate D2E/DX2                !
 ! D211  D(65,61,62,63)         -9.1974         estimate D2E/DX2                !
 ! D212  D(56,61,65,64)        178.022          estimate D2E/DX2                !
 ! D213  D(62,61,65,64)          7.6532         estimate D2E/DX2                !
 ! D214  D(61,62,63,64)          6.0757         estimate D2E/DX2                !
 ! D215  D(61,62,63,96)       -177.3024         estimate D2E/DX2                !
 ! D216  D(62,63,64,65)         -0.3964         estimate D2E/DX2                !
 ! D217  D(62,63,64,97)        172.9319         estimate D2E/DX2                !
 ! D218  D(96,63,64,65)       -176.5542         estimate D2E/DX2                !
 ! D219  D(96,63,64,97)         -3.2259         estimate D2E/DX2                !
 ! D220  D(63,64,65,61)         -3.7865         estimate D2E/DX2                !
 ! D221  D(97,64,65,61)       -177.6189         estimate D2E/DX2                !
 --------------------------------------------------------------------------------
 Trust Radius=3.00D-01 FncErr=1.00D-07 GrdErr=1.00D-06 EigMax=2.50D+02 EigMin=1.00D-04
 Number of steps in this run=    507 maximum allowed number of steps=    582.
 GradGradGradGradGradGradGradGradGradGradGradGradGradGradGradGradGradGrad

 Leave Link  103 at Sat Jul 25 06:40:39 2020, MaxMem=  4026531840 cpu:               0.3 elap:               0.1
 (Enter /opt/ohpc/pub/libs/gaussian/g16-A.03/sandybridge/g16/l202.exe)
 Stoichiometry    C45H32N10O5S5
 Framework group  C1[X(C45H32N10O5S5)]
 Deg. of freedom   285
 Full point group                 C1      NOp   1
 Largest Abelian subgroup         C1      NOp   1
 Largest concise Abelian subgroup C1      NOp   1
                         Standard orientation:                         
 ---------------------------------------------------------------------
 Center     Atomic      Atomic             Coordinates (Angstroms)
 Number     Number       Type             X           Y           Z
 ---------------------------------------------------------------------
      1          6           0       18.865835   -0.027666   -0.288545
      2          6           0       17.856357   -0.862155   -0.940358
      3          7           0       16.573153   -0.463802   -0.875058
      4          6           0       16.241481    0.750067   -0.309392
      5          6           0       17.203670    1.530156    0.314483
      6          8           0       16.672788    2.612995    0.961857
      7          6           0       17.663134    3.503660    1.493358
      8          6           0       18.469468    1.082206    0.338519
      9          6           0       14.832786    1.014685   -0.389338
     10          7           0       14.278154    2.230394   -0.813501
     11          6           0       12.883033    2.171176   -0.696500
     12          6           0       12.333494    0.930424   -0.252155
     13         16           0       13.580334   -0.108113    0.110184
     14          6           0       10.926536    0.606454   -0.104444
     15          6           0       10.491895   -0.651570   -0.256163
     16          7           0        9.205555   -1.056523   -0.074346
     17          6           0        8.328784   -0.120651    0.362396
     18          6           0        8.671002    1.214683    0.471971
     19          8           0        7.678322    2.112486    0.918544
     20          6           0        7.837821    3.456824    0.458646
     21          6           0       10.047427    1.619669    0.311158
     22          6           0        6.893942   -0.532584    0.578465
     23          7           0        6.556957   -1.218796    1.617426
     24          6           0        5.145913   -1.564478    1.476611
     25          6           0        4.578948   -1.094580    0.395202
     26         16           0        5.688548   -0.208511   -0.567835
     27          6           0        3.199641   -1.170887   -0.011528
     28          6           0        2.382971   -0.099038   -0.252188
     29          7           0        1.091527   -0.158358   -0.562028
     30          6           0        0.566323   -1.383661   -0.785023
     31          6           0        1.221373   -2.565732   -0.609330
     32          8           0        0.650264   -3.711659   -0.858540
     33          6           0        1.409459   -4.900105   -0.878483
     34          6           0        2.642667   -2.405331   -0.275772
     35          6           0       -0.869697   -1.404656   -1.129420
     36          7           0       -1.433222   -1.657460   -2.230815
     37          6           0       -2.755344   -1.647283   -2.163300
     38          6           0       -3.334641   -1.315071   -0.928309
     39         16           0       -2.044681   -1.113855    0.145230
     40          6           0       -4.713361   -1.313916   -0.551452
     41          6           0       -5.714276   -0.606136   -1.315847
     42          7           0       -7.002454   -0.438326   -0.971956
     43          6           0       -7.397909   -1.048108    0.208149
     44          6           0       -6.573998   -1.756602    0.985725
     45          8           0       -6.923119   -2.423916    2.139058
     46          6           0       -7.246015   -3.775091    1.935085
     47          6           0       -5.204207   -1.891084    0.596944
     48          6           0       -8.831319   -0.854563    0.478066
     49          7           0       -9.557628   -1.571315    1.314661
     50          6           0      -10.853100   -1.193025    1.352004
     51          6           0      -11.216127   -0.138295    0.589841
     52         16           0       -9.825869    0.285422   -0.323663
     53          6           0      -12.425166    0.544650    0.400633
     54          6           0      -12.560945    1.959722    0.158935
     55          7           0      -13.716380    2.639186   -0.007512
     56          6           0      -14.911285    1.857667    0.061609
     57          6           0      -14.923629    0.536995    0.284816
     58          8           0      -16.136498   -0.076299    0.458462
     59          6           0      -16.159266   -1.453523    0.719776
     60          6           0      -13.653455   -0.112954    0.433611
     61          6           0      -16.053743    2.727493   -0.129862
     62          7           0      -16.487330    3.626364    0.706346
     63          6           0      -17.664109    4.277387    0.193605
     64          6           0      -18.095750    3.726965   -0.929702
     65         16           0      -17.104296    2.394177   -1.448168
     66          1           0       19.877439   -0.446980   -0.325175
     67          1           0       18.096700   -1.765179   -1.386344
     68          1           0       18.229673    3.110370    2.297408
     69          1           0       17.093388    4.435054    1.934994
     70          1           0       18.332872    3.870971    0.742688
     71          1           0       19.233789    1.683447    0.798597
     72          1           0       12.347636    2.979212   -1.041360
     73          1           0       11.159464   -1.460528   -0.535482
     74          1           0        8.671416    3.973078    1.073373
     75          1           0        6.929737    3.989178    0.573560
     76          1           0        8.135678    3.497272   -0.629370
     77          1           0       10.301866    2.650241    0.484627
     78          1           0        4.738744   -2.094394    2.248258
     79          1           0        2.709824    0.962209   -0.103686
     80          1           0        2.160112   -4.871266   -1.646813
     81          1           0        0.754872   -5.800385   -1.123446
     82          1           0        1.829524   -5.166888    0.121315
     83          1           0        3.252304   -3.279059   -0.157760
     84          1           0       -3.417886   -1.900013   -3.069632
     85          1           0       -5.349093   -0.109822   -2.195536
     86          1           0       -7.861506   -4.102643    2.820590
     87          1           0       -7.927304   -3.827942    1.045522
     88          1           0       -6.352258   -4.369032    1.775014
     89          1           0       -4.472167   -2.447796    1.271613
     90          1           0      -11.505054   -1.648114    2.046265
     91          1           0      -11.692282    2.573405    0.016415
     92          1           0      -15.733204   -2.102108   -0.117488
     93          1           0      -15.655452   -1.696332    1.650796
     94          1           0      -17.189832   -1.744324    0.737457
     95          1           0      -13.611053   -1.222439    0.686449
     96          1           0      -18.067885    5.019879    0.731412
     97          1           0      -19.036716    3.963760   -1.468795
 ---------------------------------------------------------------------
 Rotational constants (GHZ):           0.1176817           0.0041586           0.0040665
 Leave Link  202 at Sat Jul 25 06:40:39 2020, MaxMem=  4026531840 cpu:               0.1 elap:               0.0
 (Enter /opt/ohpc/pub/libs/gaussian/g16-A.03/sandybridge/g16/l301.exe)
 Standard basis: CC-pVDZ (5D, 7F)
 Ernie: Thresh=  0.10000D-02 Tol=  0.10000D-05 Strict=F.
 Ernie:  170 primitive shells out of 1730 were deleted.
 There are  1155 symmetry adapted cartesian basis functions of A   symmetry.
 There are  1090 symmetry adapted basis functions of A   symmetry.
  1090 basis functions,  2559 primitive gaussians,  1155 cartesian basis functions
   246 alpha electrons      246 beta electrons
       nuclear repulsion energy      8541.7047509623 Hartrees.
 IExCor=32609 DFT=T Ex+Corr=LC-wPBE ExCW=0 ScaHFX=  1.000000
 ScaDFX=  1.000000  0.000000  1.000000  1.000000 ScalE2=  1.000000  1.000000
 IRadAn=      5 IRanWt=     -1 IRanGd=            0 ICorTp=0 IEmpDi=  4
 HFx  wShort=  0.000000 wLong=  0.120400 cFull=  0.000000 cShort=  0.000000 cLong=  1.000000
 DFx  wShort=  0.000000 wLong=  0.120400 cFull=  0.000000 cShort=  0.000000 cLong=  1.000000
 NAtoms=   97 NActive=   97 NUniq=   97 SFac= 1.00D+00 NAtFMM=   60 NAOKFM=T Big=T
 Integral buffers will be    131072 words long.
 Raffenetti 2 integral format.
 Two-electron integral symmetry is turned on.
 Leave Link  301 at Sat Jul 25 06:40:39 2020, MaxMem=  4026531840 cpu:               0.5 elap:               0.1
 (Enter /opt/ohpc/pub/libs/gaussian/g16-A.03/sandybridge/g16/l302.exe)
 NPDir=0 NMtPBC=     1 NCelOv=     1 NCel=       1 NClECP=     1 NCelD=      1
         NCelK=      1 NCelE2=     1 NClLst=     1 CellRange=     0.0.
 One-electron integrals computed using PRISM.
 One-electron integral symmetry used in STVInt
 NBasis=  1090 RedAO= T EigKep=  3.61D-04  NBF=  1090
 NBsUse=  1090 1.00D-06 EigRej= -1.00D+00 NBFU=  1090
 Precomputing XC quadrature grid using
 IXCGrd= 4 IRadAn=           5 IRanWt=          -1 IRanGd=           0 AccXCQ= 0.00D+00.
 Generated NRdTot=       0 NPtTot=           0 NUsed=           0 NTot=          32
 NSgBfM=   678   678   678   678   678 MxSgAt=    97 MxSgA2=    90.
 Leave Link  302 at Sat Jul 25 06:40:46 2020, MaxMem=  4026531840 cpu:              49.9 elap:               6.3
 (Enter /opt/ohpc/pub/libs/gaussian/g16-A.03/sandybridge/g16/l303.exe)
 DipDrv:  MaxL=1.
 Leave Link  303 at Sat Jul 25 06:40:46 2020, MaxMem=  4026531840 cpu:               2.8 elap:               0.4
 (Enter /opt/ohpc/pub/libs/gaussian/g16-A.03/sandybridge/g16/l401.exe)
 ExpMin= 1.22D-01 ExpMax= 1.11D+05 ExpMxC= 1.07D+03 IAcc=3 IRadAn=         5 AccDes= 0.00D+00
 Harris functional with IExCor=32609 and IRadAn=       5 diagonalized for initial guess.
 HarFok:  IExCor=32609 AccDes= 0.00D+00 IRadAn=         5 IDoV= 1 UseB2=F ITyADJ=14
 ICtDFT=  3500011 ScaDFX=  1.000000  1.000000  1.000000  1.000000
 FoFCou: FMM=F IPFlag=           0 FMFlag=      100000 FMFlg1=        2001
         NFxFlg=           0 DoJE=T BraDBF=F KetDBF=T FulRan=T
         wScrn=  0.000000 ICntrl=       500 IOpCl=  0 I1Cent=   200000004 NGrid=           0
         NMat0=    1 NMatS0=      1 NMatT0=    0 NMatD0=    1 NMtDS0=    0 NMtDT0=    0
 Petite list used in FoFCou.
 Harris En= -4645.32320775120    
 JPrj=0 DoOrth=F DoCkMO=F.
 Initial guess <Sx>= 0.0000 <Sy>= 0.0000 <Sz>= 0.0000 <S**2>=-0.0000 S=-0.0000
 Leave Link  401 at Sat Jul 25 06:41:06 2020, MaxMem=  4026531840 cpu:             156.5 elap:              19.7
 (Enter /opt/ohpc/pub/libs/gaussian/g16-A.03/sandybridge/g16/l502.exe)
 Integral symmetry usage will be decided dynamically.
 UHF open shell SCF:
 Using DIIS extrapolation, IDIIS=  1040.
 NGot=  4026531840 LenX=  4023842855 LenY=  4022507675
 Requested convergence on RMS density matrix=1.00D-08 within 128 cycles.
 Requested convergence on MAX density matrix=1.00D-06.
 Requested convergence on             energy=1.00D-06.
 No special actions if energy rises.
 Fock matrices will be formed incrementally for  20 cycles.
 Integral accuracy reduced to 1.0D-05 until final iterations.

 Cycle   1  Pass 0  IDiag  1:
 FoFJK:  IHMeth= 1 ICntrl=       0 DoSepK=T KAlg= 0 I1Cent=           0 FoldK=F
 IRaf=         1 NMat=       1 IRICut=       1 DoRegI=T DoRafI=F ISym2E= 0 IDoP0=0 IntGTp=1.
 FoFCou: FMM=T IPFlag=           0 FMFlag=      100000 FMFlg1=        2001
         NFxFlg=           0 DoJE=T BraDBF=F KetDBF=F FulRan=T
         wScrn=  0.000000 ICntrl=       500 IOpCl=  0 I1Cent=           0 NGrid=           0
         NMat0=    1 NMatS0=      1 NMatT0=    0 NMatD0=    1 NMtDS0=    0 NMtDT0=    0
 Symmetry not used in FoFCou.
 FMM levels:  10  Number of levels for PrismC:   9
 E= -4644.28411847419    
 DIIS: error= 1.43D-02 at cycle   1 NSaved=   1.
 NSaved= 1 IEnMin= 1 EnMin= -4644.28411847419     IErMin= 1 ErrMin= 1.43D-02
 ErrMax= 1.43D-02  0.00D+00 EMaxC= 1.00D-01 BMatC= 3.54D+00 BMatP= 3.54D+00
 IDIUse=3 WtCom= 8.57D-01 WtEn= 1.43D-01
 Coeff-Com:  0.100D+01
 Coeff-En:   0.100D+01
 Coeff:      0.100D+01
 Gap=     0.211 Goal=   None    Shift=    0.000
 Gap=     0.211 Goal=   None    Shift=    0.000
 GapD=    0.211 DampG=1.000 DampE=0.500 DampFc=0.5000 IDamp=-1.
 Damping current iteration by 5.00D-01
 RMSDP=2.59D-03 MaxDP=1.68D-01              OVMax= 2.60D-01

 Cycle   2  Pass 0  IDiag  1:
 RMSU=  1.29D-03    CP:  9.95D-01
 E= -4644.60791626587     Delta-E=       -0.323797791685 Rises=F Damp=T
 DIIS: error= 7.99D-03 at cycle   2 NSaved=   2.
 NSaved= 2 IEnMin= 2 EnMin= -4644.60791626587     IErMin= 2 ErrMin= 7.99D-03
 ErrMax= 7.99D-03  0.00D+00 EMaxC= 1.00D-01 BMatC= 4.63D-01 BMatP= 3.54D+00
 IDIUse=3 WtCom= 9.20D-01 WtEn= 7.99D-02
 Coeff-Com:  0.190D+00 0.810D+00
 Coeff-En:   0.299D+00 0.701D+00
 Coeff:      0.198D+00 0.802D+00
 Gap=     0.258 Goal=   None    Shift=    0.000
 Gap=     0.258 Goal=   None    Shift=    0.000
 RMSDP=7.67D-04 MaxDP=4.55D-02 DE=-3.24D-01 OVMax= 2.32D-01

 Cycle   3  Pass 0  IDiag  1:
 RMSU=  7.07D-04    CP:  9.91D-01  7.72D-01
 E= -4645.21450400954     Delta-E=       -0.606587743663 Rises=F Damp=F
 DIIS: error= 6.15D-03 at cycle   3 NSaved=   3.
 NSaved= 3 IEnMin= 3 EnMin= -4645.21450400954     IErMin= 3 ErrMin= 6.15D-03
 ErrMax= 6.15D-03  0.00D+00 EMaxC= 1.00D-01 BMatC= 3.98D-01 BMatP= 4.63D-01
 IDIUse=3 WtCom= 9.39D-01 WtEn= 6.15D-02
 Coeff-Com:  0.569D-01 0.475D+00 0.469D+00
 Coeff-En:   0.000D+00 0.000D+00 0.100D+01
 Coeff:      0.534D-01 0.445D+00 0.501D+00
 Gap=     0.206 Goal=   None    Shift=    0.000
 Gap=     0.206 Goal=   None    Shift=    0.000
 RMSDP=3.43D-04 MaxDP=3.54D-02 DE=-6.07D-01 OVMax= 5.88D-02

 Cycle   4  Pass 0  IDiag  1:
 RMSU=  2.21D-04    CP:  9.93D-01  8.43D-01  6.54D-01
 E= -4645.30218862536     Delta-E=       -0.087684615824 Rises=F Damp=F
 DIIS: error= 2.06D-03 at cycle   4 NSaved=   4.
 NSaved= 4 IEnMin= 4 EnMin= -4645.30218862536     IErMin= 4 ErrMin= 2.06D-03
 ErrMax= 2.06D-03  0.00D+00 EMaxC= 1.00D-01 BMatC= 3.62D-02 BMatP= 3.98D-01
 IDIUse=3 WtCom= 9.79D-01 WtEn= 2.06D-02
 Coeff-Com:  0.111D-01 0.121D+00 0.256D+00 0.612D+00
 Coeff-En:   0.000D+00 0.000D+00 0.315D-01 0.968D+00
 Coeff:      0.109D-01 0.118D+00 0.251D+00 0.620D+00
 Gap=     0.204 Goal=   None    Shift=    0.000
 Gap=     0.204 Goal=   None    Shift=    0.000
 RMSDP=9.27D-05 MaxDP=1.11D-02 DE=-8.77D-02 OVMax= 1.34D-02

 Cycle   5  Pass 0  IDiag  1:
 RMSU=  6.89D-05    CP:  9.93D-01  8.35D-01  7.05D-01  7.75D-01
 E= -4645.30962674801     Delta-E=       -0.007438122646 Rises=F Damp=F
 DIIS: error= 4.54D-04 at cycle   5 NSaved=   5.
 NSaved= 5 IEnMin= 5 EnMin= -4645.30962674801     IErMin= 5 ErrMin= 4.54D-04
 ErrMax= 4.54D-04  0.00D+00 EMaxC= 1.00D-01 BMatC= 3.55D-03 BMatP= 3.62D-02
 IDIUse=3 WtCom= 9.95D-01 WtEn= 4.54D-03
 Coeff-Com:  0.356D-02 0.173D-01 0.832D-01 0.324D+00 0.572D+00
 Coeff-En:   0.000D+00 0.000D+00 0.000D+00 0.000D+00 0.100D+01
 Coeff:      0.354D-02 0.172D-01 0.828D-01 0.322D+00 0.574D+00
 Gap=     0.205 Goal=   None    Shift=    0.000
 Gap=     0.205 Goal=   None    Shift=    0.000
 RMSDP=3.50D-05 MaxDP=3.43D-03 DE=-7.44D-03 OVMax= 4.66D-03

 Cycle   6  Pass 0  IDiag  1:
 RMSU=  2.89D-05    CP:  9.92D-01  8.28D-01  7.11D-01  8.13D-01  7.82D-01
 E= -4645.31035763399     Delta-E=       -0.000730885980 Rises=F Damp=F
 DIIS: error= 2.63D-04 at cycle   6 NSaved=   6.
 NSaved= 6 IEnMin= 6 EnMin= -4645.31035763399     IErMin= 6 ErrMin= 2.63D-04
 ErrMax= 2.63D-04  0.00D+00 EMaxC= 1.00D-01 BMatC= 5.57D-04 BMatP= 3.55D-03
 IDIUse=3 WtCom= 9.97D-01 WtEn= 2.63D-03
 Coeff-Com:  0.149D-02-0.935D-02 0.115D-01 0.103D+00 0.329D+00 0.565D+00
 Coeff-En:   0.000D+00 0.000D+00 0.000D+00 0.000D+00 0.519D-01 0.948D+00
 Coeff:      0.149D-02-0.932D-02 0.115D-01 0.103D+00 0.328D+00 0.566D+00
 Gap=     0.205 Goal=   None    Shift=    0.000
 Gap=     0.205 Goal=   None    Shift=    0.000
 RMSDP=1.72D-05 MaxDP=1.48D-03 DE=-7.31D-04 OVMax= 2.10D-03

 Cycle   7  Pass 0  IDiag  1:
 RMSU=  1.45D-05    CP:  9.92D-01  8.27D-01  7.17D-01  8.29D-01  8.54D-01
                    CP:  8.08D-01
 E= -4645.31048772568     Delta-E=       -0.000130091690 Rises=F Damp=F
 DIIS: error= 1.04D-04 at cycle   7 NSaved=   7.
 NSaved= 7 IEnMin= 7 EnMin= -4645.31048772568     IErMin= 7 ErrMin= 1.04D-04
 ErrMax= 1.04D-04  0.00D+00 EMaxC= 1.00D-01 BMatC= 8.29D-05 BMatP= 5.57D-04
 IDIUse=3 WtCom= 9.99D-01 WtEn= 1.04D-03
[...]
    40 C(13)  Bbb    -0.0000    -0.000    -0.000    -0.000 -0.1541 -0.6600  0.7352
              Bcc     0.0000     0.000     0.000     0.000  0.0516  0.7377  0.6731
 
              Baa    -0.0000    -0.000    -0.000    -0.000  0.7383 -0.2465 -0.6278
    41 C(13)  Bbb    -0.0000    -0.000    -0.000    -0.000 -0.2265  0.7861 -0.5751
              Bcc     0.0000     0.000     0.000     0.000  0.6353  0.5668  0.5246
 
              Baa    -0.0000    -0.000    -0.000    -0.000  0.9897  0.1181 -0.0809
    42 N(14)  Bbb     0.0000     0.000     0.000     0.000 -0.1424  0.8707 -0.4707
              Bcc     0.0000     0.000     0.000     0.000  0.0149  0.4774  0.8786
 
              Baa    -0.0000    -0.000    -0.000    -0.000  0.6287  0.7775  0.0166
    43 C(13)  Bbb    -0.0000    -0.000    -0.000    -0.000  0.7695 -0.6189 -0.1578
              Bcc     0.0000     0.000     0.000     0.000  0.1124 -0.1120  0.9873
 
              Baa    -0.0000    -0.000    -0.000    -0.000 -0.0297 -0.0239  0.9993
    44 C(13)  Bbb    -0.0000    -0.000    -0.000    -0.000  0.9602  0.2773  0.0352
              Bcc     0.0000     0.000     0.000     0.000 -0.2779  0.9605  0.0147
 
              Baa    -0.0000     0.000     0.000     0.000  0.8239 -0.2103  0.5262
    45 O(17)  Bbb    -0.0000     0.000     0.000     0.000  0.4162  0.8548 -0.3101
              Bcc     0.0000    -0.000    -0.000    -0.000 -0.3846  0.4745  0.7918
 
              Baa    -0.0000    -0.000    -0.000    -0.000  0.4718  0.6775 -0.5643
    46 C(13)  Bbb    -0.0000    -0.000    -0.000    -0.000  0.7042  0.0957  0.7035
              Bcc     0.0000     0.000     0.000     0.000 -0.5306  0.7293  0.4319
 
              Baa    -0.0000    -0.000    -0.000    -0.000  0.9844 -0.0988 -0.1454
    47 C(13)  Bbb     0.0000     0.000     0.000     0.000 -0.0190  0.7625 -0.6467
              Bcc     0.0000     0.000     0.000     0.000  0.1748  0.6393  0.7488
 
              Baa    -0.0000    -0.000    -0.000    -0.000  0.3580  0.8761 -0.3230
    48 C(13)  Bbb    -0.0000    -0.000    -0.000    -0.000  0.2178  0.2580  0.9413
              Bcc     0.0000     0.000     0.000     0.000  0.9079 -0.4074 -0.0985
 
              Baa    -0.0000    -0.000    -0.000    -0.000 -0.2166 -0.1453  0.9654
    49 N(14)  Bbb    -0.0000    -0.000    -0.000    -0.000  0.9747 -0.0882  0.2054
              Bcc     0.0000     0.000     0.000     0.000  0.0553  0.9854  0.1608
 
              Baa    -0.0000    -0.000    -0.000    -0.000  0.2366  0.9714 -0.0179
    50 C(13)  Bbb    -0.0000    -0.000    -0.000    -0.000  0.0394  0.0089  0.9992
              Bcc     0.0000     0.000     0.000     0.000  0.9708 -0.2371 -0.0362
 
              Baa    -0.0000    -0.000    -0.000    -0.000 -0.0624  0.3040  0.9506
    51 C(13)  Bbb    -0.0000    -0.000    -0.000    -0.000 -0.0104  0.9522 -0.3052
              Bcc     0.0000     0.000     0.000     0.000  0.9980  0.0289  0.0563
 
              Baa    -0.0000    -0.000    -0.000    -0.000  0.9733 -0.2287 -0.0180
    52 S(33)  Bbb     0.0000     0.000     0.000     0.000  0.2229  0.9613 -0.1616
              Bcc     0.0000     0.000     0.000     0.000  0.0542  0.1533  0.9867
 
              Baa    -0.0000    -0.000    -0.000    -0.000 -0.1061  0.9607 -0.2566
    53 C(13)  Bbb     0.0000     0.000     0.000     0.000  0.9890  0.0751 -0.1277
              Bcc     0.0000     0.000     0.000     0.000  0.1034  0.2673  0.9581
 
              Baa    -0.0000    -0.000    -0.000    -0.000  0.9277 -0.0151 -0.3730
    54 C(13)  Bbb    -0.0000    -0.000    -0.000    -0.000 -0.0479  0.9861 -0.1589
              Bcc     0.0000     0.000     0.000     0.000  0.3702  0.1653  0.9141
 
              Baa    -0.0000    -0.000    -0.000    -0.000  0.4279  0.7817  0.4537
    55 N(14)  Bbb    -0.0000    -0.000    -0.000    -0.000 -0.0608 -0.4760  0.8774
              Bcc     0.0000     0.000     0.000     0.000  0.9018 -0.4030 -0.1561
 
              Baa    -0.0000    -0.000    -0.000    -0.000  0.7293 -0.6826 -0.0469
    56 C(13)  Bbb    -0.0000    -0.000    -0.000    -0.000  0.6638  0.7225 -0.1933
              Bcc     0.0000     0.000     0.000     0.000  0.1659  0.1098  0.9800
 
              Baa    -0.0000    -0.000    -0.000    -0.000  0.0392  0.8186 -0.5731
    57 C(13)  Bbb     0.0000     0.000     0.000     0.000 -0.1808  0.5698  0.8016
              Bcc     0.0000     0.000     0.000     0.000  0.9827  0.0722  0.1704
 
              Baa    -0.0000     0.000     0.000     0.000 -0.1110  0.9907  0.0781
    58 O(17)  Bbb    -0.0000     0.000     0.000     0.000 -0.4348 -0.1191  0.8926
              Bcc     0.0000    -0.000    -0.000    -0.000  0.8937  0.0651  0.4440
 
              Baa    -0.0000    -0.000    -0.000    -0.000  0.3314  0.8478 -0.4140
    59 C(13)  Bbb    -0.0000    -0.000    -0.000    -0.000  0.9025 -0.1569  0.4012
              Bcc     0.0000     0.000     0.000     0.000 -0.2751  0.5066  0.8171
 
              Baa    -0.0000    -0.000    -0.000    -0.000  0.6823 -0.4457 -0.5794
    60 C(13)  Bbb     0.0000     0.000     0.000     0.000  0.1283  0.8533 -0.5053
              Bcc     0.0000     0.000     0.000     0.000  0.7197  0.2704  0.6395
 
              Baa    -0.0000    -0.000    -0.000    -0.000  0.2486  0.9063 -0.3417
    61 C(13)  Bbb    -0.0000    -0.000    -0.000    -0.000  0.6750 -0.4151 -0.6099
              Bcc     0.0000     0.000     0.000     0.000  0.6946  0.0790  0.7150
 
              Baa    -0.0000    -0.000    -0.000    -0.000  0.4550  0.4089  0.7911
    62 N(14)  Bbb     0.0000     0.000     0.000     0.000  0.8414  0.0935 -0.5323
              Bcc     0.0000     0.000     0.000     0.000 -0.2916  0.9078 -0.3015
 
              Baa    -0.0000    -0.000    -0.000    -0.000  0.8008  0.5880 -0.1141
    63 C(13)  Bbb    -0.0000    -0.000    -0.000    -0.000  0.4361 -0.4419  0.7839
              Bcc     0.0000     0.000     0.000     0.000 -0.4105  0.6775  0.6103
 
              Baa    -0.0000    -0.000    -0.000    -0.000  0.2282  0.9072 -0.3533
    64 C(13)  Bbb    -0.0000    -0.000    -0.000    -0.000  0.8526 -0.0110  0.5224
              Bcc     0.0000     0.000     0.000     0.000 -0.4701  0.4205  0.7760
 
              Baa    -0.0000    -0.000    -0.000    -0.000  0.8349  0.4351 -0.3370
    65 S(33)  Bbb     0.0000     0.000     0.000     0.000  0.5293 -0.4671  0.7082
              Bcc     0.0000     0.000     0.000     0.000 -0.1508  0.7697  0.6204
 
              Baa    -0.0000    -0.000    -0.000    -0.000  0.5610 -0.5628  0.6071
    66 H(1)   Bbb     0.0000     0.000     0.000     0.000 -0.2758  0.5645  0.7780
              Bcc     0.0000     0.000     0.000     0.000  0.7806  0.6039 -0.1614
 
              Baa    -0.0000    -0.000    -0.000    -0.000 -0.2093  0.8283 -0.5197
    67 H(1)   Bbb     0.0000     0.000     0.000     0.000  0.7465 -0.2079 -0.6320
              Bcc     0.0000     0.000     0.000     0.000  0.6316  0.5202  0.5749
 
              Baa    -0.0000    -0.000    -0.000    -0.000  0.1384 -0.0590  0.9886
    68 H(1)   Bbb     0.0000     0.000     0.000     0.000 -0.5865  0.7995  0.1298
              Bcc     0.0000     0.000     0.000     0.000  0.7981  0.5978 -0.0760
 
              Baa    -0.0000    -0.000    -0.000    -0.000  0.6449 -0.5012  0.5770
    69 H(1)   Bbb     0.0000     0.000     0.000     0.000  0.1577  0.8260  0.5412
              Bcc     0.0000     0.000     0.000     0.000  0.7478  0.2581 -0.6117
 
              Baa    -0.0000    -0.000    -0.000    -0.000 -0.4378  0.4965  0.7496
    70 H(1)   Bbb     0.0000     0.000     0.000     0.000  0.3047  0.8663 -0.3958
              Bcc     0.0000     0.000     0.000     0.000  0.8459 -0.0551  0.5305
 
              Baa    -0.0000    -0.000    -0.000    -0.000 -0.1731  0.5363  0.8261
    71 H(1)   Bbb    -0.0000    -0.000    -0.000    -0.000  0.6276 -0.5863  0.5122
              Bcc     0.0000     0.000     0.000     0.000  0.7590  0.6071 -0.2351
 
              Baa    -0.0000    -0.000    -0.000    -0.000  0.7256 -0.2265  0.6497
    72 H(1)   Bbb     0.0000     0.000     0.000     0.000 -0.4605  0.5418  0.7031
              Bcc     0.0000     0.000     0.000     0.000  0.5112  0.8095 -0.2888
 
              Baa    -0.0000    -0.000    -0.000    -0.000  0.6120  0.7553 -0.2347
    73 H(1)   Bbb    -0.0000    -0.000    -0.000    -0.000  0.0464  0.2620  0.9640
              Bcc     0.0000     0.000     0.000     0.000  0.7895 -0.6008  0.1253
 
              Baa    -0.0000    -0.000    -0.000    -0.000  0.9788  0.1716  0.1120
    74 H(1)   Bbb     0.0000     0.000     0.000     0.000 -0.2015  0.9051  0.3743
              Bcc     0.0000     0.000     0.000     0.000 -0.0371 -0.3889  0.9205
 
              Baa    -0.0000    -0.000    -0.000    -0.000  0.9013 -0.1689  0.3989
    75 H(1)   Bbb     0.0000     0.000     0.000     0.000 -0.3849  0.1107  0.9163
              Bcc     0.0000     0.000     0.000     0.000  0.1989  0.9794 -0.0348
 
              Baa    -0.0000    -0.000    -0.000    -0.000  0.9658 -0.2266 -0.1260
    76 H(1)   Bbb    -0.0000    -0.000    -0.000    -0.000  0.0822 -0.1931  0.9777
              Bcc     0.0000     0.000     0.000     0.000  0.2459  0.9547  0.1678
 
              Baa    -0.0000    -0.000    -0.000    -0.000  0.6788  0.7342 -0.0121
    77 H(1)   Bbb    -0.0000    -0.000    -0.000    -0.000  0.0149  0.0027  0.9999
              Bcc     0.0000     0.000     0.000     0.000  0.7342 -0.6789 -0.0091
 
              Baa    -0.0000    -0.000    -0.000    -0.000  0.2348  0.8845 -0.4031
    78 H(1)   Bbb     0.0000     0.000     0.000     0.000 -0.2842  0.4591  0.8417
              Bcc     0.0000     0.000     0.000     0.000  0.9296 -0.0830  0.3592
 
              Baa    -0.0000    -0.000    -0.000    -0.000  0.8098 -0.4361 -0.3925
    79 H(1)   Bbb    -0.0000    -0.000    -0.000    -0.000  0.2526 -0.3447  0.9041
              Bcc     0.0000     0.000     0.000     0.000  0.5296  0.8312  0.1690
 
              Baa    -0.0000    -0.000    -0.000    -0.000 -0.2194 -0.0390  0.9748
    80 H(1)   Bbb     0.0000     0.000     0.000     0.000 -0.6953  0.7072 -0.1282
              Bcc     0.0000     0.000     0.000     0.000  0.6844  0.7060  0.1823
 
              Baa    -0.0000    -0.000    -0.000    -0.000  0.9231  0.3823  0.0421
    81 H(1)   Bbb     0.0000     0.000     0.000     0.000  0.0955 -0.3340  0.9377
              Bcc     0.0000     0.000     0.000     0.000 -0.3725  0.8616  0.3448
 
              Baa    -0.0000    -0.000    -0.000    -0.000  0.3199 -0.3001  0.8986
    82 H(1)   Bbb     0.0000     0.000     0.000     0.000 -0.4704  0.7730  0.4256
              Bcc     0.0000     0.000     0.000     0.000  0.8224  0.5589 -0.1061
 
              Baa    -0.0000    -0.000    -0.000    -0.000  0.1528 -0.1729  0.9730
    83 H(1)   Bbb    -0.0000    -0.000    -0.000    -0.000  0.7364  0.6766  0.0046
              Bcc     0.0000     0.000     0.000     0.000 -0.6591  0.7158  0.2307
 
              Baa    -0.0000    -0.000    -0.000    -0.000 -0.4002  0.9042  0.1493
    84 H(1)   Bbb     0.0000     0.000     0.000     0.000 -0.2299 -0.2567  0.9387
              Bcc     0.0000     0.000     0.000     0.000  0.8871  0.3414  0.3107
 
              Baa    -0.0000    -0.000    -0.000    -0.000 -0.1630 -0.5671  0.8074
    85 H(1)   Bbb    -0.0000    -0.000    -0.000    -0.000  0.9819 -0.0135  0.1887
              Bcc     0.0000     0.000     0.000     0.000 -0.0961  0.8236  0.5590
 
              Baa    -0.0000    -0.000    -0.000    -0.000  0.0028  0.9986 -0.0522
    86 H(1)   Bbb     0.0000     0.000     0.000     0.000  0.9673 -0.0159 -0.2533
              Bcc     0.0000     0.000     0.000     0.000  0.2537  0.0498  0.9660
 
              Baa    -0.0000    -0.000    -0.000    -0.000  0.6962  0.2549  0.6711
    87 H(1)   Bbb     0.0000     0.000     0.000     0.000 -0.2216  0.9655 -0.1368
              Bcc     0.0000     0.000     0.000     0.000 -0.6828 -0.0535  0.7286
 
              Baa    -0.0000    -0.000    -0.000    -0.000 -0.5386  0.8424  0.0138
    88 H(1)   Bbb    -0.0000    -0.000    -0.000    -0.000  0.8363  0.5365 -0.1130
              Bcc     0.0000     0.000     0.000     0.000  0.1026  0.0494  0.9935
 
              Baa    -0.0000    -0.000    -0.000    -0.000 -0.5658  0.7047  0.4281
    89 H(1)   Bbb     0.0000     0.000     0.000     0.000  0.4264  0.6945 -0.5795
              Bcc     0.0000     0.000     0.000     0.000  0.7057  0.1453  0.6934
 
              Baa    -0.0000    -0.000    -0.000    -0.000 -0.3198 -0.1925  0.9277
    90 H(1)   Bbb    -0.0000    -0.000    -0.000    -0.000  0.9447  0.0098  0.3277
              Bcc     0.0000     0.000     0.000     0.000 -0.0721  0.9813  0.1787
 
              Baa    -0.0000    -0.000    -0.000    -0.000  0.1432  0.1923  0.9708
    91 H(1)   Bbb     0.0000     0.000     0.000     0.000 -0.0130  0.9812 -0.1924
              Bcc     0.0000     0.000     0.000     0.000  0.9896 -0.0150 -0.1430
 
              Baa    -0.0000    -0.000    -0.000    -0.000  0.3879  0.6537 -0.6498
    92 H(1)   Bbb    -0.0000    -0.000    -0.000    -0.000 -0.0543  0.7199  0.6919
              Bcc     0.0000     0.000     0.000     0.000  0.9201 -0.2331  0.3147
 
              Baa    -0.0000    -0.000    -0.000    -0.000  0.3262  0.9287 -0.1762
    93 H(1)   Bbb     0.0000     0.000     0.000     0.000  0.3044  0.0733  0.9497
              Bcc     0.0000     0.000     0.000     0.000  0.8950 -0.3634 -0.2588
 
              Baa    -0.0000    -0.000    -0.000    -0.000  0.2484  0.6869 -0.6830
    94 H(1)   Bbb    -0.0000    -0.000    -0.000    -0.000  0.5802  0.4591  0.6728
              Bcc     0.0000     0.000     0.000     0.000  0.7757 -0.5633 -0.2845
 
              Baa    -0.0000    -0.000    -0.000    -0.000  0.9558 -0.2939 -0.0019
    95 H(1)   Bbb    -0.0000    -0.000    -0.000    -0.000  0.2669  0.8705 -0.4135
              Bcc     0.0000     0.000     0.000     0.000  0.1232  0.3948  0.9105
 
              Baa    -0.0000    -0.000    -0.000    -0.000  0.8477 -0.5154 -0.1252
    96 H(1)   Bbb    -0.0000    -0.000    -0.000    -0.000  0.3530  0.7244 -0.5921
              Bcc     0.0000     0.000     0.000     0.000  0.3959  0.4578  0.7960
 
              Baa    -0.0000    -0.000    -0.000    -0.000 -0.0261  0.8722  0.4885
    97 H(1)   Bbb    -0.0000    -0.000    -0.000    -0.000  0.0508 -0.4869  0.8720
              Bcc     0.0000     0.000     0.000     0.000  0.9984  0.0475 -0.0316
 

 ---------------------------------------------------------------------------------

 No NMR shielding tensors so no spin-rotation constants.
 Leave Link  601 at Sat Jul 25 15:38:05 2020, MaxMem=  4026531840 cpu:              35.8 elap:               5.5
 (Enter /opt/ohpc/pub/libs/gaussian/g16-A.03/sandybridge/g16/l9999.exe)

 Test job not archived.
 1\1\GINC-SKYLAKE051\FOpt\ULC-wPBE\CC-pVDZ\C45H32N10O5S5\RDU230\25-Jul-
 2020\0\\#P uLC-wPBE/cc-pVDZ iop(3/107=0120400000, 3/108=0120400000) op
 t\\H32 C45 S5 N10 O5\\0,1\C,18.6377264883,0.3741617795,1.4221058096\C,
 17.6515011913,-0.5853593131,1.1631390479\N,16.3658785712,-0.2650969056
 ,0.9658766312\C,15.9888518721,1.0282073516,1.0160435059\C,16.921331619
 1,2.0782046307,1.2743552449\O,16.4489506633,3.3473535935,1.3062002222\
 C,17.380422859,4.3965067641,1.5609484383\C,18.2679161326,1.722704739,1
 .4782604663\C,14.5531476156,1.2477394828,0.7844493817\N,13.8941566735,
 2.3889823939,0.7686358404\C,12.5677282616,2.1727656695,0.5191752474\C,
 12.1658172253,0.855185605,0.3356185371\S,13.5603906056,-0.1892946706,0
 .4892295888\C,10.8212873118,0.3490568393,0.0467312681\C,10.6064784586,
 -0.8876964105,-0.6039062924\N,9.4036735396,-1.3846429417,-0.8958550314
 \C,8.3023059983,-0.6792890253,-0.5689832164\C,8.4056845786,0.584424003
 3,0.0831156969\O,7.2368167525,1.2217660754,0.3760200901\C,7.2961943374
 ,2.4855776086,1.0380467615\C,9.673473553,1.0885509079,0.3968020456\C,7
 .0120959001,-1.303985627,-0.9253205467\N,6.9358719305,-2.4804924331,-1
 .5238986065\C,5.6409550855,-2.8355817734,-1.7482006758\C,4.6564183004,
 -1.9476827407,-1.3313211813\S,5.4336564688,-0.5624867973,-0.6046613868
 \C,3.2010416078,-2.077914301,-1.4381694897\C,2.3215925232,-1.395520578
 1,-0.568384202\N,0.9930596519,-1.497683678,-0.6352000022\C,0.426495645
 1,-2.293655751,-1.5643043004\C,1.2198358017,-3.0369772832,-2.490481775
 3\O,0.5715184015,-3.8090380076,-3.3940244499\C,1.3583643947,-4.5479537
 635,-4.3266575386\C,2.6155998324,-2.9078636434,-2.4165802754\C,-1.0408
 783013,-2.3148011532,-1.5364276961\N,-1.8616576753,-2.9967258233,-2.31
 03757111\C,-3.1615945685,-2.745460084,-1.9719513656\C,-3.3806070834,-1
 .8583739654,-0.9243302483\S,-1.836652805,-1.30002564,-0.3205684234\C,-
 4.6600351259,-1.4216944988,-0.3598580066\C,-5.8536558128,-1.4838687855
 ,-1.1209348298\N,-7.0479149334,-1.1150795952,-0.6607848656\C,-7.165160
 9799,-0.6427786557,0.6037304727\C,-6.0309890492,-0.5230216861,1.452448
 9377\O,-6.0668482121,0.0244466023,2.7082664519\C,-6.5419441473,-0.8472
 359614,3.7477247737\C,-4.7851370009,-0.9207394277,0.9489561444\C,-8.52
 74720539,-0.2242670015,0.9586260293\N,-8.962796098,0.2046005999,2.1276
 154303\C,-10.292374369,0.5167984419,2.0625481887\C,-10.9214462125,0.33
 55953612,0.8371053726\S,-9.7541515012,-0.2774908461,-0.3127535791\C,-1
 2.3208344108,0.5956490394,0.4865481385\C,-12.7274191355,0.857282622,-0
 .8407462648\N,-13.9862192553,1.1075881471,-1.2059845154\C,-14.95396144
 07,1.1282786365,-0.268464338\C,-14.6504735542,0.8848537634,1.103688366
 3\O,-15.6943703604,0.9222699912,1.9803696521\C,-15.4322747144,0.676591
 0351,3.3613495781\C,-13.3285504667,0.6096440327,1.4723643548\C,-16.319
 8012882,1.409903771,-0.760025411\N,-16.5812614554,1.6266956839,-2.0356
 289398\C,-17.9132302492,1.8639498032,-2.2346827853\C,-18.7129517322,1.
 8353402604,-1.1110862873\S,-17.7542927602,1.4919254397,0.2853090092\H,
 19.6836509434,0.0757650438,1.5781772755\H,17.8997006035,-1.6569554317,
 1.11026129\H,17.8599305278,4.2876976027,2.5579966168\H,16.7886689121,5
 .3281103476,1.5402985348\H,18.1691375678,4.4448582999,0.7790322576\H,1
 9.0236641772,2.4919198308,1.6794922995\H,11.8954755879,3.0385042935,0.
 4464249728\H,11.4693738155,-1.5013208973,-0.9125201055\H,7.7753675368,
 2.3979434759,2.0363539656\H,6.2474738902,2.8071184553,1.1610122131\H,7
 .8438645525,3.2361023014,0.4291674574\H,9.7791575515,2.0402949007,0.93
 11089941\H,5.4336923664,-3.807440708,-2.216519513\H,2.7202801157,-0.74
 45589445,0.2264439207\H,1.9633142657,-3.8778967802,-4.9751451433\H,0.6
 344561695,-5.1022634788,-4.9486643303\H,2.0321121164,-5.2688015637,-3.
 814809388\H,3.2578828034,-3.433041644,-3.1334125084\H,-3.9604859032,-3
 .2669704087,-2.5157429791\H,-5.8272597733,-1.8295369194,-2.1664443625\
 H,-6.4061960935,-0.2889502902,4.6919727767\H,-7.6177849714,-1.07653683
 36,3.6126258313\H,-5.9413794247,-1.7821498033,3.7837954309\H,-3.913169
 781,-0.8267287933,1.611928656\H,-10.7867426598,0.9162177279,2.95812794
 79\H,-11.9788363953,0.8735630115,-1.650726183\H,-15.0249392307,-0.3445
 078312,3.5221906517\H,-14.7265590626,1.4256342218,3.7801275438\H,-16.4
 074841966,0.7665005612,3.8706652206\H,-13.0758633416,0.3830006919,2.51
 51247512\H,-18.2744141728,2.0610050732,-3.2527463689\H,-19.7938055958,
 1.994739582,-1.033850212\\Version=EM64L-G16RevA.03\State=1-A\HF=-4645.
 5181483\S2=0.\S2-1=0.\S2A=0.\RMSD=7.263e-09\RMSF=2.388e-06\Dipole=2.77
 60633,1.0524736,2.1850693\Quadrupole=61.0374132,-31.232854,-29.8045592
 ,51.6782731,-28.1519252,14.6470581\PG=C01 [X(C45H32N10O5S5)]\\@


 ARTHROPOD AXIOM: A COMPUTER SYSTEM IS LIKE A SPIDER'S WEB.
 YOU CANNOT PULL ON ONE END WITHOUT MAKING THE OTHER END MOVE.
     -- GREG WETTSTEIN
 Job cpu time:       2 days 22 hours 25 minutes 31.7 seconds.
 Elapsed time:       0 days  8 hours 57 minutes 23.1 seconds.
 File lengths (MBytes):  RWF=   1352 Int=      0 D2E=      0 Chk=    124 Scr=      8
 Normal termination of Gaussian 16 at Sat Jul 25 15:38:05 2020.
