 Entering Gaussian System, Link 0=g16
 Input=mols_66_5_11_n-n-cF-cF_opt_0.gjf
 Output=mols_66_5_11_n-n-cF-cF_opt_0.log
 Initial command:
 /opt/ohpc/pub/libs/gaussian/g16-A.03/sandybridge/g16/l1.exe "/mnt/gpfs2_4m/scratch/rdu230/ondemand/projects/dihedral_energies/7trial/wtuning/mols_66_5_11_n-n-cF-cF/Gau-67722.inp" -scrdir="/mnt/gpfs2_4m/scratch/rdu230/ondemand/projects/dihedral_energies/7trial/wtuning/mols_66_5_11_n-n-cF-cF/"
 Entering Link 1 = /opt/ohpc/pub/libs/gaussian/g16-A.03/sandybridge/g16/l1.exe PID=     67723.
  
 Copyright (c) 1988,1990,1992,1993,1995,1998,2003,2009,2016,
            Gaussian, Inc.  All Rights Reserved.
  
 This is part of the Gaussian(R) 16 program.  It is based on
 the Gaussian(R) 09 system (copyright 2009, Gaussian, Inc.),
 the Gaussian(R) 03 system (copyright 2003, Gaussian, Inc.),
 the Gaussian(R) 98 system (copyright 1998, Gaussian, Inc.),
 the Gaussian(R) 94 system (copyright 1995, Gaussian, Inc.),
 the Gaussian 92(TM) system (copyright 1992, Gaussian, Inc.),
 the Gaussian 90(TM) system (copyright 1990, Gaussian, Inc.),
 the Gaussian 88(TM) system (copyright 1988, Gaussian, Inc.),
 the Gaussian 86(TM) system (copyright 1986, Carnegie Mellon
 University), and the Gaussian 82(TM) system (copyright 1983,
 Carnegie Mellon University). Gaussian is a federally registered
 trademark of Gaussian, Inc.
  
 This software contains proprietary and confidential information,
 including trade secrets, belonging to Gaussian, Inc.
  
 This software is provided under written license and may be
 used, copied, transmitted, or stored only in accord with that
 written license.
  
 The following legend is applicable only to US Government
 contracts under FAR:
  
                    RESTRICTED RIGHTS LEGEND
  
 Use, reproduction and disclosure by the US Government is
 subject to restrictions as set forth in subparagraphs (a)
 and (c) of the Commercial Computer Software - Restricted
 Rights clause in FAR 52.227-19.
  
 Gaussian, Inc.
 340 Quinnipiac St., Bldg. 40, Wallingford CT 06492
  
  
 ---------------------------------------------------------------
 Warning -- This program may not be used in any manner that
 competes with the business of Gaussian, Inc. or will provide
 assistance to any competitor of Gaussian, Inc.  The licensee
 of this program is prohibited from giving any competitor of
 Gaussian, Inc. access to this program.  By using this program,
 the user acknowledges that Gaussian, Inc. is engaged in the
 business of creating and licensing software in the field of
 computational chemistry and represents and warrants to the
 licensee that it is not a competitor of Gaussian, Inc. and that
 it will not use this program in any manner prohibited above.
 ---------------------------------------------------------------
  

 Cite this work as:
 Gaussian 16, Revision A.03,
 M. J. Frisch, G. W. Trucks, H. B. Schlegel, G. E. Scuseria, 
 M. A. Robb, J. R. Cheeseman, G. Scalmani, V. Barone, 
 G. A. Petersson, H. Nakatsuji, X. Li, M. Caricato, A. V. Marenich, 
 J. Bloino, B. G. Janesko, R. Gomperts, B. Mennucci, H. P. Hratchian, 
 J. V. Ortiz, A. F. Izmaylov, J. L. Sonnenberg, D. Williams-Young, 
 F. Ding, F. Lipparini, F. Egidi, J. Goings, B. Peng, A. Petrone, 
 T. Henderson, D. Ranasinghe, V. G. Zakrzewski, J. Gao, N. Rega, 
 G. Zheng, W. Liang, M. Hada, M. Ehara, K. Toyota, R. Fukuda, 
 J. Hasegawa, M. Ishida, T. Nakajima, Y. Honda, O. Kitao, H. Nakai, 
 T. Vreven, K. Throssell, J. A. Montgomery, Jr., J. E. Peralta, 
 F. Ogliaro, M. J. Bearpark, J. J. Heyd, E. N. Brothers, K. N. Kudin, 
 V. N. Staroverov, T. A. Keith, R. Kobayashi, J. Normand, 
 K. Raghavachari, A. P. Rendell, J. C. Burant, S. S. Iyengar, 
 J. Tomasi, M. Cossi, J. M. Millam, M. Klene, C. Adamo, R. Cammi, 
 J. W. Ochterski, R. L. Martin, K. Morokuma, O. Farkas, 
 J. B. Foresman, and D. J. Fox, Gaussian, Inc., Wallingford CT, 2016.
 
 ******************************************
 Gaussian 16:  EM64L-G16RevA.03 25-Dec-2016
                25-Jul-2020 
 ******************************************
 %mem=30GB
 %nproc=8
 Will use up to    8 processors via shared memory.
 ---------------------------------------------------------------
 #P uLC-wPBE/cc-pVDZ iop(3/107=0324900000, 3/108=0324900000) opt
 ---------------------------------------------------------------
 1/18=20,19=15,26=3,38=1/1,3;
 2/9=110,12=2,17=6,18=5,40=1/2;
 3/5=16,11=2,25=1,30=1,71=1,74=-41,107=324900000,108=324900000,116=2/1,2,3;
 4//1;
 5/5=2,38=5/2;
 6/7=2,8=2,9=2,10=2,28=1/1;
 7//1,2,3,16;
 1/18=20,19=15,26=3/3(2);
 2/9=110/2;
 99//99;
 2/9=110/2;
 3/5=16,11=2,25=1,30=1,71=1,74=-41,107=324900000,108=324900000,116=2/1,2,3;
 4/5=5,16=3,69=1/1;
 5/5=2,38=5/2;
 7//1,2,3,16;
 1/18=20,19=15,26=3/3(-5);
 2/9=110/2;
 6/7=2,8=2,9=2,10=2,19=2,28=1/1;
 99/9=1/99;
 Leave Link    1 at Sat Jul 25 12:27:39 2020, MaxMem=  4026531840 cpu:               2.3 elap:               0.3
 (Enter /opt/ohpc/pub/libs/gaussian/g16-A.03/sandybridge/g16/l101.exe)
 ---------------
 H22 C50 N10 F10
 ---------------
 Symbolic Z-matrix:
 Charge =  0 Multiplicity = 1
 C                     20.26278   1.62047  -0.60418 
 C                     19.48865   2.19748   0.48089 
 C                     18.15135   2.00274   0.60869 
 F                     17.45809   2.50276   1.55601 
 C                     17.54318   1.20113  -0.36002 
 N                     18.16991   0.54897  -1.36288 
 C                     19.57347   0.8279   -1.43698 
 C                     16.13178   0.90668  -0.30187 
 N                     15.34768   1.49037  -1.20261 
 C                     14.00918   1.26045  -1.12123 
 C                     13.38687   0.44033  -0.17175 
 C                     14.22681  -0.15764   0.77196 
 C                     15.58867  -0.00867   0.7102 
 F                     16.34388  -0.5415    1.57162 
 C                     11.85698   0.1728   -0.15072 
 C                     11.23148   0.12329   1.02586 
 C                     9.79046  -0.02006   1.05489 
 F                     9.21311  -0.12873   2.19749 
 C                     9.09421  -0.22344  -0.19105 
 N                     9.80056  -0.12908  -1.31035 
 C                     11.13368   0.00857  -1.30411 
 C                     7.6833   -0.39249  -0.24963 
 N                     6.94394   0.39026   0.5967 
 C                     5.6185    0.24539   0.60172 
 C                     4.87233  -0.62635  -0.25988 
 C                     5.63791  -1.35329  -1.1719 
 C                     7.0349   -1.25669  -1.14931 
 F                     7.70619  -1.92569  -2.05267 
 C                     3.42551  -0.76926  -0.18435 
 C                     2.6175   -0.80678  -1.28804 
 C                     1.25175  -0.93348  -1.22608 
 F                     0.52167  -1.01938  -2.3385 
 C                     0.64093  -0.95329   0.00676 
 N                     1.35537  -0.86623   1.16 
 C                     2.73394  -0.74864   1.01219 
 C                    -0.79612  -1.10554   0.23453 
 N                    -1.3714   -2.14986  -0.30143 
 C                    -2.80099  -2.24323  -0.16347 
 C                    -3.57764  -1.32071   0.37634 
 C                    -2.89768  -0.18752   1.00597 
 C                    -1.51847  -0.0496    0.86216 
 F                    -0.93881   0.97685   1.40751 
 C                    -5.03996  -1.4604    0.47251 
 C                    -5.82314  -1.95862  -0.63793 
 C                    -7.17019  -2.0203   -0.63291 
 F                    -7.78229  -2.47319  -1.72327 
 C                    -7.84699  -1.47051   0.44208 
 N                    -7.23693  -0.96682   1.52405 
 C                    -5.82007  -1.00541   1.47957 
 C                    -9.32697  -1.22641   0.43935 
 N                    -9.8099   -0.6491   -0.7565 
 C                    -11.13649  -0.32202  -0.79741 
 C                    -11.98997  -0.51572   0.20476 
 C                    -11.50107  -1.03993   1.38296 
 C                    -10.14019  -1.3715    1.46912 
 F                    -9.71701  -1.93449   2.60567 
 C                    -13.38776  -0.00297   0.17841 
 C                    -13.91407   0.97401   0.98865 
 C                    -15.19645   1.46274   0.86397 
 F                    -15.6871   2.3465    1.66118 
 C                    -15.99912   0.91112  -0.20442 
 N                    -15.49071   0.02853  -1.05189 
 C                    -14.21753  -0.51387  -0.86195 
 C                    -17.33908   1.48514  -0.45224 
 N                    -18.36679   0.61136  -0.28357 
 C                    -19.63791   1.12072  -0.51889 
 C                    -19.84511   2.44305  -0.98224 
 C                    -18.77981   3.2192   -1.15297 
 C                    -17.50068   2.74199  -0.93089 
 F                    -16.49132   3.58372  -1.22215 
 H                     21.29307   1.73908  -0.63884 
 H                     20.07086   2.80833   1.16588 
 H                     20.06476   0.28574  -2.26497 
 H                     13.44717   1.76208  -1.89981 
 H                     13.82671  -0.819     1.5051 
 H                     11.72836   0.25846   1.98363 
 H                     11.545    0.10854  -2.31539 
 H                     5.04214   0.9177    1.33568 
 H                     5.21296  -1.99209  -1.81084 
 H                     3.048    -0.8851   -2.27894 
 H                     3.24282  -0.64969   1.97125 
 H                    -3.22484  -3.16917  -0.66107 
 H                    -3.49713   0.56044   1.42921 
 H                    -5.25827  -2.34552  -1.57139 
 H                    -5.41578  -0.52679   2.42935 
 H                    -11.4432   0.10496  -1.78561 
 H                    -12.06919  -1.23795   2.30893 
 H                    -13.28676   1.38457   1.83551 
 H                    -13.91995  -1.27077  -1.6033 
 H                    -20.40821   0.41868  -0.35536 
 H                    -20.8886   2.78033  -1.15374 
 H                    -18.97249   4.22863  -1.57099 
 
 ITRead=  0  0  0  0  0  0  0  0  0  0  0  0  0  0  0  0  0  0  0  0
 ITRead=  0  0  0  0  0  0  0  0  0  0  0  0  0  0  0  0  0  0  0  0
 ITRead=  0  0  0  0  0  0  0  0  0  0  0  0  0  0  0  0  0  0  0  0
 ITRead=  0  0  0  0  0  0  0  0  0  0  0  0  0  0  0  0  0  0  0  0
 ITRead=  0  0  0  0  0  0  0  0  0  0  0  0
 MicOpt= -1 -1 -1 -1 -1 -1 -1 -1 -1 -1 -1 -1 -1 -1 -1 -1 -1 -1 -1 -1
 MicOpt= -1 -1 -1 -1 -1 -1 -1 -1 -1 -1 -1 -1 -1 -1 -1 -1 -1 -1 -1 -1
 MicOpt= -1 -1 -1 -1 -1 -1 -1 -1 -1 -1 -1 -1 -1 -1 -1 -1 -1 -1 -1 -1
 MicOpt= -1 -1 -1 -1 -1 -1 -1 -1 -1 -1 -1 -1 -1 -1 -1 -1 -1 -1 -1 -1
 MicOpt= -1 -1 -1 -1 -1 -1 -1 -1 -1 -1 -1 -1
 NAtoms=     92 NQM=       92 NQMF=       0 NMMI=      0 NMMIF=      0
                NMic=       0 NMicF=      0.
                    Isotopes and Nuclear Properties:
 (Nuclear quadrupole moments (NQMom) in fm**2, nuclear magnetic moments (NMagM)
  in nuclear magnetons)

  Atom         1           2           3           4           5           6           7           8           9          10
 IAtWgt=          12          12          12          19          12          14          12          12          14          12
 AtmWgt=  12.0000000  12.0000000  12.0000000  18.9984033  12.0000000  14.0030740  12.0000000  12.0000000  14.0030740  12.0000000
 NucSpn=           0           0           0           1           0           2           0           0           2           0
 AtZEff=  -0.0000000  -0.0000000  -0.0000000  -0.0000000  -0.0000000  -0.0000000  -0.0000000  -0.0000000  -0.0000000  -0.0000000
 NQMom=    0.0000000   0.0000000   0.0000000   0.0000000   0.0000000   2.0440000   0.0000000   0.0000000   2.0440000   0.0000000
 NMagM=    0.0000000   0.0000000   0.0000000   2.6288670   0.0000000   0.4037610   0.0000000   0.0000000   0.4037610   0.0000000
 AtZNuc=   6.0000000   6.0000000   6.0000000   9.0000000   6.0000000   7.0000000   6.0000000   6.0000000   7.0000000   6.0000000

  Atom        11          12          13          14          15          16          17          18          19          20
 IAtWgt=          12          12          12          19          12          12          12          19          12          14
 AtmWgt=  12.0000000  12.0000000  12.0000000  18.9984033  12.0000000  12.0000000  12.0000000  18.9984033  12.0000000  14.0030740
 NucSpn=           0           0           0           1           0           0           0           1           0           2
 AtZEff=  -0.0000000  -0.0000000  -0.0000000  -0.0000000  -0.0000000  -0.0000000  -0.0000000  -0.0000000  -0.0000000  -0.0000000
 NQMom=    0.0000000   0.0000000   0.0000000   0.0000000   0.0000000   0.0000000   0.0000000   0.0000000   0.0000000   2.0440000
 NMagM=    0.0000000   0.0000000   0.0000000   2.6288670   0.0000000   0.0000000   0.0000000   2.6288670   0.0000000   0.4037610
 AtZNuc=   6.0000000   6.0000000   6.0000000   9.0000000   6.0000000   6.0000000   6.0000000   9.0000000   6.0000000   7.0000000

  Atom        21          22          23          24          25          26          27          28          29          30
 IAtWgt=          12          12          14          12          12          12          12          19          12          12
 AtmWgt=  12.0000000  12.0000000  14.0030740  12.0000000  12.0000000  12.0000000  12.0000000  18.9984033  12.0000000  12.0000000
 NucSpn=           0           0           2           0           0           0           0           1           0           0
 AtZEff=  -0.0000000  -0.0000000  -0.0000000  -0.0000000  -0.0000000  -0.0000000  -0.0000000  -0.0000000  -0.0000000  -0.0000000
 NQMom=    0.0000000   0.0000000   2.0440000   0.0000000   0.0000000   0.0000000   0.0000000   0.0000000   0.0000000   0.0000000
 NMagM=    0.0000000   0.0000000   0.4037610   0.0000000   0.0000000   0.0000000   0.0000000   2.6288670   0.0000000   0.0000000
 AtZNuc=   6.0000000   6.0000000   7.0000000   6.0000000   6.0000000   6.0000000   6.0000000   9.0000000   6.0000000   6.0000000

  Atom        31          32          33          34          35          36          37          38          39          40
 IAtWgt=          12          19          12          14          12          12          14          12          12          12
 AtmWgt=  12.0000000  18.9984033  12.0000000  14.0030740  12.0000000  12.0000000  14.0030740  12.0000000  12.0000000  12.0000000
 NucSpn=           0           1           0           2           0           0           2           0           0           0
 AtZEff=  -0.0000000  -0.0000000  -0.0000000  -0.0000000  -0.0000000  -0.0000000  -0.0000000  -0.0000000  -0.0000000  -0.0000000
 NQMom=    0.0000000   0.0000000   0.0000000   2.0440000   0.0000000   0.0000000   2.0440000   0.0000000   0.0000000   0.0000000
 NMagM=    0.0000000   2.6288670   0.0000000   0.4037610   0.0000000   0.0000000   0.4037610   0.0000000   0.0000000   0.0000000
 AtZNuc=   6.0000000   9.0000000   6.0000000   7.0000000   6.0000000   6.0000000   7.0000000   6.0000000   6.0000000   6.0000000

  Atom        41          42          43          44          45          46          47          48          49          50
 IAtWgt=          12          19          12          12          12          19          12          14          12          12
 AtmWgt=  12.0000000  18.9984033  12.0000000  12.0000000  12.0000000  18.9984033  12.0000000  14.0030740  12.0000000  12.0000000
 NucSpn=           0           1           0           0           0           1           0           2           0           0
 AtZEff=  -0.0000000  -0.0000000  -0.0000000  -0.0000000  -0.0000000  -0.0000000  -0.0000000  -0.0000000  -0.0000000  -0.0000000
 NQMom=    0.0000000   0.0000000   0.0000000   0.0000000   0.0000000   0.0000000   0.0000000   2.0440000   0.0000000   0.0000000
 NMagM=    0.0000000   2.6288670   0.0000000   0.0000000   0.0000000   2.6288670   0.0000000   0.4037610   0.0000000   0.0000000
 AtZNuc=   6.0000000   9.0000000   6.0000000   6.0000000   6.0000000   9.0000000   6.0000000   7.0000000   6.0000000   6.0000000

  Atom        51          52          53          54          55          56          57          58          59          60
 IAtWgt=          14          12          12          12          12          19          12          12          12          19
 AtmWgt=  14.0030740  12.0000000  12.0000000  12.0000000  12.0000000  18.9984033  12.0000000  12.0000000  12.0000000  18.9984033
 NucSpn=           2           0           0           0           0           1           0           0           0           1
 AtZEff=  -0.0000000  -0.0000000  -0.0000000  -0.0000000  -0.0000000  -0.0000000  -0.0000000  -0.0000000  -0.0000000  -0.0000000
 NQMom=    2.0440000   0.0000000   0.0000000   0.0000000   0.0000000   0.0000000   0.0000000   0.0000000   0.0000000   0.0000000
 NMagM=    0.4037610   0.0000000   0.0000000   0.0000000   0.0000000   2.6288670   0.0000000   0.0000000   0.0000000   2.6288670
 AtZNuc=   7.0000000   6.0000000   6.0000000   6.0000000   6.0000000   9.0000000   6.0000000   6.0000000   6.0000000   9.0000000

  Atom        61          62          63          64          65          66          67          68          69          70
 IAtWgt=          12          14          12          12          14          12          12          12          12          19
 AtmWgt=  12.0000000  14.0030740  12.0000000  12.0000000  14.0030740  12.0000000  12.0000000  12.0000000  12.0000000  18.9984033
 NucSpn=           0           2           0           0           2           0           0           0           0           1
 AtZEff=  -0.0000000  -0.0000000  -0.0000000  -0.0000000  -0.0000000  -0.0000000  -0.0000000  -0.0000000  -0.0000000  -0.0000000
 NQMom=    0.0000000   2.0440000   0.0000000   0.0000000   2.0440000   0.0000000   0.0000000   0.0000000   0.0000000   0.0000000
 NMagM=    0.0000000   0.4037610   0.0000000   0.0000000   0.4037610   0.0000000   0.0000000   0.0000000   0.0000000   2.6288670
 AtZNuc=   6.0000000   7.0000000   6.0000000   6.0000000   7.0000000   6.0000000   6.0000000   6.0000000   6.0000000   9.0000000

  Atom        71          72          73          74          75          76          77          78          79          80
 IAtWgt=           1           1           1           1           1           1           1           1           1           1
 AtmWgt=   1.0078250   1.0078250   1.0078250   1.0078250   1.0078250   1.0078250   1.0078250   1.0078250   1.0078250   1.0078250
 NucSpn=           1           1           1           1           1           1           1           1           1           1
 AtZEff=  -0.0000000  -0.0000000  -0.0000000  -0.0000000  -0.0000000  -0.0000000  -0.0000000  -0.0000000  -0.0000000  -0.0000000
 NQMom=    0.0000000   0.0000000   0.0000000   0.0000000   0.0000000   0.0000000   0.0000000   0.0000000   0.0000000   0.0000000
 NMagM=    2.7928460   2.7928460   2.7928460   2.7928460   2.7928460   2.7928460   2.7928460   2.7928460   2.7928460   2.7928460
 AtZNuc=   1.0000000   1.0000000   1.0000000   1.0000000   1.0000000   1.0000000   1.0000000   1.0000000   1.0000000   1.0000000

  Atom        81          82          83          84          85          86          87          88          89          90
 IAtWgt=           1           1           1           1           1           1           1           1           1           1
 AtmWgt=   1.0078250   1.0078250   1.0078250   1.0078250   1.0078250   1.0078250   1.0078250   1.0078250   1.0078250   1.0078250
 NucSpn=           1           1           1           1           1           1           1           1           1           1
 AtZEff=  -0.0000000  -0.0000000  -0.0000000  -0.0000000  -0.0000000  -0.0000000  -0.0000000  -0.0000000  -0.0000000  -0.0000000
 NQMom=    0.0000000   0.0000000   0.0000000   0.0000000   0.0000000   0.0000000   0.0000000   0.0000000   0.0000000   0.0000000
 NMagM=    2.7928460   2.7928460   2.7928460   2.7928460   2.7928460   2.7928460   2.7928460   2.7928460   2.7928460   2.7928460
 AtZNuc=   1.0000000   1.0000000   1.0000000   1.0000000   1.0000000   1.0000000   1.0000000   1.0000000   1.0000000   1.0000000

  Atom        91          92
 IAtWgt=           1           1
 AtmWgt=   1.0078250   1.0078250
 NucSpn=           1           1
 AtZEff=  -0.0000000  -0.0000000
 NQMom=    0.0000000   0.0000000
 NMagM=    2.7928460   2.7928460
 AtZNuc=   1.0000000   1.0000000
 Leave Link  101 at Sat Jul 25 12:27:39 2020, MaxMem=  4026531840 cpu:               3.1 elap:               0.4
 (Enter /opt/ohpc/pub/libs/gaussian/g16-A.03/sandybridge/g16/l103.exe)

 GradGradGradGradGradGradGradGradGradGradGradGradGradGradGradGradGradGrad
 Berny optimization.
 Initialization pass.
                           ----------------------------
                           !    Initial Parameters    !
                           ! (Angstroms and Degrees)  !
 --------------------------                            --------------------------
 ! Name  Definition              Value          Derivative Info.                !
 --------------------------------------------------------------------------------
 ! R1    R(1,2)                  1.4524         estimate D2E/DX2                !
 ! R2    R(1,7)                  1.3405         estimate D2E/DX2                !
 ! R3    R(1,71)                 1.0377         estimate D2E/DX2                !
 ! R4    R(2,3)                  1.3574         estimate D2E/DX2                !
 ! R5    R(2,72)                 1.0869         estimate D2E/DX2                !
 ! R6    R(3,4)                  1.2759         estimate D2E/DX2                !
 ! R7    R(3,5)                  1.3967         estimate D2E/DX2                !
 ! R8    R(5,6)                  1.3505         estimate D2E/DX2                !
 ! R9    R(5,8)                  1.443          estimate D2E/DX2                !
 ! R10   R(6,7)                  1.4329         estimate D2E/DX2                !
 ! R11   R(7,73)                 1.1049         estimate D2E/DX2                !
 ! R12   R(8,9)                  1.3292         estimate D2E/DX2                !
 ! R13   R(8,13)                 1.4687         estimate D2E/DX2                !
 ! R14   R(9,10)                 1.3605         estimate D2E/DX2                !
 ! R15   R(10,11)                1.4005         estimate D2E/DX2                !
 ! R16   R(10,74)                1.0834         estimate D2E/DX2                !
 ! R17   R(11,12)                1.3977         estimate D2E/DX2                !
 ! R18   R(11,15)                1.5532         estimate D2E/DX2                !
 ! R19   R(12,13)                1.3714         estimate D2E/DX2                !
 ! R20   R(12,75)                1.0653         estimate D2E/DX2                !
 ! R21   R(13,14)                1.2634         estimate D2E/DX2                !
 ! R22   R(15,16)                1.3334         estimate D2E/DX2                !
 ! R23   R(15,21)                1.3713         estimate D2E/DX2                !
 ! R24   R(16,17)                1.4484         estimate D2E/DX2                !
 ! R25   R(16,76)                1.0874         estimate D2E/DX2                !
 ! R26   R(17,18)                1.2848         estimate D2E/DX2                !
 ! R27   R(17,19)                1.4417         estimate D2E/DX2                !
 ! R28   R(19,20)                1.3269         estimate D2E/DX2                !
 ! R29   R(19,22)                1.4222         estimate D2E/DX2                !
 ! R30   R(20,21)                1.3402         estimate D2E/DX2                !
 ! R31   R(21,77)                1.0963         estimate D2E/DX2                !
 ! R32   R(22,23)                1.3695         estimate D2E/DX2                !
 ! R33   R(22,27)                1.406          estimate D2E/DX2                !
 ! R34   R(23,24)                1.3333         estimate D2E/DX2                !
 ! R35   R(24,25)                1.4349         estimate D2E/DX2                !
 ! R36   R(24,78)                1.1502         estimate D2E/DX2                !
 ! R37   R(25,26)                1.3951         estimate D2E/DX2                !
 ! R38   R(25,29)                1.4558         estimate D2E/DX2                !
 ! R39   R(26,27)                1.4005         estimate D2E/DX2                !
 ! R40   R(26,79)                0.9984         estimate D2E/DX2                !
 ! R41   R(27,28)                1.3093         estimate D2E/DX2                !
 ! R42   R(29,30)                1.3684         estimate D2E/DX2                !
 ! R43   R(29,35)                1.3822         estimate D2E/DX2                !
 ! R44   R(30,31)                1.373          estimate D2E/DX2                !
 ! R45   R(30,80)                1.0832         estimate D2E/DX2                !
 ! R46   R(31,32)                1.3334         estimate D2E/DX2                !
 ! R47   R(31,33)                1.376          estimate D2E/DX2                !
 ! R48   R(33,34)                1.3594         estimate D2E/DX2                !
 ! R49   R(33,36)                1.4629         estimate D2E/DX2                !
 ! R50   R(34,35)                1.3915         estimate D2E/DX2                !
 ! R51   R(35,81)                1.0902         estimate D2E/DX2                !
 ! R52   R(36,37)                1.3072         estimate D2E/DX2                !
 ! R53   R(36,41)                1.425          estimate D2E/DX2                !
 ! R54   R(37,38)                1.4393         estimate D2E/DX2                !
 ! R55   R(38,39)                1.3212         estimate D2E/DX2                !
 ! R56   R(38,82)                1.1334         estimate D2E/DX2                !
 ! R57   R(39,40)                1.4639         estimate D2E/DX2                !
 ! R58   R(39,43)                1.4721         estimate D2E/DX2                !
 ! R59   R(40,41)                1.3935         estimate D2E/DX2                !
 ! R60   R(40,83)                1.0478         estimate D2E/DX2                !
 ! R61   R(41,42)                1.2988         estimate D2E/DX2                !
 ! R62   R(43,44)                1.4473         estimate D2E/DX2                !
 ! R63   R(43,49)                1.3527         estimate D2E/DX2                !
 ! R64   R(44,45)                1.3485         estimate D2E/DX2                !
 ! R65   R(44,84)                1.1576         estimate D2E/DX2                !
 ! R66   R(45,46)                1.3299         estimate D2E/DX2                !
 ! R67   R(45,47)                1.3842         estimate D2E/DX2                !
 ! R68   R(47,48)                1.3403         estimate D2E/DX2                !
 ! R69   R(47,50)                1.5            estimate D2E/DX2                !
 ! R70   R(48,49)                1.4181         estimate D2E/DX2                !
 ! R71   R(49,85)                1.1378         estimate D2E/DX2                !
 ! R72   R(50,51)                1.413          estimate D2E/DX2                !
 ! R73   R(50,55)                1.3202         estimate D2E/DX2                !
 ! R74   R(51,52)                1.3669         estimate D2E/DX2                !
 ! R75   R(52,53)                1.3305         estimate D2E/DX2                !
 ! R76   R(52,86)                1.1193         estimate D2E/DX2                !
 ! R77   R(53,54)                1.3791         estimate D2E/DX2                !
 ! R78   R(53,57)                1.4891         estimate D2E/DX2                !
 ! R79   R(54,55)                1.4033         estimate D2E/DX2                !
 ! R80   R(54,87)                1.1043         estimate D2E/DX2                !
 ! R81   R(55,56)                1.3371         estimate D2E/DX2                !
 ! R82   R(57,58)                1.374          estimate D2E/DX2                !
 ! R83   R(57,63)                1.4254         estimate D2E/DX2                !
 ! R84   R(58,59)                1.378          estimate D2E/DX2                !
 ! R85   R(58,88)                1.131          estimate D2E/DX2                !
 ! R86   R(59,60)                1.2874         estimate D2E/DX2                !
 ! R87   R(59,61)                1.4457         estimate D2E/DX2                !
 ! R88   R(61,62)                1.325          estimate D2E/DX2                !
 ! R89   R(61,64)                1.4787         estimate D2E/DX2                !
 ! R90   R(62,63)                1.3969         estimate D2E/DX2                !
 ! R91   R(63,89)                1.1005         estimate D2E/DX2                !
 ! R92   R(64,65)                1.3595         estimate D2E/DX2                !
 ! R93   R(64,69)                1.3546         estimate D2E/DX2                !
 ! R94   R(65,66)                1.3894         estimate D2E/DX2                !
 ! R95   R(66,67)                1.4164         estimate D2E/DX2                !
 ! R96   R(66,90)                1.055          estimate D2E/DX2                !
 ! R97   R(67,68)                1.3291         estimate D2E/DX2                !
 ! R98   R(67,91)                1.11           estimate D2E/DX2                !
 ! R99   R(68,69)                1.3832         estimate D2E/DX2                !
 ! R100  R(68,92)                1.1094         estimate D2E/DX2                !
 ! R101  R(69,70)                1.3462         estimate D2E/DX2                !
 ! A1    A(2,1,7)              115.1471         estimate D2E/DX2                !
 ! A2    A(2,1,71)             120.5799         estimate D2E/DX2                !
 ! A3    A(7,1,71)             123.8759         estimate D2E/DX2                !
 ! A4    A(1,2,3)              122.5761         estimate D2E/DX2                !
 ! A5    A(1,2,72)             114.1165         estimate D2E/DX2                !
 ! A6    A(3,2,72)             123.2997         estimate D2E/DX2                !
 ! A7    A(2,3,4)              123.2951         estimate D2E/DX2                !
 ! A8    A(2,3,5)              116.4879         estimate D2E/DX2                !
 ! A9    A(4,3,5)              120.2153         estimate D2E/DX2                !
 ! A10   A(3,5,6)              126.1647         estimate D2E/DX2                !
 ! A11   A(3,5,8)              121.002          estimate D2E/DX2                !
 ! A12   A(6,5,8)              112.6627         estimate D2E/DX2                !
 ! A13   A(5,6,7)              113.5131         estimate D2E/DX2                !
 ! A14   A(1,7,6)              125.9202         estimate D2E/DX2                !
 ! A15   A(1,7,73)             121.8051         estimate D2E/DX2                !
 ! A16   A(6,7,73)             112.2566         estimate D2E/DX2                !
 ! A17   A(5,8,9)              117.3924         estimate D2E/DX2                !
 ! A18   A(5,8,13)             121.1076         estimate D2E/DX2                !
 ! A19   A(9,8,13)             121.4992         estimate D2E/DX2                !
 ! A20   A(8,9,10)             117.7492         estimate D2E/DX2                !
 ! A21   A(9,10,11)            125.2161         estimate D2E/DX2                !
 ! A22   A(9,10,74)            112.9006         estimate D2E/DX2                !
 ! A23   A(11,10,74)           121.8611         estimate D2E/DX2                !
 ! A24   A(10,11,12)           116.1831         estimate D2E/DX2                !
 ! A25   A(10,11,15)           123.21           estimate D2E/DX2                !
 ! A26   A(12,11,15)           120.6018         estimate D2E/DX2                !
 ! A27   A(11,12,13)           121.3243         estimate D2E/DX2                !
 ! A28   A(11,12,75)           120.2999         estimate D2E/DX2                !
 ! A29   A(13,12,75)           118.1242         estimate D2E/DX2                !
 ! A30   A(8,13,12)            117.7724         estimate D2E/DX2                !
 ! A31   A(8,13,14)            120.7714         estimate D2E/DX2                !
 ! A32   A(12,13,14)           121.1362         estimate D2E/DX2                !
 ! A33   A(11,15,16)           118.7098         estimate D2E/DX2                !
 ! A34   A(11,15,21)           121.922          estimate D2E/DX2                !
 ! A35   A(16,15,21)           119.3599         estimate D2E/DX2                !
 ! A36   A(15,16,17)           119.2121         estimate D2E/DX2                !
 ! A37   A(15,16,76)           123.9321         estimate D2E/DX2                !
 ! A38   A(17,16,76)           116.6958         estimate D2E/DX2                !
 ! A39   A(16,17,18)           118.2463         estimate D2E/DX2                !
 ! A40   A(16,17,19)           118.4972         estimate D2E/DX2                !
 ! A41   A(18,17,19)           122.6582         estimate D2E/DX2                !
 ! A42   A(17,19,20)           117.5092         estimate D2E/DX2                !
 ! A43   A(17,19,22)           122.1047         estimate D2E/DX2                !
 ! A44   A(20,19,22)           120.1196         estimate D2E/DX2                !
 ! A45   A(19,20,21)           122.2006         estimate D2E/DX2                !
 ! A46   A(15,21,20)           122.7433         estimate D2E/DX2                !
 ! A47   A(15,21,77)           124.5451         estimate D2E/DX2                !
 ! A48   A(20,21,77)           112.2269         estimate D2E/DX2                !
 ! A49   A(19,22,23)           116.2436         estimate D2E/DX2                !
 ! A50   A(19,22,27)           123.8446         estimate D2E/DX2                !
 ! A51   A(23,22,27)           119.8529         estimate D2E/DX2                !
 ! A52   A(22,23,24)           118.4828         estimate D2E/DX2                !
 ! A53   A(23,24,25)           125.4974         estimate D2E/DX2                !
 ! A54   A(23,24,78)           115.9147         estimate D2E/DX2                !
 ! A55   A(25,24,78)           118.5348         estimate D2E/DX2                !
 ! A56   A(24,25,26)           115.0698         estimate D2E/DX2                !
 ! A57   A(24,25,29)           123.0431         estimate D2E/DX2                !
 ! A58   A(26,25,29)           121.8792         estimate D2E/DX2                !
 ! A59   A(25,26,27)           120.0591         estimate D2E/DX2                !
 ! A60   A(25,26,79)           121.2089         estimate D2E/DX2                !
 ! A61   A(27,26,79)           118.6197         estimate D2E/DX2                !
 ! A62   A(22,27,26)           120.8469         estimate D2E/DX2                !
 ! A63   A(22,27,28)           121.2741         estimate D2E/DX2                !
 ! A64   A(26,27,28)           117.7134         estimate D2E/DX2                !
 ! A65   A(25,29,30)           123.2085         estimate D2E/DX2                !
 ! A66   A(25,29,35)           122.7316         estimate D2E/DX2                !
 ! A67   A(30,29,35)           113.7788         estimate D2E/DX2                !
 ! A68   A(29,30,31)           123.6071         estimate D2E/DX2                !
 ! A69   A(29,30,80)           120.3409         estimate D2E/DX2                !
 ! A70   A(31,30,80)           115.464          estimate D2E/DX2                !
 ! A71   A(30,31,32)           120.8596         estimate D2E/DX2                !
 ! A72   A(30,31,33)           118.903          estimate D2E/DX2                !
 ! A73   A(32,31,33)           120.2321         estimate D2E/DX2                !
 ! A74   A(31,33,34)           121.7259         estimate D2E/DX2                !
 ! A75   A(31,33,36)           125.2432         estimate D2E/DX2                !
 ! A76   A(34,33,36)           113.0071         estimate D2E/DX2                !
 ! A77   A(33,34,35)           115.8481         estimate D2E/DX2                !
 ! A78   A(29,35,34)           125.9034         estimate D2E/DX2                !
 ! A79   A(29,35,81)           121.9624         estimate D2E/DX2                !
 ! A80   A(34,35,81)           112.1277         estimate D2E/DX2                !
 ! A81   A(33,36,37)           116.8471         estimate D2E/DX2                !
 ! A82   A(33,36,41)           119.3            estimate D2E/DX2                !
 ! A83   A(37,36,41)           123.3306         estimate D2E/DX2                !
 ! A84   A(36,37,38)           116.7216         estimate D2E/DX2                !
 ! A85   A(37,38,39)           125.2918         estimate D2E/DX2                !
 ! A86   A(37,38,82)           112.4799         estimate D2E/DX2                !
 ! A87   A(39,38,82)           122.0038         estimate D2E/DX2                !
 ! A88   A(38,39,40)           116.3076         estimate D2E/DX2                !
 ! A89   A(38,39,43)           122.9803         estimate D2E/DX2                !
 ! A90   A(40,39,43)           120.4486         estimate D2E/DX2                !
 ! A91   A(39,40,41)           119.4695         estimate D2E/DX2                !
 ! A92   A(39,40,83)           117.4239         estimate D2E/DX2                !
 ! A93   A(41,40,83)           122.4967         estimate D2E/DX2                !
 ! A94   A(36,41,40)           118.2813         estimate D2E/DX2                !
 ! A95   A(36,41,42)           122.9765         estimate D2E/DX2                !
 ! A96   A(40,41,42)           118.4628         estimate D2E/DX2                !
 ! A97   A(39,43,44)           121.3366         estimate D2E/DX2                !
 ! A98   A(39,43,49)           126.1282         estimate D2E/DX2                !
 ! A99   A(44,43,49)           112.0197         estimate D2E/DX2                !
 ! A100  A(43,44,45)           123.6039         estimate D2E/DX2                !
 ! A101  A(43,44,84)           118.0138         estimate D2E/DX2                !
 ! A102  A(45,44,84)           118.369          estimate D2E/DX2                !
 ! A103  A(44,45,46)           118.1837         estimate D2E/DX2                !
 ! A104  A(44,45,47)           118.2397         estimate D2E/DX2                !
 ! A105  A(46,45,47)           123.1585         estimate D2E/DX2                !
 ! A106  A(45,47,48)           123.6167         estimate D2E/DX2                !
 ! A107  A(45,47,50)           123.0696         estimate D2E/DX2                !
 ! A108  A(48,47,50)           112.9173         estimate D2E/DX2                !
 ! A109  A(47,48,49)           114.7848         estimate D2E/DX2                !
 ! A110  A(43,49,48)           127.4971         estimate D2E/DX2                !
 ! A111  A(43,49,85)           123.9192         estimate D2E/DX2                !
 ! A112  A(48,49,85)           108.5053         estimate D2E/DX2                !
 ! A113  A(47,50,51)           113.907          estimate D2E/DX2                !
 ! A114  A(47,50,55)           126.0493         estimate D2E/DX2                !
 ! A115  A(51,50,55)           119.6389         estimate D2E/DX2                !
 ! A116  A(50,51,52)           117.0514         estimate D2E/DX2                !
 ! A117  A(51,52,53)           124.4128         estimate D2E/DX2                !
 ! A118  A(51,52,86)           112.5587         estimate D2E/DX2                !
 ! A119  A(53,52,86)           123.0062         estimate D2E/DX2                !
 ! A120  A(52,53,54)           118.1262         estimate D2E/DX2                !
 ! A121  A(52,53,57)           122.5934         estimate D2E/DX2                !
 ! A122  A(54,53,57)           118.6046         estimate D2E/DX2                !
 ! A123  A(53,54,55)           119.0805         estimate D2E/DX2                !
 ! A124  A(53,54,87)           127.0243         estimate D2E/DX2                !
 ! A125  A(55,54,87)           113.8949         estimate D2E/DX2                !
 ! A126  A(50,55,54)           121.5675         estimate D2E/DX2                !
 ! A127  A(50,55,56)           120.9551         estimate D2E/DX2                !
 ! A128  A(54,55,56)           117.2966         estimate D2E/DX2                !
 ! A129  A(53,57,58)           126.4375         estimate D2E/DX2                !
 ! A130  A(53,57,63)           115.8438         estimate D2E/DX2                !
 ! A131  A(58,57,63)           117.5324         estimate D2E/DX2                !
 ! A132  A(57,58,59)           123.7299         estimate D2E/DX2                !
 ! A133  A(57,58,88)           119.1552         estimate D2E/DX2                !
 ! A134  A(59,58,88)           117.0743         estimate D2E/DX2                !
 ! A135  A(58,59,60)           122.8285         estimate D2E/DX2                !
 ! A136  A(58,59,61)           116.6296         estimate D2E/DX2                !
 ! A137  A(60,59,61)           120.5288         estimate D2E/DX2                !
 ! A138  A(59,61,62)           120.9168         estimate D2E/DX2                !
 ! A139  A(59,61,64)           118.6116         estimate D2E/DX2                !
 ! A140  A(62,61,64)           119.9409         estimate D2E/DX2                !
 ! A141  A(61,62,63)           121.4263         estimate D2E/DX2                !
 ! A142  A(57,63,62)           119.3827         estimate D2E/DX2                !
 ! A143  A(57,63,89)           125.5052         estimate D2E/DX2                !
 ! A144  A(62,63,89)           114.9563         estimate D2E/DX2                !
 ! A145  A(61,64,65)           114.504          estimate D2E/DX2                !
 ! A146  A(61,64,69)           121.8383         estimate D2E/DX2                !
 ! A147  A(65,64,69)           123.3687         estimate D2E/DX2                !
 ! A148  A(64,65,66)           115.7823         estimate D2E/DX2                !
 ! A149  A(65,66,67)           122.1051         estimate D2E/DX2                !
 ! A150  A(65,66,90)           113.4389         estimate D2E/DX2                !
 ! A151  A(67,66,90)           124.4138         estimate D2E/DX2                !
 ! A152  A(66,67,68)           118.0325         estimate D2E/DX2                !
 ! A153  A(66,67,91)           118.1479         estimate D2E/DX2                !
 ! A154  A(68,67,91)           123.7954         estimate D2E/DX2                !
 ! A155  A(67,68,69)           121.2738         estimate D2E/DX2                !
 ! A156  A(67,68,92)           116.1386         estimate D2E/DX2                !
 ! A157  A(69,68,92)           122.3453         estimate D2E/DX2                !
 ! A158  A(64,69,68)           119.1549         estimate D2E/DX2                !
 ! A159  A(64,69,70)           124.5529         estimate D2E/DX2                !
 ! A160  A(68,69,70)           116.2912         estimate D2E/DX2                !
 ! D1    D(7,1,2,3)             -3.0428         estimate D2E/DX2                !
 ! D2    D(7,1,2,72)           177.9365         estimate D2E/DX2                !
 ! D3    D(71,1,2,3)          -176.0848         estimate D2E/DX2                !
 ! D4    D(71,1,2,72)            4.8945         estimate D2E/DX2                !
 ! D5    D(2,1,7,6)              1.9396         estimate D2E/DX2                !
 ! D6    D(2,1,7,73)          -176.3925         estimate D2E/DX2                !
 ! D7    D(71,1,7,6)           174.7233         estimate D2E/DX2                !
 ! D8    D(71,1,7,73)           -3.6089         estimate D2E/DX2                !
 ! D9    D(1,2,3,4)            179.9972         estimate D2E/DX2                !
 ! D10   D(1,2,3,5)              0.4691         estimate D2E/DX2                !
 ! D11   D(72,2,3,4)            -1.0722         estimate D2E/DX2                !
 ! D12   D(72,2,3,5)           179.3997         estimate D2E/DX2                !
 ! D13   D(2,3,5,6)              3.7704         estimate D2E/DX2                !
 ! D14   D(2,3,5,8)            178.6643         estimate D2E/DX2                !
 ! D15   D(4,3,5,6)           -175.7731         estimate D2E/DX2                !
 ! D16   D(4,3,5,8)             -0.8792         estimate D2E/DX2                !
 ! D17   D(3,5,6,7)             -4.7138         estimate D2E/DX2                !
 ! D18   D(8,5,6,7)           -179.9718         estimate D2E/DX2                !
 ! D19   D(3,5,8,9)            108.2115         estimate D2E/DX2                !
 ! D20   D(3,5,8,13)           -72.1199         estimate D2E/DX2                !
 ! D21   D(6,5,8,9)            -76.2543         estimate D2E/DX2                !
 ! D22   D(6,5,8,13)           103.4143         estimate D2E/DX2                !
 ! D23   D(5,6,7,1)              1.642          estimate D2E/DX2                !
 ! D24   D(5,6,7,73)          -179.8895         estimate D2E/DX2                !
 ! D25   D(5,8,9,10)          -177.411          estimate D2E/DX2                !
 ! D26   D(13,8,9,10)            2.9218         estimate D2E/DX2                !
 ! D27   D(5,8,13,12)          174.9144         estimate D2E/DX2                !
 ! D28   D(5,8,13,14)            1.3375         estimate D2E/DX2                !
 ! D29   D(9,8,13,12)           -5.4307         estimate D2E/DX2                !
 ! D30   D(9,8,13,14)         -179.0077         estimate D2E/DX2                !
 ! D31   D(8,9,10,11)           -0.9018         estimate D2E/DX2                !
 ! D32   D(8,9,10,74)         -179.2055         estimate D2E/DX2                !
 ! D33   D(9,10,11,12)           1.2899         estimate D2E/DX2                !
 ! D34   D(9,10,11,15)        -177.8894         estimate D2E/DX2                !
 ! D35   D(74,10,11,12)        179.45           estimate D2E/DX2                !
 ! D36   D(74,10,11,15)          0.2707         estimate D2E/DX2                !
 ! D37   D(10,11,12,13)         -3.9023         estimate D2E/DX2                !
 ! D38   D(10,11,12,75)       -178.0311         estimate D2E/DX2                !
 ! D39   D(15,11,12,13)        175.3            estimate D2E/DX2                !
 ! D40   D(15,11,12,75)          1.1711         estimate D2E/DX2                !
 ! D41   D(10,11,15,16)       -140.3851         estimate D2E/DX2                !
 ! D42   D(10,11,15,21)         38.555          estimate D2E/DX2                !
 ! D43   D(12,11,15,16)         40.4705         estimate D2E/DX2                !
 ! D44   D(12,11,15,21)       -140.5893         estimate D2E/DX2                !
 ! D45   D(11,12,13,8)           5.8473         estimate D2E/DX2                !
 ! D46   D(11,12,13,14)        179.3996         estimate D2E/DX2                !
 ! D47   D(75,12,13,8)        -179.9001         estimate D2E/DX2                !
 ! D48   D(75,12,13,14)         -6.3478         estimate D2E/DX2                !
 ! D49   D(11,15,16,17)        175.1718         estimate D2E/DX2                !
 ! D50   D(11,15,16,76)         -0.0726         estimate D2E/DX2                !
 ! D51   D(21,15,16,17)         -3.7961         estimate D2E/DX2                !
 ! D52   D(21,15,16,76)       -179.0405         estimate D2E/DX2                !
 ! D53   D(11,15,21,20)       -175.1773         estimate D2E/DX2                !
 ! D54   D(11,15,21,77)         -3.7929         estimate D2E/DX2                !
 ! D55   D(16,15,21,20)          3.7562         estimate D2E/DX2                !
 ! D56   D(16,15,21,77)        175.1406         estimate D2E/DX2                !
 ! D57   D(15,16,17,18)        176.7953         estimate D2E/DX2                !
 ! D58   D(15,16,17,19)          5.4239         estimate D2E/DX2                !
 ! D59   D(76,16,17,18)         -7.6205         estimate D2E/DX2                !
 ! D60   D(76,16,17,19)       -178.9919         estimate D2E/DX2                !
 ! D61   D(16,17,19,20)         -6.8428         estimate D2E/DX2                !
 ! D62   D(16,17,19,22)        179.0854         estimate D2E/DX2                !
 ! D63   D(18,17,19,20)       -177.8111         estimate D2E/DX2                !
 ! D64   D(18,17,19,22)          8.1172         estimate D2E/DX2                !
 ! D65   D(17,19,20,21)          6.9334         estimate D2E/DX2                !
 ! D66   D(22,19,20,21)       -178.8717         estimate D2E/DX2                !
 ! D67   D(17,19,22,23)         39.1762         estimate D2E/DX2                !
 ! D68   D(17,19,22,27)       -143.6254         estimate D2E/DX2                !
 ! D69   D(20,19,22,23)       -134.7446         estimate D2E/DX2                !
 ! D70   D(20,19,22,27)         42.4539         estimate D2E/DX2                !
 ! D71   D(19,20,21,15)         -5.5166         estimate D2E/DX2                !
 ! D72   D(19,20,21,77)       -177.8565         estimate D2E/DX2                !
 ! D73   D(19,22,23,24)       -178.4167         estimate D2E/DX2                !
 ! D74   D(27,22,23,24)          4.2661         estimate D2E/DX2                !
 ! D75   D(19,22,27,26)       -178.6267         estimate D2E/DX2                !
 ! D76   D(19,22,27,28)         -3.4098         estimate D2E/DX2                !
 ! D77   D(23,22,27,26)         -1.524          estimate D2E/DX2                !
 ! D78   D(23,22,27,28)        173.6929         estimate D2E/DX2                !
 ! D79   D(22,23,24,25)         -3.2385         estimate D2E/DX2                !
 ! D80   D(22,23,24,78)        179.4659         estimate D2E/DX2                !
 ! D81   D(23,24,25,26)         -0.6821         estimate D2E/DX2                !
 ! D82   D(23,24,25,29)        178.314          estimate D2E/DX2                !
 ! D83   D(78,24,25,26)        176.5491         estimate D2E/DX2                !
 ! D84   D(78,24,25,29)         -4.4548         estimate D2E/DX2                !
 ! D85   D(24,25,26,27)          3.4843         estimate D2E/DX2                !
 ! D86   D(24,25,26,79)        179.5782         estimate D2E/DX2                !
 ! D87   D(29,25,26,27)       -175.5247         estimate D2E/DX2                !
 ! D88   D(29,25,26,79)          0.5692         estimate D2E/DX2                !
 ! D89   D(24,25,29,30)        136.5751         estimate D2E/DX2                !
 ! D90   D(24,25,29,35)        -36.9535         estimate D2E/DX2                !
 ! D91   D(26,25,29,30)        -44.4957         estimate D2E/DX2                !
 ! D92   D(26,25,29,35)        141.9757         estimate D2E/DX2                !
 ! D93   D(25,26,27,22)         -2.5088         estimate D2E/DX2                !
 ! D94   D(25,26,27,28)       -177.8914         estimate D2E/DX2                !
 ! D95   D(79,26,27,22)       -178.7031         estimate D2E/DX2                !
 ! D96   D(79,26,27,28)          5.9143         estimate D2E/DX2                !
 ! D97   D(25,29,30,31)       -179.6084         estimate D2E/DX2                !
 ! D98   D(25,29,30,80)          9.5901         estimate D2E/DX2                !
 ! D99   D(35,29,30,31)         -5.5552         estimate D2E/DX2                !
 ! D100  D(35,29,30,80)       -176.3567         estimate D2E/DX2                !
 ! D101  D(25,29,35,34)        179.3564         estimate D2E/DX2                !
 ! D102  D(25,29,35,81)         -1.6496         estimate D2E/DX2                !
 ! D103  D(30,29,35,34)          5.2711         estimate D2E/DX2                !
 ! D104  D(30,29,35,81)       -175.7348         estimate D2E/DX2                !
 ! D105  D(29,30,31,32)       -177.22           estimate D2E/DX2                !
 ! D106  D(29,30,31,33)          3.6197         estimate D2E/DX2                !
 ! D107  D(80,30,31,32)         -6.0095         estimate D2E/DX2                !
 ! D108  D(80,30,31,33)        174.8303         estimate D2E/DX2                !
 ! D109  D(30,31,33,34)         -0.763          estimate D2E/DX2                !
 ! D110  D(30,31,33,36)       -178.8587         estimate D2E/DX2                !
 ! D111  D(32,31,33,34)       -179.9286         estimate D2E/DX2                !
 ! D112  D(32,31,33,36)          1.9757         estimate D2E/DX2                !
 ! D113  D(31,33,34,35)          0.3655         estimate D2E/DX2                !
 ! D114  D(36,33,34,35)        178.6759         estimate D2E/DX2                !
 ! D115  D(31,33,36,37)         54.699          estimate D2E/DX2                !
 ! D116  D(31,33,36,41)       -117.2904         estimate D2E/DX2                !
 ! D117  D(34,33,36,37)       -123.5413         estimate D2E/DX2                !
 ! D118  D(34,33,36,41)         64.4693         estimate D2E/DX2                !
 ! D119  D(33,34,35,29)         -2.8437         estimate D2E/DX2                !
 ! D120  D(33,34,35,81)        178.0777         estimate D2E/DX2                !
 ! D121  D(33,36,37,38)       -175.3562         estimate D2E/DX2                !
 ! D122  D(41,36,37,38)         -3.7197         estimate D2E/DX2                !
 ! D123  D(33,36,41,40)        176.7171         estimate D2E/DX2                !
 ! D124  D(33,36,41,42)         -9.4549         estimate D2E/DX2                !
 ! D125  D(37,36,41,40)          5.2753         estimate D2E/DX2                !
 ! D126  D(37,36,41,42)        179.1033         estimate D2E/DX2                !
 ! D127  D(36,37,38,39)          4.8725         estimate D2E/DX2                !
 ! D128  D(36,37,38,82)        179.4954         estimate D2E/DX2                !
 ! D129  D(37,38,39,40)         -6.8747         estimate D2E/DX2                !
 ! D130  D(37,38,39,43)        179.008          estimate D2E/DX2                !
 ! D131  D(82,38,39,40)        178.9859         estimate D2E/DX2                !
 ! D132  D(82,38,39,43)          4.8687         estimate D2E/DX2                !
 ! D133  D(38,39,40,41)          7.9877         estimate D2E/DX2                !
 ! D134  D(38,39,40,83)        179.2607         estimate D2E/DX2                !
 ! D135  D(43,39,40,41)       -177.736          estimate D2E/DX2                !
 ! D136  D(43,39,40,83)         -6.463          estimate D2E/DX2                !
 ! D137  D(38,39,43,44)        -43.6021         estimate D2E/DX2                !
 ! D138  D(38,39,43,49)        145.3076         estimate D2E/DX2                !
 ! D139  D(40,39,43,44)        142.5158         estimate D2E/DX2                !
 ! D140  D(40,39,43,49)        -28.5744         estimate D2E/DX2                !
 ! D141  D(39,40,41,36)         -7.1813         estimate D2E/DX2                !
 ! D142  D(39,40,41,42)        178.7072         estimate D2E/DX2                !
 ! D143  D(83,40,41,36)       -177.9931         estimate D2E/DX2                !
 ! D144  D(83,40,41,42)          7.8954         estimate D2E/DX2                !
 ! D145  D(39,43,44,45)       -175.3529         estimate D2E/DX2                !
 ! D146  D(39,43,44,84)          5.9909         estimate D2E/DX2                !
 ! D147  D(49,43,44,45)         -3.108          estimate D2E/DX2                !
 ! D148  D(49,43,44,84)        178.2359         estimate D2E/DX2                !
 ! D149  D(39,43,49,48)        171.0727         estimate D2E/DX2                !
 ! D150  D(39,43,49,85)         -5.3295         estimate D2E/DX2                !
 ! D151  D(44,43,49,48)         -0.7235         estimate D2E/DX2                !
 ! D152  D(44,43,49,85)       -177.1257         estimate D2E/DX2                !
 ! D153  D(43,44,45,46)        178.6968         estimate D2E/DX2                !
 ! D154  D(43,44,45,47)          5.8799         estimate D2E/DX2                !
 ! D155  D(84,44,45,46)         -2.6515         estimate D2E/DX2                !
 ! D156  D(84,44,45,47)       -175.4684         estimate D2E/DX2                !
 ! D157  D(44,45,47,48)         -5.0305         estimate D2E/DX2                !
 ! D158  D(44,45,47,50)        167.2267         estimate D2E/DX2                !
 ! D159  D(46,45,47,48)       -177.4653         estimate D2E/DX2                !
 ! D160  D(46,45,47,50)         -5.2081         estimate D2E/DX2                !
 ! D161  D(45,47,48,49)          1.503          estimate D2E/DX2                !
 ! D162  D(50,47,48,49)       -171.4562         estimate D2E/DX2                !
 ! D163  D(45,47,50,51)        -44.224          estimate D2E/DX2                !
 ! D164  D(45,47,50,55)        143.1593         estimate D2E/DX2                !
 ! D165  D(48,47,50,51)        128.7795         estimate D2E/DX2                !
 ! D166  D(48,47,50,55)        -43.8372         estimate D2E/DX2                !
 ! D167  D(47,48,49,43)          1.4746         estimate D2E/DX2                !
 ! D168  D(47,48,49,85)        178.3268         estimate D2E/DX2                !
 ! D169  D(47,50,51,52)       -176.0334         estimate D2E/DX2                !
 ! D170  D(55,50,51,52)         -2.8989         estimate D2E/DX2                !
 ! D171  D(47,50,55,54)        176.1383         estimate D2E/DX2                !
 ! D172  D(47,50,55,56)         -8.8809         estimate D2E/DX2                !
 ! D173  D(51,50,55,54)          3.9065         estimate D2E/DX2                !
 ! D174  D(51,50,55,56)        178.8873         estimate D2E/DX2                !
 ! D175  D(50,51,52,53)         -0.2402         estimate D2E/DX2                !
 ! D176  D(50,51,52,86)       -178.5655         estimate D2E/DX2                !
 ! D177  D(51,52,53,54)          2.2867         estimate D2E/DX2                !
 ! D178  D(51,52,53,57)        172.7255         estimate D2E/DX2                !
 ! D179  D(86,52,53,54)       -179.5575         estimate D2E/DX2                !
 ! D180  D(86,52,53,57)         -9.1187         estimate D2E/DX2                !
 ! D181  D(52,53,54,55)         -1.2937         estimate D2E/DX2                !
 ! D182  D(52,53,54,87)        178.5129         estimate D2E/DX2                !
 ! D183  D(57,53,54,55)       -172.1217         estimate D2E/DX2                !
 ! D184  D(57,53,54,87)          7.6848         estimate D2E/DX2                !
 ! D185  D(52,53,57,58)       -113.1435         estimate D2E/DX2                !
 ! D186  D(52,53,57,63)         61.7437         estimate D2E/DX2                !
 ! D187  D(54,53,57,58)         57.2516         estimate D2E/DX2                !
 ! D188  D(54,53,57,63)       -127.8611         estimate D2E/DX2                !
 ! D189  D(53,54,55,50)         -1.8137         estimate D2E/DX2                !
 ! D190  D(53,54,55,56)       -176.9705         estimate D2E/DX2                !
 ! D191  D(87,54,55,50)        178.3552         estimate D2E/DX2                !
 ! D192  D(87,54,55,56)          3.1984         estimate D2E/DX2                !
 ! D193  D(53,57,58,59)        176.0142         estimate D2E/DX2                !
 ! D194  D(53,57,58,88)         -6.3742         estimate D2E/DX2                !
 ! D195  D(63,57,58,59)          1.2034         estimate D2E/DX2                !
 ! D196  D(63,57,58,88)        178.8151         estimate D2E/DX2                !
 ! D197  D(53,57,63,62)       -172.6604         estimate D2E/DX2                !
 ! D198  D(53,57,63,89)          2.5641         estimate D2E/DX2                !
 ! D199  D(58,57,63,62)          2.7021         estimate D2E/DX2                !
 ! D200  D(58,57,63,89)        177.9266         estimate D2E/DX2                !
 ! D201  D(57,58,59,60)        177.5933         estimate D2E/DX2                !
 ! D202  D(57,58,59,61)         -1.0915         estimate D2E/DX2                !
 ! D203  D(88,58,59,60)         -0.0643         estimate D2E/DX2                !
 ! D204  D(88,58,59,61)       -178.7491         estimate D2E/DX2                !
 ! D205  D(58,59,61,62)         -3.1565         estimate D2E/DX2                !
 ! D206  D(58,59,61,64)       -174.7955         estimate D2E/DX2                !
 ! D207  D(60,59,61,62)        178.1265         estimate D2E/DX2                !
 ! D208  D(60,59,61,64)          6.4876         estimate D2E/DX2                !
 ! D209  D(59,61,62,63)          7.2155         estimate D2E/DX2                !
 ! D210  D(64,61,62,63)        178.7442         estimate D2E/DX2                !
 ! D211  D(59,61,64,65)       -117.9707         estimate D2E/DX2                !
 ! D212  D(59,61,64,69)         68.0091         estimate D2E/DX2                !
 ! D213  D(62,61,64,65)         70.3066         estimate D2E/DX2                !
 ! D214  D(62,61,64,69)       -103.7137         estimate D2E/DX2                !
 ! D215  D(61,62,63,57)         -6.9961         estimate D2E/DX2                !
 ! D216  D(61,62,63,89)        177.2908         estimate D2E/DX2                !
 ! D217  D(61,64,65,66)       -179.566          estimate D2E/DX2                !
 ! D218  D(69,64,65,66)         -5.6492         estimate D2E/DX2                !
 ! D219  D(61,64,69,68)        179.4569         estimate D2E/DX2                !
 ! D220  D(61,64,69,70)         -0.1704         estimate D2E/DX2                !
 ! D221  D(65,64,69,68)          5.9743         estimate D2E/DX2                !
 ! D222  D(65,64,69,70)       -173.6529         estimate D2E/DX2                !
 ! D223  D(64,65,66,67)          3.6258         estimate D2E/DX2                !
 ! D224  D(64,65,66,90)       -178.6374         estimate D2E/DX2                !
 ! D225  D(65,66,67,68)         -2.0583         estimate D2E/DX2                !
 ! D226  D(65,66,67,91)        179.6655         estimate D2E/DX2                !
 ! D227  D(90,66,67,68)       -179.5411         estimate D2E/DX2                !
 ! D228  D(90,66,67,91)          2.1827         estimate D2E/DX2                !
 ! D229  D(66,67,68,69)          2.1912         estimate D2E/DX2                !
 ! D230  D(66,67,68,92)        176.6634         estimate D2E/DX2                !
 ! D231  D(91,67,68,69)       -179.6378         estimate D2E/DX2                !
 ! D232  D(91,67,68,92)         -5.1657         estimate D2E/DX2                !
 ! D233  D(67,68,69,64)         -4.0733         estimate D2E/DX2                !
 ! D234  D(67,68,69,70)        175.5843         estimate D2E/DX2                !
 ! D235  D(92,68,69,64)       -178.1982         estimate D2E/DX2                !
 ! D236  D(92,68,69,70)          1.4594         estimate D2E/DX2                !
 --------------------------------------------------------------------------------
 Trust Radius=3.00D-01 FncErr=1.00D-07 GrdErr=1.00D-06 EigMax=2.50D+02 EigMin=1.00D-04
 Number of steps in this run=    507 maximum allowed number of steps=    552.
 GradGradGradGradGradGradGradGradGradGradGradGradGradGradGradGradGradGrad

 Leave Link  103 at Sat Jul 25 12:27:39 2020, MaxMem=  4026531840 cpu:               0.2 elap:               0.0
 (Enter /opt/ohpc/pub/libs/gaussian/g16-A.03/sandybridge/g16/l202.exe)
 Stoichiometry    C50H22F10N10
 Framework group  C1[X(C50H22F10N10)]
 Deg. of freedom   270
 Full point group                 C1      NOp   1
 Largest Abelian subgroup         C1      NOp   1
 Largest concise Abelian subgroup C1      NOp   1
                         Standard orientation:                         
 ---------------------------------------------------------------------
 Center     Atomic      Atomic             Coordinates (Angstroms)
 Number     Number       Type             X           Y           Z
 ---------------------------------------------------------------------
      1          6           0       20.263362    1.614006   -0.600463
      2          6           0       19.489188    2.194227    0.482864
      3          6           0       18.151852    2.000042    0.611065
      4          9           0       17.458552    2.502868    1.556866
      5          6           0       17.543676    1.195745   -0.355413
      6          7           0       18.170424    0.540632   -1.356339
      7          6           0       19.574035    0.819150   -1.431070
      8          6           0       16.132229    0.901666   -0.296586
      9          7           0       15.348310    1.482883   -1.199086
     10          6           0       14.009771    1.253392   -1.117205
     11          6           0       13.387234    0.436077   -0.165450
     12          6           0       14.226984   -0.159304    0.780066
     13          6           0       15.588866   -0.010703    0.718035
     14          9           0       16.343904   -0.541176    1.581062
     15          6           0       11.857303    0.168825   -0.143833
     16          6           0       11.231665    0.122771    1.032816
     17          6           0        9.790618   -0.020288    1.062082
     18          9           0        9.213123   -0.125606    2.204932
     19          6           0        9.094484   -0.227137   -0.183344
     20          7           0        9.800977   -0.136082   -1.302833
     21          6           0       11.134118    0.001399   -1.296834
     22          6           0        7.683560   -0.396153   -0.241606
     23          7           0        6.944205    0.389116    0.602398
     24          6           0        5.618746    0.244453    0.607675
     25          6           0        4.872554   -0.629644   -0.251505
     26          6           0        5.638134   -1.359298   -1.161361
     27          6           0        7.035137   -1.262830   -1.138887
     28          9           0        7.706432   -1.934511   -2.040243
     29          6           0        3.425705   -0.772130   -0.175735
     30          6           0        2.617814   -0.812699   -1.279413
     31          6           0        1.252038   -0.939025   -1.217240
     32          9           0        0.522074   -1.028005   -2.329502
     33          6           0        0.641072   -0.955223    0.015580
     34          7           0        1.355395   -0.864963    1.168647
     35          6           0        2.734002   -0.747992    1.020657
     36          6           0       -0.796016   -1.106621    0.243614
     37          7           0       -1.371388   -2.152382   -0.289422
     38          6           0       -2.801008   -2.245159   -0.151355
     39          6           0       -3.577591   -1.320983    0.385717
     40          6           0       -2.897534   -0.186098    1.012179
     41          6           0       -1.518289   -0.048779    0.868136
     42          9           0       -0.938551    0.979143    1.410610
     43          6           0       -5.039941   -1.460189    0.482122
     44          6           0       -5.823057   -1.961481   -0.626980
     45          6           0       -7.170117   -2.022954   -0.621942
     46          9           0       -7.782157   -2.478878   -1.711066
     47          6           0       -7.846963   -1.469990    0.451398
     48          7           0       -7.236956   -0.963295    1.531992
     49          6           0       -5.820104   -1.002214    1.487786
     50          6           0       -9.326911   -1.225695    0.447794
     51          7           0       -9.809623   -0.651743   -0.749752
     52          6           0      -11.136157   -0.324593   -0.791759
     53          6           0      -11.989786   -0.515303    0.210863
     54          6           0      -11.501093   -1.036208    1.390618
     55          6           0      -10.140268   -1.367723    1.477888
     56          9           0       -9.717298   -1.927515    2.616087
     57          6           0      -13.387502   -0.002433    0.182886
     58          6           0      -13.913761    0.976937    0.990270
     59          6           0      -15.196059    1.465492    0.864046
     60          9           0      -15.686677    2.351602    1.658664
     61          6           0      -15.998681    0.910930   -0.202862
     62          7           0      -15.490297    0.025845   -1.047740
     63          6           0      -14.217222   -0.516184   -0.856100
     64          6           0      -17.338538    1.484427   -0.452474
     65          7           0      -18.366393    0.611278   -0.281420
     66          6           0      -19.637413    1.120140   -0.518349
     67          6           0      -19.844367    2.441169   -0.985497
     68          6           0      -18.778936    3.216682   -1.158330
     69          6           0      -17.499904    2.739925   -0.934742
     70          9           0      -16.490387    3.580671   -1.228286
     71          1           0       21.293673    1.732364   -0.635346
     72          1           0       20.071403    2.806951    1.166165
     73          1           0       20.065339    0.274550   -2.257445
     74          1           0       13.447923    1.752865   -1.897275
     75          1           0       13.826703   -0.818510    1.515042
     76          1           0       11.728453    0.260612    1.990248
     77          1           0       11.545567    0.098419   -2.308345
     78          1           0        5.042398    0.918939    1.339639
     79          1           0        5.213172   -1.999862   -1.798511
     80          1           0        3.048417   -0.893916   -2.270032
     81          1           0        3.242784   -0.646370    1.979490
     82          1           0       -3.224927   -3.172454   -0.646359
     83          1           0       -3.496935    0.563160    1.433208
     84          1           0       -5.258143   -2.351123   -1.559258
     85          1           0       -5.415848   -0.520934    2.436235
     86          1           0      -11.442696    0.099604   -1.781211
     87          1           0      -12.069350   -1.231494    2.317088
     88          1           0      -13.286494    1.389829    1.836021
     89          1           0      -13.919663   -1.275251   -1.595251
     90          1           0      -20.407824    0.418683   -0.352894
     91          1           0      -20.887786    2.778103   -1.158083
     92          1           0      -18.971425    4.224936   -1.579255
 ---------------------------------------------------------------------
 Rotational constants (GHZ):           0.1557148           0.0036209           0.0036038
 Leave Link  202 at Sat Jul 25 12:27:39 2020, MaxMem=  4026531840 cpu:               0.2 elap:               0.0
 (Enter /opt/ohpc/pub/libs/gaussian/g16-A.03/sandybridge/g16/l301.exe)
 Standard basis: CC-pVDZ (5D, 7F)
 Ernie: Thresh=  0.10000D-02 Tol=  0.10000D-05 Strict=F.
 Ernie:  140 primitive shells out of 1650 were deleted.
 There are  1160 symmetry adapted cartesian basis functions of A   symmetry.
 There are  1090 symmetry adapted basis functions of A   symmetry.
  1090 basis functions,  2464 primitive gaussians,  1160 cartesian basis functions
   241 alpha electrons      241 beta electrons
       nuclear repulsion energy      8119.7584875515 Hartrees.
 IExCor=32609 DFT=T Ex+Corr=LC-wPBE ExCW=0 ScaHFX=  1.000000
 ScaDFX=  1.000000  0.000000  1.000000  1.000000 ScalE2=  1.000000  1.000000
 IRadAn=      5 IRanWt=     -1 IRanGd=            0 ICorTp=0 IEmpDi=  4
 HFx  wShort=  0.000000 wLong=  0.324900 cFull=  0.000000 cShort=  0.000000 cLong=  1.000000
 DFx  wShort=  0.000000 wLong=  0.324900 cFull=  0.000000 cShort=  0.000000 cLong=  1.000000
 NAtoms=   92 NActive=   92 NUniq=   92 SFac= 1.00D+00 NAtFMM=   60 NAOKFM=T Big=T
 Integral buffers will be    131072 words long.
 Raffenetti 2 integral format.
 Two-electron integral symmetry is turned on.
 Leave Link  301 at Sat Jul 25 12:27:40 2020, MaxMem=  4026531840 cpu:               0.5 elap:               0.1
 (Enter /opt/ohpc/pub/libs/gaussian/g16-A.03/sandybridge/g16/l302.exe)
 NPDir=0 NMtPBC=     1 NCelOv=     1 NCel=       1 NClECP=     1 NCelD=      1
         NCelK=      1 NCelE2=     1 NClLst=     1 CellRange=     0.0.
 One-electron integrals computed using PRISM.
 One-electron integral symmetry used in STVInt
 NBasis=  1090 RedAO= T EigKep=  4.33D-04  NBF=  1090
 NBsUse=  1090 1.00D-06 EigRej= -1.00D+00 NBFU=  1090
 Precomputing XC quadrature grid using
 IXCGrd= 4 IRadAn=           5 IRanWt=          -1 IRanGd=           0 AccXCQ= 0.00D+00.
 Generated NRdTot=       0 NPtTot=           0 NUsed=           0 NTot=          32
 NSgBfM=   634   634   634   634   634 MxSgAt=    92 MxSgA2=    77.
 Leave Link  302 at Sat Jul 25 12:27:43 2020, MaxMem=  4026531840 cpu:              29.8 elap:               3.8
 (Enter /opt/ohpc/pub/libs/gaussian/g16-A.03/sandybridge/g16/l303.exe)
 DipDrv:  MaxL=1.
 Leave Link  303 at Sat Jul 25 12:27:44 2020, MaxMem=  4026531840 cpu:               1.8 elap:               0.3
 (Enter /opt/ohpc/pub/libs/gaussian/g16-A.03/sandybridge/g16/l401.exe)
 ExpMin= 1.22D-01 ExpMax= 1.47D+04 ExpMxC= 5.03D+02 IAcc=3 IRadAn=         5 AccDes= 0.00D+00
 Harris functional with IExCor=32609 and IRadAn=       5 diagonalized for initial guess.
 HarFok:  IExCor=32609 AccDes= 0.00D+00 IRadAn=         5 IDoV= 1 UseB2=F ITyADJ=14
 ICtDFT=  3500011 ScaDFX=  1.000000  1.000000  1.000000  1.000000
 FoFCou: FMM=F IPFlag=           0 FMFlag=      100000 FMFlg1=        2001
         NFxFlg=           0 DoJE=T BraDBF=F KetDBF=T FulRan=T
         wScrn=  0.000000 ICntrl=       500 IOpCl=  0 I1Cent=   200000004 NGrid=           0
         NMat0=    1 NMatS0=      1 NMatT0=    0 NMatD0=    1 NMtDS0=    0 NMtDT0=    0
 Petite list used in FoFCou.
 Harris En= -3461.37198277852    
 JPrj=0 DoOrth=F DoCkMO=F.
 Initial guess <Sx>= 0.0000 <Sy>= 0.0000 <Sz>= 0.0000 <S**2>=-0.0000 S=-0.0000
 Leave Link  401 at Sat Jul 25 12:27:56 2020, MaxMem=  4026531840 cpu:              95.3 elap:              12.0
 (Enter /opt/ohpc/pub/libs/gaussian/g16-A.03/sandybridge/g16/l502.exe)
 Integral symmetry usage will be decided dynamically.
 UHF open shell SCF:
 Using DIIS extrapolation, IDIIS=  1040.
 NGot=  4026531840 LenX=  4023819984 LenY=  4022473224
 Requested convergence on RMS density matrix=1.00D-08 within 128 cycles.
 Requested convergence on MAX density matrix=1.00D-06.
 Requested convergence on             energy=1.00D-06.
 No special actions if energy rises.
 Fock matrices will be formed incrementally for  20 cycles.
 Integral accuracy reduced to 1.0D-05 until final iterations.

 Cycle   1  Pass 0  IDiag  1:
 FoFJK:  IHMeth= 1 ICntrl=       0 DoSepK=T KAlg= 0 I1Cent=           0 FoldK=F
 IRaf=         1 NMat=       1 IRICut=       1 DoRegI=T DoRafI=F ISym2E= 0 IDoP0=0 IntGTp=1.
 FoFCou: FMM=T IPFlag=           0 FMFlag=      100000 FMFlg1=        2001
         NFxFlg=           0 DoJE=T BraDBF=F KetDBF=F FulRan=T
         wScrn=  0.000000 ICntrl=       500 IOpCl=  0 I1Cent=           0 NGrid=           0
         NMat0=    1 NMatS0=      1 NMatT0=    0 NMatD0=    1 NMtDS0=    0 NMtDT0=    0
 Symmetry not used in FoFCou.
 FMM levels:  10  Number of levels for PrismC:   9
 E= -3461.28086116607    
 DIIS: error= 1.12D-02 at cycle   1 NSaved=   1.
 NSaved= 1 IEnMin= 1 EnMin= -3461.28086116607     IErMin= 1 ErrMin= 1.12D-02
 ErrMax= 1.12D-02  0.00D+00 EMaxC= 1.00D-01 BMatC= 2.50D+00 BMatP= 2.50D+00
 IDIUse=3 WtCom= 8.88D-01 WtEn= 1.12D-01
 Coeff-Com:  0.100D+01
 Coeff-En:   0.100D+01
 Coeff:      0.100D+01
 Gap=     0.326 Goal=   None    Shift=    0.000
 Gap=     0.326 Goal=   None    Shift=    0.000
 GapD=    0.326 DampG=1.000 DampE=0.500 DampFc=0.5000 IDamp=-1.
 Damping current iteration by 5.00D-01
 RMSDP=1.45D-03 MaxDP=7.76D-02              OVMax= 1.26D-01

 Cycle   2  Pass 0  IDiag  1:
 RMSU=  7.16D-04    CP:  9.90D-01
 E= -3461.62914834263     Delta-E=       -0.348287176559 Rises=F Damp=T
 DIIS: error= 3.72D-03 at cycle   2 NSaved=   2.
 NSaved= 2 IEnMin= 2 EnMin= -3461.62914834263     IErMin= 2 ErrMin= 3.72D-03
 ErrMax= 3.72D-03  0.00D+00 EMaxC= 1.00D-01 BMatC= 2.29D-01 BMatP= 2.50D+00
 IDIUse=3 WtCom= 9.63D-01 WtEn= 3.72D-02
 Coeff-Com: -0.140D+00 0.114D+01
 Coeff-En:   0.000D+00 0.100D+01
 Coeff:     -0.135D+00 0.114D+01
 Gap=     0.324 Goal=   None    Shift=    0.000
 Gap=     0.324 Goal=   None    Shift=    0.000
 RMSDP=6.34D-04 MaxDP=2.38D-02 DE=-3.48D-01 OVMax= 7.86D-02

 Cycle   3  Pass 0  IDiag  1:
 RMSU=  5.13D-04    CP:  9.84D-01  1.51D+00
 E= -3461.94071095187     Delta-E=       -0.311562609239 Rises=F Damp=F
 DIIS: error= 2.97D-03 at cycle   3 NSaved=   3.
 NSaved= 3 IEnMin= 3 EnMin= -3461.94071095187     IErMin= 3 ErrMin= 2.97D-03
 ErrMax= 2.97D-03  0.00D+00 EMaxC= 1.00D-01 BMatC= 1.03D-01 BMatP= 2.29D-01
 IDIUse=3 WtCom= 9.70D-01 WtEn= 2.97D-02
 Coeff-Com: -0.124D+00 0.496D+00 0.627D+00
 Coeff-En:   0.000D+00 0.000D+00 0.100D+01
 Coeff:     -0.120D+00 0.482D+00 0.638D+00
 Gap=     0.305 Goal=   None    Shift=    0.000
 Gap=     0.305 Goal=   None    Shift=    0.000
 RMSDP=1.82D-04 MaxDP=1.16D-02 DE=-3.12D-01 OVMax= 2.84D-02

 Cycle   4  Pass 0  IDiag  1:
 RMSU=  1.34D-04    CP:  9.84D-01  1.56D+00  7.70D-01
 E= -3461.96496513300     Delta-E=       -0.024254181131 Rises=F Damp=F
 DIIS: error= 8.69D-04 at cycle   4 NSaved=   4.
 NSaved= 4 IEnMin= 4 EnMin= -3461.96496513300     IErMin= 4 ErrMin= 8.69D-04
 ErrMax= 8.69D-04  0.00D+00 EMaxC= 1.00D-01 BMatC= 9.33D-03 BMatP= 1.03D-01
 IDIUse=3 WtCom= 9.91D-01 WtEn= 8.69D-03
 Coeff-Com: -0.297D-01 0.927D-01 0.266D+00 0.671D+00
 Coeff-En:   0.000D+00 0.000D+00 0.000D+00 0.100D+01
 Coeff:     -0.295D-01 0.919D-01 0.264D+00 0.674D+00
 Gap=     0.306 Goal=   None    Shift=    0.000
 Gap=     0.306 Goal=   None    Shift=    0.000
 RMSDP=5.44D-05 MaxDP=3.37D-03 DE=-2.43D-02 OVMax= 6.94D-03

 Cycle   5  Pass 0  IDiag  1:
 RMSU=  3.55D-05    CP:  9.84D-01  1.56D+00  8.36D-01  8.27D-01
 E= -3461.96725921675     Delta-E=       -0.002294083757 Rises=F Damp=F
 DIIS: error= 2.14D-04 at cycle   5 NSaved=   5.
 NSaved= 5 IEnMin= 5 EnMin= -3461.96725921675     IErMin= 5 ErrMin= 2.14D-04
 ErrMax= 2.14D-04  0.00D+00 EMaxC= 1.00D-01 BMatC= 8.87D-04 BMatP= 9.33D-03
 IDIUse=3 WtCom= 9.98D-01 WtEn= 2.14D-03
 Coeff-Com:  0.193D-02-0.139D-01 0.505D-01 0.280D+00 0.681D+00
 Coeff-En:   0.000D+00 0.000D+00 0.000D+00 0.000D+00 0.100D+01
 Coeff:      0.192D-02-0.139D-01 0.503D-01 0.280D+00 0.682D+00
 Gap=     0.307 Goal=   None    Shift=    0.000
 Gap=     0.307 Goal=   None    Shift=    0.000
 RMSDP=1.96D-05 MaxDP=1.13D-03 DE=-2.29D-03 OVMax= 2.84D-03

 Cycle   6  Pass 0  IDiag  1:
 RMSU=  1.55D-05    CP:  9.84D-01  1.57D+00  8.46D-01  9.02D-01  9.13D-01
 E= -3461.96749977391     Delta-E=       -0.000240557154 Rises=F Damp=F
 DIIS: error= 8.68D-05 at cycle   6 NSaved=   6.
 NSaved= 6 IEnMin= 6 EnMin= -3461.96749977391     IErMin= 6 ErrMin= 8.68D-05
 ErrMax= 8.68D-05  0.00D+00 EMaxC= 1.00D-01 BMatC= 8.69D-05 BMatP= 8.87D-04
 IDIUse=1 WtCom= 1.00D+00 WtEn= 0.00D+00
 Coeff-Com:  0.504D-02-0.174D-01-0.997D-02 0.241D-01 0.226D+00 0.773D+00
 Coeff:      0.504D-02-0.174D-01-0.997D-02 0.241D-01 0.226D+00 0.773D+00
 Gap=     0.307 Goal=   None    Shift=    0.000
 Gap=     0.307 Goal=   None    Shift=    0.000
 RMSDP=9.82D-06 MaxDP=4.40D-04 DE=-2.41D-04 OVMax= 1.55D-03

 Initial convergence to 1.0D-05 achieved.  Increase integral accuracy.
 Cycle   7  Pass 1  IDiag  1:
 E= -3461.96654783452     Delta-E=        0.000951939393 Rises=F Damp=F
 DIIS: error= 1.88D-04 at cycle   1 NSaved=   1.
 NSaved= 1 IEnMin= 1 EnMin= -3461.96654783452     IErMin= 1 ErrMin= 1.88D-04
 ErrMax= 1.88D-04  0.00D+00 EMaxC= 1.00D-01 BMatC= 2.11D-04 BMatP= 2.11D-04
 IDIUse=3 WtCom= 9.98D-01 WtEn= 1.88D-03
 Coeff-Com:  0.100D+01
 Coeff-En:   0.100D+01
 Coeff:      0.100D+01
 Gap=     0.307 Goal=   None    Shift=    0.000
 Gap=     0.307 Goal=   None    Shift=    0.000
 RMSDP=9.82D-06 MaxDP=4.40D-04 DE= 9.52D-04 OVMax= 9.11D-04

 Cycle   8  Pass 1  IDiag  1:
 RMSU=  1.11D-04    CP:  1.00D+00
 E= -3461.96659148101     Delta-E=       -0.000043646491 Rises=F Damp=F
 DIIS: error= 3.80D-05 at cycle   2 NSaved=   2.
 NSaved= 2 IEnMin= 2 EnMin= -3461.96659148101     IErMin= 2 ErrMin= 3.80D-05
 ErrMax= 3.80D-05  0.00D+00 EMaxC= 1.00D-01 BMatC= 2.28D-05 BMatP= 2.11D-04
 IDIUse=1 WtCom= 1.00D+00 WtEn= 0.00D+00
 Coeff-Com:  0.120D+00 0.880D+00
 Coeff:      0.120D+00 0.880D+00
 Gap=     0.307 Goal=   None    Shift=    0.000
 Gap=     0.307 Goal=   None    Shift=    0.000
 RMSDP=6.52D-06 MaxDP=3.86D-04 DE=-4.36D-05 OVMax= 5.76D-04

 Cycle   9  Pass 1  IDiag  1:
 RMSU=  4.13D-06    CP:  1.00D+00  1.05D+00
 E= -3461.96659310191     Delta-E=       -0.000001620901 Rises=F Damp=F
 DIIS: error= 4.47D-05 at cycle   3 NSaved=   3.
 NSaved= 3 IEnMin= 3 EnMin= -3461.96659310191     IErMin= 2 ErrMin= 3.80D-05
 ErrMax= 4.47D-05  0.00D+00 EMaxC= 1.00D-01 BMatC= 2.20D-05 BMatP= 2.28D-05
 IDIUse=1 WtCom= 1.00D+00 WtEn= 0.00D+00
 Coeff-Com: -0.259D-01 0.500D+00 0.526D+00
 Coeff:     -0.259D-01 0.500D+00 0.526D+00
[...]
              Bcc     0.0000     0.000     0.000     0.000  0.9051  0.2859  0.3146
 
              Baa    -0.0000    -0.000    -0.000    -0.000 -0.3615 -0.3313  0.8715
    35 C(13)  Bbb    -0.0000    -0.000    -0.000    -0.000 -0.3135  0.9235  0.2211
              Bcc     0.0000     0.000     0.000     0.000  0.8781  0.1933  0.4377
 
              Baa    -0.0000    -0.000    -0.000    -0.000  0.9259  0.3409 -0.1625
    36 C(13)  Bbb    -0.0000    -0.000    -0.000    -0.000 -0.3728  0.8937 -0.2497
              Bcc     0.0000     0.000     0.000     0.000  0.0601  0.2918  0.9546
 
              Baa    -0.0000    -0.000    -0.000    -0.000  0.1721  0.5222  0.8353
    37 N(14)  Bbb    -0.0000    -0.000    -0.000    -0.000  0.5172  0.6738 -0.5277
              Bcc     0.0000     0.000     0.000     0.000  0.8384 -0.5228  0.1541
 
              Baa    -0.0000    -0.000    -0.000    -0.000  0.0943 -0.4402  0.8929
    38 C(13)  Bbb     0.0000     0.000     0.000     0.000 -0.1724  0.8762  0.4501
              Bcc     0.0000     0.000     0.000     0.000  0.9805  0.1964 -0.0068
 
              Baa    -0.0000    -0.000    -0.000    -0.000 -0.0140  0.4148  0.9098
    39 C(13)  Bbb     0.0000     0.000     0.000     0.000  0.9544  0.2770 -0.1116
              Bcc     0.0000     0.000     0.000     0.000 -0.2983  0.8667 -0.3998
 
              Baa    -0.0000    -0.000    -0.000    -0.000  0.0971  0.8538 -0.5114
    40 C(13)  Bbb     0.0000     0.000     0.000     0.000  0.0068  0.5133  0.8582
              Bcc     0.0000     0.000     0.000     0.000  0.9953 -0.0868  0.0440
 
              Baa    -0.0000    -0.000    -0.000    -0.000  0.9249  0.0123  0.3800
    41 C(13)  Bbb    -0.0000    -0.000    -0.000    -0.000 -0.3479  0.4307  0.8327
              Bcc     0.0000     0.000     0.000     0.000  0.1534  0.9024 -0.4026
 
              Baa    -0.0000    -0.000    -0.000    -0.000  0.8648  0.4636  0.1930
    42 F(19)  Bbb     0.0000     0.000     0.000     0.000 -0.4192  0.4548  0.7858
              Bcc     0.0000     0.000     0.000     0.000 -0.2765  0.7605 -0.5876
 
              Baa    -0.0000    -0.000    -0.000    -0.000  0.9535 -0.2949  0.0620
    43 C(13)  Bbb    -0.0000    -0.000    -0.000    -0.000 -0.0195  0.1447  0.9893
              Bcc     0.0000     0.000     0.000     0.000  0.3007  0.9445 -0.1322
 
              Baa    -0.0000    -0.000    -0.000    -0.000 -0.1456 -0.2002  0.9689
    44 C(13)  Bbb     0.0000     0.000     0.000     0.000  0.7443  0.6230  0.2406
              Bcc     0.0000     0.000     0.000     0.000 -0.6518  0.7562  0.0583
 
              Baa    -0.0000    -0.000    -0.000    -0.000  0.8525  0.5224 -0.0190
    45 C(13)  Bbb     0.0000     0.000     0.000     0.000  0.0447 -0.0366  0.9983
              Bcc     0.0000     0.000     0.000     0.000 -0.5209  0.8519  0.0545
 
              Baa    -0.0000    -0.000    -0.000    -0.000  0.7112 -0.6937 -0.1141
    46 F(19)  Bbb     0.0000     0.000     0.000     0.000  0.7029  0.7046  0.0978
              Bcc     0.0000     0.000     0.000     0.000  0.0126 -0.1498  0.9886
 
              Baa    -0.0000    -0.000    -0.000    -0.000  0.8823  0.3145  0.3502
    47 C(13)  Bbb    -0.0000    -0.000    -0.000    -0.000 -0.2758 -0.2576  0.9261
              Bcc     0.0000     0.000     0.000     0.000 -0.3814  0.9137  0.1405
 
              Baa    -0.0000    -0.000    -0.000    -0.000  0.9304 -0.3563 -0.0860
    48 N(14)  Bbb     0.0000     0.000     0.000     0.000  0.0997  0.0204  0.9948
              Bcc     0.0000     0.000     0.000     0.000  0.3527  0.9342 -0.0546
 
              Baa    -0.0000    -0.000    -0.000    -0.000 -0.2392  0.9331  0.2687
    49 C(13)  Bbb     0.0000     0.000     0.000     0.000  0.0301 -0.2695  0.9625
              Bcc     0.0000     0.000     0.000     0.000  0.9705  0.2383  0.0363
 
              Baa    -0.0000    -0.000    -0.000    -0.000  0.3139 -0.4434  0.8396
    50 C(13)  Bbb     0.0000     0.000     0.000     0.000  0.8959  0.4312 -0.1072
              Bcc     0.0000     0.000     0.000     0.000 -0.3145  0.7858  0.5326
 
              Baa    -0.0000    -0.000    -0.000    -0.000 -0.2588 -0.4256  0.8671
    51 N(14)  Bbb    -0.0000    -0.000    -0.000    -0.000  0.8796 -0.4748  0.0295
              Bcc     0.0000     0.000     0.000     0.000  0.3991  0.7704  0.4973
 
              Baa    -0.0000    -0.000    -0.000    -0.000  0.9122 -0.1753  0.3704
    52 C(13)  Bbb    -0.0000    -0.000    -0.000    -0.000 -0.4086 -0.4585  0.7892
              Bcc     0.0000     0.000     0.000     0.000 -0.0315  0.8712  0.4898
 
              Baa    -0.0000    -0.000    -0.000    -0.000 -0.5384  0.8146  0.2158
    53 C(13)  Bbb    -0.0000    -0.000    -0.000    -0.000  0.8360  0.4842  0.2581
              Bcc     0.0000     0.000     0.000     0.000 -0.1058 -0.3194  0.9417
 
              Baa    -0.0000    -0.000    -0.000    -0.000  0.7974 -0.3529 -0.4894
    54 C(13)  Bbb    -0.0000    -0.000    -0.000    -0.000  0.3669 -0.3604  0.8576
              Bcc     0.0000     0.000     0.000     0.000  0.4790  0.8635  0.1579
 
              Baa    -0.0000    -0.000    -0.000    -0.000  0.8852 -0.1227 -0.4487
    55 C(13)  Bbb     0.0000     0.000     0.000     0.000  0.0108  0.9697 -0.2439
              Bcc     0.0000     0.000     0.000     0.000  0.4651  0.2111  0.8597
 
              Baa    -0.0000    -0.000    -0.000    -0.000  0.9269  0.1218 -0.3550
    56 F(19)  Bbb     0.0000     0.000     0.000     0.000  0.3274  0.2002  0.9234
              Bcc     0.0000     0.000     0.000     0.000 -0.1835  0.9722 -0.1457
 
              Baa    -0.0000    -0.000    -0.000    -0.000 -0.4228  0.8910  0.1652
    57 C(13)  Bbb     0.0000     0.000     0.000     0.000  0.8672  0.3449  0.3592
              Bcc     0.0000     0.000     0.000     0.000 -0.2631 -0.2952  0.9185
 
              Baa    -0.0000    -0.000    -0.000    -0.000  0.7644  0.6257  0.1554
    58 C(13)  Bbb     0.0000     0.000     0.000     0.000 -0.6015  0.7789 -0.1777
              Bcc     0.0000     0.000     0.000     0.000 -0.2322  0.0424  0.9717
 
              Baa    -0.0000    -0.000    -0.000    -0.000 -0.1366 -0.3684  0.9196
    59 C(13)  Bbb    -0.0000    -0.000    -0.000    -0.000  0.3817  0.8370  0.3921
              Bcc     0.0000     0.000     0.000     0.000  0.9141 -0.4046 -0.0263
 
              Baa    -0.0000    -0.000    -0.000    -0.000  0.4227  0.8087 -0.4090
    60 F(19)  Bbb    -0.0000    -0.000    -0.000    -0.000  0.1689  0.3731  0.9123
              Bcc     0.0000     0.000     0.000     0.000  0.8904 -0.4547  0.0211
 
              Baa    -0.0000    -0.000    -0.000    -0.000  0.8074 -0.5850 -0.0765
    61 C(13)  Bbb    -0.0000    -0.000    -0.000    -0.000  0.0015 -0.1277  0.9918
              Bcc     0.0000     0.000     0.000     0.000  0.5899  0.8009  0.1023
 
              Baa    -0.0000    -0.000    -0.000    -0.000  0.0463 -0.0225  0.9987
    62 N(14)  Bbb     0.0000     0.000     0.000     0.000  0.4858  0.8741 -0.0028
              Bcc     0.0000     0.000     0.000     0.000  0.8729 -0.4853 -0.0514
 
              Baa    -0.0000    -0.000    -0.000    -0.000 -0.0391  0.9959  0.0820
    63 C(13)  Bbb    -0.0000    -0.000    -0.000    -0.000  0.9971  0.0335  0.0678
              Bcc     0.0000     0.000     0.000     0.000 -0.0648 -0.0844  0.9943
 
              Baa    -0.0000    -0.000    -0.000    -0.000  0.8223 -0.4838 -0.2998
    64 C(13)  Bbb    -0.0000    -0.000    -0.000    -0.000  0.5669  0.7425  0.3569
              Bcc     0.0000     0.000     0.000     0.000  0.0499 -0.4634  0.8848
 
              Baa    -0.0000    -0.000    -0.000    -0.000 -0.2746  0.6976 -0.6618
    65 N(14)  Bbb     0.0000     0.000     0.000     0.000  0.9566  0.2678 -0.1147
              Bcc     0.0000     0.000     0.000     0.000 -0.0972  0.6646  0.7409
 
              Baa    -0.0000    -0.000    -0.000    -0.000 -0.3468 -0.4553  0.8200
    66 C(13)  Bbb    -0.0000    -0.000    -0.000    -0.000 -0.3995  0.8627  0.3101
              Bcc     0.0000     0.000     0.000     0.000  0.8486  0.2200  0.4811
 
              Baa    -0.0000    -0.000    -0.000    -0.000 -0.2744 -0.6505  0.7082
    67 C(13)  Bbb    -0.0000    -0.000    -0.000    -0.000  0.3993  0.5929  0.6993
              Bcc     0.0000     0.000     0.000     0.000  0.8748 -0.4746 -0.0970
 
              Baa    -0.0000    -0.000    -0.000    -0.000 -0.5685 -0.3842  0.7274
    68 C(13)  Bbb    -0.0000    -0.000    -0.000    -0.000  0.0871  0.8512  0.5176
              Bcc     0.0000     0.000     0.000     0.000  0.8181 -0.3576  0.4504
 
              Baa    -0.0000    -0.000    -0.000    -0.000  0.7129 -0.6400  0.2867
    69 C(13)  Bbb     0.0000     0.000     0.000     0.000  0.6788  0.7325 -0.0526
              Bcc     0.0000     0.000     0.000     0.000 -0.1763  0.2321  0.9566
 
              Baa    -0.0000    -0.000    -0.000    -0.000  0.9508  0.0764 -0.3004
    70 F(19)  Bbb     0.0000     0.000     0.000     0.000 -0.0284  0.9865  0.1610
              Bcc     0.0000     0.000     0.000     0.000  0.3086 -0.1446  0.9401
 
              Baa    -0.0000    -0.000    -0.000    -0.000  0.1324 -0.0233  0.9909
    71 H(1)   Bbb    -0.0000    -0.000    -0.000    -0.000  0.0244  0.9995  0.0202
              Bcc     0.0000     0.000     0.000     0.000  0.9909 -0.0215 -0.1329
 
              Baa    -0.0000    -0.000    -0.000    -0.000  0.5543  0.8320  0.0224
    72 H(1)   Bbb     0.0000     0.000     0.000     0.000 -0.1936  0.1027  0.9757
              Bcc     0.0000     0.000     0.000     0.000  0.8095 -0.5452  0.2180
 
              Baa    -0.0000    -0.000    -0.000    -0.000  0.5221  0.8529 -0.0036
    73 H(1)   Bbb    -0.0000    -0.000    -0.000    -0.000  0.1836 -0.1083  0.9770
              Bcc     0.0000     0.000     0.000     0.000  0.8329 -0.5107 -0.2132
 
              Baa    -0.0000    -0.000    -0.000    -0.000  0.2199  0.0823  0.9720
    74 H(1)   Bbb    -0.0000    -0.000    -0.000    -0.000  0.1700  0.9780 -0.1212
              Bcc     0.0000     0.000     0.000     0.000  0.9606 -0.1919 -0.2011
 
              Baa    -0.0000    -0.000    -0.000    -0.000  0.7150  0.0777  0.6948
    75 H(1)   Bbb     0.0000     0.000     0.000     0.000 -0.4388  0.8236  0.3595
              Bcc     0.0000     0.000     0.000     0.000 -0.5443 -0.5619  0.6230
 
              Baa    -0.0000    -0.000    -0.000    -0.000  0.8163 -0.2982  0.4947
    76 H(1)   Bbb    -0.0000    -0.000    -0.000    -0.000 -0.5581 -0.1860  0.8087
              Bcc     0.0000     0.000     0.000     0.000  0.1491  0.9362  0.3183
 
              Baa    -0.0000    -0.000    -0.000    -0.000  0.2937 -0.6499  0.7010
    77 H(1)   Bbb     0.0000     0.000     0.000     0.000 -0.5724  0.4678  0.6734
              Bcc     0.0000     0.000     0.000     0.000  0.7656  0.5991  0.2347
 
              Baa    -0.0000    -0.000    -0.000    -0.000  0.6185  0.7850  0.0341
    78 H(1)   Bbb    -0.0000    -0.000    -0.000    -0.000 -0.3089  0.2031  0.9291
              Bcc     0.0000     0.000     0.000     0.000  0.7225 -0.5852  0.3682
 
              Baa    -0.0000    -0.000    -0.000    -0.000 -0.5188  0.7205  0.4601
    79 H(1)   Bbb    -0.0000    -0.000    -0.000    -0.000  0.7128  0.0673  0.6982
              Bcc     0.0000     0.000     0.000     0.000  0.4720  0.6902 -0.5485
 
              Baa    -0.0000    -0.000    -0.000    -0.000 -0.0973 -0.3730  0.9227
    80 H(1)   Bbb    -0.0000    -0.000    -0.000    -0.000  0.5870  0.7271  0.3559
              Bcc     0.0000     0.000     0.000     0.000  0.8037 -0.5763 -0.1482
 
              Baa    -0.0000    -0.000    -0.000    -0.000  0.7630 -0.6368 -0.1111
    81 H(1)   Bbb    -0.0000    -0.000    -0.000    -0.000 -0.0510 -0.2307  0.9717
              Bcc     0.0000     0.000     0.000     0.000  0.6444  0.7357  0.2086
 
              Baa    -0.0000    -0.000    -0.000    -0.000  0.7857 -0.5841  0.2036
    82 H(1)   Bbb    -0.0000    -0.000    -0.000    -0.000  0.4947  0.7910  0.3600
              Bcc     0.0000     0.000     0.000     0.000 -0.3713 -0.1821  0.9105
 
              Baa    -0.0000    -0.000    -0.000    -0.000  0.8811 -0.1008  0.4620
    83 H(1)   Bbb    -0.0000    -0.000    -0.000    -0.000 -0.3280  0.5736  0.7506
              Bcc     0.0000     0.000     0.000     0.000  0.3407  0.8129 -0.4723
 
              Baa    -0.0000    -0.000    -0.000    -0.000 -0.5196  0.8511  0.0751
    84 H(1)   Bbb     0.0000     0.000     0.000     0.000 -0.0916 -0.1429  0.9855
              Bcc     0.0000     0.000     0.000     0.000  0.8495  0.5052  0.1522
 
              Baa    -0.0000    -0.000    -0.000    -0.000  0.9712  0.2246  0.0799
    85 H(1)   Bbb    -0.0000    -0.000    -0.000    -0.000 -0.0539 -0.1198  0.9913
              Bcc     0.0000     0.000     0.000     0.000 -0.2322  0.9671  0.1043
 
              Baa    -0.0000    -0.000    -0.000    -0.000  0.3725  0.9164  0.1466
    86 H(1)   Bbb     0.0000     0.000     0.000     0.000  0.4535 -0.3175  0.8328
              Bcc     0.0000     0.000     0.000     0.000  0.8097 -0.2437 -0.5338
 
              Baa    -0.0000    -0.000    -0.000    -0.000 -0.0476  0.7078  0.7048
    87 H(1)   Bbb     0.0000     0.000     0.000     0.000  0.3473  0.6733 -0.6527
              Bcc     0.0000     0.000     0.000     0.000  0.9365 -0.2137  0.2779
 
              Baa    -0.0000    -0.000    -0.000    -0.000 -0.3891  0.9191  0.0617
    88 H(1)   Bbb    -0.0000    -0.000    -0.000    -0.000  0.9165  0.3795  0.1270
              Bcc     0.0000     0.000     0.000     0.000 -0.0933 -0.1060  0.9900
 
              Baa    -0.0000    -0.000    -0.000    -0.000  0.8050 -0.5930 -0.0192
    89 H(1)   Bbb    -0.0000    -0.000    -0.000    -0.000  0.5790  0.7781  0.2437
              Bcc     0.0000     0.000     0.000     0.000 -0.1296 -0.2073  0.9697
 
              Baa    -0.0000    -0.000    -0.000    -0.000  0.2293  0.7018 -0.6745
    90 H(1)   Bbb     0.0000     0.000     0.000     0.000  0.5198  0.4976  0.6944
              Bcc     0.0000     0.000     0.000     0.000  0.8230 -0.5098 -0.2507
 
              Baa    -0.0000    -0.000    -0.000    -0.000  0.7961  0.3770  0.4734
    91 H(1)   Bbb    -0.0000    -0.000    -0.000    -0.000 -0.1161 -0.6726  0.7309
              Bcc     0.0000     0.000     0.000     0.000 -0.5939  0.6368  0.4916
 
              Baa    -0.0000    -0.000    -0.000    -0.000  0.6515  0.5723  0.4980
    92 H(1)   Bbb    -0.0000    -0.000    -0.000    -0.000  0.7526 -0.4048 -0.5193
              Bcc     0.0000     0.000     0.000     0.000 -0.0956  0.7131 -0.6945
 

 ---------------------------------------------------------------------------------

 No NMR shielding tensors so no spin-rotation constants.
 Leave Link  601 at Sat Jul 25 15:41:03 2020, MaxMem=  4026531840 cpu:              13.2 elap:               1.8
 (Enter /opt/ohpc/pub/libs/gaussian/g16-A.03/sandybridge/g16/l9999.exe)

 Test job not archived.
 1\1\GINC-SKYLAKE017\FOpt\ULC-wPBE\CC-pVDZ\C50H22F10N10\RDU230\25-Jul-2
 020\0\\#P uLC-wPBE/cc-pVDZ iop(3/107=0324900000, 3/108=0324900000) opt
 \\H22 C50 N10 F10\\0,1\C,20.3845277691,0.5672560836,-0.5485055919\C,19
 .826188447,1.1508502835,0.5819362521\C,18.4545780607,1.0486302328,0.74
 08537191\F,17.8658514441,1.6192277648,1.8050657261\C,17.6758241713,0.3
 803518281,-0.2035624441\N,18.2210707661,-0.168614382,-1.2912314638\C,1
 9.540155666,-0.075632679,-1.4520774248\C,16.1926813626,0.2825710744,-0
 .0614482795\N,15.4492752289,0.66753894,-1.1004380715\C,14.1264937566,0
 .5644664181,-1.0125180459\C,13.4485801451,0.0665024664,0.1078299124\C,
 14.2245026125,-0.3402787081,1.1938022507\C,15.5988096838,-0.2258616627
 ,1.0936111496\F,16.3681221684,-0.6407402163,2.1121589818\C,11.96901176
 39,-0.0231036801,0.1339007938\C,11.2358246148,0.320681091,1.2702308393
 \C,9.8570880503,0.2171043586,1.2234943659\F,9.1453393116,0.5203751043,
 2.3152482768\C,9.217558757,-0.2137778715,0.0584969793\N,9.9224383401,-
 0.5595219775,-1.0216242337\C,11.2483446089,-0.4669357355,-0.9817922769
 \C,7.7325612325,-0.283591785,-0.0349064384\N,7.0347338797,0.7684924092
 ,0.4000848477\C,5.708983149,0.7481538384,0.2986050383\C,4.9810965016,-
 0.3215136576,-0.236601295\C,5.7073134126,-1.4257550217,-0.6845451393\C
 ,7.0862103227,-1.3972732942,-0.57774112\F,7.7898667721,-2.4651703189,-
 0.9703653829\C,3.5016218015,-0.2803597907,-0.3218080379\C,2.8224849566
 ,-0.7454374145,-1.4486517275\C,1.4407861314,-0.6795084468,-1.461212980
 1\F,0.7810815211,-1.0891964368,-2.5508102335\C,0.7455094771,-0.1599587
 346,-0.3661936141\N,1.398204898,0.2913352114,0.7077904386\C,2.72633870
 05,0.2289369087,0.7271153554\C,-0.7429459285,-0.1094110697,-0.34180074
 18\N,-1.4060154282,-1.20735618,-0.7142567395\C,-2.734721721,-1.2006628
 901,-0.672348931\C,-3.5010917085,-0.1021004009,-0.2646175815\C,-2.8112
 309023,1.0492952009,0.1171563684\C,-1.4283563264,1.0349127365,0.073758
 1963\F,-0.757371555,2.1447165841,0.4019030723\C,-4.9820150293,-0.16287
 29129,-0.237565062\C,-5.7072100377,-0.7794324951,-1.2579562026\C,-7.08
 7722315,-0.7987361482,-1.1673495374\F,-7.7926794965,-1.407634299,-2.12
 74078894\C,-7.7364220322,-0.2043677537,-0.0820104304\N,-7.0389852662,0
 .3696160374,0.901719224\C,-5.7119612309,0.3868015476,0.823286893\C,-9.
 2225583699,-0.1650419964,0.0110319941\N,-9.900759927,0.2133881063,-1.0
 7522169\C,-11.2268488533,0.2892910125,-1.0119268261\C,-11.9747781308,-
 0.0112697957,0.1331043274\C,-11.2688608852,-0.4147444617,1.267176625\C
 ,-9.8894118948,-0.4896473417,1.1951669399\F,-9.2051325583,-0.909774777
 ,2.2654390801\C,-13.4535677285,0.0945281948,0.1358499632\C,-14.1447321
 676,0.636008409,1.2201599006\C,-15.5238747931,0.70396894,1.1470214849\
 F,-16.2128323737,1.2020476884,2.1855964632\C,-16.2043038519,0.24979568
 7,0.0174334112\N,-15.5426310096,-0.2818201218,-1.0120864338\C,-14.2163
 602558,-0.3544725886,-0.9501003921\C,-17.6938349912,0.2998386717,-0.07
 43896999\N,-18.3240165046,-0.8336841322,-0.3901041683\C,-19.6514006835
 ,-0.8088663573,-0.4997862004\C,-20.4206558303,0.3372773461,-0.30662832
 28\C,-19.7739458715,1.5247183349,0.0127158723\C,-18.3944298073,1.48912
 51584,0.1251551921\F,-17.7225333218,2.6175941045,0.4073407448\H,21.461
 7054124,0.6136724426,-0.7300011286\H,20.4214698027,1.6822602325,1.3290
 44402\H,19.9472866324,-0.5430986998,-2.3564974429\H,13.5596771156,0.91
 81621347,-1.8822440099\H,13.785544898,-0.7678430791,2.0995168305\H,11.
 7130088489,0.6804385089,2.1861219504\H,11.7790090857,-0.7808024011,-1.
 8885643035\H,5.1875467362,1.6478243126,0.6466058513\H,5.2220132006,-2.
 3177608602,-1.0904960621\H,3.3462378587,-1.1333682063,-2.326817304\H,3
 .2100929585,0.5887296783,1.6430333972\H,-3.2276989262,-2.1359367654,-0
 .9643226523\H,-3.326484274,1.9644906626,0.4211844149\H,-5.2230205649,-
 1.2314169996,-2.1278871492\H,-5.1879578801,0.8541602737,1.6659562675\H
 ,-11.7320233408,0.6294561726,-1.9237533092\H,-11.7704652527,-0.6971843
 601,2.196997736\H,-13.6340685217,1.0151571915,2.1097093417\H,-13.72109
 30804,-0.8160570806,-1.8129350416\H,-20.1293855268,-1.7616282738,-0.75
 67804108\H,-21.5085798283,0.3008518781,-0.409118468\H,-20.3074390516,2
 .4661930003,0.1674150609\\Version=EM64L-G16RevA.03\State=1-A\HF=-3462.
 1388526\S2=0.\S2-1=0.\S2A=0.\RMSD=7.004e-09\RMSF=2.663e-06\Dipole=0.04
 11734,0.2285511,0.6034297\Quadrupole=74.640057,-37.1383706,-37.5016863
 ,-8.0200185,4.4307418,0.3164039\PG=C01 [X(C50H22F10N10)]\\@


 I WANT TO KNOW HOW GOD CREATED THE WORLD.  I AM NOT INTERESTED IN
 THIS OR THAT PHENOMENON, IN THE SPECTRUM OF THIS OR THAT ELEMENT.
 I WANT TO KNOW HIS THOUGHTS, THE REST ARE DETAILS.
     -- ALBERT EINSTEIN
 Job cpu time:       1 days  1 hours 17 minutes 35.6 seconds.
 Elapsed time:       0 days  3 hours 13 minutes 22.3 seconds.
 File lengths (MBytes):  RWF=   1352 Int=      0 D2E=      0 Chk=    120 Scr=      8
 Normal termination of Gaussian 16 at Sat Jul 25 15:41:03 2020.
