 Entering Gaussian System, Link 0=g16
 Input=mols_66_5_06_c-c-c-cOC_opt_0.gjf
 Output=mols_66_5_06_c-c-c-cOC_opt_0.log
 Initial command:
 /opt/ohpc/pub/libs/gaussian/g16-A.03/sandybridge/g16/l1.exe "/mnt/gpfs2_4m/scratch/rdu230/ondemand/projects/dihedral_energies/7trial/wtuning/mols_66_5_06_c-c-c-cOC/Gau-257036.inp" -scrdir="/mnt/gpfs2_4m/scratch/rdu230/ondemand/projects/dihedral_energies/7trial/wtuning/mols_66_5_06_c-c-c-cOC/"
 Entering Link 1 = /opt/ohpc/pub/libs/gaussian/g16-A.03/sandybridge/g16/l1.exe PID=    257037.
  
 Copyright (c) 1988,1990,1992,1993,1995,1998,2003,2009,2016,
            Gaussian, Inc.  All Rights Reserved.
  
 This is part of the Gaussian(R) 16 program.  It is based on
 the Gaussian(R) 09 system (copyright 2009, Gaussian, Inc.),
 the Gaussian(R) 03 system (copyright 2003, Gaussian, Inc.),
 the Gaussian(R) 98 system (copyright 1998, Gaussian, Inc.),
 the Gaussian(R) 94 system (copyright 1995, Gaussian, Inc.),
 the Gaussian 92(TM) system (copyright 1992, Gaussian, Inc.),
 the Gaussian 90(TM) system (copyright 1990, Gaussian, Inc.),
 the Gaussian 88(TM) system (copyright 1988, Gaussian, Inc.),
 the Gaussian 86(TM) system (copyright 1986, Carnegie Mellon
 University), and the Gaussian 82(TM) system (copyright 1983,
 Carnegie Mellon University). Gaussian is a federally registered
 trademark of Gaussian, Inc.
  
 This software contains proprietary and confidential information,
 including trade secrets, belonging to Gaussian, Inc.
  
 This software is provided under written license and may be
 used, copied, transmitted, or stored only in accord with that
 written license.
  
 The following legend is applicable only to US Government
 contracts under FAR:
  
                    RESTRICTED RIGHTS LEGEND
  
 Use, reproduction and disclosure by the US Government is
 subject to restrictions as set forth in subparagraphs (a)
 and (c) of the Commercial Computer Software - Restricted
 Rights clause in FAR 52.227-19.
  
 Gaussian, Inc.
 340 Quinnipiac St., Bldg. 40, Wallingford CT 06492
  
  
 ---------------------------------------------------------------
 Warning -- This program may not be used in any manner that
 competes with the business of Gaussian, Inc. or will provide
 assistance to any competitor of Gaussian, Inc.  The licensee
 of this program is prohibited from giving any competitor of
 Gaussian, Inc. access to this program.  By using this program,
 the user acknowledges that Gaussian, Inc. is engaged in the
 business of creating and licensing software in the field of
 computational chemistry and represents and warrants to the
 licensee that it is not a competitor of Gaussian, Inc. and that
 it will not use this program in any manner prohibited above.
 ---------------------------------------------------------------
  

 Cite this work as:
 Gaussian 16, Revision A.03,
 M. J. Frisch, G. W. Trucks, H. B. Schlegel, G. E. Scuseria, 
 M. A. Robb, J. R. Cheeseman, G. Scalmani, V. Barone, 
 G. A. Petersson, H. Nakatsuji, X. Li, M. Caricato, A. V. Marenich, 
 J. Bloino, B. G. Janesko, R. Gomperts, B. Mennucci, H. P. Hratchian, 
 J. V. Ortiz, A. F. Izmaylov, J. L. Sonnenberg, D. Williams-Young, 
 F. Ding, F. Lipparini, F. Egidi, J. Goings, B. Peng, A. Petrone, 
 T. Henderson, D. Ranasinghe, V. G. Zakrzewski, J. Gao, N. Rega, 
 G. Zheng, W. Liang, M. Hada, M. Ehara, K. Toyota, R. Fukuda, 
 J. Hasegawa, M. Ishida, T. Nakajima, Y. Honda, O. Kitao, H. Nakai, 
 T. Vreven, K. Throssell, J. A. Montgomery, Jr., J. E. Peralta, 
 F. Ogliaro, M. J. Bearpark, J. J. Heyd, E. N. Brothers, K. N. Kudin, 
 V. N. Staroverov, T. A. Keith, R. Kobayashi, J. Normand, 
 K. Raghavachari, A. P. Rendell, J. C. Burant, S. S. Iyengar, 
 J. Tomasi, M. Cossi, J. M. Millam, M. Klene, C. Adamo, R. Cammi, 
 J. W. Ochterski, R. L. Martin, K. Morokuma, O. Farkas, 
 J. B. Foresman, and D. J. Fox, Gaussian, Inc., Wallingford CT, 2016.
 
 ******************************************
 Gaussian 16:  EM64L-G16RevA.03 25-Dec-2016
                25-Jul-2020 
 ******************************************
 %mem=30GB
 %nproc=8
 Will use up to    8 processors via shared memory.
 ---------------------------------------------------------------
 #P uLC-wPBE/cc-pVDZ iop(3/107=0480700000, 3/108=0480700000) opt
 ---------------------------------------------------------------
 1/18=20,19=15,26=3,38=1/1,3;
 2/9=110,12=2,17=6,18=5,40=1/2;
 3/5=16,11=2,25=1,30=1,71=1,74=-41,107=480700000,108=480700000,116=2/1,2,3;
 4//1;
 5/5=2,38=5/2;
 6/7=2,8=2,9=2,10=2,28=1/1;
 7//1,2,3,16;
 1/18=20,19=15,26=3/3(2);
 2/9=110/2;
 99//99;
 2/9=110/2;
 3/5=16,11=2,25=1,30=1,71=1,74=-41,107=480700000,108=480700000,116=2/1,2,3;
 4/5=5,16=3,69=1/1;
 5/5=2,38=5/2;
 7//1,2,3,16;
 1/18=20,19=15,26=3/3(-5);
 2/9=110/2;
 6/7=2,8=2,9=2,10=2,19=2,28=1/1;
 99/9=1/99;
 Leave Link    1 at Sat Jul 25 10:31:57 2020, MaxMem=  4026531840 cpu:               0.8 elap:               0.1
 (Enter /opt/ohpc/pub/libs/gaussian/g16-A.03/sandybridge/g16/l101.exe)
 ----------
 H52 C65 O5
 ----------
 Symbolic Z-matrix:
 Charge =  0 Multiplicity = 1
 C                    -21.05412  -0.1607   -0.25828 
 C                    -20.26956   0.26207  -1.35113 
 C                    -18.90072   0.26461  -1.27355 
 C                    -18.20998  -0.09079  -0.16717 
 C                    -18.92602  -0.46662   0.97707 
 C                    -20.32488  -0.56932   0.90509 
 C                    -16.68978  -0.13199  -0.10846 
 C                    -16.0384  -1.27893   0.1541 
 C                    -14.67545  -1.38078   0.14467 
 C                    -13.91794  -0.16637   0.00292 
 C                    -14.58693   1.02324  -0.14046 
 C                    -15.92967   1.05253  -0.24823 
 O                    -16.71174   2.24341  -0.35933 
 C                    -15.95435   3.46174  -0.38717 
 C                    -12.36052  -0.21864   0.00973 
 C                    -11.72132  -0.77976   1.06293 
 C                    -10.34551  -0.8886    1.10017 
 C                    -9.5723   -0.27368   0.05507 
 C                    -10.28029   0.21714  -1.02978 
 C                    -11.62176   0.3184   -1.06772 
 C                    -8.05608  -0.38332   0.05226 
 C                    -7.40318   0.88992   0.07365 
 C                    -5.99774   0.90966   0.17267 
 C                    -5.27067  -0.26041   0.10583 
 C                    -5.94626  -1.4672   -0.03098 
 C                    -7.39114  -1.53405  -0.02365 
 O                    -8.03613  -2.72256  -0.05126 
 C                    -7.35338  -3.88277  -0.22808 
 C                    -3.79086  -0.28764   0.08766 
 C                    -3.04864  -1.02629   1.01526 
 C                    -1.58905  -0.94399   0.97698 
 C                    -0.92278  -0.15246   0.03238 
 C                    -1.68482   0.61479  -0.89031 
 C                    -3.03555   0.54481  -0.82674 
 C                     0.59239  -0.0972    0.08449 
 C                     1.23268  -1.25571  -0.26222 
 C                     2.62087  -1.25429  -0.34348 
 C                     3.40022  -0.08687   0.0578 
 C                     2.69767   1.08965   0.41524 
 C                     1.23752   1.10202   0.47232 
 O                     0.5242    2.17851   0.85497 
 C                     1.2155    3.26335   1.37112 
 C                     4.8817   -0.04684  -0.00609 
 C                     5.49219   0.92346  -0.78309 
 C                     6.97416   0.91967  -0.868 
 C                     7.64884   0.00465  -0.18035 
 C                     7.04542  -0.97754   0.65436 
 C                     5.63223  -1.03568   0.68453 
 C                     9.16312  -0.00144  -0.16715 
 C                     9.78004  -0.83525  -1.12542 
 C                     11.17565  -0.77319  -1.22673 
 C                     11.97938  -0.04905  -0.38798 
 C                     11.29864   0.79406   0.5038 
 C                     9.93622   0.79435   0.62985 
 O                     9.20538   1.65339   1.55265 
 C                     9.93657   2.48154   2.41622 
 C                     13.46666  -0.06225  -0.50055 
 C                     14.14478   1.15667  -0.61495 
 C                     15.55184   1.19736  -0.73056 
 C                     16.27066  -0.05538  -0.67931 
 C                     15.61236  -1.26235  -0.51054 
 C                     14.14735  -1.25345  -0.44056 
 C                     17.78555   0.00611  -0.73938 
 C                     18.37909   0.46793  -1.94585 
 C                     19.80744   0.54285  -2.05257 
 C                     20.60397  -0.01933  -1.0825 
 C                     19.97288  -0.57864   0.14147 
 C                     18.61663  -0.60942   0.29506 
 O                     17.93108  -1.02596   1.39819 
 C                     18.74766  -1.61956   2.40229 
 H                    -22.10781  -0.14147  -0.2848 
 H                    -20.79393   0.50467  -2.32879 
 H                    -18.26928   0.52081  -2.17015 
 H                    -18.45964  -0.81375   1.95088 
 H                    -20.94612  -0.81461   1.84261 
 H                    -16.63746  -2.24282   0.22519 
 H                    -14.09472  -2.31667   0.28321 
 H                    -13.9432   1.96486  -0.2925 
 H                    -15.24638   3.58206  -1.17885 
 H                    -15.479    3.56069   0.6008 
 H                    -16.73697   4.24362  -0.38334 
 H                    -12.27252  -1.27875   1.95324 
 H                    -9.82565  -1.30747   1.90644 
 H                    -9.70439   0.63229  -1.8841 
 H                    -12.19501   0.70622  -1.88929 
 H                    -7.93746   1.81384   0.22205 
 H                    -5.48367   1.88538   0.14136 
 H                    -5.39074  -2.40548  -0.08348 
 H                    -6.79287  -4.14417   0.63836 
 H                    -8.12724  -4.70451  -0.36912 
 H                    -6.75365  -3.89127  -1.19986 
 H                    -3.50731  -1.58914   1.7913 
 H                    -1.04866  -1.47624   1.76866 
 H                    -1.15206   1.25203  -1.5901 
 H                    -3.59737   1.16186  -1.59793 
 H                     0.73263  -2.1983   -0.58103 
 H                     3.2262   -2.15187  -0.67708 
 H                     3.22453   1.94396   0.62732 
 H                     1.80731   2.93008   2.26125 
 H                     1.77968   3.77156   0.61599 
 H                     0.40153   3.96204   1.69479 
 H                     4.91908   1.64296  -1.37765 
 H                     7.44556   1.67675  -1.50814 
 H                     7.54388  -1.7229    1.18372 
 H                     5.16995  -1.71011   1.28293 
 H                     9.21047  -1.39482  -1.80612 
 H                     11.64554  -1.44691  -2.01345 
 H                     11.92558   1.45604   1.22829 
 H                     10.62889   1.85741   3.09871 
 H                     10.52322   3.16718   1.85731 
 H                     9.28149   2.95031   3.0513 
 H                     13.67994   2.18055  -0.68145 
 H                     16.1483   2.12372  -0.84261 
 H                     16.09776  -2.13291  -0.4845 
 H                     13.61115  -2.16043  -0.3297 
 H                     17.78005   0.83913  -2.71307 
 H                     20.26796   0.90093  -2.9358 
 H                     21.6856  -0.04084  -1.17336 
 H                     20.71232  -0.93567   0.89896 
 H                     18.10561  -1.87738   3.21037 
 H                     19.43075  -0.86758   2.83469 
 H                     19.33781  -2.49267   2.05505 
 
 ITRead=  0  0  0  0  0  0  0  0  0  0  0  0  0  0  0  0  0  0  0  0
 ITRead=  0  0  0  0  0  0  0  0  0  0  0  0  0  0  0  0  0  0  0  0
 ITRead=  0  0  0  0  0  0  0  0  0  0  0  0  0  0  0  0  0  0  0  0
 ITRead=  0  0  0  0  0  0  0  0  0  0  0  0  0  0  0  0  0  0  0  0
 ITRead=  0  0  0  0  0  0  0  0  0  0  0  0  0  0  0  0  0  0  0  0
 ITRead=  0  0  0  0  0  0  0  0  0  0  0  0  0  0  0  0  0  0  0  0
 ITRead=  0  0
 MicOpt= -1 -1 -1 -1 -1 -1 -1 -1 -1 -1 -1 -1 -1 -1 -1 -1 -1 -1 -1 -1
 MicOpt= -1 -1 -1 -1 -1 -1 -1 -1 -1 -1 -1 -1 -1 -1 -1 -1 -1 -1 -1 -1
 MicOpt= -1 -1 -1 -1 -1 -1 -1 -1 -1 -1 -1 -1 -1 -1 -1 -1 -1 -1 -1 -1
 MicOpt= -1 -1 -1 -1 -1 -1 -1 -1 -1 -1 -1 -1 -1 -1 -1 -1 -1 -1 -1 -1
 MicOpt= -1 -1 -1 -1 -1 -1 -1 -1 -1 -1 -1 -1 -1 -1 -1 -1 -1 -1 -1 -1
 MicOpt= -1 -1 -1 -1 -1 -1 -1 -1 -1 -1 -1 -1 -1 -1 -1 -1 -1 -1 -1 -1
 MicOpt= -1 -1
 NAtoms=    122 NQM=      122 NQMF=       0 NMMI=      0 NMMIF=      0
                NMic=       0 NMicF=      0.
                    Isotopes and Nuclear Properties:
 (Nuclear quadrupole moments (NQMom) in fm**2, nuclear magnetic moments (NMagM)
  in nuclear magnetons)

  Atom         1           2           3           4           5           6           7           8           9          10
 IAtWgt=          12          12          12          12          12          12          12          12          12          12
 AtmWgt=  12.0000000  12.0000000  12.0000000  12.0000000  12.0000000  12.0000000  12.0000000  12.0000000  12.0000000  12.0000000
 NucSpn=           0           0           0           0           0           0           0           0           0           0
 AtZEff=  -0.0000000  -0.0000000  -0.0000000  -0.0000000  -0.0000000  -0.0000000  -0.0000000  -0.0000000  -0.0000000  -0.0000000
 NQMom=    0.0000000   0.0000000   0.0000000   0.0000000   0.0000000   0.0000000   0.0000000   0.0000000   0.0000000   0.0000000
 NMagM=    0.0000000   0.0000000   0.0000000   0.0000000   0.0000000   0.0000000   0.0000000   0.0000000   0.0000000   0.0000000
 AtZNuc=   6.0000000   6.0000000   6.0000000   6.0000000   6.0000000   6.0000000   6.0000000   6.0000000   6.0000000   6.0000000

  Atom        11          12          13          14          15          16          17          18          19          20
 IAtWgt=          12          12          16          12          12          12          12          12          12          12
 AtmWgt=  12.0000000  12.0000000  15.9949146  12.0000000  12.0000000  12.0000000  12.0000000  12.0000000  12.0000000  12.0000000
 NucSpn=           0           0           0           0           0           0           0           0           0           0
 AtZEff=  -0.0000000  -0.0000000  -0.0000000  -0.0000000  -0.0000000  -0.0000000  -0.0000000  -0.0000000  -0.0000000  -0.0000000
 NQMom=    0.0000000   0.0000000   0.0000000   0.0000000   0.0000000   0.0000000   0.0000000   0.0000000   0.0000000   0.0000000
 NMagM=    0.0000000   0.0000000   0.0000000   0.0000000   0.0000000   0.0000000   0.0000000   0.0000000   0.0000000   0.0000000
 AtZNuc=   6.0000000   6.0000000   8.0000000   6.0000000   6.0000000   6.0000000   6.0000000   6.0000000   6.0000000   6.0000000

  Atom        21          22          23          24          25          26          27          28          29          30
 IAtWgt=          12          12          12          12          12          12          16          12          12          12
 AtmWgt=  12.0000000  12.0000000  12.0000000  12.0000000  12.0000000  12.0000000  15.9949146  12.0000000  12.0000000  12.0000000
 NucSpn=           0           0           0           0           0           0           0           0           0           0
 AtZEff=  -0.0000000  -0.0000000  -0.0000000  -0.0000000  -0.0000000  -0.0000000  -0.0000000  -0.0000000  -0.0000000  -0.0000000
 NQMom=    0.0000000   0.0000000   0.0000000   0.0000000   0.0000000   0.0000000   0.0000000   0.0000000   0.0000000   0.0000000
 NMagM=    0.0000000   0.0000000   0.0000000   0.0000000   0.0000000   0.0000000   0.0000000   0.0000000   0.0000000   0.0000000
 AtZNuc=   6.0000000   6.0000000   6.0000000   6.0000000   6.0000000   6.0000000   8.0000000   6.0000000   6.0000000   6.0000000

  Atom        31          32          33          34          35          36          37          38          39          40
 IAtWgt=          12          12          12          12          12          12          12          12          12          12
 AtmWgt=  12.0000000  12.0000000  12.0000000  12.0000000  12.0000000  12.0000000  12.0000000  12.0000000  12.0000000  12.0000000
 NucSpn=           0           0           0           0           0           0           0           0           0           0
 AtZEff=  -0.0000000  -0.0000000  -0.0000000  -0.0000000  -0.0000000  -0.0000000  -0.0000000  -0.0000000  -0.0000000  -0.0000000
 NQMom=    0.0000000   0.0000000   0.0000000   0.0000000   0.0000000   0.0000000   0.0000000   0.0000000   0.0000000   0.0000000
 NMagM=    0.0000000   0.0000000   0.0000000   0.0000000   0.0000000   0.0000000   0.0000000   0.0000000   0.0000000   0.0000000
 AtZNuc=   6.0000000   6.0000000   6.0000000   6.0000000   6.0000000   6.0000000   6.0000000   6.0000000   6.0000000   6.0000000

  Atom        41          42          43          44          45          46          47          48          49          50
 IAtWgt=          16          12          12          12          12          12          12          12          12          12
 AtmWgt=  15.9949146  12.0000000  12.0000000  12.0000000  12.0000000  12.0000000  12.0000000  12.0000000  12.0000000  12.0000000
 NucSpn=           0           0           0           0           0           0           0           0           0           0
 AtZEff=  -0.0000000  -0.0000000  -0.0000000  -0.0000000  -0.0000000  -0.0000000  -0.0000000  -0.0000000  -0.0000000  -0.0000000
 NQMom=    0.0000000   0.0000000   0.0000000   0.0000000   0.0000000   0.0000000   0.0000000   0.0000000   0.0000000   0.0000000
 NMagM=    0.0000000   0.0000000   0.0000000   0.0000000   0.0000000   0.0000000   0.0000000   0.0000000   0.0000000   0.0000000
 AtZNuc=   8.0000000   6.0000000   6.0000000   6.0000000   6.0000000   6.0000000   6.0000000   6.0000000   6.0000000   6.0000000

  Atom        51          52          53          54          55          56          57          58          59          60
 IAtWgt=          12          12          12          12          16          12          12          12          12          12
 AtmWgt=  12.0000000  12.0000000  12.0000000  12.0000000  15.9949146  12.0000000  12.0000000  12.0000000  12.0000000  12.0000000
 NucSpn=           0           0           0           0           0           0           0           0           0           0
 AtZEff=  -0.0000000  -0.0000000  -0.0000000  -0.0000000  -0.0000000  -0.0000000  -0.0000000  -0.0000000  -0.0000000  -0.0000000
 NQMom=    0.0000000   0.0000000   0.0000000   0.0000000   0.0000000   0.0000000   0.0000000   0.0000000   0.0000000   0.0000000
 NMagM=    0.0000000   0.0000000   0.0000000   0.0000000   0.0000000   0.0000000   0.0000000   0.0000000   0.0000000   0.0000000
 AtZNuc=   6.0000000   6.0000000   6.0000000   6.0000000   8.0000000   6.0000000   6.0000000   6.0000000   6.0000000   6.0000000

  Atom        61          62          63          64          65          66          67          68          69          70
 IAtWgt=          12          12          12          12          12          12          12          12          16          12
 AtmWgt=  12.0000000  12.0000000  12.0000000  12.0000000  12.0000000  12.0000000  12.0000000  12.0000000  15.9949146  12.0000000
 NucSpn=           0           0           0           0           0           0           0           0           0           0
 AtZEff=  -0.0000000  -0.0000000  -0.0000000  -0.0000000  -0.0000000  -0.0000000  -0.0000000  -0.0000000  -0.0000000  -0.0000000
 NQMom=    0.0000000   0.0000000   0.0000000   0.0000000   0.0000000   0.0000000   0.0000000   0.0000000   0.0000000   0.0000000
 NMagM=    0.0000000   0.0000000   0.0000000   0.0000000   0.0000000   0.0000000   0.0000000   0.0000000   0.0000000   0.0000000
 AtZNuc=   6.0000000   6.0000000   6.0000000   6.0000000   6.0000000   6.0000000   6.0000000   6.0000000   8.0000000   6.0000000

  Atom        71          72          73          74          75          76          77          78          79          80
 IAtWgt=           1           1           1           1           1           1           1           1           1           1
 AtmWgt=   1.0078250   1.0078250   1.0078250   1.0078250   1.0078250   1.0078250   1.0078250   1.0078250   1.0078250   1.0078250
 NucSpn=           1           1           1           1           1           1           1           1           1           1
 AtZEff=  -0.0000000  -0.0000000  -0.0000000  -0.0000000  -0.0000000  -0.0000000  -0.0000000  -0.0000000  -0.0000000  -0.0000000
 NQMom=    0.0000000   0.0000000   0.0000000   0.0000000   0.0000000   0.0000000   0.0000000   0.0000000   0.0000000   0.0000000
 NMagM=    2.7928460   2.7928460   2.7928460   2.7928460   2.7928460   2.7928460   2.7928460   2.7928460   2.7928460   2.7928460
 AtZNuc=   1.0000000   1.0000000   1.0000000   1.0000000   1.0000000   1.0000000   1.0000000   1.0000000   1.0000000   1.0000000

  Atom        81          82          83          84          85          86          87          88          89          90
 IAtWgt=           1           1           1           1           1           1           1           1           1           1
 AtmWgt=   1.0078250   1.0078250   1.0078250   1.0078250   1.0078250   1.0078250   1.0078250   1.0078250   1.0078250   1.0078250
 NucSpn=           1           1           1           1           1           1           1           1           1           1
 AtZEff=  -0.0000000  -0.0000000  -0.0000000  -0.0000000  -0.0000000  -0.0000000  -0.0000000  -0.0000000  -0.0000000  -0.0000000
 NQMom=    0.0000000   0.0000000   0.0000000   0.0000000   0.0000000   0.0000000   0.0000000   0.0000000   0.0000000   0.0000000
 NMagM=    2.7928460   2.7928460   2.7928460   2.7928460   2.7928460   2.7928460   2.7928460   2.7928460   2.7928460   2.7928460
 AtZNuc=   1.0000000   1.0000000   1.0000000   1.0000000   1.0000000   1.0000000   1.0000000   1.0000000   1.0000000   1.0000000

  Atom        91          92          93          94          95          96          97          98          99         100
 IAtWgt=           1           1           1           1           1           1           1           1           1           1
 AtmWgt=   1.0078250   1.0078250   1.0078250   1.0078250   1.0078250   1.0078250   1.0078250   1.0078250   1.0078250   1.0078250
 NucSpn=           1           1           1           1           1           1           1           1           1           1
 AtZEff=  -0.0000000  -0.0000000  -0.0000000  -0.0000000  -0.0000000  -0.0000000  -0.0000000  -0.0000000  -0.0000000  -0.0000000
 NQMom=    0.0000000   0.0000000   0.0000000   0.0000000   0.0000000   0.0000000   0.0000000   0.0000000   0.0000000   0.0000000
 NMagM=    2.7928460   2.7928460   2.7928460   2.7928460   2.7928460   2.7928460   2.7928460   2.7928460   2.7928460   2.7928460
 AtZNuc=   1.0000000   1.0000000   1.0000000   1.0000000   1.0000000   1.0000000   1.0000000   1.0000000   1.0000000   1.0000000

  Atom       101         102         103         104         105         106         107         108         109         110
 IAtWgt=           1           1           1           1           1           1           1           1           1           1
 AtmWgt=   1.0078250   1.0078250   1.0078250   1.0078250   1.0078250   1.0078250   1.0078250   1.0078250   1.0078250   1.0078250
 NucSpn=           1           1           1           1           1           1           1           1           1           1
 AtZEff=  -0.0000000  -0.0000000  -0.0000000  -0.0000000  -0.0000000  -0.0000000  -0.0000000  -0.0000000  -0.0000000  -0.0000000
 NQMom=    0.0000000   0.0000000   0.0000000   0.0000000   0.0000000   0.0000000   0.0000000   0.0000000   0.0000000   0.0000000
 NMagM=    2.7928460   2.7928460   2.7928460   2.7928460   2.7928460   2.7928460   2.7928460   2.7928460   2.7928460   2.7928460
 AtZNuc=   1.0000000   1.0000000   1.0000000   1.0000000   1.0000000   1.0000000   1.0000000   1.0000000   1.0000000   1.0000000

  Atom       111         112         113         114         115         116         117         118         119         120
 IAtWgt=           1           1           1           1           1           1           1           1           1           1
 AtmWgt=   1.0078250   1.0078250   1.0078250   1.0078250   1.0078250   1.0078250   1.0078250   1.0078250   1.0078250   1.0078250
 NucSpn=           1           1           1           1           1           1           1           1           1           1
 AtZEff=  -0.0000000  -0.0000000  -0.0000000  -0.0000000  -0.0000000  -0.0000000  -0.0000000  -0.0000000  -0.0000000  -0.0000000
 NQMom=    0.0000000   0.0000000   0.0000000   0.0000000   0.0000000   0.0000000   0.0000000   0.0000000   0.0000000   0.0000000
 NMagM=    2.7928460   2.7928460   2.7928460   2.7928460   2.7928460   2.7928460   2.7928460   2.7928460   2.7928460   2.7928460
 AtZNuc=   1.0000000   1.0000000   1.0000000   1.0000000   1.0000000   1.0000000   1.0000000   1.0000000   1.0000000   1.0000000

  Atom       121         122
 IAtWgt=           1           1
 AtmWgt=   1.0078250   1.0078250
 NucSpn=           1           1
 AtZEff=  -0.0000000  -0.0000000
 NQMom=    0.0000000   0.0000000
 NMagM=    2.7928460   2.7928460
 AtZNuc=   1.0000000   1.0000000
 Leave Link  101 at Sat Jul 25 10:31:58 2020, MaxMem=  4026531840 cpu:               3.1 elap:               0.4
 (Enter /opt/ohpc/pub/libs/gaussian/g16-A.03/sandybridge/g16/l103.exe)

 GradGradGradGradGradGradGradGradGradGradGradGradGradGradGradGradGradGrad
 Berny optimization.
 Initialization pass.
                           ----------------------------
                           !    Initial Parameters    !
                           ! (Angstroms and Degrees)  !
 --------------------------                            --------------------------
 ! Name  Definition              Value          Derivative Info.                !
 --------------------------------------------------------------------------------
 ! R1    R(1,2)                  1.4102         estimate D2E/DX2                !
 ! R2    R(1,6)                  1.4325         estimate D2E/DX2                !
 ! R3    R(1,71)                 1.0542         estimate D2E/DX2                !
 ! R4    R(2,3)                  1.371          estimate D2E/DX2                !
 ! R5    R(2,72)                 1.1356         estimate D2E/DX2                !
 ! R6    R(3,4)                  1.3519         estimate D2E/DX2                !
 ! R7    R(3,73)                 1.1262         estimate D2E/DX2                !
 ! R8    R(4,5)                  1.4012         estimate D2E/DX2                !
 ! R9    R(4,7)                  1.5219         estimate D2E/DX2                !
 ! R10   R(5,6)                  1.4045         estimate D2E/DX2                !
 ! R11   R(5,74)                 1.1342         estimate D2E/DX2                !
 ! R12   R(6,75)                 1.1511         estimate D2E/DX2                !
 ! R13   R(7,8)                  1.3449         estimate D2E/DX2                !
 ! R14   R(7,12)                 1.4143         estimate D2E/DX2                !
 ! R15   R(8,9)                  1.3668         estimate D2E/DX2                !
 ! R16   R(8,76)                 1.1371         estimate D2E/DX2                !
 ! R17   R(9,10)                 1.4383         estimate D2E/DX2                !
 ! R18   R(9,77)                 1.1101         estimate D2E/DX2                !
 ! R19   R(10,11)                1.3723         estimate D2E/DX2                !
 ! R20   R(10,15)                1.5583         estimate D2E/DX2                !
 ! R21   R(11,12)                1.3474         estimate D2E/DX2                !
 ! R22   R(11,78)                1.1507         estimate D2E/DX2                !
 ! R23   R(12,13)                1.429          estimate D2E/DX2                !
 ! R24   R(13,14)                1.4348         estimate D2E/DX2                !
 ! R25   R(14,79)                1.0689         estimate D2E/DX2                !
 ! R26   R(14,80)                1.1008         estimate D2E/DX2                !
 ! R27   R(14,81)                1.1063         estimate D2E/DX2                !
 ! R28   R(15,16)                1.3538         estimate D2E/DX2                !
 ! R29   R(15,20)                1.4125         estimate D2E/DX2                !
 ! R30   R(16,17)                1.3806         estimate D2E/DX2                !
 ! R31   R(16,82)                1.1599         estimate D2E/DX2                !
 ! R32   R(17,18)                1.4381         estimate D2E/DX2                !
 ! R33   R(17,83)                1.0468         estimate D2E/DX2                !
 ! R34   R(18,19)                1.3853         estimate D2E/DX2                !
 ! R35   R(18,21)                1.5202         estimate D2E/DX2                !
 ! R36   R(19,20)                1.3458         estimate D2E/DX2                !
 ! R37   R(19,84)                1.1108         estimate D2E/DX2                !
 ! R38   R(20,85)                1.0742         estimate D2E/DX2                !
 ! R39   R(21,22)                1.431          estimate D2E/DX2                !
 ! R40   R(21,26)                1.3312         estimate D2E/DX2                !
 ! R41   R(22,23)                1.4091         estimate D2E/DX2                !
 ! R42   R(22,86)                1.0775         estimate D2E/DX2                !
 ! R43   R(23,24)                1.3792         estimate D2E/DX2                !
 ! R44   R(23,87)                1.1033         estimate D2E/DX2                !
 ! R45   R(24,25)                1.3898         estimate D2E/DX2                !
 ! R46   R(24,29)                1.4802         estimate D2E/DX2                !
 ! R47   R(25,26)                1.4464         estimate D2E/DX2                !
 ! R48   R(25,88)                1.0917         estimate D2E/DX2                !
 ! R49   R(26,27)                1.3525         estimate D2E/DX2                !
 ! R50   R(27,28)                1.3578         estimate D2E/DX2                !
 ! R51   R(28,89)                1.0645         estimate D2E/DX2                !
 ! R52   R(28,90)                1.1375         estimate D2E/DX2                !
 ! R53   R(28,91)                1.142          estimate D2E/DX2                !
 ! R54   R(29,30)                1.3989         estimate D2E/DX2                !
 ! R55   R(29,34)                1.449          estimate D2E/DX2                !
 ! R56   R(30,31)                1.4624         estimate D2E/DX2                !
 ! R57   R(30,92)                1.0627         estimate D2E/DX2                !
 ! R58   R(31,32)                1.401          estimate D2E/DX2                !
 ! R59   R(31,93)                1.0964         estimate D2E/DX2                !
 ! R60   R(32,33)                1.4215         estimate D2E/DX2                !
 ! R61   R(32,35)                1.5171         estimate D2E/DX2                !
 ! R62   R(33,34)                1.354          estimate D2E/DX2                !
 ! R63   R(33,94)                1.0861         estimate D2E/DX2                !
 ! R64   R(34,95)                1.1363         estimate D2E/DX2                !
 ! R65   R(35,36)                1.3683         estimate D2E/DX2                !
 ! R66   R(35,40)                1.4159         estimate D2E/DX2                !
 ! R67   R(36,37)                1.3906         estimate D2E/DX2                !
 ! R68   R(36,96)                1.1136         estimate D2E/DX2                !
 ! R69   R(37,38)                1.4599         estimate D2E/DX2                !
 ! R70   R(37,97)                1.1329         estimate D2E/DX2                !
 ! R71   R(38,39)                1.4162         estimate D2E/DX2                !
 ! R72   R(38,43)                1.4834         estimate D2E/DX2                !
 ! R73   R(39,40)                1.4613         estimate D2E/DX2                !
 ! R74   R(39,98)                1.0259         estimate D2E/DX2                !
 ! R75   R(40,41)                1.3469         estimate D2E/DX2                !
 ! R76   R(41,42)                1.3861         estimate D2E/DX2                !
 ! R77   R(42,99)                1.1197         estimate D2E/DX2                !
 ! R78   R(42,100)               1.0709         estimate D2E/DX2                !
 ! R79   R(42,101)               1.1205         estimate D2E/DX2                !
 ! R80   R(43,44)                1.3849         estimate D2E/DX2                !
 ! R81   R(43,48)                1.4206         estimate D2E/DX2                !
 ! R82   R(44,45)                1.4844         estimate D2E/DX2                !
 ! R83   R(44,102)               1.0953         estimate D2E/DX2                !
 ! R84   R(45,46)                1.3287         estimate D2E/DX2                !
 ! R85   R(45,103)               1.0978         estimate D2E/DX2                !
 ! R86   R(46,47)                1.4232         estimate D2E/DX2                !
 ! R87   R(46,49)                1.5143         estimate D2E/DX2                !
 ! R88   R(47,48)                1.4147         estimate D2E/DX2                !
 ! R89   R(47,104)               1.0413         estimate D2E/DX2                !
 ! R90   R(48,105)               1.0132         estimate D2E/DX2                !
 ! R91   R(49,50)                1.4121         estimate D2E/DX2                !
 ! R92   R(49,54)                1.3661         estimate D2E/DX2                !
 ! R93   R(50,51)                1.4007         estimate D2E/DX2                !
 ! R94   R(50,106)               1.0492         estimate D2E/DX2                !
 ! R95   R(51,52)                1.3689         estimate D2E/DX2                !
 ! R96   R(51,107)               1.1374         estimate D2E/DX2                !
 ! R97   R(52,53)                1.4034         estimate D2E/DX2                !
 ! R98   R(52,57)                1.4916         estimate D2E/DX2                !
 ! R99   R(53,54)                1.3682         estimate D2E/DX2                !
 ! R100  R(53,108)               1.1645         estimate D2E/DX2                !
 ! R101  R(54,55)                1.4573         estimate D2E/DX2                !
 ! R102  R(55,56)                1.4022         estimate D2E/DX2                !
 ! R103  R(56,109)               1.1553         estimate D2E/DX2                !
 ! R104  R(56,110)               1.0614         estimate D2E/DX2                !
 ! R105  R(56,111)               1.0258         estimate D2E/DX2                !
 ! R106  R(57,58)                1.3995         estimate D2E/DX2                !
 ! R107  R(57,62)                1.3733         estimate D2E/DX2                !
 ! R108  R(58,59)                1.4124         estimate D2E/DX2                !
 ! R109  R(58,112)               1.1264         estimate D2E/DX2                !
 ! R110  R(59,60)                1.4452         estimate D2E/DX2                !
 ! R111  R(59,113)               1.1075         estimate D2E/DX2                !
 ! R112  R(60,61)                1.3851         estimate D2E/DX2                !
 ! R113  R(60,63)                1.5173         estimate D2E/DX2                !
 ! R114  R(61,62)                1.4667         estimate D2E/DX2                !
 ! R115  R(61,114)               0.9971         estimate D2E/DX2                !
 ! R116  R(62,115)               1.0594         estimate D2E/DX2                !
 ! R117  R(63,64)                1.4217         estimate D2E/DX2                !
 ! R118  R(63,68)                1.4627         estimate D2E/DX2                !
 ! R119  R(64,65)                1.4343         estimate D2E/DX2                !
 ! R120  R(64,116)               1.0418         estimate D2E/DX2                !
 ! R121  R(65,66)                1.3753         estimate D2E/DX2                !
 ! R122  R(65,117)               1.0585         estimate D2E/DX2                !
 ! R123  R(66,67)                1.4863         estimate D2E/DX2                !
 ! R124  R(66,118)               1.0857         estimate D2E/DX2                !
 ! R125  R(67,68)                1.3653         estimate D2E/DX2                !
 ! R126  R(67,119)               1.1172         estimate D2E/DX2                !
 ! R127  R(68,69)                1.364          estimate D2E/DX2                !
 ! R128  R(69,70)                1.4239         estimate D2E/DX2                !
 ! R129  R(70,120)               1.0638         estimate D2E/DX2                !
 ! R130  R(70,121)               1.1041         estimate D2E/DX2                !
 ! R131  R(70,122)               1.1096         estimate D2E/DX2                !
 ! A1    A(2,1,6)              115.5725         estimate D2E/DX2                !
 ! A2    A(2,1,71)             122.0816         estimate D2E/DX2                !
 ! A3    A(6,1,71)             122.306          estimate D2E/DX2                !
 ! A4    A(1,2,3)              120.8086         estimate D2E/DX2                !
 ! A5    A(1,2,72)             118.3155         estimate D2E/DX2                !
 ! A6    A(3,2,72)             120.6187         estimate D2E/DX2                !
 ! A7    A(2,3,4)              123.7769         estimate D2E/DX2                !
 ! A8    A(2,3,73)             121.0092         estimate D2E/DX2                !
 ! A9    A(4,3,73)             115.1441         estimate D2E/DX2                !
 ! A10   A(3,4,5)              118.5382         estimate D2E/DX2                !
 ! A11   A(3,4,7)              123.3038         estimate D2E/DX2                !
 ! A12   A(5,4,7)              118.1452         estimate D2E/DX2                !
 ! A13   A(4,5,6)              119.1275         estimate D2E/DX2                !
 ! A14   A(4,5,74)             124.9685         estimate D2E/DX2                !
 ! A15   A(6,5,74)             115.5438         estimate D2E/DX2                !
 ! A16   A(1,6,5)              121.856          estimate D2E/DX2                !
 ! A17   A(1,6,75)             116.5812         estimate D2E/DX2                !
 ! A18   A(5,6,75)             120.755          estimate D2E/DX2                !
 ! A19   A(4,7,8)              120.9583         estimate D2E/DX2                !
 ! A20   A(4,7,12)             120.6868         estimate D2E/DX2                !
 ! A21   A(8,7,12)             118.2447         estimate D2E/DX2                !
 ! A22   A(7,8,9)              123.0372         estimate D2E/DX2                !
 ! A23   A(7,8,76)             118.6825         estimate D2E/DX2                !
 ! A24   A(9,8,76)             117.5557         estimate D2E/DX2                !
 ! A25   A(8,9,10)             117.5778         estimate D2E/DX2                !
 ! A26   A(8,9,77)             125.7068         estimate D2E/DX2                !
 ! A27   A(10,9,77)            116.6542         estimate D2E/DX2                !
 ! A28   A(9,10,11)            119.043          estimate D2E/DX2                !
 ! A29   A(9,10,15)            119.8424         estimate D2E/DX2                !
 ! A30   A(11,10,15)           121.1143         estimate D2E/DX2                !
 ! A31   A(10,11,12)           120.8652         estimate D2E/DX2                !
 ! A32   A(10,11,78)           116.7713         estimate D2E/DX2                !
 ! A33   A(12,11,78)           121.9468         estimate D2E/DX2                !
 ! A34   A(7,12,11)            120.628          estimate D2E/DX2                !
 ! A35   A(7,12,13)            114.2985         estimate D2E/DX2                !
 ! A36   A(11,12,13)           124.7309         estimate D2E/DX2                !
 ! A37   A(12,13,14)           114.849          estimate D2E/DX2                !
 ! A38   A(13,14,79)           117.3609         estimate D2E/DX2                !
 ! A39   A(13,14,80)           106.6693         estimate D2E/DX2                !
 ! A40   A(13,14,81)           103.0995         estimate D2E/DX2                !
 ! A41   A(79,14,80)           111.629          estimate D2E/DX2                !
 ! A42   A(79,14,81)           113.053          estimate D2E/DX2                !
 ! A43   A(80,14,81)           103.8179         estimate D2E/DX2                !
 ! A44   A(10,15,16)           119.2882         estimate D2E/DX2                !
 ! A45   A(10,15,20)           120.4405         estimate D2E/DX2                !
 ! A46   A(16,15,20)           120.2707         estimate D2E/DX2                !
 ! A47   A(15,16,17)           121.6139         estimate D2E/DX2                !
 ! A48   A(15,16,82)           123.4405         estimate D2E/DX2                !
 ! A49   A(17,16,82)           114.7667         estimate D2E/DX2                !
 ! A50   A(16,17,18)           118.8465         estimate D2E/DX2                !
 ! A51   A(16,17,83)           123.1762         estimate D2E/DX2                !
 ! A52   A(18,17,83)           117.6341         estimate D2E/DX2                !
 ! A53   A(17,18,19)           116.4757         estimate D2E/DX2                !
 ! A54   A(17,18,21)           120.4474         estimate D2E/DX2                !
 ! A55   A(19,18,21)           122.2659         estimate D2E/DX2                !
 ! A56   A(18,19,20)           123.9283         estimate D2E/DX2                !
 ! A57   A(18,19,84)           118.018          estimate D2E/DX2                !
 ! A58   A(20,19,84)           117.8383         estimate D2E/DX2                !
 ! A59   A(15,20,19)           118.114          estimate D2E/DX2                !
 ! A60   A(15,20,85)           116.2026         estimate D2E/DX2                !
 ! A61   A(19,20,85)           125.4949         estimate D2E/DX2                !
 ! A62   A(18,21,22)           113.0078         estimate D2E/DX2                !
 ! A63   A(18,21,26)           124.1013         estimate D2E/DX2                !
 ! A64   A(22,21,26)           122.8242         estimate D2E/DX2                !
 ! A65   A(21,22,23)           117.9425         estimate D2E/DX2                !
 ! A66   A(21,22,86)           122.5965         estimate D2E/DX2                !
 ! A67   A(23,22,86)           118.2204         estimate D2E/DX2                !
 ! A68   A(22,23,24)           120.6991         estimate D2E/DX2                !
 ! A69   A(22,23,87)           118.3679         estimate D2E/DX2                !
 ! A70   A(24,23,87)           120.2162         estimate D2E/DX2                !
 ! A71   A(23,24,25)           119.0242         estimate D2E/DX2                !
 ! A72   A(23,24,29)           122.9052         estimate D2E/DX2                !
 ! A73   A(25,24,29)           117.9569         estimate D2E/DX2                !
 ! A74   A(24,25,26)           121.683          estimate D2E/DX2                !
 ! A75   A(24,25,88)           120.2449         estimate D2E/DX2                !
 ! A76   A(26,25,88)           117.9592         estimate D2E/DX2                !
 ! A77   A(21,26,25)           117.3422         estimate D2E/DX2                !
 ! A78   A(21,26,27)           121.5042         estimate D2E/DX2                !
 ! A79   A(25,26,27)           121.1229         estimate D2E/DX2                !
 ! A80   A(26,27,28)           120.9134         estimate D2E/DX2                !
 ! A81   A(27,28,89)           111.6296         estimate D2E/DX2                !
 ! A82   A(27,28,90)           106.9383         estimate D2E/DX2                !
 ! A83   A(27,28,91)           112.4116         estimate D2E/DX2                !
 ! A84   A(89,28,90)           106.3636         estimate D2E/DX2                !
 ! A85   A(89,28,91)           114.4735         estimate D2E/DX2                !
 ! A86   A(90,28,91)           104.2631         estimate D2E/DX2                !
 ! A87   A(24,29,30)           122.142          estimate D2E/DX2                !
 ! A88   A(24,29,34)           121.2191         estimate D2E/DX2                !
 ! A89   A(30,29,34)           116.4378         estimate D2E/DX2                !
 ! A90   A(29,30,31)           118.8471         estimate D2E/DX2                !
 ! A91   A(29,30,92)           122.335          estimate D2E/DX2                !
 ! A92   A(31,30,92)           118.6644         estimate D2E/DX2                !
 ! A93   A(30,31,32)           121.6081         estimate D2E/DX2                !
 ! A94   A(30,31,93)           116.4685         estimate D2E/DX2                !
 ! A95   A(32,31,93)           121.7855         estimate D2E/DX2                !
 ! A96   A(31,32,33)           119.1862         estimate D2E/DX2                !
 ! A97   A(31,32,35)           118.1901         estimate D2E/DX2                !
 ! A98   A(33,32,35)           122.55           estimate D2E/DX2                !
 ! A99   A(32,33,34)           118.4503         estimate D2E/DX2                !
 ! A100  A(32,33,94)           118.16           estimate D2E/DX2                !
 ! A101  A(34,33,94)           123.3601         estimate D2E/DX2                !
 ! A102  A(29,34,33)           125.402          estimate D2E/DX2                !
 ! A103  A(29,34,95)           118.8514         estimate D2E/DX2                !
 ! A104  A(33,34,95)           115.6777         estimate D2E/DX2                !
 ! A105  A(32,35,36)           115.3289         estimate D2E/DX2                !
 ! A106  A(32,35,40)           119.6913         estimate D2E/DX2                !
 ! A107  A(36,35,40)           124.9797         estimate D2E/DX2                !
 ! A108  A(35,36,37)           118.756          estimate D2E/DX2                !
 ! A109  A(35,36,96)           125.3833         estimate D2E/DX2                !
 ! A110  A(37,36,96)           115.6197         estimate D2E/DX2                !
 ! A111  A(36,37,38)           121.1771         estimate D2E/DX2                !
 ! A112  A(36,37,97)           123.3548         estimate D2E/DX2                !
 ! A113  A(38,37,97)           115.4216         estimate D2E/DX2                !
 ! A114  A(37,38,39)           117.9619         estimate D2E/DX2                !
 ! A115  A(37,38,43)           122.8807         estimate D2E/DX2                !
 ! A116  A(39,38,43)           118.9405         estimate D2E/DX2                !
 ! A117  A(38,39,40)           120.8362         estimate D2E/DX2                !
 ! A118  A(38,39,98)           119.291          estimate D2E/DX2                !
 ! A119  A(40,39,98)           119.8703         estimate D2E/DX2                !
 ! A120  A(35,40,39)           115.9386         estimate D2E/DX2                !
 ! A121  A(35,40,41)           120.8938         estimate D2E/DX2                !
 ! A122  A(39,40,41)           123.1649         estimate D2E/DX2                !
 ! A123  A(40,41,42)           117.8529         estimate D2E/DX2                !
 ! A124  A(41,42,99)           109.0689         estimate D2E/DX2                !
 ! A125  A(41,42,100)          111.8148         estimate D2E/DX2                !
 ! A126  A(41,42,101)          103.4915         estimate D2E/DX2                !
 ! A127  A(99,42,100)          115.0484         estimate D2E/DX2                !
 ! A128  A(99,42,101)          109.8725         estimate D2E/DX2                !
 ! A129  A(100,42,101)         106.8867         estimate D2E/DX2                !
 ! A130  A(38,43,44)           118.9025         estimate D2E/DX2                !
 ! A131  A(38,43,48)           119.2045         estimate D2E/DX2                !
 ! A132  A(44,43,48)           121.8405         estimate D2E/DX2                !
 ! A133  A(43,44,45)           118.0606         estimate D2E/DX2                !
 ! A134  A(43,44,102)          122.287          estimate D2E/DX2                !
 ! A135  A(45,44,102)          119.5389         estimate D2E/DX2                !
 ! A136  A(44,45,46)           118.6272         estimate D2E/DX2                !
 ! A137  A(44,45,103)          117.4063         estimate D2E/DX2                !
 ! A138  A(46,45,103)          123.9647         estimate D2E/DX2                !
 ! A139  A(45,46,47)           124.2999         estimate D2E/DX2                !
 ! A140  A(45,46,49)           121.0009         estimate D2E/DX2                !
 ! A141  A(47,46,49)           114.5866         estimate D2E/DX2                !
 ! A142  A(46,47,48)           117.6708         estimate D2E/DX2                !
 ! A143  A(46,47,104)          126.1005         estimate D2E/DX2                !
 ! A144  A(48,47,104)          115.9719         estimate D2E/DX2                !
 ! A145  A(43,48,47)           119.2611         estimate D2E/DX2                !
 ! A146  A(43,48,105)          120.6231         estimate D2E/DX2                !
 ! A147  A(47,48,105)          119.7162         estimate D2E/DX2                !
 ! A148  A(46,49,50)           115.6782         estimate D2E/DX2                !
 ! A149  A(46,49,54)           124.6557         estimate D2E/DX2                !
 ! A150  A(50,49,54)           119.5137         estimate D2E/DX2                !
 ! A151  A(49,50,51)           117.2724         estimate D2E/DX2                !
 ! A152  A(49,50,106)          121.1976         estimate D2E/DX2                !
 ! A153  A(51,50,106)          121.1714         estimate D2E/DX2                !
 ! A154  A(50,51,52)           124.3429         estimate D2E/DX2                !
 ! A155  A(50,51,107)          115.8125         estimate D2E/DX2                !
 ! A156  A(52,51,107)          119.6436         estimate D2E/DX2                !
 ! A157  A(51,52,53)           114.983          estimate D2E/DX2                !
 ! A158  A(51,52,57)           122.3108         estimate D2E/DX2                !
 ! A159  A(53,52,57)           122.4761         estimate D2E/DX2                !
 ! A160  A(52,53,54)           122.7978         estimate D2E/DX2                !
 ! A161  A(52,53,108)          118.404          estimate D2E/DX2                !
 ! A162  A(54,53,108)          118.5963         estimate D2E/DX2                !
 ! A163  A(49,54,53)           120.6405         estimate D2E/DX2                !
 ! A164  A(49,54,55)           115.4057         estimate D2E/DX2                !
 ! A165  A(53,54,55)           123.9065         estimate D2E/DX2                !
 ! A166  A(54,55,56)           118.4654         estimate D2E/DX2                !
 ! A167  A(55,56,109)          110.9312         estimate D2E/DX2                !
 ! A168  A(55,56,110)          110.2073         estimate D2E/DX2                !
 ! A169  A(55,56,111)          108.5534         estimate D2E/DX2                !
 ! A170  A(109,56,110)         109.198          estimate D2E/DX2                !
 ! A171  A(109,56,111)         105.2982         estimate D2E/DX2                !
 ! A172  A(110,56,111)         112.5675         estimate D2E/DX2                !
 ! A173  A(52,57,58)           118.7891         estimate D2E/DX2                !
 ! A174  A(52,57,62)           119.9087         estimate D2E/DX2                !
 ! A175  A(58,57,62)           121.2567         estimate D2E/DX2                !
 ! A176  A(57,58,59)           120.9633         estimate D2E/DX2                !
 ! A177  A(57,58,112)          126.6219         estimate D2E/DX2                !
 ! A178  A(59,58,112)          112.3395         estimate D2E/DX2                !
 ! A179  A(58,59,60)           117.8801         estimate D2E/DX2                !
 ! A180  A(58,59,113)          124.676          estimate D2E/DX2                !
 ! A181  A(60,59,113)          117.437          estimate D2E/DX2                !
 ! A182  A(59,60,61)           121.5503         estimate D2E/DX2                !
 ! A183  A(59,60,63)           117.3898         estimate D2E/DX2                !
 ! A184  A(61,60,63)           120.9732         estimate D2E/DX2                !
 ! A185  A(60,61,62)           118.3748         estimate D2E/DX2                !
 ! A186  A(60,61,114)          122.1818         estimate D2E/DX2                !
 ! A187  A(62,61,114)          119.3615         estimate D2E/DX2                !
 ! A188  A(57,62,61)           119.8858         estimate D2E/DX2                !
 ! A189  A(57,62,115)          119.7545         estimate D2E/DX2                !
 ! A190  A(61,62,115)          120.3537         estimate D2E/DX2                !
 ! A191  A(60,63,64)           117.6185         estimate D2E/DX2                !
 ! A192  A(60,63,68)           121.4801         estimate D2E/DX2                !
 ! A193  A(64,63,68)           119.9755         estimate D2E/DX2                !
 ! A194  A(63,64,65)           119.7277         estimate D2E/DX2                !
 ! A195  A(63,64,116)          120.0439         estimate D2E/DX2                !
 ! A196  A(65,64,116)          119.9494         estimate D2E/DX2                !
 ! A197  A(64,65,66)           120.1934         estimate D2E/DX2                !
 ! A198  A(64,65,117)          120.8658         estimate D2E/DX2                !
 ! A199  A(66,65,117)          118.3502         estimate D2E/DX2                !
 ! A200  A(65,66,67)           119.2579         estimate D2E/DX2                !
 ! A201  A(65,66,118)          121.7404         estimate D2E/DX2                !
 ! A202  A(67,66,118)          118.9789         estimate D2E/DX2                !
 ! A203  A(66,67,68)           121.5281         estimate D2E/DX2                !
 ! A204  A(66,67,119)          113.4273         estimate D2E/DX2                !
 ! A205  A(68,67,119)          125.0323         estimate D2E/DX2                !
 ! A206  A(63,68,67)           118.3832         estimate D2E/DX2                !
 ! A207  A(63,68,69)           114.5125         estimate D2E/DX2                !
 ! A208  A(67,68,69)           126.6675         estimate D2E/DX2                !
 ! A209  A(68,69,70)           114.1676         estimate D2E/DX2                !
 ! A210  A(69,70,120)          106.8927         estimate D2E/DX2                !
 ! A211  A(69,70,121)          110.3069         estimate D2E/DX2                !
 ! A212  A(69,70,122)          114.3545         estimate D2E/DX2                !
 ! A213  A(120,70,121)         103.9442         estimate D2E/DX2                !
 ! A214  A(120,70,122)         111.5929         estimate D2E/DX2                !
 ! A215  A(121,70,122)         109.2345         estimate D2E/DX2                !
 ! D1    D(6,1,2,3)              0.2364         estimate D2E/DX2                !
 ! D2    D(6,1,2,72)           174.4456         estimate D2E/DX2                !
 ! D3    D(71,1,2,3)           177.9857         estimate D2E/DX2                !
 ! D4    D(71,1,2,72)           -7.8051         estimate D2E/DX2                !
 ! D5    D(2,1,6,5)              4.1553         estimate D2E/DX2                !
 ! D6    D(2,1,6,75)           173.9301         estimate D2E/DX2                !
 ! D7    D(71,1,6,5)          -173.5884         estimate D2E/DX2                !
 ! D8    D(71,1,6,75)           -3.8136         estimate D2E/DX2                !
 ! D9    D(1,2,3,4)             -1.8491         estimate D2E/DX2                !
 ! D10   D(1,2,3,73)           174.9641         estimate D2E/DX2                !
 ! D11   D(72,2,3,4)          -175.9248         estimate D2E/DX2                !
 ! D12   D(72,2,3,73)            0.8885         estimate D2E/DX2                !
 ! D13   D(2,3,4,5)             -0.9481         estimate D2E/DX2                !
 ! D14   D(2,3,4,7)            177.7274         estimate D2E/DX2                !
 ! D15   D(73,3,4,5)          -177.931          estimate D2E/DX2                !
 ! D16   D(73,3,4,7)             0.7445         estimate D2E/DX2                !
 ! D17   D(3,4,5,6)              5.2483         estimate D2E/DX2                !
 ! D18   D(3,4,5,74)           178.0356         estimate D2E/DX2                !
 ! D19   D(7,4,5,6)           -173.4962         estimate D2E/DX2                !
 ! D20   D(7,4,5,74)            -0.7089         estimate D2E/DX2                !
 ! D21   D(3,4,7,8)           -119.1408         estimate D2E/DX2                !
 ! D22   D(3,4,7,12)            64.7428         estimate D2E/DX2                !
 ! D23   D(5,4,7,8)             59.5396         estimate D2E/DX2                !
 ! D24   D(5,4,7,12)          -116.5768         estimate D2E/DX2                !
 ! D25   D(4,5,6,1)             -6.9878         estimate D2E/DX2                !
 ! D26   D(4,5,6,75)          -176.3421         estimate D2E/DX2                !
 ! D27   D(74,5,6,1)           179.5601         estimate D2E/DX2                !
 ! D28   D(74,5,6,75)           10.2057         estimate D2E/DX2                !
 ! D29   D(4,7,8,9)            176.2942         estimate D2E/DX2                !
 ! D30   D(4,7,8,76)             6.295          estimate D2E/DX2                !
 ! D31   D(12,7,8,9)            -7.4968         estimate D2E/DX2                !
 ! D32   D(12,7,8,76)         -177.4961         estimate D2E/DX2                !
 ! D33   D(4,7,12,11)          177.2156         estimate D2E/DX2                !
 ! D34   D(4,7,12,13)            3.6269         estimate D2E/DX2                !
 ! D35   D(8,7,12,11)            0.9959         estimate D2E/DX2                !
 ! D36   D(8,7,12,13)         -172.5928         estimate D2E/DX2                !
 ! D37   D(7,8,9,10)             7.5556         estimate D2E/DX2                !
 ! D38   D(7,8,9,77)          -175.3971         estimate D2E/DX2                !
 ! D39   D(76,8,9,10)          177.6604         estimate D2E/DX2                !
 ! D40   D(76,8,9,77)           -5.2922         estimate D2E/DX2                !
 ! D41   D(8,9,10,11)           -1.2161         estimate D2E/DX2                !
 ! D42   D(8,9,10,15)          178.9687         estimate D2E/DX2                !
 ! D43   D(77,9,10,11)        -178.5336         estimate D2E/DX2                !
 ! D44   D(77,9,10,15)           1.6511         estimate D2E/DX2                !
 ! D45   D(9,10,11,12)          -4.9248         estimate D2E/DX2                !
 ! D46   D(9,10,11,78)        -177.6566         estimate D2E/DX2                !
 ! D47   D(15,10,11,12)        174.888          estimate D2E/DX2                !
 ! D48   D(15,10,11,78)          2.1562         estimate D2E/DX2                !
 ! D49   D(9,10,15,16)         -56.1495         estimate D2E/DX2                !
 ! D50   D(9,10,15,20)         124.1273         estimate D2E/DX2                !
 ! D51   D(11,10,15,16)        124.0391         estimate D2E/DX2                !
 ! D52   D(11,10,15,20)        -55.6841         estimate D2E/DX2                !
 ! D53   D(10,11,12,7)           5.1123         estimate D2E/DX2                !
 ! D54   D(10,11,12,13)        177.9988         estimate D2E/DX2                !
 ! D55   D(78,11,12,7)         177.4627         estimate D2E/DX2                !
 ! D56   D(78,11,12,13)         -9.6508         estimate D2E/DX2                !
 ! D57   D(7,12,13,14)         174.9418         estimate D2E/DX2                !
 ! D58   D(11,12,13,14)          1.6561         estimate D2E/DX2                !
 ! D59   D(12,13,14,79)         59.8951         estimate D2E/DX2                !
 ! D60   D(12,13,14,80)        -66.1329         estimate D2E/DX2                !
 ! D61   D(12,13,14,81)       -175.1379         estimate D2E/DX2                !
 ! D62   D(10,15,16,17)        177.9797         estimate D2E/DX2                !
 ! D63   D(10,15,16,82)          3.0978         estimate D2E/DX2                !
 ! D64   D(20,15,16,17)         -2.2966         estimate D2E/DX2                !
 ! D65   D(20,15,16,82)       -177.1785         estimate D2E/DX2                !
 ! D66   D(10,15,20,19)       -178.3061         estimate D2E/DX2                !
 ! D67   D(10,15,20,85)         -3.0199         estimate D2E/DX2                !
 ! D68   D(16,15,20,19)          1.9734         estimate D2E/DX2                !
 ! D69   D(16,15,20,85)        177.2596         estimate D2E/DX2                !
 ! D70   D(15,16,17,18)          6.1485         estimate D2E/DX2                !
 ! D71   D(15,16,17,83)        179.2565         estimate D2E/DX2                !
 ! D72   D(82,16,17,18)       -178.554          estimate D2E/DX2                !
 ! D73   D(82,16,17,83)         -5.446          estimate D2E/DX2                !
 ! D74   D(16,17,18,19)         -9.4356         estimate D2E/DX2                !
 ! D75   D(16,17,18,21)       -179.3545         estimate D2E/DX2                !
 ! D76   D(83,17,18,19)        177.074          estimate D2E/DX2                !
 ! D77   D(83,17,18,21)          7.1551         estimate D2E/DX2                !
 ! D78   D(17,18,19,20)          9.7056         estimate D2E/DX2                !
 ! D79   D(17,18,19,84)       -175.7529         estimate D2E/DX2                !
 ! D80   D(21,18,19,20)        179.4256         estimate D2E/DX2                !
 ! D81   D(21,18,19,84)         -6.033          estimate D2E/DX2                !
 ! D82   D(17,18,21,22)       -121.6861         estimate D2E/DX2                !
 ! D83   D(17,18,21,26)         61.216          estimate D2E/DX2                !
 ! D84   D(19,18,21,22)         68.9924         estimate D2E/DX2                !
 ! D85   D(19,18,21,26)       -108.1055         estimate D2E/DX2                !
 ! D86   D(18,19,20,15)         -6.0272         estimate D2E/DX2                !
 ! D87   D(18,19,20,85)        179.1688         estimate D2E/DX2                !
 ! D88   D(84,19,20,15)        179.4223         estimate D2E/DX2                !
 ! D89   D(84,19,20,85)          4.6182         estimate D2E/DX2                !
 ! D90   D(18,21,22,23)        175.4137         estimate D2E/DX2                !
 ! D91   D(18,21,22,86)          8.3763         estimate D2E/DX2                !
 ! D92   D(26,21,22,23)         -7.4459         estimate D2E/DX2                !
 ! D93   D(26,21,22,86)       -174.4833         estimate D2E/DX2                !
 ! D94   D(18,21,26,25)        179.2767         estimate D2E/DX2                !
 ! D95   D(18,21,26,27)         -2.7203         estimate D2E/DX2                !
 ! D96   D(22,21,26,25)          2.4557         estimate D2E/DX2                !
 ! D97   D(22,21,26,27)       -179.5413         estimate D2E/DX2                !
 ! D98   D(21,22,23,24)          6.8127         estimate D2E/DX2                !
 ! D99   D(21,22,23,87)        177.1338         estimate D2E/DX2                !
 ! D100  D(86,22,23,24)        174.428          estimate D2E/DX2                !
 ! D101  D(86,22,23,87)        -15.2509         estimate D2E/DX2                !
 ! D102  D(22,23,24,25)         -1.4308         estimate D2E/DX2                !
 ! D103  D(22,23,24,29)        174.6083         estimate D2E/DX2                !
 ! D104  D(87,23,24,25)       -171.5734         estimate D2E/DX2                !
 ! D105  D(87,23,24,29)          4.4657         estimate D2E/DX2                !
 ! D106  D(23,24,25,26)         -3.7972         estimate D2E/DX2                !
 ! D107  D(23,24,25,88)       -179.8545         estimate D2E/DX2                !
 ! D108  D(29,24,25,26)        179.9673         estimate D2E/DX2                !
 ! D109  D(29,24,25,88)          3.91           estimate D2E/DX2                !
 ! D110  D(23,24,29,30)        124.8777         estimate D2E/DX2                !
 ! D111  D(23,24,29,34)        -49.7845         estimate D2E/DX2                !
 ! D112  D(25,24,29,30)        -59.0433         estimate D2E/DX2                !
 ! D113  D(25,24,29,34)        126.2945         estimate D2E/DX2                !
 ! D114  D(24,25,26,21)          3.2926         estimate D2E/DX2                !
 ! D115  D(24,25,26,27)       -174.7185         estimate D2E/DX2                !
 ! D116  D(88,25,26,21)        179.4366         estimate D2E/DX2                !
 ! D117  D(88,25,26,27)          1.4255         estimate D2E/DX2                !
 ! D118  D(21,26,27,28)        175.0933         estimate D2E/DX2                !
 ! D119  D(25,26,27,28)         -6.9788         estimate D2E/DX2                !
 ! D120  D(26,27,28,89)         72.3885         estimate D2E/DX2                !
 ! D121  D(26,27,28,90)       -171.662          estimate D2E/DX2                !
 ! D122  D(26,27,28,91)        -57.8216         estimate D2E/DX2                !
 ! D123  D(24,29,30,31)       -176.6951         estimate D2E/DX2                !
 ! D124  D(24,29,30,92)         -1.2606         estimate D2E/DX2                !
 ! D125  D(34,29,30,31)         -1.7925         estimate D2E/DX2                !
 ! D126  D(34,29,30,92)        173.642          estimate D2E/DX2                !
 ! D127  D(24,29,34,33)        178.0698         estimate D2E/DX2                !
 ! D128  D(24,29,34,95)         -5.0876         estimate D2E/DX2                !
 ! D129  D(30,29,34,33)          3.1167         estimate D2E/DX2                !
 ! D130  D(30,29,34,95)        179.9592         estimate D2E/DX2                !
 ! D131  D(29,30,31,32)         -0.3744         estimate D2E/DX2                !
 ! D132  D(29,30,31,93)        175.429          estimate D2E/DX2                !
 ! D133  D(92,30,31,32)       -175.9784         estimate D2E/DX2                !
 ! D134  D(92,30,31,93)         -0.1749         estimate D2E/DX2                !
 ! D135  D(30,31,32,33)          1.562          estimate D2E/DX2                !
 ! D136  D(30,31,32,35)        178.5206         estimate D2E/DX2                !
 ! D137  D(93,31,32,33)       -174.0181         estimate D2E/DX2                !
 ! D138  D(93,31,32,35)          2.9405         estimate D2E/DX2                !
 ! D139  D(31,32,33,34)         -0.4156         estimate D2E/DX2                !
 ! D140  D(31,32,33,94)        177.6715         estimate D2E/DX2                !
 ! D141  D(35,32,33,34)       -177.2353         estimate D2E/DX2                !
 ! D142  D(35,32,33,94)          0.8518         estimate D2E/DX2                !
 ! D143  D(31,32,35,36)         68.8788         estimate D2E/DX2                !
 ! D144  D(31,32,35,40)       -111.173          estimate D2E/DX2                !
 ! D145  D(33,32,35,36)       -114.2714         estimate D2E/DX2                !
 ! D146  D(33,32,35,40)         65.6768         estimate D2E/DX2                !
 ! D147  D(32,33,34,29)         -1.9919         estimate D2E/DX2                !
 ! D148  D(32,33,34,95)       -178.9234         estimate D2E/DX2                !
 ! D149  D(94,33,34,29)       -179.9726         estimate D2E/DX2                !
 ! D150  D(94,33,34,95)          3.0959         estimate D2E/DX2                !
 ! D151  D(32,35,36,37)        174.895          estimate D2E/DX2                !
 ! D152  D(32,35,36,96)          0.7967         estimate D2E/DX2                !
 ! D153  D(40,35,36,37)         -5.0501         estimate D2E/DX2                !
 ! D154  D(40,35,36,96)       -179.1484         estimate D2E/DX2                !
 ! D155  D(32,35,40,39)       -176.3812         estimate D2E/DX2                !
 ! D156  D(32,35,40,41)          3.0446         estimate D2E/DX2                !
 ! D157  D(36,35,40,39)          3.5617         estimate D2E/DX2                !
 ! D158  D(36,35,40,41)       -177.0125         estimate D2E/DX2                !
 ! D159  D(35,36,37,38)          6.0155         estimate D2E/DX2                !
 ! D160  D(35,36,37,97)       -176.5783         estimate D2E/DX2                !
 ! D161  D(96,36,37,38)       -179.319          estimate D2E/DX2                !
 ! D162  D(96,36,37,97)         -1.9128         estimate D2E/DX2                !
 ! D163  D(36,37,38,39)         -5.7607         estimate D2E/DX2                !
 ! D164  D(36,37,38,43)        179.6529         estimate D2E/DX2                !
 ! D165  D(97,37,38,39)        176.638          estimate D2E/DX2                !
 ! D166  D(97,37,38,43)          2.0516         estimate D2E/DX2                !
 ! D167  D(37,38,39,40)          4.3115         estimate D2E/DX2                !
 ! D168  D(37,38,39,98)       -175.1085         estimate D2E/DX2                !
 ! D169  D(43,38,39,40)        179.117          estimate D2E/DX2                !
 ! D170  D(43,38,39,98)         -0.303          estimate D2E/DX2                !
 ! D171  D(37,38,43,44)        121.0308         estimate D2E/DX2                !
 ! D172  D(37,38,43,48)        -56.3826         estimate D2E/DX2                !
 ! D173  D(39,38,43,44)        -53.505          estimate D2E/DX2                !
 ! D174  D(39,38,43,48)        129.0815         estimate D2E/DX2                !
 ! D175  D(38,39,40,35)         -3.1804         estimate D2E/DX2                !
 ! D176  D(38,39,40,41)        177.4082         estimate D2E/DX2                !
 ! D177  D(98,39,40,35)        176.2363         estimate D2E/DX2                !
 ! D178  D(98,39,40,41)         -3.1751         estimate D2E/DX2                !
 ! D179  D(35,40,41,42)        172.531          estimate D2E/DX2                !
 ! D180  D(39,40,41,42)         -8.0859         estimate D2E/DX2                !
 ! D181  D(40,41,42,99)        -57.8552         estimate D2E/DX2                !
 ! D182  D(40,41,42,100)        70.5253         estimate D2E/DX2                !
 ! D183  D(40,41,42,101)      -174.779          estimate D2E/DX2                !
 ! D184  D(38,43,44,45)       -178.0923         estimate D2E/DX2                !
 ! D185  D(38,43,44,102)        -1.9851         estimate D2E/DX2                !
 ! D186  D(48,43,44,45)         -0.75           estimate D2E/DX2                !
 ! D187  D(48,43,44,102)       175.3571         estimate D2E/DX2                !
 ! D188  D(38,43,48,47)       -178.299          estimate D2E/DX2                !
 ! D189  D(38,43,48,105)        -5.5749         estimate D2E/DX2                !
 ! D190  D(44,43,48,47)          4.3665         estimate D2E/DX2                !
 ! D191  D(44,43,48,105)       177.0907         estimate D2E/DX2                !
 ! D192  D(43,44,45,46)         -1.1313         estimate D2E/DX2                !
 ! D193  D(43,44,45,103)       178.4042         estimate D2E/DX2                !
 ! D194  D(102,44,45,46)      -177.3488         estimate D2E/DX2                !
 ! D195  D(102,44,45,103)        2.1867         estimate D2E/DX2                !
 ! D196  D(44,45,46,47)         -0.679          estimate D2E/DX2                !
 ! D197  D(44,45,46,49)       -176.6092         estimate D2E/DX2                !
 ! D198  D(103,45,46,47)       179.8182         estimate D2E/DX2                !
 ! D199  D(103,45,46,49)         3.888          estimate D2E/DX2                !
 ! D200  D(45,46,47,48)          4.2523         estimate D2E/DX2                !
 ! D201  D(45,46,47,104)       178.1725         estimate D2E/DX2                !
 ! D202  D(49,46,47,48)       -179.5837         estimate D2E/DX2                !
 ! D203  D(49,46,47,104)        -5.6634         estimate D2E/DX2                !
 ! D204  D(45,46,49,50)        -94.0151         estimate D2E/DX2                !
 ! D205  D(45,46,49,54)         81.4569         estimate D2E/DX2                !
 ! D206  D(47,46,49,50)         89.6816         estimate D2E/DX2                !
 ! D207  D(47,46,49,54)        -94.8464         estimate D2E/DX2                !
 ! D208  D(46,47,48,43)         -5.929          estimate D2E/DX2                !
 ! D209  D(46,47,48,105)      -178.7201         estimate D2E/DX2                !
 ! D210  D(104,47,48,43)       179.5332         estimate D2E/DX2                !
 ! D211  D(104,47,48,105)        6.7421         estimate D2E/DX2                !
 ! D212  D(46,49,50,51)        174.2206         estimate D2E/DX2                !
 ! D213  D(46,49,50,106)         1.0187         estimate D2E/DX2                !
 ! D214  D(54,49,50,51)         -1.4999         estimate D2E/DX2                !
 ! D215  D(54,49,50,106)      -174.7017         estimate D2E/DX2                !
 ! D216  D(46,49,54,53)       -175.0436         estimate D2E/DX2                !
 ! D217  D(46,49,54,55)          2.5488         estimate D2E/DX2                !
 ! D218  D(50,49,54,53)          0.2667         estimate D2E/DX2                !
 ! D219  D(50,49,54,55)        177.8591         estimate D2E/DX2                !
 ! D220  D(49,50,51,52)          5.7955         estimate D2E/DX2                !
 ! D221  D(49,50,51,107)      -179.3935         estimate D2E/DX2                !
 ! D222  D(106,50,51,52)       178.9992         estimate D2E/DX2                !
 ! D223  D(106,50,51,107)       -6.1897         estimate D2E/DX2                !
 ! D224  D(50,51,52,53)         -8.1122         estimate D2E/DX2                !
 ! D225  D(50,51,52,57)        177.2741         estimate D2E/DX2                !
 ! D226  D(107,51,52,53)       177.2629         estimate D2E/DX2                !
 ! D227  D(107,51,52,57)         2.6493         estimate D2E/DX2                !
 ! D228  D(51,52,53,54)          6.6178         estimate D2E/DX2                !
 ! D229  D(51,52,53,108)      -178.6237         estimate D2E/DX2                !
 ! D230  D(57,52,53,54)       -178.7785         estimate D2E/DX2                !
 ! D231  D(57,52,53,108)        -4.0199         estimate D2E/DX2                !
 ! D232  D(51,52,57,58)        126.2249         estimate D2E/DX2                !
 ! D233  D(51,52,57,62)        -56.1964         estimate D2E/DX2                !
 ! D234  D(53,52,57,58)        -47.9864         estimate D2E/DX2                !
 ! D235  D(53,52,57,62)        129.5924         estimate D2E/DX2                !
 ! D236  D(52,53,54,49)         -2.9823         estimate D2E/DX2                !
 ! D237  D(52,53,54,55)        179.6383         estimate D2E/DX2                !
 ! D238  D(108,53,54,49)      -177.7312         estimate D2E/DX2                !
 ! D239  D(108,53,54,55)         4.8893         estimate D2E/DX2                !
 ! D240  D(49,54,55,56)        178.994          estimate D2E/DX2                !
 ! D241  D(53,54,55,56)         -3.5019         estimate D2E/DX2                !
 ! D242  D(54,55,56,109)       -59.6252         estimate D2E/DX2                !
 ! D243  D(54,55,56,110)        61.4351         estimate D2E/DX2                !
 ! D244  D(54,55,56,111)      -174.8612         estimate D2E/DX2                !
 ! D245  D(52,57,58,59)       -179.6998         estimate D2E/DX2                !
 ! D246  D(52,57,58,112)        -3.1056         estimate D2E/DX2                !
 ! D247  D(62,57,58,59)          2.7554         estimate D2E/DX2                !
 ! D248  D(62,57,58,112)       179.3496         estimate D2E/DX2                !
 ! D249  D(52,57,62,61)       -178.1526         estimate D2E/DX2                !
 ! D250  D(52,57,62,115)         0.9602         estimate D2E/DX2                !
 ! D251  D(58,57,62,61)         -0.6349         estimate D2E/DX2                !
 ! D252  D(58,57,62,115)       178.4778         estimate D2E/DX2                !
 ! D253  D(57,58,59,60)         -2.1442         estimate D2E/DX2                !
 ! D254  D(57,58,59,113)       178.8375         estimate D2E/DX2                !
 ! D255  D(112,58,59,60)      -179.1893         estimate D2E/DX2                !
 ! D256  D(112,58,59,113)        1.7923         estimate D2E/DX2                !
 ! D257  D(58,59,60,61)         -0.568          estimate D2E/DX2                !
 ! D258  D(58,59,60,63)       -177.2135         estimate D2E/DX2                !
 ! D259  D(113,59,60,61)       178.5224         estimate D2E/DX2                !
 ! D260  D(113,59,60,63)         1.8768         estimate D2E/DX2                !
 ! D261  D(59,60,61,62)          2.5857         estimate D2E/DX2                !
 ! D262  D(59,60,61,114)       179.2712         estimate D2E/DX2                !
 ! D263  D(63,60,61,62)        179.1118         estimate D2E/DX2                !
 ! D264  D(63,60,61,114)        -4.2027         estimate D2E/DX2                !
 ! D265  D(59,60,63,64)        -66.2155         estimate D2E/DX2                !
 ! D266  D(59,60,63,68)        124.8038         estimate D2E/DX2                !
 ! D267  D(61,60,63,64)        117.1185         estimate D2E/DX2                !
 ! D268  D(61,60,63,68)        -51.8622         estimate D2E/DX2                !
 ! D269  D(60,61,62,57)         -2.0114         estimate D2E/DX2                !
 ! D270  D(60,61,62,115)       178.8813         estimate D2E/DX2                !
 ! D271  D(114,61,62,57)      -178.7927         estimate D2E/DX2                !
 ! D272  D(114,61,62,115)        2.0999         estimate D2E/DX2                !
 ! D273  D(60,63,64,65)       -179.9309         estimate D2E/DX2                !
 ! D274  D(60,63,64,116)         6.1379         estimate D2E/DX2                !
 ! D275  D(68,63,64,65)        -10.7774         estimate D2E/DX2                !
 ! D276  D(68,63,64,116)       175.2915         estimate D2E/DX2                !
 ! D277  D(60,63,68,67)        176.5344         estimate D2E/DX2                !
 ! D278  D(60,63,68,69)        -10.5418         estimate D2E/DX2                !
 ! D279  D(64,63,68,67)          7.809          estimate D2E/DX2                !
 ! D280  D(64,63,68,69)       -179.2672         estimate D2E/DX2                !
 ! D281  D(63,64,65,66)         10.1004         estimate D2E/DX2                !
 ! D282  D(63,64,65,117)      -178.8558         estimate D2E/DX2                !
 ! D283  D(116,64,65,66)      -175.9626         estimate D2E/DX2                !
 ! D284  D(116,64,65,117)       -4.9188         estimate D2E/DX2                !
 ! D285  D(64,65,66,67)         -6.2668         estimate D2E/DX2                !
 ! D286  D(64,65,66,118)       175.4923         estimate D2E/DX2                !
 ! D287  D(117,65,66,67)      -177.5331         estimate D2E/DX2                !
 ! D288  D(117,65,66,118)        4.226          estimate D2E/DX2                !
 ! D289  D(65,66,67,68)          3.4056         estimate D2E/DX2                !
 ! D290  D(65,66,67,119)      -175.3824         estimate D2E/DX2                !
 ! D291  D(118,66,67,68)      -178.3044         estimate D2E/DX2                !
 ! D292  D(118,66,67,119)        2.9076         estimate D2E/DX2                !
 ! D293  D(66,67,68,63)         -4.0563         estimate D2E/DX2                !
 ! D294  D(66,67,68,69)       -176.0235         estimate D2E/DX2                !
 ! D295  D(119,67,68,63)       174.5855         estimate D2E/DX2                !
 ! D296  D(119,67,68,69)         2.6183         estimate D2E/DX2                !
 ! D297  D(63,68,69,70)       -179.7869         estimate D2E/DX2                !
 ! D298  D(67,68,69,70)         -7.5524         estimate D2E/DX2                !
 ! D299  D(68,69,70,120)       178.6631         estimate D2E/DX2                !
 ! D300  D(68,69,70,121)        66.2729         estimate D2E/DX2                !
 ! D301  D(68,69,70,122)       -57.3061         estimate D2E/DX2                !
 --------------------------------------------------------------------------------
 Trust Radius=3.00D-01 FncErr=1.00D-07 GrdErr=1.00D-06 EigMax=2.50D+02 EigMin=1.00D-04
 Number of steps in this run=    657 maximum allowed number of steps=    732.
 GradGradGradGradGradGradGradGradGradGradGradGradGradGradGradGradGradGrad

 Leave Link  103 at Sat Jul 25 10:31:58 2020, MaxMem=  4026531840 cpu:               0.2 elap:               0.0
 (Enter /opt/ohpc/pub/libs/gaussian/g16-A.03/sandybridge/g16/l202.exe)
 Stoichiometry    C65H52O5
 Framework group  C1[X(C65H52O5)]
 Deg. of freedom   360
 Full point group                 C1      NOp   1
 Largest Abelian subgroup         C1      NOp   1
 Largest concise Abelian subgroup C1      NOp   1
                         Standard orientation:                         
 ---------------------------------------------------------------------
 Center     Atomic      Atomic             Coordinates (Angstroms)
 Number     Number       Type             X           Y           Z
[...]
  Beta virt. eigenvalues --    1.83260   1.83608   1.83723   1.83900   1.84098
  Beta virt. eigenvalues --    1.84421   1.84670   1.84823   1.84898   1.85089
  Beta virt. eigenvalues --    1.85416   1.85697   1.85978   1.86065   1.86186
  Beta virt. eigenvalues --    1.86733   1.86981   1.87093   1.87268   1.87548
  Beta virt. eigenvalues --    1.87683   1.87777   1.88115   1.88153   1.88394
  Beta virt. eigenvalues --    1.88503   1.88652   1.88933   1.89077   1.89286
  Beta virt. eigenvalues --    1.89568   1.89753   1.90076   1.90436   1.90627
  Beta virt. eigenvalues --    1.90654   1.90789   1.91001   1.91170   1.91277
  Beta virt. eigenvalues --    1.91578   1.91756   1.91923   1.92079   1.92177
  Beta virt. eigenvalues --    1.92400   1.92499   1.92594   1.93095   1.93165
  Beta virt. eigenvalues --    1.93243   1.93576   1.94177   1.94183   1.94552
  Beta virt. eigenvalues --    1.95001   1.95205   1.95468   1.95588   1.95821
  Beta virt. eigenvalues --    1.96075   1.96251   1.96647   1.96973   1.97386
  Beta virt. eigenvalues --    1.97550   1.98138   1.98160   1.98802   1.99079
  Beta virt. eigenvalues --    1.99282   1.99796   1.99865   2.00308   2.00614
  Beta virt. eigenvalues --    2.00696   2.00788   2.00888   2.01277   2.01587
  Beta virt. eigenvalues --    2.01695   2.02103   2.02244   2.02487   2.02638
  Beta virt. eigenvalues --    2.02780   2.02957   2.03106   2.03430   2.03651
  Beta virt. eigenvalues --    2.03961   2.04159   2.04606   2.04624   2.04967
  Beta virt. eigenvalues --    2.05026   2.05269   2.05505   2.05681   2.06087
  Beta virt. eigenvalues --    2.06384   2.06671   2.06832   2.07235   2.07332
  Beta virt. eigenvalues --    2.07768   2.08062   2.08350   2.08637   2.09101
  Beta virt. eigenvalues --    2.09219   2.09513   2.09632   2.09852   2.10143
  Beta virt. eigenvalues --    2.10297   2.10516   2.11165   2.11434   2.11833
  Beta virt. eigenvalues --    2.12029   2.12264   2.12623   2.13359   2.13369
  Beta virt. eigenvalues --    2.13702   2.13956   2.14147   2.14240   2.14306
  Beta virt. eigenvalues --    2.14522   2.14773   2.14887   2.15125   2.15238
  Beta virt. eigenvalues --    2.15533   2.15777   2.15998   2.16295   2.17356
  Beta virt. eigenvalues --    2.18088   2.18223   2.18795   2.19412   2.19504
  Beta virt. eigenvalues --    2.19711   2.20114   2.20258   2.20368   2.20501
  Beta virt. eigenvalues --    2.20715   2.20757   2.21242   2.21511   2.21653
  Beta virt. eigenvalues --    2.22807   2.23490   2.24092   2.24151   2.25458
  Beta virt. eigenvalues --    2.25510   2.25656   2.25976   2.26830   2.27824
  Beta virt. eigenvalues --    2.28135   2.28588   2.28865   2.29208   2.29770
  Beta virt. eigenvalues --    2.30141   2.30630   2.31734   2.31869   2.32031
  Beta virt. eigenvalues --    2.32225   2.32520   2.33476   2.33667   2.34298
  Beta virt. eigenvalues --    2.34602   2.34872   2.35198   2.35669   2.36110
  Beta virt. eigenvalues --    2.37108   2.37168   2.38322   2.38651   2.38715
  Beta virt. eigenvalues --    2.39277   2.39644   2.39800   2.40221   2.40678
  Beta virt. eigenvalues --    2.40864   2.41203   2.41969   2.43049   2.43730
  Beta virt. eigenvalues --    2.43842   2.44211   2.44948   2.45177   2.45415
  Beta virt. eigenvalues --    2.46110   2.46664   2.48350   2.50016   2.50678
  Beta virt. eigenvalues --    2.51497   2.52107   2.53776   2.54001   2.54066
  Beta virt. eigenvalues --    2.54266   2.54549   2.54643   2.54715   2.54797
  Beta virt. eigenvalues --    2.54973   2.55244   2.56178   2.56797   2.57373
  Beta virt. eigenvalues --    2.57888   2.58059   2.58432   2.58708   2.59608
  Beta virt. eigenvalues --    2.60029   2.60307   2.60372   2.60462   2.60613
  Beta virt. eigenvalues --    2.60670   2.60851   2.61087   2.61242   2.61348
  Beta virt. eigenvalues --    2.62460   2.62591   2.62869   2.63069   2.63248
  Beta virt. eigenvalues --    2.63595   2.63903   2.64072   2.64991   2.66334
  Beta virt. eigenvalues --    2.66479   2.66711   2.66903   2.66995   2.68487
  Beta virt. eigenvalues --    2.69001   2.70084   2.71570   2.74967   2.76503
  Beta virt. eigenvalues --    2.78724   2.80670   2.80831   2.81084   2.81411
  Beta virt. eigenvalues --    2.81634   2.82534   2.82847   2.83064   2.83917
  Beta virt. eigenvalues --    2.84067   2.84183   2.84442   2.84808   2.85027
  Beta virt. eigenvalues --    2.85300   2.85387   2.86780   2.87261   2.88422
  Beta virt. eigenvalues --    2.88610   2.89099   2.89653   2.90834   2.91090
  Beta virt. eigenvalues --    2.92114   2.92684   2.93769   2.94162   2.94992
  Beta virt. eigenvalues --    2.95141   2.95534   2.95989   2.96366   2.97611
  Beta virt. eigenvalues --    2.98436   2.98992   2.99908   3.01307   3.02789
  Beta virt. eigenvalues --    3.03956   3.04173   3.04339   3.04592   3.05736
  Beta virt. eigenvalues --    3.06407   3.06505   3.06837   3.07257   3.10575
  Beta virt. eigenvalues --    3.13317   3.14105   3.14965   3.15534   3.18909
  Beta virt. eigenvalues --    3.19192   3.19372   3.19582   3.19829   3.21214
  Beta virt. eigenvalues --    3.21854   3.22030   3.22102   3.22193   3.41841
  Beta virt. eigenvalues --    3.42431   3.42997   3.43626   3.46372   3.56957
  Beta virt. eigenvalues --    3.57319   3.57443   3.57637   3.58076   3.62283
  Beta virt. eigenvalues --    3.63320   3.65053   3.67115   3.71925   3.76175
  Beta virt. eigenvalues --    3.78877   3.81233   3.82812   3.83280
          Condensed to atoms (all electrons):
          Atomic-Atomic Spin Densities.
 Mulliken charges and spin densities:
               1          2
     1  C   -0.016710  -0.000000
     2  C   -0.006835   0.000000
     3  C    0.016244   0.000000
     4  C   -0.012158   0.000000
     5  C   -0.016235   0.000000
     6  C   -0.004664  -0.000000
     7  C   -0.049717   0.000000
     8  C    0.018406   0.000000
     9  C   -0.017848   0.000000
    10  C   -0.006335   0.000000
    11  C   -0.056100  -0.000000
    12  C    0.123717  -0.000000
    13  O   -0.261476   0.000000
    14  C    0.034886  -0.000000
    15  C   -0.013894  -0.000000
    16  C   -0.010157   0.000000
    17  C    0.030444   0.000000
    18  C   -0.005040  -0.000000
    19  C   -0.003011   0.000000
    20  C   -0.011819  -0.000000
    21  C   -0.050684   0.000000
    22  C    0.016121   0.000000
    23  C   -0.017371  -0.000000
    24  C   -0.005949   0.000000
    25  C   -0.055140  -0.000000
    26  C    0.123164   0.000000
    27  O   -0.262379   0.000000
    28  C    0.034764  -0.000000
    29  C   -0.013928   0.000000
    30  C   -0.011960  -0.000000
    31  C   -0.002977  -0.000000
    32  C   -0.004904   0.000000
    33  C    0.030619  -0.000000
    34  C   -0.010214  -0.000000
    35  C   -0.050681  -0.000000
    36  C    0.016156  -0.000000
    37  C   -0.017148   0.000000
    38  C   -0.005981   0.000000
    39  C   -0.055316  -0.000000
    40  C    0.123033   0.000000
    41  O   -0.262508  -0.000000
    42  C    0.034768   0.000000
    43  C   -0.014045  -0.000000
    44  C   -0.012961   0.000000
    45  C    0.030683  -0.000000
    46  C   -0.004943   0.000000
    47  C   -0.003086  -0.000000
    48  C   -0.008946   0.000000
    49  C   -0.050812   0.000000
    50  C    0.016103  -0.000000
    51  C   -0.016646  -0.000000
    52  C   -0.006097   0.000000
    53  C   -0.055137  -0.000000
    54  C    0.122686  -0.000000
    55  O   -0.262991   0.000000
    56  C    0.034916   0.000000
    57  C   -0.016840  -0.000000
    58  C   -0.011284   0.000000
    59  C   -0.000230   0.000000
    60  C   -0.007186   0.000000
    61  C    0.033508   0.000000
    62  C   -0.009888  -0.000000
    63  C   -0.059165  -0.000000
    64  C    0.004546   0.000000
    65  C   -0.009097   0.000000
    66  C   -0.001692  -0.000000
    67  C   -0.066671   0.000000
    68  C    0.112991  -0.000000
    69  O   -0.260826   0.000000
    70  C    0.032277  -0.000000
    71  H    0.012455  -0.000000
    72  H    0.013077   0.000000
    73  H    0.004875  -0.000000
    74  H    0.007416  -0.000000
    75  H    0.013684  -0.000000
    76  H    0.009031  -0.000000
    77  H    0.004589  -0.000000
    78  H    0.010608  -0.000000
    79  H    0.051584  -0.000000
    80  H    0.056795   0.000000
    81  H    0.068151   0.000000
    82  H    0.007846   0.000000
    83  H    0.005783  -0.000000
    84  H    0.008069   0.000000
    85  H    0.006312   0.000000
    86  H    0.008153   0.000000
    87  H    0.004657  -0.000000
    88  H    0.011145  -0.000000
    89  H    0.052039  -0.000000
    90  H    0.068510   0.000000
    91  H    0.057335   0.000000
    92  H    0.006462   0.000000
    93  H    0.008322  -0.000000
    94  H    0.005893   0.000000
    95  H    0.007822   0.000000
    96  H    0.008424   0.000000
    97  H    0.004325   0.000000
    98  H    0.011930  -0.000000
    99  H    0.057318  -0.000000
   100  H    0.052085   0.000000
   101  H    0.068286  -0.000000
   102  H    0.005842   0.000000
   103  H    0.005363   0.000000
   104  H    0.008880   0.000000
   105  H    0.008478  -0.000000
   106  H    0.009699  -0.000000
   107  H    0.005196  -0.000000
   108  H    0.011774  -0.000000
   109  H    0.057551  -0.000000
   110  H    0.052351  -0.000000
   111  H    0.067358   0.000000
   112  H    0.006434   0.000000
   113  H    0.008386   0.000000
   114  H    0.006372  -0.000000
   115  H    0.008333   0.000000
   116  H    0.010440  -0.000000
   117  H    0.011684  -0.000000
   118  H    0.015480   0.000000
   119  H    0.017607   0.000000
   120  H    0.069460   0.000000
   121  H    0.054549   0.000000
   122  H    0.053434   0.000000
 Sum of Mulliken charges =  -0.00000  -0.00000
 Mulliken charges and spin densities with hydrogens summed into heavy atoms:
               1          2
     1  C   -0.004255  -0.000000
     2  C    0.006243   0.000000
     3  C    0.021119   0.000000
     4  C   -0.012158   0.000000
     5  C   -0.008820   0.000000
     6  C    0.009020  -0.000000
     7  C   -0.049717   0.000000
     8  C    0.027437   0.000000
     9  C   -0.013259   0.000000
    10  C   -0.006335   0.000000
    11  C   -0.045493  -0.000000
    12  C    0.123717  -0.000000
    13  O   -0.261476   0.000000
    14  C    0.211416  -0.000000
    15  C   -0.013894  -0.000000
    16  C   -0.002311   0.000000
    17  C    0.036227   0.000000
    18  C   -0.005040  -0.000000
    19  C    0.005059   0.000000
    20  C   -0.005507   0.000000
    21  C   -0.050684   0.000000
    22  C    0.024273   0.000000
    23  C   -0.012714  -0.000000
    24  C   -0.005949   0.000000
    25  C   -0.043995  -0.000000
    26  C    0.123164   0.000000
    27  O   -0.262379   0.000000
    28  C    0.212648   0.000000
    29  C   -0.013928   0.000000
    30  C   -0.005498  -0.000000
    31  C    0.005345  -0.000000
    32  C   -0.004904   0.000000
    33  C    0.036511  -0.000000
    34  C   -0.002392  -0.000000
    35  C   -0.050681  -0.000000
    36  C    0.024580  -0.000000
    37  C   -0.012823   0.000000
    38  C   -0.005981   0.000000
    39  C   -0.043385  -0.000000
    40  C    0.123033   0.000000
    41  O   -0.262508  -0.000000
    42  C    0.212456   0.000000
    43  C   -0.014045  -0.000000
    44  C   -0.007119   0.000000
    45  C    0.036047  -0.000000
    46  C   -0.004943   0.000000
    47  C    0.005795  -0.000000
    48  C   -0.000469   0.000000
    49  C   -0.050812   0.000000
    50  C    0.025802  -0.000000
    51  C   -0.011450  -0.000000
    52  C   -0.006097   0.000000
    53  C   -0.043363  -0.000000
    54  C    0.122686  -0.000000
    55  O   -0.262991   0.000000
    56  C    0.212175  -0.000000
    57  C   -0.016840  -0.000000
    58  C   -0.004851   0.000000
    59  C    0.008156   0.000000
    60  C   -0.007186   0.000000
    61  C    0.039880   0.000000
    62  C   -0.001555  -0.000000
    63  C   -0.059165  -0.000000
    64  C    0.014986   0.000000
    65  C    0.002588   0.000000
    66  C    0.013788  -0.000000
    67  C   -0.049064   0.000000
    68  C    0.112991  -0.000000
    69  O   -0.260826   0.000000
    70  C    0.209720  -0.000000
 Electronic spatial extent (au):  <R**2>=         270720.1151
 Charge=             -0.0000 electrons
 Dipole moment (field-independent basis, Debye):
    X=              6.0990    Y=              1.8683    Z=              1.8042  Tot=              6.6290
 Quadrupole moment (field-independent basis, Debye-Ang):
   XX=           -348.3040   YY=           -348.0821   ZZ=           -400.2082
   XY=             -5.4150   XZ=             28.4900   YZ=             -8.8270
 Traceless Quadrupole moment (field-independent basis, Debye-Ang):
   XX=             17.2275   YY=             17.4493   ZZ=            -34.6768
   XY=             -5.4150   XZ=             28.4900   YZ=             -8.8270
 Octapole moment (field-independent basis, Debye-Ang**2):
  XXX=           2626.8964  YYY=             63.8539  ZZZ=             39.7980  XYY=            -88.8433
  XXY=            168.5250  XXZ=            502.9808  XZZ=            157.0082  YZZ=              9.2167
  YYZ=             31.3249  XYZ=              4.5909
 Hexadecapole moment (field-independent basis, Debye-Ang**3):
 XXXX=        -324515.3410 YYYY=          -4671.0507 ZZZZ=          -1792.0411 XXXY=          -6401.3788
 XXXZ=           9228.0716 YYYX=            111.2273 YYYZ=             90.5578 ZZZX=            577.0322
 ZZZY=            -42.8860 XXYY=         -57485.9146 XXZZ=         -59679.7651 YYZZ=          -1125.8472
 XXYZ=          -3328.5268 YYXZ=            277.7145 ZZXY=            -96.0725
 N-N= 7.970853263465D+03 E-N=-2.264094750740D+04  KE= 2.863320828123D+03
 Leave Link  601 at Sat Jul 25 15:29:12 2020, MaxMem=  4026531840 cpu:               9.7 elap:               1.3
 (Enter /opt/ohpc/pub/libs/gaussian/g16-A.03/sandybridge/g16/l9999.exe)

 Test job not archived.
 1\1\GINC-SKYLAKE034\FOpt\ULC-wPBE\CC-pVDZ\C65H52O5\RDU230\25-Jul-2020\
 0\\#P uLC-wPBE/cc-pVDZ iop(3/107=0480700000, 3/108=0480700000) opt\\H5
 2 C65 O5\\0,1\C,-20.9237530835,-0.4464228973,-0.0000104771\C,-20.26721
 10183,0.4237919821,-0.8569439727\C,-18.8858102967,0.4984923995,-0.8541
 15407\C,-18.1329769069,-0.3015904788,0.0016588403\C,-18.8024252637,-1.
 1697313939,0.858314578\C,-20.1861782462,-1.2423926096,0.8595089358\C,-
 16.6495842256,-0.2796188887,-0.015231975\C,-15.9371660955,-1.465841553
 7,-0.0892411532\C,-14.55145093,-1.4955565049,-0.0924591074\C,-13.83528
 81943,-0.3112187933,-0.0198266939\C,-14.5339159007,0.8927775238,0.0575
 224868\C,-15.91985018,0.9162515423,0.0594615656\O,-16.6411986479,2.055
 6578746,0.1487277556\C,-15.959845626,3.2721770411,0.2864108882\C,-12.3
 53701392,-0.312959698,-0.0263155863\C,-11.6368600933,-1.2489699396,0.7
 147426609\C,-10.2551507259,-1.2583050428,0.7087654313\C,-9.537387664,-
 0.3265951511,-0.0362608712\C,-10.2533962648,0.6061978561,-0.7790837073
 \C,-11.6373374231,0.6140535457,-0.7748890543\C,-8.055497139,-0.2805116
 78,-0.0188956636\C,-7.3995203379,0.9236618896,0.1822739113\C,-6.017011
 3245,1.0190773665,0.1884667237\C,-5.2456790328,-0.1150347815,-0.011531
 7572\C,-5.8867254238,-1.3358132125,-0.2169029027\C,-7.2699850107,-1.42
 54086088,-0.2208506626\O,-7.9364822295,-2.581932472,-0.4314604185\C,-7
 .1988341148,-3.7423940625,-0.7017577414\C,-3.7658994693,-0.0423452993,
 -0.0073345803\C,-3.0002865212,-1.009035026,0.6346553725\C,-1.618295626
 1,-0.9344294609,0.6364185031\C,-0.9535980231,0.1068754237,-0.002642727
 6\C,-1.720906156,1.0778019767,-0.6405245878\C,-3.1005203516,1.00210354
 48,-0.6441994956\C,0.5285953157,0.1350416955,-0.0292418291\C,1.2399981
 728,-1.0070573057,-0.3613868763\C,2.625395369,-1.0332827125,-0.3835526
 761\C,3.3428508935,0.1093255414,-0.0659700598\C,2.6455821788,1.2680458
 185,0.2725238037\C,1.2597389125,1.2886732879,0.291931034\O,0.540121660
 7,2.3817741596,0.6289861241\C,1.2235443159,3.5417553706,1.0177600756\C
 ,4.8243000818,0.1106816671,-0.0848228164\C,5.5358074823,1.1803038429,-
 0.6222980235\C,6.9175231365,1.1829963437,-0.6395027017\C,7.6402507231,
 0.1109981944,-0.1231843259\C,6.9294123564,-0.9562906711,0.4157585648\C
 ,5.5456887851,-0.958026829,0.4349436317\C,9.1212256429,0.0632496641,-0
 .1780502283\C,9.7629026924,-1.0739271797,-0.6428329596\C,11.1441648151
 ,-1.1720225936,-0.6968887161\C,11.9287531017,-0.1093743731,-0.27709502
 25\C,11.3023355675,1.0428739767,0.195475639\C,9.9202429712,1.135674926
 5,0.2462637726\O,9.2680745092,2.2244799346,0.71118864\C,10.0217574475,
 3.2991731327,1.2018790359\C,13.4075881843,-0.185383098,-0.3277751734\C
 ,14.1676102834,0.8911711034,-0.7703515344\C,15.5486549118,0.8129127719
 ,-0.8192047862\C,16.2171956082,-0.3405084468,-0.4239621447\C,15.456260
 3027,-1.4161103499,0.025353416\C,14.077235908,-1.3405989154,0.06743411
 7\C,17.6950566722,-0.4157514207,-0.5317113041\C,18.3226517872,-0.03360
 63121,-1.7073589594\C,19.7024637091,-0.0726109553,-1.8488638821\C,20.4
 729357509,-0.5022838022,-0.7878879807\C,19.8752214844,-0.8904313374,0.
 4032434674\C,18.4945759467,-0.8512539414,0.5362985403\O,17.8450948559,
 -1.2074293483,1.6667695537\C,18.6027555199,-1.5939024628,2.7803386896\
 H,-22.0106255912,-0.501610663,-0.0018725076\H,-20.8386891176,1.0517056
 741,-1.5380082633\H,-18.3775034849,1.1843921804,-1.5265520729\H,-18.22
 75206192,-1.788470835,1.5453877669\H,-20.6904031484,-1.9242840044,1.54
 16698734\H,-16.4926865459,-2.3986663449,-0.1686368983\H,-14.0282809703
 ,-2.4447493953,-0.1815158565\H,-13.9706859378,1.8169025987,0.145198419
 1\H,-15.3239162606,3.48325912,-0.5842135163\H,-15.3434508423,3.2901218
 4,1.1952877049\H,-16.7271855956,4.0458968993,0.3618424134\H,-12.174394
 8638,-1.9711988924,1.3264727113\H,-9.7194415511,-1.9955721949,1.300418
 8996\H,-9.7149661435,1.3277632467,-1.3911692696\H,-12.1710428005,1.338
 0309264,-1.3880836509\H,-7.9979148507,1.8151128434,0.3619443206\H,-5.5
 390063373,1.9770926058,0.3789290153\H,-5.2807964686,-2.2172347757,-0.4
 035348278\H,-6.5483351553,-4.0162356186,0.1400787841\H,-7.9290261628,-
 4.5390807982,-0.8604619739\H,-6.5881329716,-3.6314209573,-1.6078041297
 \H,-3.4938370421,-1.82028613,1.1668930812\H,-1.0412082367,-1.691074920
 3,1.1652458811\H,-1.2256999837,1.8997800084,-1.1501409756\H,-3.6767083
 32,1.75921498,-1.1729423022\H,0.6837640496,-1.902286431,-0.6337904387\
 H,3.1472507581,-1.940734426,-0.6781464\H,3.2101385272,2.1528731137,0.5
 504033745\H,1.8477107469,3.3654407736,1.9040633227\H,1.8519046165,3.93
 47355866,0.2068606321\H,0.4573616304,4.2804220088,1.2635988463\H,4.994
 6451763,2.0178149551,-1.0591687817\H,7.4490199198,2.026776171,-1.07090
 90841\H,7.4723089333,-1.7947924544,0.848585181\H,5.0157666674,-1.79509
 53096,0.8856506634\H,9.1536379634,-1.9042788841,-0.9954169476\H,11.610
 0579347,-2.0702112518,-1.0953699521\H,11.9195116873,1.8616783811,0.552
 5506043\H,10.6485782691,2.9988391975,2.0522279859\H,10.6587656657,3.73
 89331209,0.4223769745\H,9.302444534,4.0493536468,1.5379851993\H,13.670
 2559557,1.8012809191,-1.1010144639\H,16.1226645394,1.6703989467,-1.166
 3105366\H,15.955908017,-2.3247162879,0.3501721224\H,13.5052933516,-2.1
 91328676,0.4333664718\H,17.7031698045,0.2907055306,-2.5418090855\H,20.
 1653981319,0.2270651713,-2.785955854\H,21.5568908143,-0.5423743511,-0.
 8757338832\H,20.4995122623,-1.2210829808,1.2276608428\H,17.8877981826,
 -1.8093844477,3.577553364\H,19.2748860317,-0.7903602748,3.1105756237\H
 ,19.1937007255,-2.4973449302,2.5766733765\\Version=EM64L-G16RevA.03\St
 ate=1-A\HF=-2882.5070319\S2=0.\S2-1=0.\S2A=0.\RMSD=4.931e-09\RMSF=7.90
 3e-06\Dipole=2.3999092,0.720457,0.7234149\Quadrupole=12.7759812,13.192
 6455,-25.9686267,-4.3788157,21.1255182,-5.9302694\PG=C01 [X(C65H52O5)]
 \\@


 WISDOM IS KNOWING WHAT TO DO,
 SKILL IS KNOWING HOW TO DO IT,
 AND VIRTUE IS NOT DOING IT.
 Job cpu time:       1 days 15 hours  4 minutes 14.6 seconds.
 Elapsed time:       0 days  4 hours 57 minutes 12.7 seconds.
 File lengths (MBytes):  RWF=   1732 Int=      0 D2E=      0 Chk=    156 Scr=      8
 Normal termination of Gaussian 16 at Sat Jul 25 15:29:12 2020.
