 Entering Gaussian System, Link 0=g16
 Input=mols_55_5_02_C-N_opt_0.gjf
 Output=mols_55_5_02_C-N_opt_0.log
 Initial command:
 /opt/ohpc/pub/libs/gaussian/g16-A.03/sandybridge/g16/l1.exe "/mnt/gpfs2_4m/scratch/rdu230/ondemand/projects/dihedral_energies/7trial/wtuning/mols_55_5_02_C-N/Gau-152218.inp" -scrdir="/mnt/gpfs2_4m/scratch/rdu230/ondemand/projects/dihedral_energies/7trial/wtuning/mols_55_5_02_C-N/"
 Entering Link 1 = /opt/ohpc/pub/libs/gaussian/g16-A.03/sandybridge/g16/l1.exe PID=    152219.
  
 Copyright (c) 1988,1990,1992,1993,1995,1998,2003,2009,2016,
            Gaussian, Inc.  All Rights Reserved.
  
 This is part of the Gaussian(R) 16 program.  It is based on
 the Gaussian(R) 09 system (copyright 2009, Gaussian, Inc.),
 the Gaussian(R) 03 system (copyright 2003, Gaussian, Inc.),
 the Gaussian(R) 98 system (copyright 1998, Gaussian, Inc.),
 the Gaussian(R) 94 system (copyright 1995, Gaussian, Inc.),
 the Gaussian 92(TM) system (copyright 1992, Gaussian, Inc.),
 the Gaussian 90(TM) system (copyright 1990, Gaussian, Inc.),
 the Gaussian 88(TM) system (copyright 1988, Gaussian, Inc.),
 the Gaussian 86(TM) system (copyright 1986, Carnegie Mellon
 University), and the Gaussian 82(TM) system (copyright 1983,
 Carnegie Mellon University). Gaussian is a federally registered
 trademark of Gaussian, Inc.
  
 This software contains proprietary and confidential information,
 including trade secrets, belonging to Gaussian, Inc.
  
 This software is provided under written license and may be
 used, copied, transmitted, or stored only in accord with that
 written license.
  
 The following legend is applicable only to US Government
 contracts under FAR:
  
                    RESTRICTED RIGHTS LEGEND
  
 Use, reproduction and disclosure by the US Government is
 subject to restrictions as set forth in subparagraphs (a)
 and (c) of the Commercial Computer Software - Restricted
 Rights clause in FAR 52.227-19.
  
 Gaussian, Inc.
 340 Quinnipiac St., Bldg. 40, Wallingford CT 06492
  
  
 ---------------------------------------------------------------
 Warning -- This program may not be used in any manner that
 competes with the business of Gaussian, Inc. or will provide
 assistance to any competitor of Gaussian, Inc.  The licensee
 of this program is prohibited from giving any competitor of
 Gaussian, Inc. access to this program.  By using this program,
 the user acknowledges that Gaussian, Inc. is engaged in the
 business of creating and licensing software in the field of
 computational chemistry and represents and warrants to the
 licensee that it is not a competitor of Gaussian, Inc. and that
 it will not use this program in any manner prohibited above.
 ---------------------------------------------------------------
  

 Cite this work as:
 Gaussian 16, Revision A.03,
 M. J. Frisch, G. W. Trucks, H. B. Schlegel, G. E. Scuseria, 
 M. A. Robb, J. R. Cheeseman, G. Scalmani, V. Barone, 
 G. A. Petersson, H. Nakatsuji, X. Li, M. Caricato, A. V. Marenich, 
 J. Bloino, B. G. Janesko, R. Gomperts, B. Mennucci, H. P. Hratchian, 
 J. V. Ortiz, A. F. Izmaylov, J. L. Sonnenberg, D. Williams-Young, 
 F. Ding, F. Lipparini, F. Egidi, J. Goings, B. Peng, A. Petrone, 
 T. Henderson, D. Ranasinghe, V. G. Zakrzewski, J. Gao, N. Rega, 
 G. Zheng, W. Liang, M. Hada, M. Ehara, K. Toyota, R. Fukuda, 
 J. Hasegawa, M. Ishida, T. Nakajima, Y. Honda, O. Kitao, H. Nakai, 
 T. Vreven, K. Throssell, J. A. Montgomery, Jr., J. E. Peralta, 
 F. Ogliaro, M. J. Bearpark, J. J. Heyd, E. N. Brothers, K. N. Kudin, 
 V. N. Staroverov, T. A. Keith, R. Kobayashi, J. Normand, 
 K. Raghavachari, A. P. Rendell, J. C. Burant, S. S. Iyengar, 
 J. Tomasi, M. Cossi, J. M. Millam, M. Klene, C. Adamo, R. Cammi, 
 J. W. Ochterski, R. L. Martin, K. Morokuma, O. Farkas, 
 J. B. Foresman, and D. J. Fox, Gaussian, Inc., Wallingford CT, 2016.
 
 ******************************************
 Gaussian 16:  EM64L-G16RevA.03 25-Dec-2016
                24-Jul-2020 
 ******************************************
 %mem=30GB
 %nproc=8
 Will use up to    8 processors via shared memory.
 ---------------------------------------------------------------
 #P uLC-wPBE/cc-pVDZ iop(3/107=0062500000, 3/108=0062500000) opt
 ---------------------------------------------------------------
 1/18=20,19=15,26=3,38=1/1,3;
 2/9=110,12=2,17=6,18=5,40=1/2;
 3/5=16,11=2,25=1,30=1,71=1,74=-41,107=62500000,108=62500000,116=2/1,2,3;
 4//1;
 5/5=2,38=5/2;
 6/7=2,8=2,9=2,10=2,28=1/1;
 7//1,2,3,16;
 1/18=20,19=15,26=3/3(2);
 2/9=110/2;
 99//99;
 2/9=110/2;
 3/5=16,11=2,25=1,30=1,71=1,74=-41,107=62500000,108=62500000,116=2/1,2,3;
 4/5=5,16=3,69=1/1;
 5/5=2,38=5/2;
 7//1,2,3,16;
 1/18=20,19=15,26=3/3(-5);
 2/9=110/2;
 6/7=2,8=2,9=2,10=2,19=2,28=1/1;
 99/9=1/99;
 Leave Link    1 at Fri Jul 24 02:57:10 2020, MaxMem=  4026531840 cpu:               2.1 elap:               0.3
 (Enter /opt/ohpc/pub/libs/gaussian/g16-A.03/sandybridge/g16/l101.exe)
 --------------
 H17 C35 S10 N5
 --------------
 Symbolic Z-matrix:
 Charge =  0 Multiplicity = 1
 C                    -18.26626  -1.44578   0.00984 
 C                    -18.24324  -0.12981   0.03925 
 C                    -16.91868   0.36578  -0.00592 
 C                    -15.96114  -0.71399   0.05252 
 S                    -16.73537  -2.1782    0.00124 
 C                    -14.48212  -0.64339   0.04479 
 N                    -13.71334  -1.7227    0.02847 
 C                    -12.4456  -1.29148   0.00679 
 C                    -12.16923   0.03096  -0.0261 
 S                    -13.69571   0.86478  -0.0254 
 C                    -10.88727   0.72527  -0.0419 
 C                    -10.64375   2.06204  -0.02419 
 C                    -9.28887   2.4069    0.00942 
 C                    -8.41794   1.32613   0.03579 
 S                    -9.34264  -0.09836   0.02274 
 C                    -6.9691    1.36373  -0.03286 
 N                    -6.34286   2.4494   -0.06012 
 C                    -4.93633   2.19462  -0.05484 
 C                    -4.59745   0.8774    0.03544 
 S                    -6.03821  -0.05389   0.02305 
 C                    -3.24084   0.2729   -0.04652 
 C                    -2.86987  -1.06384  -0.03294 
 C                    -1.45005  -1.2017   -0.03374 
 C                    -0.79476  -0.08913  -0.00825 
 S                    -1.90613   1.29503  -0.01113 
 C                     0.6993    0.14693   0.00199 
 N                     1.1868    1.34774  -0.05417 
 C                     2.57253   1.27978  -0.03549 
 C                     3.07079  -0.04219   0.03311 
 S                     1.80088  -1.18302   0.00469 
 C                     4.46132  -0.51015   0.02635 
 C                     5.01083  -1.76043  -0.02578 
 C                     6.3415   -1.82618  -0.0055 
 C                     7.00573  -0.54724  -0.03677 
 S                     5.79478   0.60582  -0.0134 
 C                     8.41012  -0.22363  -0.04392 
 N                     8.85124   1.0332    0.02184 
 C                     10.23063   1.02993  -0.01629 
 C                     10.85855  -0.20921  -0.03579 
 S                     9.60667  -1.3956   -0.05902 
 C                     12.1952  -0.47291  -0.01361 
 C                     12.89551  -1.6981    0.00529 
 C                     14.25646  -1.65939  -0.02071 
 C                     14.76811  -0.27743   0.02388 
 S                     13.41606   0.8031    0.06556 
 C                     16.08432   0.17726   0.06433 
 N                     16.39947   1.49888   0.02994 
 C                     17.74724   1.5907    0.07993 
 C                     18.52847   0.41936   0.05504 
 S                     17.48071  -0.90589  -0.04297 
 H                    -19.1786  -2.0521    0.01013 
 H                    -19.05449   0.54973   0.01598 
 H                    -16.63237   1.36553  -0.0463 
 H                    -11.6548  -2.06206  -0.00075 
 H                    -11.47022   2.85871  -0.03215 
 H                    -8.81754   3.46201  -0.01096 
 H                    -4.26914   3.07573  -0.06218 
 H                    -3.57752  -1.83178   0.0095 
 H                    -0.98804  -2.23615  -0.03104 
 H                     3.15207   2.19317   0.01459 
 H                     4.30908  -2.61726  -0.03163 
 H                     6.93809  -2.80571  -0.02406 
 H                     10.65845   2.02206  -0.0227 
 H                     12.37375  -2.65057  -0.07873 
 H                     14.97819  -2.49036  -0.01023 
 H                     18.16134   2.61029   0.11938 
 H                     19.6095   0.38875   0.00724 
 
 ITRead=  0  0  0  0  0  0  0  0  0  0  0  0  0  0  0  0  0  0  0  0
 ITRead=  0  0  0  0  0  0  0  0  0  0  0  0  0  0  0  0  0  0  0  0
 ITRead=  0  0  0  0  0  0  0  0  0  0  0  0  0  0  0  0  0  0  0  0
 ITRead=  0  0  0  0  0  0  0
 MicOpt= -1 -1 -1 -1 -1 -1 -1 -1 -1 -1 -1 -1 -1 -1 -1 -1 -1 -1 -1 -1
 MicOpt= -1 -1 -1 -1 -1 -1 -1 -1 -1 -1 -1 -1 -1 -1 -1 -1 -1 -1 -1 -1
 MicOpt= -1 -1 -1 -1 -1 -1 -1 -1 -1 -1 -1 -1 -1 -1 -1 -1 -1 -1 -1 -1
 MicOpt= -1 -1 -1 -1 -1 -1 -1
 NAtoms=     67 NQM=       67 NQMF=       0 NMMI=      0 NMMIF=      0
                NMic=       0 NMicF=      0.
                    Isotopes and Nuclear Properties:
 (Nuclear quadrupole moments (NQMom) in fm**2, nuclear magnetic moments (NMagM)
  in nuclear magnetons)

  Atom         1           2           3           4           5           6           7           8           9          10
 IAtWgt=          12          12          12          12          32          12          14          12          12          32
 AtmWgt=  12.0000000  12.0000000  12.0000000  12.0000000  31.9720718  12.0000000  14.0030740  12.0000000  12.0000000  31.9720718
 NucSpn=           0           0           0           0           0           0           2           0           0           0
 AtZEff=  -0.0000000  -0.0000000  -0.0000000  -0.0000000  -0.0000000  -0.0000000  -0.0000000  -0.0000000  -0.0000000  -0.0000000
 NQMom=    0.0000000   0.0000000   0.0000000   0.0000000   0.0000000   0.0000000   2.0440000   0.0000000   0.0000000   0.0000000
 NMagM=    0.0000000   0.0000000   0.0000000   0.0000000   0.0000000   0.0000000   0.4037610   0.0000000   0.0000000   0.0000000
 AtZNuc=   6.0000000   6.0000000   6.0000000   6.0000000  16.0000000   6.0000000   7.0000000   6.0000000   6.0000000  16.0000000

  Atom        11          12          13          14          15          16          17          18          19          20
 IAtWgt=          12          12          12          12          32          12          14          12          12          32
 AtmWgt=  12.0000000  12.0000000  12.0000000  12.0000000  31.9720718  12.0000000  14.0030740  12.0000000  12.0000000  31.9720718
 NucSpn=           0           0           0           0           0           0           2           0           0           0
 AtZEff=  -0.0000000  -0.0000000  -0.0000000  -0.0000000  -0.0000000  -0.0000000  -0.0000000  -0.0000000  -0.0000000  -0.0000000
 NQMom=    0.0000000   0.0000000   0.0000000   0.0000000   0.0000000   0.0000000   2.0440000   0.0000000   0.0000000   0.0000000
 NMagM=    0.0000000   0.0000000   0.0000000   0.0000000   0.0000000   0.0000000   0.4037610   0.0000000   0.0000000   0.0000000
 AtZNuc=   6.0000000   6.0000000   6.0000000   6.0000000  16.0000000   6.0000000   7.0000000   6.0000000   6.0000000  16.0000000

  Atom        21          22          23          24          25          26          27          28          29          30
 IAtWgt=          12          12          12          12          32          12          14          12          12          32
 AtmWgt=  12.0000000  12.0000000  12.0000000  12.0000000  31.9720718  12.0000000  14.0030740  12.0000000  12.0000000  31.9720718
 NucSpn=           0           0           0           0           0           0           2           0           0           0
 AtZEff=  -0.0000000  -0.0000000  -0.0000000  -0.0000000  -0.0000000  -0.0000000  -0.0000000  -0.0000000  -0.0000000  -0.0000000
 NQMom=    0.0000000   0.0000000   0.0000000   0.0000000   0.0000000   0.0000000   2.0440000   0.0000000   0.0000000   0.0000000
 NMagM=    0.0000000   0.0000000   0.0000000   0.0000000   0.0000000   0.0000000   0.4037610   0.0000000   0.0000000   0.0000000
 AtZNuc=   6.0000000   6.0000000   6.0000000   6.0000000  16.0000000   6.0000000   7.0000000   6.0000000   6.0000000  16.0000000

  Atom        31          32          33          34          35          36          37          38          39          40
 IAtWgt=          12          12          12          12          32          12          14          12          12          32
 AtmWgt=  12.0000000  12.0000000  12.0000000  12.0000000  31.9720718  12.0000000  14.0030740  12.0000000  12.0000000  31.9720718
 NucSpn=           0           0           0           0           0           0           2           0           0           0
 AtZEff=  -0.0000000  -0.0000000  -0.0000000  -0.0000000  -0.0000000  -0.0000000  -0.0000000  -0.0000000  -0.0000000  -0.0000000
 NQMom=    0.0000000   0.0000000   0.0000000   0.0000000   0.0000000   0.0000000   2.0440000   0.0000000   0.0000000   0.0000000
 NMagM=    0.0000000   0.0000000   0.0000000   0.0000000   0.0000000   0.0000000   0.4037610   0.0000000   0.0000000   0.0000000
 AtZNuc=   6.0000000   6.0000000   6.0000000   6.0000000  16.0000000   6.0000000   7.0000000   6.0000000   6.0000000  16.0000000

  Atom        41          42          43          44          45          46          47          48          49          50
 IAtWgt=          12          12          12          12          32          12          14          12          12          32
 AtmWgt=  12.0000000  12.0000000  12.0000000  12.0000000  31.9720718  12.0000000  14.0030740  12.0000000  12.0000000  31.9720718
 NucSpn=           0           0           0           0           0           0           2           0           0           0
 AtZEff=  -0.0000000  -0.0000000  -0.0000000  -0.0000000  -0.0000000  -0.0000000  -0.0000000  -0.0000000  -0.0000000  -0.0000000
 NQMom=    0.0000000   0.0000000   0.0000000   0.0000000   0.0000000   0.0000000   2.0440000   0.0000000   0.0000000   0.0000000
 NMagM=    0.0000000   0.0000000   0.0000000   0.0000000   0.0000000   0.0000000   0.4037610   0.0000000   0.0000000   0.0000000
 AtZNuc=   6.0000000   6.0000000   6.0000000   6.0000000  16.0000000   6.0000000   7.0000000   6.0000000   6.0000000  16.0000000

  Atom        51          52          53          54          55          56          57          58          59          60
 IAtWgt=           1           1           1           1           1           1           1           1           1           1
 AtmWgt=   1.0078250   1.0078250   1.0078250   1.0078250   1.0078250   1.0078250   1.0078250   1.0078250   1.0078250   1.0078250
 NucSpn=           1           1           1           1           1           1           1           1           1           1
 AtZEff=  -0.0000000  -0.0000000  -0.0000000  -0.0000000  -0.0000000  -0.0000000  -0.0000000  -0.0000000  -0.0000000  -0.0000000
 NQMom=    0.0000000   0.0000000   0.0000000   0.0000000   0.0000000   0.0000000   0.0000000   0.0000000   0.0000000   0.0000000
 NMagM=    2.7928460   2.7928460   2.7928460   2.7928460   2.7928460   2.7928460   2.7928460   2.7928460   2.7928460   2.7928460
 AtZNuc=   1.0000000   1.0000000   1.0000000   1.0000000   1.0000000   1.0000000   1.0000000   1.0000000   1.0000000   1.0000000

  Atom        61          62          63          64          65          66          67
 IAtWgt=           1           1           1           1           1           1           1
 AtmWgt=   1.0078250   1.0078250   1.0078250   1.0078250   1.0078250   1.0078250   1.0078250
 NucSpn=           1           1           1           1           1           1           1
 AtZEff=  -0.0000000  -0.0000000  -0.0000000  -0.0000000  -0.0000000  -0.0000000  -0.0000000
 NQMom=    0.0000000   0.0000000   0.0000000   0.0000000   0.0000000   0.0000000   0.0000000
 NMagM=    2.7928460   2.7928460   2.7928460   2.7928460   2.7928460   2.7928460   2.7928460
 AtZNuc=   1.0000000   1.0000000   1.0000000   1.0000000   1.0000000   1.0000000   1.0000000
 Leave Link  101 at Fri Jul 24 02:57:10 2020, MaxMem=  4026531840 cpu:               3.7 elap:               0.5
 (Enter /opt/ohpc/pub/libs/gaussian/g16-A.03/sandybridge/g16/l103.exe)

 GradGradGradGradGradGradGradGradGradGradGradGradGradGradGradGradGradGrad
 Berny optimization.
 Initialization pass.
                           ----------------------------
                           !    Initial Parameters    !
                           ! (Angstroms and Degrees)  !
 --------------------------                            --------------------------
 ! Name  Definition              Value          Derivative Info.                !
 --------------------------------------------------------------------------------
 ! R1    R(1,2)                  1.3165         estimate D2E/DX2                !
 ! R2    R(1,5)                  1.6971         estimate D2E/DX2                !
 ! R3    R(1,51)                 1.0954         estimate D2E/DX2                !
 ! R4    R(2,3)                  1.415          estimate D2E/DX2                !
 ! R5    R(2,52)                 1.0585         estimate D2E/DX2                !
 ! R6    R(3,4)                  1.4444         estimate D2E/DX2                !
 ! R7    R(3,53)                 1.0407         estimate D2E/DX2                !
 ! R8    R(4,5)                  1.6571         estimate D2E/DX2                !
 ! R9    R(4,6)                  1.4807         estimate D2E/DX2                !
 ! R10   R(6,7)                  1.3252         estimate D2E/DX2                !
 ! R11   R(6,10)                 1.7023         estimate D2E/DX2                !
 ! R12   R(7,8)                  1.3393         estimate D2E/DX2                !
 ! R13   R(8,9)                  1.3514         estimate D2E/DX2                !
 ! R14   R(8,54)                 1.1042         estimate D2E/DX2                !
 ! R15   R(9,10)                 1.7394         estimate D2E/DX2                !
 ! R16   R(9,11)                 1.458          estimate D2E/DX2                !
 ! R17   R(11,12)                1.3589         estimate D2E/DX2                !
 ! R18   R(11,15)                1.7517         estimate D2E/DX2                !
 ! R19   R(12,13)                1.3985         estimate D2E/DX2                !
 ! R20   R(12,55)                1.148          estimate D2E/DX2                !
 ! R21   R(13,14)                1.3883         estimate D2E/DX2                !
 ! R22   R(13,56)                1.1558         estimate D2E/DX2                !
 ! R23   R(14,15)                1.6984         estimate D2E/DX2                !
 ! R24   R(14,16)                1.451          estimate D2E/DX2                !
 ! R25   R(16,17)                1.2536         estimate D2E/DX2                !
 ! R26   R(16,20)                1.6969         estimate D2E/DX2                !
 ! R27   R(17,18)                1.4294         estimate D2E/DX2                !
 ! R28   R(18,19)                1.3631         estimate D2E/DX2                !
 ! R29   R(18,57)                1.1052         estimate D2E/DX2                !
 ! R30   R(19,20)                1.7156         estimate D2E/DX2                !
 ! R31   R(19,21)                1.4875         estimate D2E/DX2                !
 ! R32   R(21,22)                1.3873         estimate D2E/DX2                !
 ! R33   R(21,25)                1.6815         estimate D2E/DX2                !
 ! R34   R(22,23)                1.4265         estimate D2E/DX2                !
 ! R35   R(22,58)                1.0451         estimate D2E/DX2                !
 ! R36   R(23,24)                1.2915         estimate D2E/DX2                !
 ! R37   R(23,59)                1.1329         estimate D2E/DX2                !
 ! R38   R(24,25)                1.7751         estimate D2E/DX2                !
 ! R39   R(24,26)                1.5126         estimate D2E/DX2                !
 ! R40   R(26,27)                1.2972         estimate D2E/DX2                !
 ! R41   R(26,30)                1.7269         estimate D2E/DX2                !
 ! R42   R(27,28)                1.3875         estimate D2E/DX2                !
 ! R43   R(28,29)                1.4144         estimate D2E/DX2                !
 ! R44   R(28,60)                1.0829         estimate D2E/DX2                !
 ! R45   R(29,30)                1.7073         estimate D2E/DX2                !
 ! R46   R(29,31)                1.4672         estimate D2E/DX2                !
 ! R47   R(31,32)                1.3667         estimate D2E/DX2                !
 ! R48   R(31,35)                1.7393         estimate D2E/DX2                !
 ! R49   R(32,33)                1.3325         estimate D2E/DX2                !
 ! R50   R(32,61)                1.1075         estimate D2E/DX2                !
 ! R51   R(33,34)                1.4415         estimate D2E/DX2                !
 ! R52   R(33,62)                1.1471         estimate D2E/DX2                !
 ! R53   R(34,35)                1.6723         estimate D2E/DX2                !
 ! R54   R(34,36)                1.4412         estimate D2E/DX2                !
 ! R55   R(36,37)                1.3336         estimate D2E/DX2                !
 ! R56   R(36,40)                1.675          estimate D2E/DX2                !
 ! R57   R(37,38)                1.3799         estimate D2E/DX2                !
 ! R58   R(38,39)                1.3893         estimate D2E/DX2                !
 ! R59   R(38,63)                1.0805         estimate D2E/DX2                !
 ! R60   R(39,40)                1.7249         estimate D2E/DX2                !
 ! R61   R(39,41)                1.3626         estimate D2E/DX2                !
 ! R62   R(41,42)                1.4113         estimate D2E/DX2                !
 ! R63   R(41,45)                1.7678         estimate D2E/DX2                !
 ! R64   R(42,43)                1.3617         estimate D2E/DX2                !
 ! R65   R(42,64)                1.0893         estimate D2E/DX2                !
 ! R66   R(43,44)                1.4743         estimate D2E/DX2                !
 ! R67   R(43,65)                1.1007         estimate D2E/DX2                !
 ! R68   R(44,45)                1.7313         estimate D2E/DX2                !
 ! R69   R(44,46)                1.3931         estimate D2E/DX2                !
 ! R70   R(46,47)                1.3591         estimate D2E/DX2                !
 ! R71   R(46,50)                1.7705         estimate D2E/DX2                !
 ! R72   R(47,48)                1.3518         estimate D2E/DX2                !
 ! R73   R(48,49)                1.4082         estimate D2E/DX2                !
 ! R74   R(48,66)                1.1012         estimate D2E/DX2                !
 ! R75   R(49,50)                1.6922         estimate D2E/DX2                !
 ! R76   R(49,67)                1.0825         estimate D2E/DX2                !
 ! A1    A(2,1,5)              114.5656         estimate D2E/DX2                !
 ! A2    A(2,1,51)             124.5997         estimate D2E/DX2                !
 ! A3    A(5,1,51)             120.8243         estimate D2E/DX2                !
 ! A4    A(1,2,3)              111.4549         estimate D2E/DX2                !
 ! A5    A(1,2,52)             128.8892         estimate D2E/DX2                !
 ! A6    A(3,2,52)             119.4653         estimate D2E/DX2                !
 ! A7    A(2,3,4)              110.9443         estimate D2E/DX2                !
 ! A8    A(2,3,53)             126.529          estimate D2E/DX2                !
 ! A9    A(4,3,53)             122.5023         estimate D2E/DX2                !
 ! A10   A(3,4,5)              110.4605         estimate D2E/DX2                !
 ! A11   A(3,4,6)              128.7795         estimate D2E/DX2                !
 ! A12   A(5,4,6)              120.5742         estimate D2E/DX2                !
 ! A13   A(1,5,4)               92.2907         estimate D2E/DX2                !
 ! A14   A(4,6,7)              122.7298         estimate D2E/DX2                !
 ! A15   A(4,6,10)             120.2574         estimate D2E/DX2                !
 ! A16   A(7,6,10)             116.9396         estimate D2E/DX2                !
 ! A17   A(6,7,8)              106.6845         estimate D2E/DX2                !
 ! A18   A(7,8,9)              120.6012         estimate D2E/DX2                !
 ! A19   A(7,8,54)             116.9586         estimate D2E/DX2                !
 ! A20   A(9,8,54)             122.4316         estimate D2E/DX2                !
 ! A21   A(8,9,10)             106.8355         estimate D2E/DX2                !
 ! A22   A(8,9,11)             130.2466         estimate D2E/DX2                !
 ! A23   A(10,9,11)            122.9129         estimate D2E/DX2                !
 ! A24   A(6,10,9)              88.8958         estimate D2E/DX2                !
 ! A25   A(9,11,12)            128.7475         estimate D2E/DX2                !
 ! A26   A(9,11,15)            123.437          estimate D2E/DX2                !
 ! A27   A(12,11,15)           107.7            estimate D2E/DX2                !
 ! A28   A(11,12,13)           114.6145         estimate D2E/DX2                !
 ! A29   A(11,12,55)           123.6134         estimate D2E/DX2                !
 ! A30   A(13,12,55)           121.7718         estimate D2E/DX2                !
 ! A31   A(12,13,14)           114.5994         estimate D2E/DX2                !
 ! A32   A(12,13,56)           128.2999         estimate D2E/DX2                !
 ! A33   A(14,13,56)           117.0778         estimate D2E/DX2                !
 ! A34   A(13,14,15)           108.1347         estimate D2E/DX2                !
 ! A35   A(13,14,16)           127.2552         estimate D2E/DX2                !
 ! A36   A(15,14,16)           124.4053         estimate D2E/DX2                !
 ! A37   A(11,15,14)            94.9349         estimate D2E/DX2                !
 ! A38   A(14,16,17)           121.4852         estimate D2E/DX2                !
 ! A39   A(14,16,20)           121.6409         estimate D2E/DX2                !
 ! A40   A(17,16,20)           116.7549         estimate D2E/DX2                !
 ! A41   A(16,17,18)           109.7001         estimate D2E/DX2                !
 ! A42   A(17,18,19)           114.6525         estimate D2E/DX2                !
 ! A43   A(17,18,57)           116.8639         estimate D2E/DX2                !
 ! A44   A(19,18,57)           128.3699         estimate D2E/DX2                !
 ! A45   A(18,19,20)           108.3789         estimate D2E/DX2                !
 ! A46   A(18,19,21)           128.0109         estimate D2E/DX2                !
 ! A47   A(20,19,21)           123.0194         estimate D2E/DX2                !
 ! A48   A(16,20,19)            90.4267         estimate D2E/DX2                !
 ! A49   A(19,21,22)           129.414          estimate D2E/DX2                !
 ! A50   A(19,21,25)           118.4074         estimate D2E/DX2                !
 ! A51   A(22,21,25)           111.9158         estimate D2E/DX2                !
 ! A52   A(21,22,23)           111.055          estimate D2E/DX2                !
 ! A53   A(21,22,58)           121.8249         estimate D2E/DX2                !
 ! A54   A(23,22,58)           127.0804         estimate D2E/DX2                !
 ! A55   A(22,23,24)           114.9458         estimate D2E/DX2                !
 ! A56   A(22,23,59)           119.6125         estimate D2E/DX2                !
 ! A57   A(24,23,59)           125.4243         estimate D2E/DX2                !
 ! A58   A(23,24,25)           110.7343         estimate D2E/DX2                !
 ! A59   A(23,24,26)           129.4759         estimate D2E/DX2                !
 ! A60   A(25,24,26)           119.7831         estimate D2E/DX2                !
 ! A61   A(21,25,24)            91.3183         estimate D2E/DX2                !
 ! A62   A(24,26,27)           121.0221         estimate D2E/DX2                !
 ! A63   A(24,26,30)           120.6559         estimate D2E/DX2                !
 ! A64   A(27,26,30)           118.2447         estimate D2E/DX2                !
 ! A65   A(26,27,28)           109.2325         estimate D2E/DX2                !
 ! A66   A(27,28,29)           113.4688         estimate D2E/DX2                !
 ! A67   A(27,28,60)           119.5904         estimate D2E/DX2                !
 ! A68   A(29,28,60)           126.6962         estimate D2E/DX2                !
 ! A69   A(28,29,30)           111.2043         estimate D2E/DX2                !
 ! A70   A(28,29,31)           129.1795         estimate D2E/DX2                !
 ! A71   A(30,29,31)           119.4552         estimate D2E/DX2                !
 ! A72   A(26,30,29)            87.7013         estimate D2E/DX2                !
 ! A73   A(29,31,32)           132.3007         estimate D2E/DX2                !
 ! A74   A(29,31,35)           121.4718         estimate D2E/DX2                !
 ! A75   A(32,31,35)           106.1317         estimate D2E/DX2                !
 ! A76   A(31,32,33)           116.4935         estimate D2E/DX2                !
 ! A77   A(31,32,61)           116.9481         estimate D2E/DX2                !
 ! A78   A(33,32,61)           126.4886         estimate D2E/DX2                !
 ! A79   A(32,33,34)           114.5866         estimate D2E/DX2                !
 ! A80   A(32,33,62)           124.1465         estimate D2E/DX2                !
 ! A81   A(34,33,62)           121.1741         estimate D2E/DX2                !
 ! A82   A(33,34,35)           106.1277         estimate D2E/DX2                !
 ! A83   A(33,34,36)           130.4176         estimate D2E/DX2                !
 ! A84   A(35,34,36)           123.4277         estimate D2E/DX2                !
 ! A85   A(31,35,34)            96.4932         estimate D2E/DX2                !
 ! A86   A(34,36,37)           122.2544         estimate D2E/DX2                !
 ! A87   A(34,36,40)           122.6199         estimate D2E/DX2                !
 ! A88   A(37,36,40)           115.0601         estimate D2E/DX2                !
 ! A89   A(36,37,38)           109.089          estimate D2E/DX2                !
 ! A90   A(37,38,39)           117.0201         estimate D2E/DX2                !
 ! A91   A(37,38,63)           113.1902         estimate D2E/DX2                !
 ! A92   A(39,38,63)           129.7893         estimate D2E/DX2                !
 ! A93   A(38,39,40)           106.5965         estimate D2E/DX2                !
 ! A94   A(38,39,41)           128.0064         estimate D2E/DX2                !
 ! A95   A(40,39,41)           125.3846         estimate D2E/DX2                !
 ! A96   A(36,40,39)            92.126          estimate D2E/DX2                !
 ! A97   A(39,41,42)           130.9176         estimate D2E/DX2                !
 ! A98   A(39,41,45)           122.5821         estimate D2E/DX2                !
 ! A99   A(42,41,45)           106.4593         estimate D2E/DX2                !
 ! A100  A(41,42,43)           118.0976         estimate D2E/DX2                !
 ! A101  A(41,42,64)           121.3573         estimate D2E/DX2                !
 ! A102  A(43,42,64)           120.1394         estimate D2E/DX2                !
 ! A103  A(42,43,44)           111.8954         estimate D2E/DX2                !
 ! A104  A(42,43,65)           129.3222         estimate D2E/DX2                !
 ! A105  A(44,43,65)           118.6733         estimate D2E/DX2                !
 ! A106  A(43,44,45)           108.3445         estimate D2E/DX2                !
 ! A107  A(43,44,46)           129.3982         estimate D2E/DX2                !
 ! A108  A(45,44,46)           122.2378         estimate D2E/DX2                !
 ! A109  A(41,45,44)            95.0346         estimate D2E/DX2                !
 ! A110  A(44,46,47)           122.3931         estimate D2E/DX2                !
 ! A111  A(44,46,50)           122.9374         estimate D2E/DX2                !
 ! A112  A(47,46,50)           114.2356         estimate D2E/DX2                !
 ! A113  A(46,47,48)           107.2356         estimate D2E/DX2                !
 ! A114  A(47,48,49)           119.7332         estimate D2E/DX2                !
 ! A115  A(47,48,66)           116.0494         estimate D2E/DX2                !
 ! A116  A(49,48,66)           124.2069         estimate D2E/DX2                !
 ! A117  A(48,49,50)           107.9956         estimate D2E/DX2                !
 ! A118  A(48,49,67)           125.3323         estimate D2E/DX2                !
 ! A119  A(50,49,67)           126.4131         estimate D2E/DX2                !
 ! A120  A(46,50,49)            90.3276         estimate D2E/DX2                !
 ! D1    D(5,1,2,3)              2.7355         estimate D2E/DX2                !
 ! D2    D(5,1,2,52)           177.6139         estimate D2E/DX2                !
 ! D3    D(51,1,2,3)          -178.4327         estimate D2E/DX2                !
 ! D4    D(51,1,2,52)           -3.5543         estimate D2E/DX2                !
 ! D5    D(2,1,5,4)              0.5116         estimate D2E/DX2                !
 ! D6    D(51,1,5,4)          -178.3686         estimate D2E/DX2                !
 ! D7    D(1,2,3,4)             -5.281          estimate D2E/DX2                !
 ! D8    D(1,2,3,53)           176.492          estimate D2E/DX2                !
 ! D9    D(52,2,3,4)           179.2964         estimate D2E/DX2                !
 ! D10   D(52,2,3,53)            1.0694         estimate D2E/DX2                !
 ! D11   D(2,3,4,5)              5.6098         estimate D2E/DX2                !
 ! D12   D(2,3,4,6)           -179.3994         estimate D2E/DX2                !
 ! D13   D(53,3,4,5)          -176.0795         estimate D2E/DX2                !
 ! D14   D(53,3,4,6)            -1.0886         estimate D2E/DX2                !
 ! D15   D(3,4,5,1)             -3.5005         estimate D2E/DX2                !
 ! D16   D(6,4,5,1)           -178.966          estimate D2E/DX2                !
 ! D17   D(3,4,6,7)           -176.1382         estimate D2E/DX2                !
 ! D18   D(3,4,6,10)             0.6544         estimate D2E/DX2                !
 ! D19   D(5,4,6,7)             -1.5905         estimate D2E/DX2                !
 ! D20   D(5,4,6,10)           175.2021         estimate D2E/DX2                !
 ! D21   D(4,6,7,8)            179.1452         estimate D2E/DX2                !
 ! D22   D(10,6,7,8)             2.2528         estimate D2E/DX2                !
 ! D23   D(4,6,10,9)          -178.8985         estimate D2E/DX2                !
 ! D24   D(7,6,10,9)            -1.9249         estimate D2E/DX2                !
 ! D25   D(6,7,8,9)             -1.5304         estimate D2E/DX2                !
 ! D26   D(6,7,8,54)           179.509          estimate D2E/DX2                !
 ! D27   D(7,8,9,10)             0.1936         estimate D2E/DX2                !
 ! D28   D(7,8,9,11)           179.3801         estimate D2E/DX2                !
 ! D29   D(54,8,9,10)          179.096          estimate D2E/DX2                !
 ! D30   D(54,8,9,11)           -1.7176         estimate D2E/DX2                !
 ! D31   D(8,9,10,6)             0.8994         estimate D2E/DX2                !
 ! D32   D(11,9,10,6)         -178.3609         estimate D2E/DX2                !
 ! D33   D(8,9,11,12)         -177.2417         estimate D2E/DX2                !
 ! D34   D(8,9,11,15)           -1.6433         estimate D2E/DX2                !
 ! D35   D(10,9,11,12)           1.8307         estimate D2E/DX2                !
 ! D36   D(10,9,11,15)         177.4291         estimate D2E/DX2                !
 ! D37   D(9,11,12,13)         177.4315         estimate D2E/DX2                !
 ! D38   D(9,11,12,55)          -2.3696         estimate D2E/DX2                !
 ! D39   D(15,11,12,13)          1.2863         estimate D2E/DX2                !
 ! D40   D(15,11,12,55)       -178.5149         estimate D2E/DX2                !
 ! D41   D(9,11,15,14)        -177.5982         estimate D2E/DX2                !
 ! D42   D(12,11,15,14)         -1.2004         estimate D2E/DX2                !
 ! D43   D(11,12,13,14)         -0.7576         estimate D2E/DX2                !
 ! D44   D(11,12,13,56)        177.433          estimate D2E/DX2                !
 ! D45   D(55,12,13,14)        179.0476         estimate D2E/DX2                !
 ! D46   D(55,12,13,56)         -2.7618         estimate D2E/DX2                !
 ! D47   D(12,13,14,15)         -0.1964         estimate D2E/DX2                !
 ! D48   D(12,13,14,16)        174.745          estimate D2E/DX2                !
 ! D49   D(56,13,14,15)       -178.6017         estimate D2E/DX2                !
 ! D50   D(56,13,14,16)         -3.6603         estimate D2E/DX2                !
 ! D51   D(13,14,15,11)          0.7952         estimate D2E/DX2                !
 ! D52   D(16,14,15,11)       -174.3252         estimate D2E/DX2                !
 ! D53   D(13,14,16,17)          3.6349         estimate D2E/DX2                !
 ! D54   D(13,14,16,20)        179.5396         estimate D2E/DX2                !
 ! D55   D(15,14,16,17)        177.8058         estimate D2E/DX2                !
 ! D56   D(15,14,16,20)         -6.2895         estimate D2E/DX2                !
 ! D57   D(14,16,17,18)        176.9113         estimate D2E/DX2                !
 ! D58   D(20,16,17,18)          0.8156         estimate D2E/DX2                !
 ! D59   D(14,16,20,19)       -175.2456         estimate D2E/DX2                !
 ! D60   D(17,16,20,19)          0.8436         estimate D2E/DX2                !
 ! D61   D(16,17,18,19)         -2.6823         estimate D2E/DX2                !
 ! D62   D(16,17,18,57)       -179.1342         estimate D2E/DX2                !
 ! D63   D(17,18,19,20)          3.2129         estimate D2E/DX2                !
 ! D64   D(17,18,19,21)        174.5061         estimate D2E/DX2                !
 ! D65   D(57,18,19,20)        179.1749         estimate D2E/DX2                !
 ! D66   D(57,18,19,21)         -9.5318         estimate D2E/DX2                !
 ! D67   D(18,19,20,16)         -2.2545         estimate D2E/DX2                !
 ! D68   D(21,19,20,16)       -174.0769         estimate D2E/DX2                !
 ! D69   D(18,19,21,22)       -176.0125         estimate D2E/DX2                !
 ! D70   D(18,19,21,25)         10.3997         estimate D2E/DX2                !
 ! D71   D(20,19,21,22)         -5.8775         estimate D2E/DX2                !
 ! D72   D(20,19,21,25)       -179.4652         estimate D2E/DX2                !
 ! D73   D(19,21,22,23)       -175.6977         estimate D2E/DX2                !
 ! D74   D(19,21,22,58)          2.1615         estimate D2E/DX2                !
 ! D75   D(25,21,22,23)         -1.7759         estimate D2E/DX2                !
 ! D76   D(25,21,22,58)        176.0833         estimate D2E/DX2                !
 ! D77   D(19,21,25,24)        175.688          estimate D2E/DX2                !
 ! D78   D(22,21,25,24)          1.0245         estimate D2E/DX2                !
 ! D79   D(21,22,23,24)          1.8758         estimate D2E/DX2                !
 ! D80   D(21,22,23,59)       -179.5618         estimate D2E/DX2                !
 ! D81   D(58,22,23,24)       -175.8442         estimate D2E/DX2                !
 ! D82   D(58,22,23,59)          2.7182         estimate D2E/DX2                !
 ! D83   D(22,23,24,25)         -1.0895         estimate D2E/DX2                !
 ! D84   D(22,23,24,26)        179.868          estimate D2E/DX2                !
 ! D85   D(59,23,24,25)       -179.5557         estimate D2E/DX2                !
 ! D86   D(59,23,24,26)          1.4017         estimate D2E/DX2                !
 ! D87   D(23,24,25,21)          0.0407         estimate D2E/DX2                !
 ! D88   D(26,24,25,21)        179.1891         estimate D2E/DX2                !
 ! D89   D(23,24,26,27)        175.7247         estimate D2E/DX2                !
 ! D90   D(23,24,26,30)         -1.0208         estimate D2E/DX2                !
 ! D91   D(25,24,26,27)         -3.2436         estimate D2E/DX2                !
 ! D92   D(25,24,26,30)       -179.989          estimate D2E/DX2                !
 ! D93   D(24,26,27,28)       -179.7379         estimate D2E/DX2                !
 ! D94   D(30,26,27,28)         -2.9159         estimate D2E/DX2                !
 ! D95   D(24,26,30,29)       -179.4392         estimate D2E/DX2                !
 ! D96   D(27,26,30,29)          3.7267         estimate D2E/DX2                !
 ! D97   D(26,27,28,29)          0.2016         estimate D2E/DX2                !
 ! D98   D(26,27,28,60)       -174.492          estimate D2E/DX2                !
 ! D99   D(27,28,29,30)          2.4702         estimate D2E/DX2                !
 ! D100  D(27,28,29,31)        177.7565         estimate D2E/DX2                !
 ! D101  D(60,28,29,30)        176.714          estimate D2E/DX2                !
 ! D102  D(60,28,29,31)         -7.9998         estimate D2E/DX2                !
 ! D103  D(28,29,30,26)         -3.2251         estimate D2E/DX2                !
 ! D104  D(31,29,30,26)       -179.0298         estimate D2E/DX2                !
 ! D105  D(28,29,31,32)       -173.4815         estimate D2E/DX2                !
 ! D106  D(28,29,31,35)          2.4295         estimate D2E/DX2                !
 ! D107  D(30,29,31,32)          1.4707         estimate D2E/DX2                !
 ! D108  D(30,29,31,35)        177.3817         estimate D2E/DX2                !
 ! D109  D(29,31,32,33)       -179.5673         estimate D2E/DX2                !
 ! D110  D(29,31,32,61)         -2.405          estimate D2E/DX2                !
 ! D111  D(35,31,32,33)          4.0625         estimate D2E/DX2                !
 ! D112  D(35,31,32,61)       -178.7752         estimate D2E/DX2                !
 ! D113  D(29,31,35,34)       -178.8512         estimate D2E/DX2                !
 ! D114  D(32,31,35,34)         -1.9984         estimate D2E/DX2                !
 ! D115  D(31,32,33,34)         -4.644          estimate D2E/DX2                !
 ! D116  D(31,32,33,62)        178.8339         estimate D2E/DX2                !
 ! D117  D(61,32,33,34)        178.5026         estimate D2E/DX2                !
 ! D118  D(61,32,33,62)          1.9805         estimate D2E/DX2                !
 ! D119  D(32,33,34,35)          2.7212         estimate D2E/DX2                !
 ! D120  D(32,33,34,36)       -179.157          estimate D2E/DX2                !
 ! D121  D(62,33,34,35)        179.3571         estimate D2E/DX2                !
 ! D122  D(62,33,34,36)         -2.521          estimate D2E/DX2                !
 ! D123  D(33,34,35,31)         -0.2985         estimate D2E/DX2                !
 ! D124  D(36,34,35,31)       -178.5852         estimate D2E/DX2                !
 ! D125  D(33,34,36,37)       -175.0873         estimate D2E/DX2                !
 ! D126  D(33,34,36,40)          1.8219         estimate D2E/DX2                !
 ! D127  D(35,34,36,37)          2.7507         estimate D2E/DX2                !
 ! D128  D(35,34,36,40)        179.6599         estimate D2E/DX2                !
 ! D129  D(34,36,37,38)       -179.4648         estimate D2E/DX2                !
 ! D130  D(40,36,37,38)          3.4088         estimate D2E/DX2                !
 ! D131  D(34,36,40,39)       -179.2016         estimate D2E/DX2                !
 ! D132  D(37,36,40,39)         -2.0868         estimate D2E/DX2                !
 ! D133  D(36,37,38,39)         -3.4459         estimate D2E/DX2                !
 ! D134  D(36,37,38,63)        176.7676         estimate D2E/DX2                !
 ! D135  D(37,38,39,40)          1.9333         estimate D2E/DX2                !
 ! D136  D(37,38,39,41)       -176.8202         estimate D2E/DX2                !
 ! D137  D(63,38,39,40)       -178.3221         estimate D2E/DX2                !
 ! D138  D(63,38,39,41)          2.9243         estimate D2E/DX2                !
 ! D139  D(38,39,40,36)          0.0632         estimate D2E/DX2                !
 ! D140  D(41,39,40,36)        178.8586         estimate D2E/DX2                !
 ! D141  D(38,39,41,42)        178.0435         estimate D2E/DX2                !
 ! D142  D(38,39,41,45)          0.7008         estimate D2E/DX2                !
 ! D143  D(40,39,41,42)         -0.4913         estimate D2E/DX2                !
 ! D144  D(40,39,41,45)       -177.834          estimate D2E/DX2                !
 ! D145  D(39,41,42,43)        177.7809         estimate D2E/DX2                !
 ! D146  D(39,41,42,64)          5.0833         estimate D2E/DX2                !
 ! D147  D(45,41,42,43)         -4.5537         estimate D2E/DX2                !
 ! D148  D(45,41,42,64)       -177.2512         estimate D2E/DX2                !
 ! D149  D(39,41,45,44)       -178.9211         estimate D2E/DX2                !
 ! D150  D(42,41,45,44)          3.1724         estimate D2E/DX2                !
 ! D151  D(41,42,43,44)          3.7622         estimate D2E/DX2                !
 ! D152  D(41,42,43,65)        179.8522         estimate D2E/DX2                !
 ! D153  D(64,42,43,44)        176.552          estimate D2E/DX2                !
 ! D154  D(64,42,43,65)         -7.358          estimate D2E/DX2                !
 ! D155  D(42,43,44,45)         -0.9973         estimate D2E/DX2                !
 ! D156  D(42,43,44,46)        177.3936         estimate D2E/DX2                !
 ! D157  D(65,43,44,45)       -177.5504         estimate D2E/DX2                !
 ! D158  D(65,43,44,46)          0.8405         estimate D2E/DX2                !
 ! D159  D(43,44,45,41)         -1.3305         estimate D2E/DX2                !
 ! D160  D(46,44,45,41)       -179.8605         estimate D2E/DX2                !
 ! D161  D(43,44,46,47)        176.3491         estimate D2E/DX2                !
 ! D162  D(43,44,46,50)          4.348          estimate D2E/DX2                !
 ! D163  D(45,44,46,47)         -5.4566         estimate D2E/DX2                !
 ! D164  D(45,44,46,50)       -177.4578         estimate D2E/DX2                !
 ! D165  D(44,46,47,48)       -179.7777         estimate D2E/DX2                !
 ! D166  D(50,46,47,48)         -7.136          estimate D2E/DX2                !
 ! D167  D(44,46,50,49)        179.1028         estimate D2E/DX2                !
 ! D168  D(47,46,50,49)          6.5064         estimate D2E/DX2                !
 ! D169  D(46,47,48,49)          4.5556         estimate D2E/DX2                !
 ! D170  D(46,47,48,66)       -176.5728         estimate D2E/DX2                !
 ! D171  D(47,48,49,50)          0.142          estimate D2E/DX2                !
 ! D172  D(47,48,49,67)        174.5958         estimate D2E/DX2                !
 ! D173  D(66,48,49,50)       -178.6322         estimate D2E/DX2                !
 ! D174  D(66,48,49,67)         -4.1784         estimate D2E/DX2                !
 ! D175  D(48,49,50,46)         -3.5124         estimate D2E/DX2                !
 ! D176  D(67,49,50,46)       -177.8898         estimate D2E/DX2                !
 --------------------------------------------------------------------------------
 Trust Radius=3.00D-01 FncErr=1.00D-07 GrdErr=1.00D-06 EigMax=2.50D+02 EigMin=1.00D-04
 Number of steps in this run=    382 maximum allowed number of steps=    402.
 GradGradGradGradGradGradGradGradGradGradGradGradGradGradGradGradGradGrad

 Leave Link  103 at Fri Jul 24 02:57:10 2020, MaxMem=  4026531840 cpu:               0.2 elap:               0.0
 (Enter /opt/ohpc/pub/libs/gaussian/g16-A.03/sandybridge/g16/l202.exe)
 Stoichiometry    C35H17N5S10
 Framework group  C1[X(C35H17N5S10)]
 Deg. of freedom   195
 Full point group                 C1      NOp   1
 Largest Abelian subgroup         C1      NOp   1
 Largest concise Abelian subgroup C1      NOp   1
                         Standard orientation:                         
 ---------------------------------------------------------------------
 Center     Atomic      Atomic             Coordinates (Angstroms)
 Number     Number       Type             X           Y           Z
 ---------------------------------------------------------------------
      1          6           0      -18.267770   -1.442823    0.016066
      2          6           0      -18.244722   -0.126809    0.043570
      3          6           0      -16.920163    0.368695   -0.002432
      4          6           0      -15.962634   -0.711010    0.057484
      5         16           0      -16.736892   -2.175279    0.008392
      6          6           0      -14.483608   -0.640441    0.049523
      7          7           0      -13.714853   -1.719778    0.034706
      8          6           0      -12.447101   -1.288607    0.012290
      9          6           0      -12.170722    0.033773   -0.022546
     10         16           0      -13.697183    0.867614   -0.022915
     11          6           0      -10.888754    0.728044   -0.039464
     12          6           0      -10.645214    2.064839   -0.023704
     13          6           0       -9.290320    2.409726    0.009288
     14          6           0       -8.419411    1.328986    0.037146
     15         16           0       -9.344132   -0.095507    0.026235
     16          6           0       -6.970574    1.366459   -0.031693
     17          7           0       -6.344320    2.452087   -0.060580
     18          6           0       -4.937795    2.197294   -0.055050
     19          6           0       -4.598921    0.880203    0.037108
     20         16           0       -6.039700   -0.051082    0.026194
     21          6           0       -3.242327    0.275562   -0.044100
     22          6           0       -2.871373   -1.061159   -0.028618
     23          6           0       -1.451561   -1.199043   -0.029340
     24          6           0       -0.796249   -0.086445   -0.005513
     25         16           0       -1.907601    1.297721   -0.010307
     26          6           0        0.697810    0.149610    0.004247
     27          7           0        1.185327    1.350327   -0.053692
     28          6           0        2.571059    1.282373   -0.035037
     29          6           0        3.069303   -0.039496    0.035437
     30         16           0        1.799373   -1.180349    0.008781
     31          6           0        4.459831   -0.507488    0.029229
     32          6           0        5.009311   -1.757845   -0.021137
     33          6           0        6.339984   -1.823592   -0.000879
     34          6           0        7.004235   -0.544703   -0.034055
     35         16           0        5.793300    0.608401   -0.012253
     36          6           0        8.408629   -0.221127   -0.041798
     37          7           0        8.849766    1.035797    0.022102
     38          6           0       10.229156    1.032444   -0.016147
     39          6           0       10.857055   -0.206729   -0.033903
     40         16           0        9.605161   -1.393129   -0.055311
     41          6           0       12.193706   -0.470417   -0.011462
     42          6           0       12.893996   -1.695587    0.009145
     43          6           0       14.254945   -1.656931   -0.017027
     44          6           0       14.766621   -0.274918    0.025516
     45         16           0       13.414587    0.805695    0.065754
     46          6           0       16.082840    0.179818    0.065192
     47          7           0       16.398001    1.501375    0.028865
     48          6           0       17.745780    1.593254    0.078599
     49          6           0       18.526995    0.421862    0.055337
     50         16           0       17.479206   -0.903508   -0.040656
     51          1           0      -19.180113   -2.049135    0.017323
     52          1           0      -19.055973    0.552703    0.019391
     53          1           0      -16.633845    1.368375   -0.044282
     54          1           0      -11.656321   -2.059210    0.005794
     55          1           0      -11.471675    2.861507   -0.032744
     56          1           0       -8.818981    3.464796   -0.012659
     57          1           0       -4.270588    3.078387   -0.063720
     58          1           0       -3.579035   -1.829027    0.014995
     59          1           0       -0.989564   -2.233496   -0.025185
     60          1           0        3.150618    2.195828    0.013671
     61          1           0        4.307552   -2.614677   -0.025682
     62          1           0        6.936562   -2.803151   -0.018070
     63          1           0       10.656983    2.024566   -0.024030
     64          1           0       12.372220   -2.648165   -0.073450
     65          1           0       14.976669   -2.487898   -0.005407
     66          1           0       18.159900    2.612890    0.116537
     67          1           0       19.608019    0.391168    0.007489
 ---------------------------------------------------------------------
 Rotational constants (GHZ):           0.4089387           0.0049884           0.0049284
 Leave Link  202 at Fri Jul 24 02:57:10 2020, MaxMem=  4026531840 cpu:               0.1 elap:               0.0
 (Enter /opt/ohpc/pub/libs/gaussian/g16-A.03/sandybridge/g16/l301.exe)
 Standard basis: CC-pVDZ (5D, 7F)
 Ernie: Thresh=  0.10000D-02 Tol=  0.10000D-05 Strict=F.
 Ernie:  180 primitive shells out of 1465 were deleted.
 There are   875 symmetry adapted cartesian basis functions of A   symmetry.
 There are   825 symmetry adapted basis functions of A   symmetry.
   825 basis functions,  2149 primitive gaussians,   875 cartesian basis functions
   211 alpha electrons      211 beta electrons
       nuclear repulsion energy      6568.9671447434 Hartrees.
 IExCor=32609 DFT=T Ex+Corr=LC-wPBE ExCW=0 ScaHFX=  1.000000
 ScaDFX=  1.000000  0.000000  1.000000  1.000000 ScalE2=  1.000000  1.000000
 IRadAn=      5 IRanWt=     -1 IRanGd=            0 ICorTp=0 IEmpDi=  4
 HFx  wShort=  0.000000 wLong=  0.062500 cFull=  0.000000 cShort=  0.000000 cLong=  1.000000
 DFx  wShort=  0.000000 wLong=  0.062500 cFull=  0.000000 cShort=  0.000000 cLong=  1.000000
 NAtoms=   67 NActive=   67 NUniq=   67 SFac= 1.00D+00 NAtFMM=   60 NAOKFM=T Big=T
 Integral buffers will be    131072 words long.
 Raffenetti 2 integral format.
 Two-electron integral symmetry is turned on.
 Leave Link  301 at Fri Jul 24 02:57:10 2020, MaxMem=  4026531840 cpu:               0.7 elap:               0.1
 (Enter /opt/ohpc/pub/libs/gaussian/g16-A.03/sandybridge/g16/l302.exe)
 NPDir=0 NMtPBC=     1 NCelOv=     1 NCel=       1 NClECP=     1 NCelD=      1
         NCelK=      1 NCelE2=     1 NClLst=     1 CellRange=     0.0.
 One-electron integrals computed using PRISM.
 One-electron integral symmetry used in STVInt
 NBasis=   825 RedAO= T EigKep=  2.62D-04  NBF=   825
 NBsUse=   825 1.00D-06 EigRej= -1.00D+00 NBFU=   825
 Precomputing XC quadrature grid using
 IXCGrd= 4 IRadAn=           5 IRanWt=          -1 IRanGd=           0 AccXCQ= 0.00D+00.
 Generated NRdTot=       0 NPtTot=           0 NUsed=           0 NTot=          32
 NSgBfM=   530   530   530   530   530 MxSgAt=    67 MxSgA2=    61.
 Leave Link  302 at Fri Jul 24 02:57:14 2020, MaxMem=  4026531840 cpu:              26.8 elap:               3.4
 (Enter /opt/ohpc/pub/libs/gaussian/g16-A.03/sandybridge/g16/l303.exe)
 DipDrv:  MaxL=1.
 Leave Link  303 at Fri Jul 24 02:57:14 2020, MaxMem=  4026531840 cpu:               2.1 elap:               0.3
 (Enter /opt/ohpc/pub/libs/gaussian/g16-A.03/sandybridge/g16/l401.exe)
 ExpMin= 1.22D-01 ExpMax= 1.11D+05 ExpMxC= 1.07D+03 IAcc=3 IRadAn=         5 AccDes= 0.00D+00
 Harris functional with IExCor=32609 and IRadAn=       5 diagonalized for initial guess.
 HarFok:  IExCor=32609 AccDes= 0.00D+00 IRadAn=         5 IDoV= 1 UseB2=F ITyADJ=14
 ICtDFT=  3500011 ScaDFX=  1.000000  1.000000  1.000000  1.000000
 FoFCou: FMM=F IPFlag=           0 FMFlag=      100000 FMFlg1=        2001
         NFxFlg=           0 DoJE=T BraDBF=F KetDBF=T FulRan=T
         wScrn=  0.000000 ICntrl=       500 IOpCl=  0 I1Cent=   200000004 NGrid=           0
         NMat0=    1 NMatS0=      1 NMatT0=    0 NMatD0=    1 NMtDS0=    0 NMtDT0=    0
 Petite list used in FoFCou.
 Harris En= -5596.52937879886    
 JPrj=0 DoOrth=F DoCkMO=F.
 Initial guess <Sx>= 0.0000 <Sy>= 0.0000 <Sz>= 0.0000 <S**2>=-0.0000 S=-0.0000
 Leave Link  401 at Fri Jul 24 02:57:26 2020, MaxMem=  4026531840 cpu:              94.1 elap:              11.8
 (Enter /opt/ohpc/pub/libs/gaussian/g16-A.03/sandybridge/g16/l502.exe)
 Integral symmetry usage will be decided dynamically.
 UHF open shell SCF:
 Using DIIS extrapolation, IDIIS=  1040.
 NGot=  4026531840 LenX=  4024985029 LenY=  4024218529
 Requested convergence on RMS density matrix=1.00D-08 within 128 cycles.
 Requested convergence on MAX density matrix=1.00D-06.
 Requested convergence on             energy=1.00D-06.
 No special actions if energy rises.
 Fock matrices will be formed incrementally for  20 cycles.
 Integral accuracy reduced to 1.0D-05 until final iterations.

 Cycle   1  Pass 0  IDiag  1:
 FoFJK:  IHMeth= 1 ICntrl=       0 DoSepK=T KAlg= 0 I1Cent=           0 FoldK=F
 IRaf=         1 NMat=       1 IRICut=       1 DoRegI=T DoRafI=F ISym2E= 0 IDoP0=0 IntGTp=1.
 FoFCou: FMM=T IPFlag=           0 FMFlag=      100000 FMFlg1=        2001
         NFxFlg=           0 DoJE=T BraDBF=F KetDBF=F FulRan=T
         wScrn=  0.000000 ICntrl=       500 IOpCl=  0 I1Cent=           0 NGrid=           0
         NMat0=    1 NMatS0=      1 NMatT0=    0 NMatD0=    1 NMtDS0=    0 NMtDT0=    0
 Symmetry not used in FoFCou.
 FMM levels:  10  Number of levels for PrismC:   9
 E= -5595.19972927250    
 DIIS: error= 2.01D-02 at cycle   1 NSaved=   1.
 NSaved= 1 IEnMin= 1 EnMin= -5595.19972927250     IErMin= 1 ErrMin= 2.01D-02
 ErrMax= 2.01D-02  0.00D+00 EMaxC= 1.00D-01 BMatC= 4.53D+00 BMatP= 4.53D+00
 IDIUse=3 WtCom= 7.99D-01 WtEn= 2.01D-01
 Coeff-Com:  0.100D+01
 Coeff-En:   0.100D+01
 Coeff:      0.100D+01
 Gap=     0.041 Goal=   None    Shift=    0.000
 Gap=     0.041 Goal=   None    Shift=    0.000
 GapD=    0.041 DampG=0.250 DampE=0.500 DampFc=0.2500 IDamp=-1.
 Damping current iteration by 2.50D-01
 RMSDP=4.39D-03 MaxDP=1.98D-01              OVMax= 3.55D-01

 Cycle   2  Pass 0  IDiag  1:
 RMSU=  1.10D-03    CP:  9.96D-01
 E= -5595.70784134707     Delta-E=       -0.508112074580 Rises=F Damp=T
 DIIS: error= 9.30D-03 at cycle   2 NSaved=   2.
 NSaved= 2 IEnMin= 2 EnMin= -5595.70784134707     IErMin= 2 ErrMin= 9.30D-03
 ErrMax= 9.30D-03  0.00D+00 EMaxC= 1.00D-01 BMatC= 5.78D-01 BMatP= 4.53D+00
 IDIUse=3 WtCom= 9.07D-01 WtEn= 9.30D-02
 Coeff-Com: -0.453D+00 0.145D+01
 Coeff-En:   0.000D+00 0.100D+01
 Coeff:     -0.411D+00 0.141D+01
 Gap=     0.189 Goal=   None    Shift=    0.000
 Gap=     0.189 Goal=   None    Shift=    0.000
 RMSDP=9.13D-04 MaxDP=4.65D-02 DE=-5.08D-01 OVMax= 2.72D-01

 Cycle   3  Pass 0  IDiag  1:
 RMSU=  8.58D-04    CP:  9.89D-01  1.27D+00
 E= -5596.46066997689     Delta-E=       -0.752828629815 Rises=F Damp=F
 DIIS: error= 5.32D-03 at cycle   3 NSaved=   3.
 NSaved= 3 IEnMin= 3 EnMin= -5596.46066997689     IErMin= 3 ErrMin= 5.32D-03
 ErrMax= 5.32D-03  0.00D+00 EMaxC= 1.00D-01 BMatC= 3.73D-01 BMatP= 5.78D-01
 IDIUse=3 WtCom= 9.47D-01 WtEn= 5.32D-02
 Coeff-Com: -0.282D+00 0.910D+00 0.373D+00
 Coeff-En:   0.000D+00 0.000D+00 0.100D+01
 Coeff:     -0.267D+00 0.861D+00 0.406D+00
 Gap=     0.113 Goal=   None    Shift=    0.000
 Gap=     0.113 Goal=   None    Shift=    0.000
 RMSDP=4.55D-04 MaxDP=4.68D-02 DE=-7.53D-01 OVMax= 5.24D-02

 Cycle   4  Pass 0  IDiag  1:
 RMSU=  3.56D-04    CP:  9.91D-01  1.30D+00  6.74D-01
 E= -5596.54562506847     Delta-E=       -0.084955091585 Rises=F Damp=F
 DIIS: error= 1.83D-03 at cycle   4 NSaved=   4.
 NSaved= 4 IEnMin= 4 EnMin= -5596.54562506847     IErMin= 4 ErrMin= 1.83D-03
 ErrMax= 1.83D-03  0.00D+00 EMaxC= 1.00D-01 BMatC= 3.10D-02 BMatP= 3.73D-01
 IDIUse=3 WtCom= 9.82D-01 WtEn= 1.83D-02
 Coeff-Com: -0.663D-01 0.232D+00 0.227D+00 0.608D+00
 Coeff-En:   0.000D+00 0.000D+00 0.607D-01 0.939D+00
 Coeff:     -0.651D-01 0.227D+00 0.223D+00 0.614D+00
 Gap=     0.115 Goal=   None    Shift=    0.000
 Gap=     0.115 Goal=   None    Shift=    0.000
 RMSDP=1.71D-04 MaxDP=1.32D-02 DE=-8.50D-02 OVMax= 2.11D-02

 Cycle   5  Pass 0  IDiag  1:
 RMSU=  1.16D-04    CP:  9.91D-01  1.28D+00  7.52D-01  7.06D-01
 E= -5596.55176780223     Delta-E=       -0.006142733753 Rises=F Damp=F
 DIIS: error= 1.11D-03 at cycle   5 NSaved=   5.
 NSaved= 5 IEnMin= 5 EnMin= -5596.55176780223     IErMin= 5 ErrMin= 1.11D-03
 ErrMax= 1.11D-03  0.00D+00 EMaxC= 1.00D-01 BMatC= 7.36D-03 BMatP= 3.10D-02
 IDIUse=3 WtCom= 9.89D-01 WtEn= 1.11D-02
 Coeff-Com: -0.991D-02 0.512D-01 0.951D-01 0.400D+00 0.464D+00
 Coeff-En:   0.000D+00 0.000D+00 0.000D+00 0.208D+00 0.792D+00
 Coeff:     -0.980D-02 0.506D-01 0.940D-01 0.398D+00 0.467D+00
 Gap=     0.115 Goal=   None    Shift=    0.000
 Gap=     0.115 Goal=   None    Shift=    0.000
 RMSDP=7.35D-05 MaxDP=5.42D-03 DE=-6.14D-03 OVMax= 9.12D-03

 Cycle   6  Pass 0  IDiag  1:
 RMSU=  4.87D-05    CP:  9.91D-01  1.28D+00  7.47D-01  8.02D-01  6.31D-01
 E= -5596.55360673709     Delta-E=       -0.001838934864 Rises=F Damp=F
 DIIS: error= 3.00D-04 at cycle   6 NSaved=   6.
 NSaved= 6 IEnMin= 6 EnMin= -5596.55360673709     IErMin= 6 ErrMin= 3.00D-04
 ErrMax= 3.00D-04  0.00D+00 EMaxC= 1.00D-01 BMatC= 8.61D-04 BMatP= 7.36D-03
 IDIUse=3 WtCom= 9.97D-01 WtEn= 3.00D-03
 Coeff-Com:  0.110D-01-0.212D-01 0.688D-02 0.114D+00 0.290D+00 0.600D+00
 Coeff-En:   0.000D+00 0.000D+00 0.000D+00 0.000D+00 0.855D-01 0.914D+00
 Coeff:      0.110D-01-0.212D-01 0.685D-02 0.113D+00 0.289D+00 0.601D+00
 Gap=     0.116 Goal=   None    Shift=    0.000
 Gap=     0.116 Goal=   None    Shift=    0.000
 RMSDP=2.80D-05 MaxDP=1.66D-03 DE=-1.84D-03 OVMax= 2.57D-03

 Cycle   7  Pass 0  IDiag  1:
 RMSU=  2.13D-05    CP:  9.91D-01  1.28D+00  7.52D-01  8.06D-01  7.16D-01
                    CP:  7.54D-01
 E= -5596.55383184544     Delta-E=       -0.000225108344 Rises=F Damp=F
 DIIS: error= 1.27D-04 at cycle   7 NSaved=   7.
 NSaved= 7 IEnMin= 7 EnMin= -5596.55383184544     IErMin= 7 ErrMin= 1.27D-04
 ErrMax= 1.27D-04  0.00D+00 EMaxC= 1.00D-01 BMatC= 7.93D-05 BMatP= 8.61D-04
 IDIUse=3 WtCom= 9.99D-01 WtEn= 1.27D-03
 Coeff-Com:  0.758D-02-0.160D-01-0.900D-03 0.436D-01 0.141D+00 0.345D+00
 Coeff-Com:  0.480D+00
 Coeff-En:   0.000D+00 0.000D+00 0.000D+00 0.000D+00 0.000D+00 0.000D+00
 Coeff-En:   0.100D+01
 Coeff:      0.757D-02-0.160D-01-0.899D-03 0.435D-01 0.141D+00 0.344D+00
 Coeff:      0.481D+00
 Gap=     0.116 Goal=   None    Shift=    0.000
 Gap=     0.116 Goal=   None    Shift=    0.000
 RMSDP=1.49D-05 MaxDP=5.70D-04 DE=-2.25D-04 OVMax= 9.55D-04

 Cycle   8  Pass 0  IDiag  1:
 RMSU=  1.44D-05    CP:  9.91D-01  1.28D+00  7.53D-01  8.08D-01  7.17D-01
                    CP:  8.08D-01  8.77D-01
 E= -5596.55384991659     Delta-E=       -0.000018071154 Rises=F Damp=F
 DIIS: error= 7.80D-05 at cycle   8 NSaved=   8.
 NSaved= 8 IEnMin= 8 EnMin= -5596.55384991659     IErMin= 8 ErrMin= 7.80D-05
 ErrMax= 7.80D-05  0.00D+00 EMaxC= 1.00D-01 BMatC= 2.65D-05 BMatP= 7.93D-05
 IDIUse=1 WtCom= 1.00D+00 WtEn= 0.00D+00
 Coeff-Com:  0.308D-02-0.660D-02-0.135D-02 0.594D-02 0.325D-01 0.102D+00
 Coeff-Com:  0.352D+00 0.513D+00
 Coeff:      0.308D-02-0.660D-02-0.135D-02 0.594D-02 0.325D-01 0.102D+00
 Coeff:      0.352D+00 0.513D+00
 Gap=     0.116 Goal=   None    Shift=    0.000
 Gap=     0.116 Goal=   None    Shift=    0.000
 RMSDP=1.54D-05 MaxDP=4.17D-04 DE=-1.81D-05 OVMax= 5.62D-04

 Cycle   9  Pass 0  IDiag  1:
 RMSU=  1.33D-05    CP:  9.91D-01  1.27D+00  7.52D-01  8.09D-01  7.26D-01
                    CP:  8.42D-01  1.15D+00  1.33D+00
 E= -5596.55386070321     Delta-E=       -0.000010786624 Rises=F Damp=F
 DIIS: error= 5.50D-05 at cycle   9 NSaved=   9.
 NSaved= 9 IEnMin= 9 EnMin= -5596.55386070321     IErMin= 9 ErrMin= 5.50D-05
 ErrMax= 5.50D-05  0.00D+00 EMaxC= 1.00D-01 BMatC= 1.14D-05 BMatP= 2.65D-05
 IDIUse=1 WtCom= 1.00D+00 WtEn= 0.00D+00
 Coeff-Com:  0.260D-02-0.551D-02-0.102D-02 0.491D-02 0.265D-01 0.836D-01
 Coeff-Com:  0.292D+00 0.428D+00 0.168D+00
 Coeff:      0.260D-02-0.551D-02-0.102D-02 0.491D-02 0.265D-01 0.836D-01
 Coeff:      0.292D+00 0.428D+00 0.168D+00
 Gap=     0.116 Goal=   None    Shift=    0.000
 Gap=     0.116 Goal=   None    Shift=    0.000
 RMSDP=5.98D-06 MaxDP=1.60D-04 DE=-1.08D-05 OVMax= 6.39D-05

 Initial convergence to 1.0D-05 achieved.  Increase integral accuracy.
 Cycle  10  Pass 1  IDiag  1:
 E= -5596.55318336331     Delta-E=        0.000677339905 Rises=F Damp=F
 DIIS: error= 2.34D-04 at cycle   1 NSaved=   1.
 NSaved= 1 IEnMin= 1 EnMin= -5596.55318336331     IErMin= 1 ErrMin= 2.34D-04
 ErrMax= 2.34D-04  0.00D+00 EMaxC= 1.00D-01 BMatC= 1.14D-04 BMatP= 1.14D-04
 IDIUse=3 WtCom= 9.98D-01 WtEn= 2.34D-03
 Coeff-Com:  0.100D+01
 Coeff-En:   0.100D+01
 Coeff:      0.100D+01
 Gap=     0.116 Goal=   None    Shift=    0.000
 Gap=     0.116 Goal=   None    Shift=    0.000
 RMSDP=5.98D-06 MaxDP=1.60D-04 DE= 6.77D-04 OVMax= 4.08D-04

 Cycle  11  Pass 1  IDiag  1:
 RMSU=  1.10D-04    CP:  1.00D+00
 E= -5596.55320549571     Delta-E=       -0.000022132399 Rises=F Damp=F
 DIIS: error= 2.16D-05 at cycle   2 NSaved=   2.
 NSaved= 2 IEnMin= 2 EnMin= -5596.55320549571     IErMin= 2 ErrMin= 2.16D-05
 ErrMax= 2.16D-05  0.00D+00 EMaxC= 1.00D-01 BMatC= 2.26D-06 BMatP= 1.14D-04
 IDIUse=1 WtCom= 1.00D+00 WtEn= 0.00D+00
 Coeff-Com:  0.766D-02 0.992D+00
 Coeff:      0.766D-02 0.992D+00
 Gap=     0.116 Goal=   None    Shift=    0.000
 Gap=     0.116 Goal=   None    Shift=    0.000
 RMSDP=4.61D-06 MaxDP=2.36D-04 DE=-2.21D-05 OVMax= 5.19D-04

 Cycle  12  Pass 1  IDiag  1:
 RMSU=  3.22D-06    CP:  1.00D+00  1.03D+00
 E= -5596.55320320459     Delta-E=        0.000002291114 Rises=F Damp=F
 DIIS: error= 5.64D-05 at cycle   3 NSaved=   3.
 NSaved= 3 IEnMin= 2 EnMin= -5596.55320549571     IErMin= 2 ErrMin= 2.16D-05
 ErrMax= 5.64D-05  0.00D+00 EMaxC= 1.00D-01 BMatC= 1.12D-05 BMatP= 2.26D-06
 IDIUse=1 WtCom= 1.00D+00 WtEn= 0.00D+00
 Coeff-Com: -0.142D-01 0.703D+00 0.311D+00
 Coeff:     -0.142D-01 0.703D+00 0.311D+00
 Gap=     0.116 Goal=   None    Shift=    0.000
 Gap=     0.116 Goal=   None    Shift=    0.000
 RMSDP=2.16D-06 MaxDP=1.83D-04 DE= 2.29D-06 OVMax= 3.51D-04

 Cycle  13  Pass 1  IDiag  1:
 RMSU=  9.19D-07    CP:  1.00D+00  1.03D+00  3.97D-01
 E= -5596.55320601901     Delta-E=       -0.000002814415 Rises=F Damp=F
 DIIS: error= 5.76D-06 at cycle   4 NSaved=   4.
 NSaved= 4 IEnMin= 4 EnMin= -5596.55320601901     IErMin= 4 ErrMin= 5.76D-06
 ErrMax= 5.76D-06  0.00D+00 EMaxC= 1.00D-01 BMatC= 1.69D-07 BMatP= 2.26D-06
 IDIUse=1 WtCom= 1.00D+00 WtEn= 0.00D+00
 Coeff-Com: -0.929D-02 0.418D+00 0.196D+00 0.395D+00
 Coeff:     -0.929D-02 0.418D+00 0.196D+00 0.395D+00
 Gap=     0.116 Goal=   None    Shift=    0.000
 Gap=     0.116 Goal=   None    Shift=    0.000
 RMSDP=3.01D-07 MaxDP=2.48D-05 DE=-2.81D-06 OVMax= 3.50D-05

 Cycle  14  Pass 1  IDiag  1:
 RMSU=  2.67D-07    CP:  1.00D+00  1.03D+00  4.14D-01  8.62D-01
 E= -5596.55320609248     Delta-E=       -0.000000073474 Rises=F Damp=F
 DIIS: error= 1.11D-06 at cycle   5 NSaved=   5.
 NSaved= 5 IEnMin= 5 EnMin= -5596.55320609248     IErMin= 5 ErrMin= 1.11D-06
 ErrMax= 1.11D-06  0.00D+00 EMaxC= 1.00D-01 BMatC= 6.50D-09 BMatP= 1.69D-07
 IDIUse=1 WtCom= 1.00D+00 WtEn= 0.00D+00
 Coeff-Com: -0.290D-02 0.124D+00 0.584D-01 0.190D+00 0.630D+00
 Coeff:     -0.290D-02 0.124D+00 0.584D-01 0.190D+00 0.630D+00
 Gap=     0.116 Goal=   None    Shift=    0.000
 Gap=     0.116 Goal=   None    Shift=    0.000
 RMSDP=9.42D-08 MaxDP=5.71D-06 DE=-7.35D-08 OVMax= 1.45D-05

 Cycle  15  Pass 1  IDiag  1:
 RMSU=  8.09D-08    CP:  1.00D+00  1.03D+00  4.15D-01  8.99D-01  8.98D-01
 E= -5596.55320610025     Delta-E=       -0.000000007765 Rises=F Damp=F
 DIIS: error= 7.20D-07 at cycle   6 NSaved=   6.
 NSaved= 6 IEnMin= 6 EnMin= -5596.55320610025     IErMin= 6 ErrMin= 7.20D-07
 ErrMax= 7.20D-07  0.00D+00 EMaxC= 1.00D-01 BMatC= 3.48D-09 BMatP= 6.50D-09
 IDIUse=1 WtCom= 1.00D+00 WtEn= 0.00D+00
 Coeff-Com: -0.189D-05-0.479D-02-0.231D-02 0.490D-01 0.462D+00 0.496D+00
 Coeff:     -0.189D-05-0.479D-02-0.231D-02 0.490D-01 0.462D+00 0.496D+00
 Gap=     0.116 Goal=   None    Shift=    0.000
 Gap=     0.116 Goal=   None    Shift=    0.000
 RMSDP=5.13D-08 MaxDP=4.64D-06 DE=-7.77D-09 OVMax= 1.05D-05

 Cycle  16  Pass 1  IDiag  1:
 RMSU=  3.42D-08    CP:  1.00D+00  1.03D+00  4.16D-01  9.13D-01  9.61D-01
                    CP:  6.38D-01
 E= -5596.55320609450     Delta-E=        0.000000005748 Rises=F Damp=F
 DIIS: error= 2.16D-07 at cycle   7 NSaved=   7.
 NSaved= 7 IEnMin= 6 EnMin= -5596.55320610025     IErMin= 7 ErrMin= 2.16D-07
 ErrMax= 2.16D-07  0.00D+00 EMaxC= 1.00D-01 BMatC= 3.90D-10 BMatP= 3.48D-09
 IDIUse=1 WtCom= 1.00D+00 WtEn= 0.00D+00
 Coeff-Com:  0.302D-03-0.162D-01-0.784D-02 0.128D-01 0.248D+00 0.331D+00
 Coeff-Com:  0.432D+00
 Coeff:      0.302D-03-0.162D-01-0.784D-02 0.128D-01 0.248D+00 0.331D+00
 Coeff:      0.432D+00
 Gap=     0.116 Goal=   None    Shift=    0.000
 Gap=     0.116 Goal=   None    Shift=    0.000
 RMSDP=1.62D-08 MaxDP=1.29D-06 DE= 5.75D-09 OVMax= 2.70D-06

 Cycle  17  Pass 1  IDiag  1:
 RMSU=  1.43D-08    CP:  1.00D+00  1.03D+00  4.17D-01  9.16D-01  9.62D-01
                    CP:  6.91D-01  8.55D-01
 E= -5596.55320610115     Delta-E=       -0.000000006647 Rises=F Damp=F
 DIIS: error= 5.58D-08 at cycle   8 NSaved=   8.
 NSaved= 8 IEnMin= 8 EnMin= -5596.55320610115     IErMin= 8 ErrMin= 5.58D-08
 ErrMax= 5.58D-08  0.00D+00 EMaxC= 1.00D-01 BMatC= 2.16D-11 BMatP= 3.90D-10
 IDIUse=1 WtCom= 1.00D+00 WtEn= 0.00D+00
 Coeff-Com:  0.151D-03-0.749D-02-0.376D-02 0.293D-03 0.685D-01 0.103D+00
 Coeff-Com:  0.210D+00 0.629D+00
 Coeff:      0.151D-03-0.749D-02-0.376D-02 0.293D-03 0.685D-01 0.103D+00
 Coeff:      0.210D+00 0.629D+00
 Gap=     0.116 Goal=   None    Shift=    0.000
 Gap=     0.116 Goal=   None    Shift=    0.000
 RMSDP=6.63D-09 MaxDP=3.41D-07 DE=-6.65D-09 OVMax= 2.05D-06

 SCF Done:  E(ULC-wPBE) =  -5596.55320610     A.U. after   17 cycles
            NFock= 17  Conv=0.66D-08     -V/T= 2.0030
 <Sx>= 0.0000 <Sy>= 0.0000 <Sz>= 0.0000 <S**2>=-0.0000 S=-0.0000
 <L.S>= 0.000000000000E+00
 KE= 5.579949343987D+03 PE=-2.635532741502D+04 EE= 8.609857720188D+03
 Annihilation of the first spin contaminant:
 S**2 before annihilation    -0.0000,   after     0.0000
 Leave Link  502 at Fri Jul 24 03:09:39 2020, MaxMem=  4026531840 cpu:            5743.4 elap:             733.4
 (Enter /opt/ohpc/pub/libs/gaussian/g16-A.03/sandybridge/g16/l601.exe)
 Copying SCF densities to generalized density rwf, IOpCl= 1 IROHF=0.

 **********************************************************************

            Population analysis using the SCF density.

 **********************************************************************

 Orbital symmetries:
 Alpha Orbitals:
       Occupied  (A) (A) (A) (A) (A) (A) (A) (A) (A) (A) (A) (A)
                 (A) (A) (A) (A) (A) (A) (A) (A) (A) (A) (A) (A)
                 (A) (A) (A) (A) (A) (A) (A) (A) (A) (A) (A) (A)
                 (A) (A) (A) (A) (A) (A) (A) (A) (A) (A) (A) (A)
                 (A) (A) (A) (A) (A) (A) (A) (A) (A) (A) (A) (A)
                 (A) (A) (A) (A) (A) (A) (A) (A) (A) (A) (A) (A)
                 (A) (A) (A) (A) (A) (A) (A) (A) (A) (A) (A) (A)
                 (A) (A) (A) (A) (A) (A) (A) (A) (A) (A) (A) (A)
                 (A) (A) (A) (A) (A) (A) (A) (A) (A) (A) (A) (A)
                 (A) (A) (A) (A) (A) (A) (A) (A) (A) (A) (A) (A)
                 (A) (A) (A) (A) (A) (A) (A) (A) (A) (A) (A) (A)
                 (A) (A) (A) (A) (A) (A) (A) (A) (A) (A) (A) (A)
                 (A) (A) (A) (A) (A) (A) (A) (A) (A) (A) (A) (A)
                 (A) (A) (A) (A) (A) (A) (A) (A) (A) (A) (A) (A)
                 (A) (A) (A) (A) (A) (A) (A) (A) (A) (A) (A) (A)
                 (A) (A) (A) (A) (A) (A) (A) (A) (A) (A) (A) (A)
                 (A) (A) (A) (A) (A) (A) (A) (A) (A) (A) (A) (A)
                 (A) (A) (A) (A) (A) (A) (A)
       Virtual   (A) (A) (A) (A) (A) (A) (A) (A) (A) (A) (A) (A)
                 (A) (A) (A) (A) (A) (A) (A) (A) (A) (A) (A) (A)
                 (A) (A) (A) (A) (A) (A) (A) (A) (A) (A) (A) (A)
                 (A) (A) (A) (A) (A) (A) (A) (A) (A) (A) (A) (A)
                 (A) (A) (A) (A) (A) (A) (A) (A) (A) (A) (A) (A)
                 (A) (A) (A) (A) (A) (A) (A) (A) (A) (A) (A) (A)
                 (A) (A) (A) (A) (A) (A) (A) (A) (A) (A) (A) (A)
                 (A) (A) (A) (A) (A) (A) (A) (A) (A) (A) (A) (A)
                 (A) (A) (A) (A) (A) (A) (A) (A) (A) (A) (A) (A)
                 (A) (A) (A) (A) (A) (A) (A) (A) (A) (A) (A) (A)
                 (A) (A) (A) (A) (A) (A) (A) (A) (A) (A) (A) (A)
                 (A) (A) (A) (A) (A) (A) (A) (A) (A) (A) (A) (A)
                 (A) (A) (A) (A) (A) (A) (A) (A) (A) (A) (A) (A)
                 (A) (A) (A) (A) (A) (A) (A) (A) (A) (A) (A) (A)
                 (A) (A) (A) (A) (A) (A) (A) (A) (A) (A) (A) (A)
                 (A) (A) (A) (A) (A) (A) (A) (A) (A) (A) (A) (A)
                 (A) (A) (A) (A) (A) (A) (A) (A) (A) (A) (A) (A)
                 (A) (A) (A) (A) (A) (A) (A) (A) (A) (A) (A) (A)
                 (A) (A) (A) (A) (A) (A) (A) (A) (A) (A) (A) (A)
                 (A) (A) (A) (A) (A) (A) (A) (A) (A) (A) (A) (A)
                 (A) (A) (A) (A) (A) (A) (A) (A) (A) (A) (A) (A)
                 (A) (A) (A) (A) (A) (A) (A) (A) (A) (A) (A) (A)
                 (A) (A) (A) (A) (A) (A) (A) (A) (A) (A) (A) (A)
                 (A) (A) (A) (A) (A) (A) (A) (A) (A) (A) (A) (A)
                 (A) (A) (A) (A) (A) (A) (A) (A) (A) (A) (A) (A)
                 (A) (A) (A) (A) (A) (A) (A) (A) (A) (A) (A) (A)
                 (A) (A) (A) (A) (A) (A) (A) (A) (A) (A) (A) (A)
                 (A) (A) (A) (A) (A) (A) (A) (A) (A) (A) (A) (A)
                 (A) (A) (A) (A) (A) (A) (A) (A) (A) (A) (A) (A)
                 (A) (A) (A) (A) (A) (A) (A) (A) (A) (A) (A) (A)
                 (A) (A) (A) (A) (A) (A) (A) (A) (A) (A) (A) (A)
                 (A) (A) (A) (A) (A) (A) (A) (A) (A) (A) (A) (A)
                 (A) (A) (A) (A) (A) (A) (A) (A) (A) (A) (A) (A)
                 (A) (A) (A) (A) (A) (A) (A) (A) (A) (A) (A) (A)
                 (A) (A) (A) (A) (A) (A) (A) (A) (A) (A) (A) (A)
                 (A) (A) (A) (A) (A) (A) (A) (A) (A) (A) (A) (A)
                 (A) (A) (A) (A) (A) (A) (A) (A) (A) (A) (A) (A)
                 (A) (A) (A) (A) (A) (A) (A) (A) (A) (A) (A) (A)
                 (A) (A) (A) (A) (A) (A) (A) (A) (A) (A) (A) (A)
                 (A) (A) (A) (A) (A) (A) (A) (A) (A) (A) (A) (A)
                 (A) (A) (A) (A) (A) (A) (A) (A) (A) (A) (A) (A)
                 (A) (A) (A) (A) (A) (A) (A) (A) (A) (A) (A) (A)
                 (A) (A) (A) (A) (A) (A) (A) (A) (A) (A) (A) (A)
                 (A) (A) (A) (A) (A) (A) (A) (A) (A) (A) (A) (A)
                 (A) (A) (A) (A) (A) (A) (A) (A) (A) (A) (A) (A)
                 (A) (A) (A) (A) (A) (A) (A) (A) (A) (A) (A) (A)
                 (A) (A) (A) (A) (A) (A) (A) (A) (A) (A) (A) (A)
                 (A) (A) (A) (A) (A) (A) (A) (A) (A) (A) (A) (A)
                 (A) (A) (A) (A) (A) (A) (A) (A) (A) (A) (A) (A)
                 (A) (A) (A) (A) (A) (A) (A) (A) (A) (A) (A) (A)
                 (A) (A) (A) (A) (A) (A) (A) (A) (A) (A) (A) (A)
                 (A) (A)
 Beta  Orbitals:
       Occupied  (A) (A) (A) (A) (A) (A) (A) (A) (A) (A) (A) (A)
                 (A) (A) (A) (A) (A) (A) (A) (A) (A) (A) (A) (A)
                 (A) (A) (A) (A) (A) (A) (A) (A) (A) (A) (A) (A)
                 (A) (A) (A) (A) (A) (A) (A) (A) (A) (A) (A) (A)
                 (A) (A) (A) (A) (A) (A) (A) (A) (A) (A) (A) (A)
                 (A) (A) (A) (A) (A) (A) (A) (A) (A) (A) (A) (A)
                 (A) (A) (A) (A) (A) (A) (A) (A) (A) (A) (A) (A)
                 (A) (A) (A) (A) (A) (A) (A) (A) (A) (A) (A) (A)
                 (A) (A) (A) (A) (A) (A) (A) (A) (A) (A) (A) (A)
                 (A) (A) (A) (A) (A) (A) (A) (A) (A) (A) (A) (A)
                 (A) (A) (A) (A) (A) (A) (A) (A) (A) (A) (A) (A)
                 (A) (A) (A) (A) (A) (A) (A) (A) (A) (A) (A) (A)
                 (A) (A) (A) (A) (A) (A) (A) (A) (A) (A) (A) (A)
                 (A) (A) (A) (A) (A) (A) (A) (A) (A) (A) (A) (A)
                 (A) (A) (A) (A) (A) (A) (A) (A) (A) (A) (A) (A)
                 (A) (A) (A) (A) (A) (A) (A) (A) (A) (A) (A) (A)
                 (A) (A) (A) (A) (A) (A) (A) (A) (A) (A) (A) (A)
                 (A) (A) (A) (A) (A) (A) (A)
       Virtual   (A) (A) (A) (A) (A) (A) (A) (A) (A) (A) (A) (A)
                 (A) (A) (A) (A) (A) (A) (A) (A) (A) (A) (A) (A)
                 (A) (A) (A) (A) (A) (A) (A) (A) (A) (A) (A) (A)
                 (A) (A) (A) (A) (A) (A) (A) (A) (A) (A) (A) (A)
                 (A) (A) (A) (A) (A) (A) (A) (A) (A) (A) (A) (A)
                 (A) (A) (A) (A) (A) (A) (A) (A) (A) (A) (A) (A)
                 (A) (A) (A) (A) (A) (A) (A) (A) (A) (A) (A) (A)
                 (A) (A) (A) (A) (A) (A) (A) (A) (A) (A) (A) (A)
                 (A) (A) (A) (A) (A) (A) (A) (A) (A) (A) (A) (A)
                 (A) (A) (A) (A) (A) (A) (A) (A) (A) (A) (A) (A)
                 (A) (A) (A) (A) (A) (A) (A) (A) (A) (A) (A) (A)
                 (A) (A) (A) (A) (A) (A) (A) (A) (A) (A) (A) (A)
                 (A) (A) (A) (A) (A) (A) (A) (A) (A) (A) (A) (A)
                 (A) (A) (A) (A) (A) (A) (A) (A) (A) (A) (A) (A)
                 (A) (A) (A) (A) (A) (A) (A) (A) (A) (A) (A) (A)
                 (A) (A) (A) (A) (A) (A) (A) (A) (A) (A) (A) (A)
                 (A) (A) (A) (A) (A) (A) (A) (A) (A) (A) (A) (A)
                 (A) (A) (A) (A) (A) (A) (A) (A) (A) (A) (A) (A)
                 (A) (A) (A) (A) (A) (A) (A) (A) (A) (A) (A) (A)
                 (A) (A) (A) (A) (A) (A) (A) (A) (A) (A) (A) (A)
                 (A) (A) (A) (A) (A) (A) (A) (A) (A) (A) (A) (A)
                 (A) (A) (A) (A) (A) (A) (A) (A) (A) (A) (A) (A)
                 (A) (A) (A) (A) (A) (A) (A) (A) (A) (A) (A) (A)
                 (A) (A) (A) (A) (A) (A) (A) (A) (A) (A) (A) (A)
                 (A) (A) (A) (A) (A) (A) (A) (A) (A) (A) (A) (A)
                 (A) (A) (A) (A) (A) (A) (A) (A) (A) (A) (A) (A)
                 (A) (A) (A) (A) (A) (A) (A) (A) (A) (A) (A) (A)
                 (A) (A) (A) (A) (A) (A) (A) (A) (A) (A) (A) (A)
                 (A) (A) (A) (A) (A) (A) (A) (A) (A) (A) (A) (A)
                 (A) (A) (A) (A) (A) (A) (A) (A) (A) (A) (A) (A)
                 (A) (A) (A) (A) (A) (A) (A) (A) (A) (A) (A) (A)
                 (A) (A) (A) (A) (A) (A) (A) (A) (A) (A) (A) (A)
                 (A) (A) (A) (A) (A) (A) (A) (A) (A) (A) (A) (A)
                 (A) (A) (A) (A) (A) (A) (A) (A) (A) (A) (A) (A)
                 (A) (A) (A) (A) (A) (A) (A) (A) (A) (A) (A) (A)
                 (A) (A) (A) (A) (A) (A) (A) (A) (A) (A) (A) (A)
                 (A) (A) (A) (A) (A) (A) (A) (A) (A) (A) (A) (A)
                 (A) (A) (A) (A) (A) (A) (A) (A) (A) (A) (A) (A)
                 (A) (A) (A) (A) (A) (A) (A) (A) (A) (A) (A) (A)
                 (A) (A) (A) (A) (A) (A) (A) (A) (A) (A) (A) (A)
                 (A) (A) (A) (A) (A) (A) (A) (A) (A) (A) (A) (A)
                 (A) (A) (A) (A) (A) (A) (A) (A) (A) (A) (A) (A)
                 (A) (A) (A) (A) (A) (A) (A) (A) (A) (A) (A) (A)
                 (A) (A) (A) (A) (A) (A) (A) (A) (A) (A) (A) (A)
                 (A) (A) (A) (A) (A) (A) (A) (A) (A) (A) (A) (A)
                 (A) (A) (A) (A) (A) (A) (A) (A) (A) (A) (A) (A)
                 (A) (A) (A) (A) (A) (A) (A) (A) (A) (A) (A) (A)
[...]
 
              Baa    -0.0000    -0.000    -0.000    -0.000  0.1261  0.9919  0.0145
     5 S(33)  Bbb     0.0000     0.000     0.000     0.000  0.0027 -0.0149  0.9999
              Bcc     0.0000     0.000     0.000     0.000  0.9920 -0.1261 -0.0045
 
              Baa    -0.0000    -0.000    -0.000    -0.000  0.8350  0.5502 -0.0085
     6 C(13)  Bbb     0.0000     0.000     0.000     0.000 -0.5462  0.8306  0.1081
              Bcc     0.0000     0.000     0.000     0.000  0.0665 -0.0856  0.9941
 
              Baa    -0.0000    -0.000    -0.000    -0.000  0.0016 -0.0015  1.0000
     7 N(14)  Bbb    -0.0000    -0.000    -0.000    -0.000  0.3787  0.9255  0.0008
              Bcc     0.0000     0.000     0.000     0.000  0.9255 -0.3787 -0.0021
 
              Baa    -0.0000    -0.000    -0.000    -0.000  0.7330 -0.6802  0.0033
     8 C(13)  Bbb     0.0000     0.000     0.000     0.000  0.0038  0.0089  1.0000
              Bcc     0.0000     0.000     0.000     0.000  0.6802  0.7329 -0.0091
 
              Baa    -0.0000    -0.000    -0.000    -0.000 -0.3083  0.9513 -0.0064
     9 C(13)  Bbb     0.0000     0.000     0.000     0.000  0.0179  0.0125  0.9998
              Bcc     0.0000     0.000     0.000     0.000  0.9511  0.3081 -0.0209
 
              Baa    -0.0000    -0.000    -0.000    -0.000  0.9994 -0.0334 -0.0019
    10 S(33)  Bbb     0.0000     0.000     0.000     0.000  0.0019 -0.0009  1.0000
              Bcc     0.0000     0.000     0.000     0.000  0.0335  0.9994  0.0008
 
              Baa    -0.0000    -0.000    -0.000    -0.000 -0.4766  0.8791 -0.0025
    11 C(13)  Bbb     0.0000     0.000     0.000     0.000 -0.0083 -0.0017  1.0000
              Bcc     0.0000     0.000     0.000     0.000  0.8791  0.4766  0.0081
 
              Baa    -0.0000    -0.000    -0.000    -0.000  0.4687  0.8833 -0.0057
    12 C(13)  Bbb    -0.0000    -0.000    -0.000    -0.000  0.0004  0.0063  1.0000
              Bcc     0.0000     0.000     0.000     0.000  0.8834 -0.4687  0.0026
 
              Baa    -0.0000    -0.000    -0.000    -0.000 -0.6871  0.7265 -0.0067
    13 C(13)  Bbb     0.0000     0.000     0.000     0.000  0.0070  0.0159  0.9998
              Bcc     0.0000     0.000     0.000     0.000  0.7265  0.6869 -0.0160
 
              Baa    -0.0000    -0.000    -0.000    -0.000  0.9902 -0.1397 -0.0012
    14 C(13)  Bbb     0.0000     0.000     0.000     0.000  0.1397  0.9902  0.0043
              Bcc     0.0000     0.000     0.000     0.000  0.0006 -0.0045  1.0000
 
              Baa    -0.0000    -0.000    -0.000    -0.000  0.9976 -0.0697 -0.0004
    15 S(33)  Bbb    -0.0000    -0.000    -0.000    -0.000  0.0010  0.0089  1.0000
              Bcc     0.0000     0.000     0.000     0.000  0.0697  0.9975 -0.0089
 
              Baa    -0.0000    -0.000    -0.000    -0.000  0.0011  0.0011  1.0000
    16 C(13)  Bbb     0.0000     0.000     0.000     0.000 -0.2343  0.9722 -0.0008
              Bcc     0.0000     0.000     0.000     0.000  0.9722  0.2343 -0.0013
 
              Baa    -0.0000    -0.000    -0.000    -0.000  0.4321  0.9017 -0.0115
    17 N(14)  Bbb     0.0000     0.000     0.000     0.000 -0.0256  0.0250  0.9994
              Bcc     0.0000     0.000     0.000     0.000  0.9015 -0.4315  0.0339
 
              Baa    -0.0000    -0.000    -0.000    -0.000  0.1687 -0.0092  0.9856
    18 C(13)  Bbb    -0.0000    -0.000    -0.000    -0.000  0.9835 -0.0642 -0.1689
              Bcc     0.0000     0.000     0.000     0.000  0.0649  0.9979 -0.0018
 
              Baa    -0.0000    -0.000    -0.000    -0.000  0.5225  0.8525  0.0152
    19 C(13)  Bbb     0.0000     0.000     0.000     0.000  0.0067 -0.0219  0.9997
              Bcc     0.0000     0.000     0.000     0.000  0.8526 -0.5223 -0.0172
 
              Baa    -0.0000    -0.000    -0.000    -0.000  0.4979  0.8672  0.0009
    20 S(33)  Bbb     0.0000     0.000     0.000     0.000 -0.0426  0.0234  0.9988
              Bcc     0.0000     0.000     0.000     0.000  0.8662 -0.4974  0.0486
 
              Baa    -0.0000    -0.000    -0.000    -0.000  0.0011  0.0032  1.0000
    21 C(13)  Bbb     0.0000     0.000     0.000     0.000  0.2154  0.9765 -0.0033
              Bcc     0.0000     0.000     0.000     0.000  0.9765 -0.2154 -0.0004
 
              Baa    -0.0000    -0.000    -0.000    -0.000 -0.3233  0.9463 -0.0011
    22 C(13)  Bbb     0.0000     0.000     0.000     0.000  0.8492  0.2906  0.4409
              Bcc     0.0000     0.000     0.000     0.000 -0.4175 -0.1416  0.8975
 
              Baa    -0.0000    -0.000    -0.000    -0.000 -0.5121  0.8589  0.0039
    23 C(13)  Bbb     0.0000     0.000     0.000     0.000  0.0056 -0.0012  1.0000
              Bcc     0.0000     0.000     0.000     0.000  0.8589  0.5121 -0.0042
 
              Baa    -0.0000    -0.000    -0.000    -0.000 -0.0656  0.9976  0.0241
    24 C(13)  Bbb    -0.0000    -0.000    -0.000    -0.000 -0.0008 -0.0242  0.9997
              Bcc     0.0000     0.000     0.000     0.000  0.9978  0.0656  0.0024
 
              Baa    -0.0000    -0.000    -0.000    -0.000 -0.6548  0.7557  0.0075
    25 S(33)  Bbb    -0.0000    -0.000    -0.000    -0.000  0.0023 -0.0079  1.0000
              Bcc     0.0000     0.000     0.000     0.000  0.7558  0.6548  0.0034
 
              Baa    -0.0000    -0.000    -0.000    -0.000 -0.0053 -0.0127  0.9999
    26 C(13)  Bbb    -0.0000    -0.000    -0.000    -0.000  0.3191  0.9476  0.0137
              Bcc     0.0000     0.000     0.000     0.000  0.9477 -0.3191  0.0009
 
              Baa    -0.0000    -0.000    -0.000    -0.000 -0.0442  0.9987  0.0259
    27 N(14)  Bbb    -0.0000    -0.000    -0.000    -0.000  0.0064 -0.0257  0.9996
              Bcc     0.0000     0.000     0.000     0.000  0.9990  0.0443 -0.0052
 
              Baa    -0.0000    -0.000    -0.000    -0.000  0.9028 -0.4300 -0.0016
    28 C(13)  Bbb     0.0000     0.000     0.000     0.000  0.4296  0.9019  0.0453
              Bcc     0.0000     0.000     0.000     0.000 -0.0181 -0.0416  0.9990
 
              Baa    -0.0000    -0.000    -0.000    -0.000  0.0058 -0.0057  1.0000
    29 C(13)  Bbb    -0.0000    -0.000    -0.000    -0.000 -0.6820  0.7313  0.0081
              Bcc     0.0000     0.000     0.000     0.000  0.7313  0.6820 -0.0004
 
              Baa    -0.0000    -0.000    -0.000    -0.000 -0.1172 -0.0150  0.9930
    30 S(33)  Bbb    -0.0000    -0.000    -0.000    -0.000  0.9840  0.1334  0.1181
              Bcc     0.0000     0.000     0.000     0.000 -0.1343  0.9909 -0.0009
 
              Baa    -0.0000    -0.000    -0.000    -0.000  0.9807  0.1952  0.0061
    31 C(13)  Bbb    -0.0000    -0.000    -0.000    -0.000 -0.0059 -0.0015  1.0000
              Bcc     0.0000     0.000     0.000     0.000 -0.1952  0.9808  0.0003
 
              Baa    -0.0000    -0.000    -0.000    -0.000  0.4643  0.8856 -0.0075
    32 C(13)  Bbb    -0.0000    -0.000    -0.000    -0.000  0.0008  0.0080  1.0000
              Bcc     0.0000     0.000     0.000     0.000  0.8857 -0.4643  0.0030
 
              Baa    -0.0000    -0.000    -0.000    -0.000 -0.0005 -0.0048  1.0000
    33 C(13)  Bbb    -0.0000    -0.000    -0.000    -0.000  0.1630  0.9866  0.0048
              Bcc     0.0000     0.000     0.000     0.000  0.9866 -0.1630 -0.0003
 
              Baa    -0.0000    -0.000    -0.000    -0.000 -0.0012 -0.0010  1.0000
    34 C(13)  Bbb    -0.0000    -0.000    -0.000    -0.000 -0.1881  0.9821  0.0007
              Bcc     0.0000     0.000     0.000     0.000  0.9821  0.1881  0.0014
 
              Baa    -0.0000    -0.000    -0.000    -0.000  0.1510  0.9885 -0.0059
    35 S(33)  Bbb    -0.0000    -0.000    -0.000    -0.000 -0.0039  0.0066  1.0000
              Bcc     0.0000     0.000     0.000     0.000  0.9885 -0.1510  0.0049
 
              Baa    -0.0000    -0.000    -0.000    -0.000  0.0038 -0.0172  0.9998
    36 C(13)  Bbb    -0.0000    -0.000    -0.000    -0.000 -0.1154  0.9932  0.0175
              Bcc     0.0000     0.000     0.000     0.000  0.9933  0.1155 -0.0018
 
              Baa    -0.0000    -0.000    -0.000    -0.000 -0.2913  0.9516 -0.0984
    37 N(14)  Bbb    -0.0000    -0.000    -0.000    -0.000 -0.0315  0.0933  0.9951
              Bcc     0.0000     0.000     0.000     0.000  0.9561  0.2930  0.0028
 
              Baa    -0.0000    -0.000    -0.000    -0.000 -0.5174  0.8555 -0.0172
    38 C(13)  Bbb     0.0000     0.000     0.000     0.000  0.8557  0.5175 -0.0022
              Bcc     0.0000     0.000     0.000     0.000 -0.0070  0.0159  0.9998
 
              Baa    -0.0000    -0.000    -0.000    -0.000 -0.1221  0.9925  0.0065
    39 C(13)  Bbb    -0.0000    -0.000    -0.000    -0.000  0.0094 -0.0054  0.9999
              Bcc     0.0000     0.000     0.000     0.000  0.9925  0.1222 -0.0087
 
              Baa    -0.0000    -0.000    -0.000    -0.000 -0.0005 -0.0020  1.0000
    40 S(33)  Bbb    -0.0000    -0.000    -0.000    -0.000  0.9997 -0.0235  0.0005
              Bcc     0.0000     0.000     0.000     0.000  0.0235  0.9997  0.0020
 
              Baa    -0.0000    -0.000    -0.000    -0.000 -0.0985  0.9950 -0.0156
    41 C(13)  Bbb    -0.0000    -0.000    -0.000    -0.000 -0.0029  0.0154  0.9999
              Bcc     0.0000     0.000     0.000     0.000  0.9951  0.0985  0.0013
 
              Baa    -0.0000    -0.000    -0.000    -0.000 -0.5210  0.8536  0.0022
    42 C(13)  Bbb    -0.0000    -0.000    -0.000    -0.000 -0.0015 -0.0034  1.0000
              Bcc     0.0000     0.000     0.000     0.000  0.8536  0.5210  0.0031
 
              Baa    -0.0000    -0.000    -0.000    -0.000 -0.4369  0.8994  0.0119
    43 C(13)  Bbb     0.0000     0.000     0.000     0.000 -0.0206 -0.0233  0.9995
              Bcc     0.0000     0.000     0.000     0.000  0.8993  0.4365  0.0287
 
              Baa    -0.0000    -0.000    -0.000    -0.000  0.9985  0.0552 -0.0055
    44 C(13)  Bbb     0.0000     0.000     0.000     0.000 -0.0551  0.9983  0.0186
              Bcc     0.0000     0.000     0.000     0.000  0.0066 -0.0182  0.9998
 
              Baa    -0.0000    -0.000    -0.000    -0.000  0.2605  0.9653 -0.0200
    45 S(33)  Bbb    -0.0000    -0.000    -0.000    -0.000  0.0098  0.0181  0.9998
              Bcc     0.0000     0.000     0.000     0.000  0.9654 -0.2606 -0.0048
 
              Baa    -0.0000    -0.000    -0.000    -0.000  0.9938 -0.1115  0.0032
    46 C(13)  Bbb     0.0000     0.000     0.000     0.000 -0.0032  0.0005  1.0000
              Bcc     0.0000     0.000     0.000     0.000  0.1115  0.9938 -0.0002
 
              Baa    -0.0000    -0.000    -0.000    -0.000  0.5808  0.8140 -0.0021
    47 N(14)  Bbb     0.0000     0.000     0.000     0.000  0.0119 -0.0059  0.9999
              Bcc     0.0000     0.000     0.000     0.000  0.8139 -0.5808 -0.0131
 
              Baa    -0.0000    -0.000    -0.000    -0.000  0.0272 -0.0372  0.9989
    48 C(13)  Bbb    -0.0000    -0.000    -0.000    -0.000  0.9727 -0.2292 -0.0351
              Bcc     0.0000     0.000     0.000     0.000  0.2303  0.9727  0.0300
 
              Baa    -0.0000    -0.000    -0.000    -0.000  0.8446  0.5354  0.0037
    49 C(13)  Bbb    -0.0000    -0.000    -0.000    -0.000 -0.0113  0.0109  0.9999
              Bcc     0.0000     0.000     0.000     0.000 -0.5353  0.8445 -0.0153
 
              Baa    -0.0000    -0.000    -0.000    -0.000 -0.6755  0.7374  0.0028
    50 S(33)  Bbb     0.0000     0.000     0.000     0.000  0.7372  0.6754 -0.0196
              Bcc     0.0000     0.000     0.000     0.000  0.0163  0.0112  0.9998
 
              Baa    -0.0000    -0.000    -0.000    -0.000  0.7615 -0.6479  0.0179
    51 H(1)   Bbb    -0.0000    -0.000    -0.000    -0.000 -0.0119  0.0136  0.9998
              Bcc     0.0000     0.000     0.000     0.000  0.6481  0.7616 -0.0027
 
              Baa    -0.0000    -0.000    -0.000    -0.000 -0.0446  0.9990 -0.0095
    52 H(1)   Bbb    -0.0000    -0.000    -0.000    -0.000  0.0060  0.0098  0.9999
              Bcc     0.0000     0.000     0.000     0.000  0.9990  0.0445 -0.0065
 
              Baa    -0.0000    -0.000    -0.000    -0.000 -0.0110  0.0041  0.9999
    53 H(1)   Bbb    -0.0000    -0.000    -0.000    -0.000  0.9473 -0.3202  0.0117
              Bcc     0.0000     0.000     0.000     0.000  0.3203  0.9473 -0.0004
 
              Baa    -0.0000    -0.000    -0.000    -0.000 -0.5976  0.8018 -0.0023
    54 H(1)   Bbb     0.0000     0.000     0.000     0.000  0.8017  0.5976  0.0057
              Bcc     0.0000     0.000     0.000     0.000 -0.0059 -0.0015  1.0000
 
              Baa    -0.0000    -0.000    -0.000    -0.000 -0.0103 -0.0029  0.9999
    55 H(1)   Bbb    -0.0000    -0.000    -0.000    -0.000  0.7315  0.6818  0.0095
              Bcc     0.0000     0.000     0.000     0.000 -0.6818  0.7316 -0.0049
 
              Baa    -0.0000    -0.000    -0.000    -0.000  0.2587  0.9659 -0.0125
    56 H(1)   Bbb     0.0000     0.000     0.000     0.000  0.0109  0.0101  0.9999
              Bcc     0.0000     0.000     0.000     0.000  0.9659 -0.2588 -0.0079
 
              Baa    -0.0000    -0.000    -0.000    -0.000  0.6868  0.7268 -0.0073
    57 H(1)   Bbb     0.0000     0.000     0.000     0.000  0.7269 -0.6867  0.0059
              Bcc     0.0000     0.000     0.000     0.000  0.0007  0.0094  1.0000
 
              Baa    -0.0000    -0.000    -0.000    -0.000  0.8442  0.5360  0.0092
    58 H(1)   Bbb     0.0000     0.000     0.000     0.000 -0.1496  0.2190  0.9642
              Bcc     0.0000     0.000     0.000     0.000 -0.5148  0.8153 -0.2651
 
              Baa    -0.0000    -0.000    -0.000    -0.000 -0.1198  0.9928 -0.0072
    59 H(1)   Bbb     0.0000     0.000     0.000     0.000  0.5688  0.0746  0.8191
              Bcc     0.0000     0.000     0.000     0.000  0.8137  0.0941 -0.5737
 
              Baa    -0.0000    -0.000    -0.000    -0.000  0.0003  0.0009  1.0000
    60 H(1)   Bbb    -0.0000    -0.000    -0.000    -0.000  0.8598 -0.5106  0.0002
              Bcc     0.0000     0.000     0.000     0.000  0.5106  0.8598 -0.0010
 
              Baa    -0.0000    -0.000    -0.000    -0.000  0.0061 -0.0085  0.9999
    61 H(1)   Bbb    -0.0000    -0.000    -0.000    -0.000  0.7328 -0.6804 -0.0102
              Bcc     0.0000     0.000     0.000     0.000  0.6804  0.7328  0.0021
 
              Baa    -0.0000    -0.000    -0.000    -0.000 -0.0021  0.0004  1.0000
    62 H(1)   Bbb    -0.0000    -0.000    -0.000    -0.000  0.8075  0.5899  0.0015
              Bcc     0.0000     0.000     0.000     0.000 -0.5899  0.8075 -0.0015
 
              Baa    -0.0000    -0.000    -0.000    -0.000  0.4086  0.9125  0.0210
    63 H(1)   Bbb     0.0000     0.000     0.000     0.000  0.0453 -0.0432  0.9980
              Bcc     0.0000     0.000     0.000     0.000  0.9116 -0.4069 -0.0590
 
              Baa    -0.0000    -0.000    -0.000    -0.000  0.9489  0.3156 -0.0011
    64 H(1)   Bbb    -0.0000    -0.000    -0.000    -0.000  0.0018 -0.0022  1.0000
              Bcc     0.0000     0.000     0.000     0.000 -0.3156  0.9489  0.0026
 
              Baa    -0.0000    -0.000    -0.000    -0.000 -0.6339  0.7734 -0.0048
    65 H(1)   Bbb     0.0000     0.000     0.000     0.000  0.7734  0.6338 -0.0130
              Bcc     0.0000     0.000     0.000     0.000  0.0070  0.0119  0.9999
 
              Baa    -0.0000    -0.000    -0.000    -0.000 -0.1013  0.9948 -0.0055
    66 H(1)   Bbb     0.0000     0.000     0.000     0.000 -0.0061  0.0049  1.0000
              Bcc     0.0000     0.000     0.000     0.000  0.9948  0.1014  0.0055
 
              Baa    -0.0000    -0.000    -0.000    -0.000 -0.1262  0.9913  0.0386
    67 H(1)   Bbb    -0.0000    -0.000    -0.000    -0.000 -0.0209 -0.0416  0.9989
              Bcc     0.0000     0.000     0.000     0.000  0.9918  0.1252  0.0260
 

 ---------------------------------------------------------------------------------

 No NMR shielding tensors so no spin-rotation constants.
 Leave Link  601 at Fri Jul 24 08:04:32 2020, MaxMem=  4026531840 cpu:              22.6 elap:               3.7
 (Enter /opt/ohpc/pub/libs/gaussian/g16-A.03/sandybridge/g16/l9999.exe)

 Test job not archived.
 1\1\GINC-SKYLAKE049\FOpt\ULC-wPBE\CC-pVDZ\C35H17N5S10\RDU230\24-Jul-20
 20\0\\#P uLC-wPBE/cc-pVDZ iop(3/107=0062500000, 3/108=0062500000) opt\
 \H17 C35 S10 N5\\0,1\C,-18.3577566535,-1.4595884232,-0.0099137027\C,-1
 8.2992434883,-0.07778569,-0.0096018741\C,-16.9636711498,0.4118314468,-
 0.0091258216\C,-16.0121863598,-0.6042811146,-0.0090750064\S,-16.781051
 608,-2.1841683522,-0.009626079\C,-14.5691432238,-0.5313071287,-0.00865
 71766\N,-13.7725734095,-1.5889293205,-0.0086695451\C,-12.4616311373,-1
 .2179887836,-0.0082290164\C,-12.1843330892,0.1484702749,-0.0078581457\
 S,-13.7111325595,1.024413798,-0.0080762642\C,-10.91298441,0.8308342954
 ,-0.0073670091\C,-10.6462114967,2.2015242801,-0.0071158045\C,-9.268099
 6629,2.5144020281,-0.0066510043\C,-8.4480749703,1.3870222196,-0.006533
 1711\S,-9.4073319445,-0.0838297826,-0.0070197414\C,-7.0037461275,1.378
 9640087,-0.0060831679\N,-6.2698056982,2.4837211791,-0.0060361639\C,-4.
 9419588394,2.1890317818,-0.0055514407\C,-4.5824535501,0.8401343507,-0.
 0052060156\S,-6.0543498845,-0.1231864649,-0.0054901801\C,-3.2710252354
 ,0.2380605932,-0.004664284\C,-2.9325707756,-1.1173889341,-0.0042252501
 \C,-1.5379339913,-1.3500042393,-0.0037535787\C,-0.7852724667,-0.177015
 2191,-0.0038266283\S,-1.8241394964,1.2404692746,-0.0044822769\C,0.6425
 442952,0.0165683722,-0.0034488899\N,1.2265017915,1.2065991852,-0.00352
 88346\C,2.5826137376,1.0887407338,-0.0030747724\C,3.11252474,-0.201935
 6941,-0.0026220212\S,1.7780811342,-1.3501793888,-0.0028175868\C,4.4910
 216614,-0.6296108569,-0.0020966746\C,5.0017148506,-1.9297745344,-0.000
 9412814\C,6.4148926889,-1.9803521139,-0.0007068355\C,7.0095059754,-0.7
 199741834,-0.0016744523\S,5.7963493052,0.5513083853,-0.0029668775\C,8.
 4005933289,-0.3432239197,-0.0017689722\N,8.8255865393,0.9120400974,-0.
 0031273707\C,10.1858984809,0.9705446867,-0.0029599096\C,10.8780657658,
 -0.2405833227,-0.0014310314\S,9.7033951456,-1.5515099507,-0.0000049881
 \C,12.3008689436,-0.4870032426,-0.0009795557\C,12.9754545981,-1.709225
 1583,-0.0024817714\C,14.3843931501,-1.5751743032,-0.0016052159\C,14.80
 94201853,-0.2496915355,0.0005887072\S,13.4427730519,0.8525995848,0.001
 7395398\C,16.1432402932,0.3079066942,0.0020144018\N,16.397545904,1.605
 9021086,0.0039960292\C,17.7485853447,1.840320696,0.0049822303\C,18.563
 2616453,0.7271570292,0.0037895882\S,17.5954710996,-0.7161851722,0.0012
 617502\H,-19.2465307316,-2.1002473296,-0.0102955132\H,-19.1885433787,0
 .5647446201,-0.0097160253\H,-16.7001031392,1.4777182941,-0.0088239832\
 H,-11.6853478944,-1.9956869706,-0.0081914914\H,-11.4439619822,2.955635
 6522,-0.0072735062\H,-8.8473766912,3.5264520417,-0.0064016778\H,-4.211
 3392954,3.0099573542,-0.0054736363\H,-3.6848420422,-1.916748785,-0.004
 2371622\H,-1.0852445226,-2.3500531013,-0.0033650551\H,3.19956475,1.997
 9577234,-0.0030307442\H,4.3592624428,-2.8198268574,-0.0002457846\H,6.9
 930770805,-2.9134565306,0.0001445345\H,10.6801067638,1.951861373,-0.00
 41927113\H,12.4543840809,-2.6753827697,-0.0043459501\H,15.0789637005,-
 2.4252349715,-0.0026519622\H,18.1136001339,2.8757730814,0.0066353181\H
 ,19.6569092971,0.6718569008,0.0042424935\\Version=EM64L-G16RevA.03\Sta
 te=1-A\HF=-5596.668835\S2=0.\S2-1=0.\S2A=0.\RMSD=3.959e-09\RMSF=1.535e
 -06\Dipole=0.1252274,-1.1293499,0.0001242\Quadrupole=67.3494126,-21.77
 37057,-45.5757069,-25.2212696,0.0199882,-0.0040816\PG=C01 [X(C35H17N5S
 10)]\\@


 THE ... SCIENTISTS WERE WRONG ... THE MOST PERSISTENT PRINCIPLES 
 OF THE UNIVERSE WERE ACCIDENT AND ERROR.

                          -- FRANK HERBERT IN DUNE
 Job cpu time:       1 days 16 hours  5 minutes  8.9 seconds.
 Elapsed time:       0 days  5 hours  7 minutes 19.6 seconds.
 File lengths (MBytes):  RWF=    800 Int=      0 D2E=      0 Chk=     72 Scr=      8
 Normal termination of Gaussian 16 at Fri Jul 24 08:04:32 2020.
