 Entering Gaussian System, Link 0=g16
 Input=mols_66_5_00_c-c-c-c_opt_0.gjf
 Output=mols_66_5_00_c-c-c-c_opt_0.log
 Initial command:
 /opt/ohpc/pub/libs/gaussian/g16-A.03/sandybridge/g16/l1.exe "/mnt/gpfs2_4m/scratch/rdu230/ondemand/projects/dihedral_energies/7trial/wtuning/mols_66_5_00_c-c-c-c/Gau-186959.inp" -scrdir="/mnt/gpfs2_4m/scratch/rdu230/ondemand/projects/dihedral_energies/7trial/wtuning/mols_66_5_00_c-c-c-c/"
 Entering Link 1 = /opt/ohpc/pub/libs/gaussian/g16-A.03/sandybridge/g16/l1.exe PID=    186962.
  
 Copyright (c) 1988,1990,1992,1993,1995,1998,2003,2009,2016,
            Gaussian, Inc.  All Rights Reserved.
  
 This is part of the Gaussian(R) 16 program.  It is based on
 the Gaussian(R) 09 system (copyright 2009, Gaussian, Inc.),
 the Gaussian(R) 03 system (copyright 2003, Gaussian, Inc.),
 the Gaussian(R) 98 system (copyright 1998, Gaussian, Inc.),
 the Gaussian(R) 94 system (copyright 1995, Gaussian, Inc.),
 the Gaussian 92(TM) system (copyright 1992, Gaussian, Inc.),
 the Gaussian 90(TM) system (copyright 1990, Gaussian, Inc.),
 the Gaussian 88(TM) system (copyright 1988, Gaussian, Inc.),
 the Gaussian 86(TM) system (copyright 1986, Carnegie Mellon
 University), and the Gaussian 82(TM) system (copyright 1983,
 Carnegie Mellon University). Gaussian is a federally registered
 trademark of Gaussian, Inc.
  
 This software contains proprietary and confidential information,
 including trade secrets, belonging to Gaussian, Inc.
  
 This software is provided under written license and may be
 used, copied, transmitted, or stored only in accord with that
 written license.
  
 The following legend is applicable only to US Government
 contracts under FAR:
  
                    RESTRICTED RIGHTS LEGEND
  
 Use, reproduction and disclosure by the US Government is
 subject to restrictions as set forth in subparagraphs (a)
 and (c) of the Commercial Computer Software - Restricted
 Rights clause in FAR 52.227-19.
  
 Gaussian, Inc.
 340 Quinnipiac St., Bldg. 40, Wallingford CT 06492
  
  
 ---------------------------------------------------------------
 Warning -- This program may not be used in any manner that
 competes with the business of Gaussian, Inc. or will provide
 assistance to any competitor of Gaussian, Inc.  The licensee
 of this program is prohibited from giving any competitor of
 Gaussian, Inc. access to this program.  By using this program,
 the user acknowledges that Gaussian, Inc. is engaged in the
 business of creating and licensing software in the field of
 computational chemistry and represents and warrants to the
 licensee that it is not a competitor of Gaussian, Inc. and that
 it will not use this program in any manner prohibited above.
 ---------------------------------------------------------------
  

 Cite this work as:
 Gaussian 16, Revision A.03,
 M. J. Frisch, G. W. Trucks, H. B. Schlegel, G. E. Scuseria, 
 M. A. Robb, J. R. Cheeseman, G. Scalmani, V. Barone, 
 G. A. Petersson, H. Nakatsuji, X. Li, M. Caricato, A. V. Marenich, 
 J. Bloino, B. G. Janesko, R. Gomperts, B. Mennucci, H. P. Hratchian, 
 J. V. Ortiz, A. F. Izmaylov, J. L. Sonnenberg, D. Williams-Young, 
 F. Ding, F. Lipparini, F. Egidi, J. Goings, B. Peng, A. Petrone, 
 T. Henderson, D. Ranasinghe, V. G. Zakrzewski, J. Gao, N. Rega, 
 G. Zheng, W. Liang, M. Hada, M. Ehara, K. Toyota, R. Fukuda, 
 J. Hasegawa, M. Ishida, T. Nakajima, Y. Honda, O. Kitao, H. Nakai, 
 T. Vreven, K. Throssell, J. A. Montgomery, Jr., J. E. Peralta, 
 F. Ogliaro, M. J. Bearpark, J. J. Heyd, E. N. Brothers, K. N. Kudin, 
 V. N. Staroverov, T. A. Keith, R. Kobayashi, J. Normand, 
 K. Raghavachari, A. P. Rendell, J. C. Burant, S. S. Iyengar, 
 J. Tomasi, M. Cossi, J. M. Millam, M. Klene, C. Adamo, R. Cammi, 
 J. W. Ochterski, R. L. Martin, K. Morokuma, O. Farkas, 
 J. B. Foresman, and D. J. Fox, Gaussian, Inc., Wallingford CT, 2016.
 
 ******************************************
 Gaussian 16:  EM64L-G16RevA.03 25-Dec-2016
                25-Jul-2020 
 ******************************************
 %mem=30GB
 %nproc=8
 Will use up to    8 processors via shared memory.
 ---------------------------------------------------------------
 #P uLC-wPBE/cc-pVDZ iop(3/107=0357700000, 3/108=0357700000) opt
 ---------------------------------------------------------------
 1/18=20,19=15,26=3,38=1/1,3;
 2/9=110,12=2,17=6,18=5,40=1/2;
 3/5=16,11=2,25=1,30=1,71=1,74=-41,107=357700000,108=357700000,116=2/1,2,3;
 4//1;
 5/5=2,38=5/2;
 6/7=2,8=2,9=2,10=2,28=1/1;
 7//1,2,3,16;
 1/18=20,19=15,26=3/3(2);
 2/9=110/2;
 99//99;
 2/9=110/2;
 3/5=16,11=2,25=1,30=1,71=1,74=-41,107=357700000,108=357700000,116=2/1,2,3;
 4/5=5,16=3,69=1/1;
 5/5=2,38=5/2;
 7//1,2,3,16;
 1/18=20,19=15,26=3/3(-5);
 2/9=110/2;
 6/7=2,8=2,9=2,10=2,19=2,28=1/1;
 99/9=1/99;
 Leave Link    1 at Sat Jul 25 09:47:10 2020, MaxMem=  4026531840 cpu:               0.9 elap:               0.1
 (Enter /opt/ohpc/pub/libs/gaussian/g16-A.03/sandybridge/g16/l101.exe)
 -------
 H42 C60
 -------
 Symbolic Z-matrix:
 Charge =  0 Multiplicity = 1
 C                     20.79526  -0.41585   0.18738 
 C                     20.15049   0.65032  -0.51705 
 C                     18.80157   0.75882  -0.52357 
 C                     17.96805  -0.27319   0.11482 
 C                     18.65654  -1.37126   0.73607 
 C                     20.06778  -1.43544   0.74586 
 C                     16.55374  -0.23974   0.05018 
 C                     15.84222   0.97205   0.45218 
 C                     14.4677   1.06227   0.50913 
 C                     13.69041  -0.06806  -0.03237 
 C                     14.3923  -1.19158  -0.37604 
 C                     15.75531  -1.29375  -0.35212 
 C                     12.24278   0.01396  -0.05824 
 C                     11.46248   0.33151   1.12641 
 C                     10.08892   0.39555   1.17115 
 C                     9.33386   0.13958  -0.05732 
 C                     10.15274  -0.17623  -1.22406 
 C                     11.52991  -0.22264  -1.15326 
 C                     7.94017   0.12814  -0.05377 
 C                     7.12769  -0.87333  -0.62763 
 C                     5.78907  -0.84863  -0.57049 
 C                     5.08661   0.20274  -0.10915 
 C                     5.75785   1.28625   0.49592 
 C                     7.21706   1.26877   0.43183 
 C                     3.59714   0.22898  -0.113 
 C                     2.87031   1.2757   -0.57472 
 C                     1.49162   1.3564   -0.52808 
 C                     0.70425   0.21662  -0.10465 
 C                     1.46702  -0.90941   0.41308 
 C                     2.89331  -0.83607   0.44097 
 C                    -0.72875   0.21696  -0.03124 
 C                    -1.5091    1.28016   0.5518 
 C                    -2.83616   1.2252    0.50516 
 C                    -3.58176   0.22846  -0.12202 
 C                    -2.88745  -0.82442  -0.73111 
 C                    -1.4927   -0.78407  -0.67951 
 C                    -5.06171   0.21978  -0.09699 
 C                    -5.8502    1.32287  -0.4689 
 C                    -7.23723   1.28355  -0.50106 
 C                    -7.86716   0.15054  -0.03847 
 C                    -7.16402  -0.95327   0.39903 
 C                    -5.76554  -0.99869   0.32488 
 C                    -9.36444   0.08137  -0.08767 
 C                    -10.17037   1.05333   0.63348 
 C                    -11.54306   0.98741   0.62629 
 C                    -12.19792   0.03237  -0.01334 
 C                    -11.47633  -0.96304  -0.75604 
 C                    -10.08136  -0.88799  -0.68382 
 C                    -13.70972  -0.01805   0.01069 
 C                    -14.48137   1.04912  -0.26251 
 C                    -15.8411   1.00035  -0.32617 
 C                    -16.56994  -0.20383   0.10564 
 C                    -15.76603  -1.34575   0.42411 
 C                    -14.40727  -1.27631   0.36285 
 C                    -18.05871  -0.26556   0.07365 
 C                    -18.75381  -0.69645   1.23569 
 C                    -20.12336  -0.7804    1.22411 
 C                    -20.83993  -0.36689   0.18492 
 C                    -20.18643   0.03606  -1.02091 
 C                    -18.80428   0.11864  -1.06383 
 H                     21.95372  -0.49359   0.19162 
 H                     20.77073   1.40115  -1.04954 
 H                     18.34832   1.56789  -1.0949 
 H                     18.12498  -2.05822   1.24957 
 H                     20.52724  -2.26201   1.29149 
 H                     16.45151   1.78146   0.8933 
 H                     13.94484   1.96089   0.82856 
 H                     13.77913  -2.0196   -0.76737 
 H                     16.29366  -2.17711  -0.71308 
 H                     11.99679   0.4649    2.05337 
 H                     9.58005   0.60888   2.09652 
 H                     9.61175  -0.36484  -2.15421 
 H                     12.05256  -0.44647  -2.15638 
 H                     7.64465  -1.75821  -0.98724 
 H                     5.1913   -1.69244  -1.03666 
 H                     5.2831    2.07963   0.92275 
 H                     7.75542   2.05827   0.92254 
 H                     3.40303   2.227    -0.9869 
 H                     0.99095   2.19217  -0.95043 
 H                     0.92071  -1.73007   0.87943 
 H                     3.33982  -1.76895   0.84238 
 H                    -0.91215   2.05051   1.01263 
 H                    -3.35939   2.07595   1.06219 
 H                    -3.32786  -1.64575  -1.17385 
 H                    -0.87951  -1.62633  -1.17812 
 H                    -5.28005   2.15339  -0.81884 
 H                    -7.7327    2.17635  -0.83352 
 H                    -7.62508  -1.92478   0.71796 
 H                    -5.17506  -1.82241   0.72097 
 H                    -9.61115   1.87908   1.23301 
 H                    -12.1163   1.76036   1.23198 
 H                    -11.96595  -1.75022  -1.21202 
 H                    -9.53392  -1.67983  -1.33573 
 H                    -13.97799   2.0301   -0.61943 
 H                    -16.41918   1.86899  -0.50531 
 H                    -16.26193  -2.21175   0.63269 
 H                    -13.77579  -2.12503   0.68729 
 H                    -18.13243  -1.01839   2.15241 
 H                    -20.63242  -1.09436   2.10495 
 H                    -21.94038  -0.44681   0.17615 
 H                    -20.76928   0.34072  -1.88636 
 H                    -18.30872   0.44173  -1.95201 
 
 ITRead=  0  0  0  0  0  0  0  0  0  0  0  0  0  0  0  0  0  0  0  0
 ITRead=  0  0  0  0  0  0  0  0  0  0  0  0  0  0  0  0  0  0  0  0
 ITRead=  0  0  0  0  0  0  0  0  0  0  0  0  0  0  0  0  0  0  0  0
 ITRead=  0  0  0  0  0  0  0  0  0  0  0  0  0  0  0  0  0  0  0  0
 ITRead=  0  0  0  0  0  0  0  0  0  0  0  0  0  0  0  0  0  0  0  0
 ITRead=  0  0
 MicOpt= -1 -1 -1 -1 -1 -1 -1 -1 -1 -1 -1 -1 -1 -1 -1 -1 -1 -1 -1 -1
 MicOpt= -1 -1 -1 -1 -1 -1 -1 -1 -1 -1 -1 -1 -1 -1 -1 -1 -1 -1 -1 -1
 MicOpt= -1 -1 -1 -1 -1 -1 -1 -1 -1 -1 -1 -1 -1 -1 -1 -1 -1 -1 -1 -1
 MicOpt= -1 -1 -1 -1 -1 -1 -1 -1 -1 -1 -1 -1 -1 -1 -1 -1 -1 -1 -1 -1
 MicOpt= -1 -1 -1 -1 -1 -1 -1 -1 -1 -1 -1 -1 -1 -1 -1 -1 -1 -1 -1 -1
 MicOpt= -1 -1
 NAtoms=    102 NQM=      102 NQMF=       0 NMMI=      0 NMMIF=      0
                NMic=       0 NMicF=      0.
                    Isotopes and Nuclear Properties:
 (Nuclear quadrupole moments (NQMom) in fm**2, nuclear magnetic moments (NMagM)
  in nuclear magnetons)

  Atom         1           2           3           4           5           6           7           8           9          10
 IAtWgt=          12          12          12          12          12          12          12          12          12          12
 AtmWgt=  12.0000000  12.0000000  12.0000000  12.0000000  12.0000000  12.0000000  12.0000000  12.0000000  12.0000000  12.0000000
 NucSpn=           0           0           0           0           0           0           0           0           0           0
 AtZEff=  -0.0000000  -0.0000000  -0.0000000  -0.0000000  -0.0000000  -0.0000000  -0.0000000  -0.0000000  -0.0000000  -0.0000000
 NQMom=    0.0000000   0.0000000   0.0000000   0.0000000   0.0000000   0.0000000   0.0000000   0.0000000   0.0000000   0.0000000
 NMagM=    0.0000000   0.0000000   0.0000000   0.0000000   0.0000000   0.0000000   0.0000000   0.0000000   0.0000000   0.0000000
 AtZNuc=   6.0000000   6.0000000   6.0000000   6.0000000   6.0000000   6.0000000   6.0000000   6.0000000   6.0000000   6.0000000

  Atom        11          12          13          14          15          16          17          18          19          20
 IAtWgt=          12          12          12          12          12          12          12          12          12          12
 AtmWgt=  12.0000000  12.0000000  12.0000000  12.0000000  12.0000000  12.0000000  12.0000000  12.0000000  12.0000000  12.0000000
 NucSpn=           0           0           0           0           0           0           0           0           0           0
 AtZEff=  -0.0000000  -0.0000000  -0.0000000  -0.0000000  -0.0000000  -0.0000000  -0.0000000  -0.0000000  -0.0000000  -0.0000000
 NQMom=    0.0000000   0.0000000   0.0000000   0.0000000   0.0000000   0.0000000   0.0000000   0.0000000   0.0000000   0.0000000
 NMagM=    0.0000000   0.0000000   0.0000000   0.0000000   0.0000000   0.0000000   0.0000000   0.0000000   0.0000000   0.0000000
 AtZNuc=   6.0000000   6.0000000   6.0000000   6.0000000   6.0000000   6.0000000   6.0000000   6.0000000   6.0000000   6.0000000

  Atom        21          22          23          24          25          26          27          28          29          30
 IAtWgt=          12          12          12          12          12          12          12          12          12          12
 AtmWgt=  12.0000000  12.0000000  12.0000000  12.0000000  12.0000000  12.0000000  12.0000000  12.0000000  12.0000000  12.0000000
 NucSpn=           0           0           0           0           0           0           0           0           0           0
 AtZEff=  -0.0000000  -0.0000000  -0.0000000  -0.0000000  -0.0000000  -0.0000000  -0.0000000  -0.0000000  -0.0000000  -0.0000000
 NQMom=    0.0000000   0.0000000   0.0000000   0.0000000   0.0000000   0.0000000   0.0000000   0.0000000   0.0000000   0.0000000
 NMagM=    0.0000000   0.0000000   0.0000000   0.0000000   0.0000000   0.0000000   0.0000000   0.0000000   0.0000000   0.0000000
 AtZNuc=   6.0000000   6.0000000   6.0000000   6.0000000   6.0000000   6.0000000   6.0000000   6.0000000   6.0000000   6.0000000

  Atom        31          32          33          34          35          36          37          38          39          40
 IAtWgt=          12          12          12          12          12          12          12          12          12          12
 AtmWgt=  12.0000000  12.0000000  12.0000000  12.0000000  12.0000000  12.0000000  12.0000000  12.0000000  12.0000000  12.0000000
 NucSpn=           0           0           0           0           0           0           0           0           0           0
 AtZEff=  -0.0000000  -0.0000000  -0.0000000  -0.0000000  -0.0000000  -0.0000000  -0.0000000  -0.0000000  -0.0000000  -0.0000000
 NQMom=    0.0000000   0.0000000   0.0000000   0.0000000   0.0000000   0.0000000   0.0000000   0.0000000   0.0000000   0.0000000
 NMagM=    0.0000000   0.0000000   0.0000000   0.0000000   0.0000000   0.0000000   0.0000000   0.0000000   0.0000000   0.0000000
 AtZNuc=   6.0000000   6.0000000   6.0000000   6.0000000   6.0000000   6.0000000   6.0000000   6.0000000   6.0000000   6.0000000

  Atom        41          42          43          44          45          46          47          48          49          50
 IAtWgt=          12          12          12          12          12          12          12          12          12          12
 AtmWgt=  12.0000000  12.0000000  12.0000000  12.0000000  12.0000000  12.0000000  12.0000000  12.0000000  12.0000000  12.0000000
 NucSpn=           0           0           0           0           0           0           0           0           0           0
 AtZEff=  -0.0000000  -0.0000000  -0.0000000  -0.0000000  -0.0000000  -0.0000000  -0.0000000  -0.0000000  -0.0000000  -0.0000000
 NQMom=    0.0000000   0.0000000   0.0000000   0.0000000   0.0000000   0.0000000   0.0000000   0.0000000   0.0000000   0.0000000
 NMagM=    0.0000000   0.0000000   0.0000000   0.0000000   0.0000000   0.0000000   0.0000000   0.0000000   0.0000000   0.0000000
 AtZNuc=   6.0000000   6.0000000   6.0000000   6.0000000   6.0000000   6.0000000   6.0000000   6.0000000   6.0000000   6.0000000

  Atom        51          52          53          54          55          56          57          58          59          60
 IAtWgt=          12          12          12          12          12          12          12          12          12          12
 AtmWgt=  12.0000000  12.0000000  12.0000000  12.0000000  12.0000000  12.0000000  12.0000000  12.0000000  12.0000000  12.0000000
 NucSpn=           0           0           0           0           0           0           0           0           0           0
 AtZEff=  -0.0000000  -0.0000000  -0.0000000  -0.0000000  -0.0000000  -0.0000000  -0.0000000  -0.0000000  -0.0000000  -0.0000000
 NQMom=    0.0000000   0.0000000   0.0000000   0.0000000   0.0000000   0.0000000   0.0000000   0.0000000   0.0000000   0.0000000
 NMagM=    0.0000000   0.0000000   0.0000000   0.0000000   0.0000000   0.0000000   0.0000000   0.0000000   0.0000000   0.0000000
 AtZNuc=   6.0000000   6.0000000   6.0000000   6.0000000   6.0000000   6.0000000   6.0000000   6.0000000   6.0000000   6.0000000

  Atom        61          62          63          64          65          66          67          68          69          70
 IAtWgt=           1           1           1           1           1           1           1           1           1           1
 AtmWgt=   1.0078250   1.0078250   1.0078250   1.0078250   1.0078250   1.0078250   1.0078250   1.0078250   1.0078250   1.0078250
 NucSpn=           1           1           1           1           1           1           1           1           1           1
 AtZEff=  -0.0000000  -0.0000000  -0.0000000  -0.0000000  -0.0000000  -0.0000000  -0.0000000  -0.0000000  -0.0000000  -0.0000000
 NQMom=    0.0000000   0.0000000   0.0000000   0.0000000   0.0000000   0.0000000   0.0000000   0.0000000   0.0000000   0.0000000
 NMagM=    2.7928460   2.7928460   2.7928460   2.7928460   2.7928460   2.7928460   2.7928460   2.7928460   2.7928460   2.7928460
 AtZNuc=   1.0000000   1.0000000   1.0000000   1.0000000   1.0000000   1.0000000   1.0000000   1.0000000   1.0000000   1.0000000

  Atom        71          72          73          74          75          76          77          78          79          80
 IAtWgt=           1           1           1           1           1           1           1           1           1           1
 AtmWgt=   1.0078250   1.0078250   1.0078250   1.0078250   1.0078250   1.0078250   1.0078250   1.0078250   1.0078250   1.0078250
 NucSpn=           1           1           1           1           1           1           1           1           1           1
 AtZEff=  -0.0000000  -0.0000000  -0.0000000  -0.0000000  -0.0000000  -0.0000000  -0.0000000  -0.0000000  -0.0000000  -0.0000000
 NQMom=    0.0000000   0.0000000   0.0000000   0.0000000   0.0000000   0.0000000   0.0000000   0.0000000   0.0000000   0.0000000
 NMagM=    2.7928460   2.7928460   2.7928460   2.7928460   2.7928460   2.7928460   2.7928460   2.7928460   2.7928460   2.7928460
 AtZNuc=   1.0000000   1.0000000   1.0000000   1.0000000   1.0000000   1.0000000   1.0000000   1.0000000   1.0000000   1.0000000

  Atom        81          82          83          84          85          86          87          88          89          90
 IAtWgt=           1           1           1           1           1           1           1           1           1           1
 AtmWgt=   1.0078250   1.0078250   1.0078250   1.0078250   1.0078250   1.0078250   1.0078250   1.0078250   1.0078250   1.0078250
 NucSpn=           1           1           1           1           1           1           1           1           1           1
 AtZEff=  -0.0000000  -0.0000000  -0.0000000  -0.0000000  -0.0000000  -0.0000000  -0.0000000  -0.0000000  -0.0000000  -0.0000000
 NQMom=    0.0000000   0.0000000   0.0000000   0.0000000   0.0000000   0.0000000   0.0000000   0.0000000   0.0000000   0.0000000
 NMagM=    2.7928460   2.7928460   2.7928460   2.7928460   2.7928460   2.7928460   2.7928460   2.7928460   2.7928460   2.7928460
 AtZNuc=   1.0000000   1.0000000   1.0000000   1.0000000   1.0000000   1.0000000   1.0000000   1.0000000   1.0000000   1.0000000

  Atom        91          92          93          94          95          96          97          98          99         100
 IAtWgt=           1           1           1           1           1           1           1           1           1           1
 AtmWgt=   1.0078250   1.0078250   1.0078250   1.0078250   1.0078250   1.0078250   1.0078250   1.0078250   1.0078250   1.0078250
 NucSpn=           1           1           1           1           1           1           1           1           1           1
 AtZEff=  -0.0000000  -0.0000000  -0.0000000  -0.0000000  -0.0000000  -0.0000000  -0.0000000  -0.0000000  -0.0000000  -0.0000000
 NQMom=    0.0000000   0.0000000   0.0000000   0.0000000   0.0000000   0.0000000   0.0000000   0.0000000   0.0000000   0.0000000
 NMagM=    2.7928460   2.7928460   2.7928460   2.7928460   2.7928460   2.7928460   2.7928460   2.7928460   2.7928460   2.7928460
 AtZNuc=   1.0000000   1.0000000   1.0000000   1.0000000   1.0000000   1.0000000   1.0000000   1.0000000   1.0000000   1.0000000

  Atom       101         102
 IAtWgt=           1           1
 AtmWgt=   1.0078250   1.0078250
 NucSpn=           1           1
 AtZEff=  -0.0000000  -0.0000000
 NQMom=    0.0000000   0.0000000
 NMagM=    2.7928460   2.7928460
 AtZNuc=   1.0000000   1.0000000
 Leave Link  101 at Sat Jul 25 09:47:10 2020, MaxMem=  4026531840 cpu:               3.0 elap:               0.5
 (Enter /opt/ohpc/pub/libs/gaussian/g16-A.03/sandybridge/g16/l103.exe)

 GradGradGradGradGradGradGradGradGradGradGradGradGradGradGradGradGradGrad
 Berny optimization.
 Initialization pass.
                           ----------------------------
                           !    Initial Parameters    !
                           ! (Angstroms and Degrees)  !
 --------------------------                            --------------------------
 ! Name  Definition              Value          Derivative Info.                !
 --------------------------------------------------------------------------------
 ! R1    R(1,2)                  1.4313         estimate D2E/DX2                !
 ! R2    R(1,6)                  1.3714         estimate D2E/DX2                !
 ! R3    R(1,61)                 1.1611         estimate D2E/DX2                !
 ! R4    R(2,3)                  1.3533         estimate D2E/DX2                !
 ! R5    R(2,62)                 1.1099         estimate D2E/DX2                !
 ! R6    R(3,4)                  1.4722         estimate D2E/DX2                !
 ! R7    R(3,63)                 1.0892         estimate D2E/DX2                !
 ! R8    R(4,5)                  1.4373         estimate D2E/DX2                !
 ! R9    R(4,7)                  1.4162         estimate D2E/DX2                !
 ! R10   R(5,6)                  1.4127         estimate D2E/DX2                !
 ! R11   R(5,64)                 1.009          estimate D2E/DX2                !
 ! R12   R(6,65)                 1.0918         estimate D2E/DX2                !
 ! R13   R(7,8)                  1.4616         estimate D2E/DX2                !
 ! R14   R(7,12)                 1.3821         estimate D2E/DX2                !
 ! R15   R(8,9)                  1.3787         estimate D2E/DX2                !
 ! R16   R(8,66)                 1.105          estimate D2E/DX2                !
 ! R17   R(9,10)                 1.4748         estimate D2E/DX2                !
 ! R18   R(9,67)                 1.0876         estimate D2E/DX2                !
 ! R19   R(10,11)                1.3686         estimate D2E/DX2                !
 ! R20   R(10,13)                1.4502         estimate D2E/DX2                !
 ! R21   R(11,12)                1.367          estimate D2E/DX2                !
 ! R22   R(11,68)                1.1022         estimate D2E/DX2                !
 ! R23   R(12,69)                1.0956         estimate D2E/DX2                !
 ! R24   R(13,14)                1.4536         estimate D2E/DX2                !
 ! R25   R(13,18)                1.3279         estimate D2E/DX2                !
 ! R26   R(14,15)                1.3758         estimate D2E/DX2                !
 ! R27   R(14,70)                1.0782         estimate D2E/DX2                !
 ! R28   R(15,16)                1.4645         estimate D2E/DX2                !
 ! R29   R(15,71)                1.0774         estimate D2E/DX2                !
 ! R30   R(16,17)                1.46           estimate D2E/DX2                !
 ! R31   R(16,19)                1.3937         estimate D2E/DX2                !
 ! R32   R(17,18)                1.3798         estimate D2E/DX2                !
 ! R33   R(17,72)                1.0924         estimate D2E/DX2                !
 ! R34   R(18,73)                1.153          estimate D2E/DX2                !
 ! R35   R(19,20)                1.4115         estimate D2E/DX2                !
 ! R36   R(19,24)                1.4352         estimate D2E/DX2                !
 ! R37   R(20,21)                1.3401         estimate D2E/DX2                !
 ! R38   R(20,74)                1.0861         estimate D2E/DX2                !
 ! R39   R(21,22)                1.346          estimate D2E/DX2                !
 ! R40   R(21,75)                1.1343         estimate D2E/DX2                !
 ! R41   R(22,23)                1.4109         estimate D2E/DX2                !
 ! R42   R(22,25)                1.4897         estimate D2E/DX2                !
 ! R43   R(23,24)                1.4607         estimate D2E/DX2                !
 ! R44   R(23,76)                1.0183         estimate D2E/DX2                !
 ! R45   R(24,77)                1.0742         estimate D2E/DX2                !
 ! R46   R(25,26)                1.3554         estimate D2E/DX2                !
 ! R47   R(25,30)                1.3916         estimate D2E/DX2                !
 ! R48   R(26,27)                1.3818         estimate D2E/DX2                !
 ! R49   R(26,78)                1.1656         estimate D2E/DX2                !
 ! R50   R(27,28)                1.4486         estimate D2E/DX2                !
 ! R51   R(27,79)                1.0619         estimate D2E/DX2                !
 ! R52   R(28,29)                1.4553         estimate D2E/DX2                !
 ! R53   R(28,31)                1.4349         estimate D2E/DX2                !
 ! R54   R(29,30)                1.4285         estimate D2E/DX2                !
 ! R55   R(29,80)                1.0906         estimate D2E/DX2                !
 ! R56   R(30,81)                1.1094         estimate D2E/DX2                !
 ! R57   R(31,32)                1.442          estimate D2E/DX2                !
 ! R58   R(31,36)                1.4163         estimate D2E/DX2                !
 ! R59   R(32,33)                1.329          estimate D2E/DX2                !
 ! R60   R(32,82)                1.078          estimate D2E/DX2                !
 ! R61   R(33,34)                1.3938         estimate D2E/DX2                !
 ! R62   R(33,83)                1.1436         estimate D2E/DX2                !
 ! R63   R(34,35)                1.4006         estimate D2E/DX2                !
 ! R64   R(34,37)                1.4802         estimate D2E/DX2                !
 ! R65   R(35,36)                1.3963         estimate D2E/DX2                !
 ! R66   R(35,84)                1.0318         estimate D2E/DX2                !
 ! R67   R(36,85)                1.155          estimate D2E/DX2                !
 ! R68   R(37,38)                1.406          estimate D2E/DX2                !
 ! R69   R(37,42)                1.469          estimate D2E/DX2                !
 ! R70   R(38,39)                1.388          estimate D2E/DX2                !
 ! R71   R(38,86)                1.0664         estimate D2E/DX2                !
 ! R72   R(39,40)                1.3764         estimate D2E/DX2                !
 ! R73   R(39,87)                1.0738         estimate D2E/DX2                !
 ! R74   R(40,41)                1.3799         estimate D2E/DX2                !
 ! R75   R(40,43)                1.4997         estimate D2E/DX2                !
 ! R76   R(41,42)                1.4012         estimate D2E/DX2                !
 ! R77   R(41,88)                1.1217         estimate D2E/DX2                !
 ! R78   R(42,89)                1.0882         estimate D2E/DX2                !
 ! R79   R(43,44)                1.454          estimate D2E/DX2                !
 ! R80   R(43,48)                1.345          estimate D2E/DX2                !
 ! R81   R(44,45)                1.3743         estimate D2E/DX2                !
 ! R82   R(44,90)                1.1636         estimate D2E/DX2                !
 ! R83   R(45,46)                1.3229         estimate D2E/DX2                !
 ! R84   R(45,91)                1.1371         estimate D2E/DX2                !
 ! R85   R(46,47)                1.4364         estimate D2E/DX2                !
 ! R86   R(46,49)                1.5128         estimate D2E/DX2                !
 ! R87   R(47,48)                1.3989         estimate D2E/DX2                !
 ! R88   R(47,92)                1.0331         estimate D2E/DX2                !
 ! R89   R(48,93)                1.1626         estimate D2E/DX2                !
 ! R90   R(49,50)                1.345          estimate D2E/DX2                !
 ! R91   R(49,54)                1.4811         estimate D2E/DX2                !
 ! R92   R(50,51)                1.3621         estimate D2E/DX2                !
 ! R93   R(50,94)                1.1589         estimate D2E/DX2                !
 ! R94   R(51,52)                1.4723         estimate D2E/DX2                !
 ! R95   R(51,95)                1.0587         estimate D2E/DX2                !
 ! R96   R(52,53)                1.4324         estimate D2E/DX2                !
 ! R97   R(52,55)                1.4904         estimate D2E/DX2                !
 ! R98   R(53,54)                1.3619         estimate D2E/DX2                !
 ! R99   R(53,96)                1.0195         estimate D2E/DX2                !
 ! R100  R(54,97)                1.1065         estimate D2E/DX2                !
 ! R101  R(55,56)                1.421          estimate D2E/DX2                !
 ! R102  R(55,60)                1.4133         estimate D2E/DX2                !
 ! R103  R(56,57)                1.3722         estimate D2E/DX2                !
 ! R104  R(56,98)                1.1533         estimate D2E/DX2                !
 ! R105  R(57,58)                1.3283         estimate D2E/DX2                !
 ! R106  R(57,99)                1.0647         estimate D2E/DX2                !
 ! R107  R(58,59)                1.4295         estimate D2E/DX2                !
 ! R108  R(58,100)               1.1034         estimate D2E/DX2                !
 ! R109  R(59,60)                1.3853         estimate D2E/DX2                !
 ! R110  R(59,101)               1.087          estimate D2E/DX2                !
 ! R111  R(60,102)               1.0672         estimate D2E/DX2                !
 ! A1    A(2,1,6)              121.0156         estimate D2E/DX2                !
 ! A2    A(2,1,61)             120.0747         estimate D2E/DX2                !
 ! A3    A(6,1,61)             118.5555         estimate D2E/DX2                !
 ! A4    A(1,2,3)              120.7376         estimate D2E/DX2                !
 ! A5    A(1,2,62)             119.2268         estimate D2E/DX2                !
 ! A6    A(3,2,62)             120.0297         estimate D2E/DX2                !
 ! A7    A(2,3,4)              120.4016         estimate D2E/DX2                !
 ! A8    A(2,3,63)             118.4798         estimate D2E/DX2                !
 ! A9    A(4,3,63)             120.8337         estimate D2E/DX2                !
 ! A10   A(3,4,5)              116.8585         estimate D2E/DX2                !
 ! A11   A(3,4,7)              121.943          estimate D2E/DX2                !
 ! A12   A(5,4,7)              121.0759         estimate D2E/DX2                !
 ! A13   A(4,5,6)              121.0796         estimate D2E/DX2                !
 ! A14   A(4,5,64)             119.1932         estimate D2E/DX2                !
 ! A15   A(6,5,64)             119.4581         estimate D2E/DX2                !
 ! A16   A(1,6,5)              119.5583         estimate D2E/DX2                !
 ! A17   A(1,6,65)             122.8982         estimate D2E/DX2                !
 ! A18   A(5,6,65)             117.2734         estimate D2E/DX2                !
 ! A19   A(4,7,8)              119.5509         estimate D2E/DX2                !
 ! A20   A(4,7,12)             124.9031         estimate D2E/DX2                !
 ! A21   A(8,7,12)             115.5368         estimate D2E/DX2                !
 ! A22   A(7,8,9)              123.4339         estimate D2E/DX2                !
 ! A23   A(7,8,66)             116.6591         estimate D2E/DX2                !
 ! A24   A(9,8,66)             119.0333         estimate D2E/DX2                !
 ! A25   A(8,9,10)             117.3959         estimate D2E/DX2                !
 ! A26   A(8,9,67)             123.059          estimate D2E/DX2                !
 ! A27   A(10,9,67)            119.1894         estimate D2E/DX2                !
 ! A28   A(9,10,11)            116.8131         estimate D2E/DX2                !
 ! A29   A(9,10,13)            119.296          estimate D2E/DX2                !
 ! A30   A(11,10,13)           123.6352         estimate D2E/DX2                !
 ! A31   A(10,11,12)           124.6322         estimate D2E/DX2                !
 ! A32   A(10,11,68)           114.8714         estimate D2E/DX2                !
 ! A33   A(12,11,68)           120.3153         estimate D2E/DX2                !
 ! A34   A(7,12,11)            121.6057         estimate D2E/DX2                !
 ! A35   A(7,12,69)            115.2704         estimate D2E/DX2                !
 ! A36   A(11,12,69)           122.9839         estimate D2E/DX2                !
 ! A37   A(10,13,14)           122.253          estimate D2E/DX2                !
 ! A38   A(10,13,18)           122.7205         estimate D2E/DX2                !
 ! A39   A(14,13,18)           115.011          estimate D2E/DX2                !
 ! A40   A(13,14,15)           124.9314         estimate D2E/DX2                !
 ! A41   A(13,14,70)           117.4939         estimate D2E/DX2                !
 ! A42   A(15,14,70)           117.4532         estimate D2E/DX2                !
 ! A43   A(14,15,16)           118.641          estimate D2E/DX2                !
 ! A44   A(14,15,71)           120.5781         estimate D2E/DX2                !
 ! A45   A(16,15,71)           120.768          estimate D2E/DX2                !
 ! A46   A(15,16,17)           114.77           estimate D2E/DX2                !
 ! A47   A(15,16,19)           120.9876         estimate D2E/DX2                !
 ! A48   A(17,16,19)           124.133          estimate D2E/DX2                !
 ! A49   A(16,17,18)           121.7417         estimate D2E/DX2                !
 ! A50   A(16,17,72)           116.1047         estimate D2E/DX2                !
 ! A51   A(18,17,72)           122.1518         estimate D2E/DX2                !
 ! A52   A(13,18,17)           124.9012         estimate D2E/DX2                !
 ! A53   A(13,18,73)           120.5752         estimate D2E/DX2                !
 ! A54   A(17,18,73)           114.4759         estimate D2E/DX2                !
 ! A55   A(16,19,20)           125.477          estimate D2E/DX2                !
 ! A56   A(16,19,24)           119.8787         estimate D2E/DX2                !
 ! A57   A(20,19,24)           114.2946         estimate D2E/DX2                !
 ! A58   A(19,20,21)           122.9955         estimate D2E/DX2                !
 ! A59   A(19,20,74)           116.0205         estimate D2E/DX2                !
 ! A60   A(21,20,74)           120.3053         estimate D2E/DX2                !
 ! A61   A(20,21,22)           123.3904         estimate D2E/DX2                !
 ! A62   A(20,21,75)           119.6819         estimate D2E/DX2                !
 ! A63   A(22,21,75)           116.5452         estimate D2E/DX2                !
 ! A64   A(21,22,23)           119.9051         estimate D2E/DX2                !
 ! A65   A(21,22,25)           122.3222         estimate D2E/DX2                !
 ! A66   A(23,22,25)           117.5974         estimate D2E/DX2                !
 ! A67   A(22,23,24)           116.5669         estimate D2E/DX2                !
 ! A68   A(22,23,76)           123.7971         estimate D2E/DX2                !
 ! A69   A(24,23,76)           119.5671         estimate D2E/DX2                !
 ! A70   A(19,24,23)           121.8494         estimate D2E/DX2                !
 ! A71   A(19,24,77)           119.0895         estimate D2E/DX2                !
 ! A72   A(23,24,77)           118.151          estimate D2E/DX2                !
 ! A73   A(22,25,26)           123.4119         estimate D2E/DX2                !
 ! A74   A(22,25,30)           119.418          estimate D2E/DX2                !
 ! A75   A(26,25,30)           117.0921         estimate D2E/DX2                !
 ! A76   A(25,26,27)           124.6554         estimate D2E/DX2                !
 ! A77   A(25,26,78)           120.374          estimate D2E/DX2                !
 ! A78   A(27,26,78)           114.8512         estimate D2E/DX2                !
 ! A79   A(26,27,28)           120.4125         estimate D2E/DX2                !
 ! A80   A(26,27,79)           120.1967         estimate D2E/DX2                !
 ! A81   A(28,27,79)           118.6385         estimate D2E/DX2                !
 ! A82   A(27,28,29)           115.3357         estimate D2E/DX2                !
 ! A83   A(27,28,31)           123.8902         estimate D2E/DX2                !
 ! A84   A(29,28,31)           120.3604         estimate D2E/DX2                !
 ! A85   A(28,29,30)           119.3779         estimate D2E/DX2                !
 ! A86   A(28,29,80)           118.1524         estimate D2E/DX2                !
 ! A87   A(30,29,80)           122.0359         estimate D2E/DX2                !
 ! A88   A(25,30,29)           122.4476         estimate D2E/DX2                !
 ! A89   A(25,30,81)           125.7347         estimate D2E/DX2                !
 ! A90   A(29,30,81)           111.4542         estimate D2E/DX2                !
 ! A91   A(28,31,32)           124.1476         estimate D2E/DX2                !
 ! A92   A(28,31,36)           121.0038         estimate D2E/DX2                !
 ! A93   A(32,31,36)           114.4755         estimate D2E/DX2                !
 ! A94   A(31,32,33)           119.7155         estimate D2E/DX2                !
 ! A95   A(31,32,82)           113.5817         estimate D2E/DX2                !
 ! A96   A(33,32,82)           126.6896         estimate D2E/DX2                !
 ! A97   A(32,33,34)           125.4155         estimate D2E/DX2                !
 ! A98   A(32,33,83)           114.1418         estimate D2E/DX2                !
 ! A99   A(34,33,83)           120.4253         estimate D2E/DX2                !
 ! A100  A(33,34,35)           117.9102         estimate D2E/DX2                !
 ! A101  A(33,34,37)           122.1018         estimate D2E/DX2                !
 ! A102  A(35,34,37)           119.9073         estimate D2E/DX2                !
 ! A103  A(34,35,36)           117.2189         estimate D2E/DX2                !
 ! A104  A(34,35,84)           124.9896         estimate D2E/DX2                !
 ! A105  A(36,35,84)           117.7257         estimate D2E/DX2                !
 ! A106  A(31,36,35)           125.1792         estimate D2E/DX2                !
 ! A107  A(31,36,85)           115.2551         estimate D2E/DX2                !
 ! A108  A(35,36,85)           119.5571         estimate D2E/DX2                !
 ! A109  A(34,37,38)           123.4796         estimate D2E/DX2                !
 ! A110  A(34,37,42)           119.2595         estimate D2E/DX2                !
 ! A111  A(38,37,42)           117.259          estimate D2E/DX2                !
 ! A112  A(37,38,39)           122.9793         estimate D2E/DX2                !
 ! A113  A(37,38,86)           113.4513         estimate D2E/DX2                !
 ! A114  A(39,38,86)           123.2798         estimate D2E/DX2                !
 ! A115  A(38,39,40)           118.2215         estimate D2E/DX2                !
 ! A116  A(38,39,87)           116.4053         estimate D2E/DX2                !
 ! A117  A(40,39,87)           125.2593         estimate D2E/DX2                !
 ! A118  A(39,40,41)           122.1275         estimate D2E/DX2                !
 ! A119  A(39,40,43)           118.9381         estimate D2E/DX2                !
 ! A120  A(41,40,43)           118.8317         estimate D2E/DX2                !
 ! A121  A(40,41,42)           121.1793         estimate D2E/DX2                !
 ! A122  A(40,41,88)           124.9966         estimate D2E/DX2                !
 ! A123  A(42,41,88)           113.4046         estimate D2E/DX2                !
 ! A124  A(37,42,41)           117.8077         estimate D2E/DX2                !
 ! A125  A(37,42,89)           118.1913         estimate D2E/DX2                !
 ! A126  A(41,42,89)           123.1534         estimate D2E/DX2                !
 ! A127  A(40,43,44)           120.4158         estimate D2E/DX2                !
 ! A128  A(40,43,48)           125.4472         estimate D2E/DX2                !
 ! A129  A(44,43,48)           113.9632         estimate D2E/DX2                !
 ! A130  A(43,44,45)           121.2629         estimate D2E/DX2                !
 ! A131  A(43,44,90)           117.6143         estimate D2E/DX2                !
 ! A132  A(45,44,90)           121.1143         estimate D2E/DX2                !
 ! A133  A(44,45,46)           122.1128         estimate D2E/DX2                !
 ! A134  A(44,45,91)           117.9154         estimate D2E/DX2                !
 ! A135  A(46,45,91)           119.9171         estimate D2E/DX2                !
 ! A136  A(45,46,47)           120.1081         estimate D2E/DX2                !
 ! A137  A(45,46,49)           120.7344         estimate D2E/DX2                !
 ! A138  A(47,46,49)           119.1528         estimate D2E/DX2                !
 ! A139  A(46,47,48)           115.9187         estimate D2E/DX2                !
 ! A140  A(46,47,92)           121.21           estimate D2E/DX2                !
 ! A141  A(48,47,92)           122.4312         estimate D2E/DX2                !
 ! A142  A(43,48,47)           126.3772         estimate D2E/DX2                !
 ! A143  A(43,48,93)           119.2365         estimate D2E/DX2                !
 ! A144  A(47,48,93)           113.8327         estimate D2E/DX2                !
 ! A145  A(46,49,50)           122.9337         estimate D2E/DX2                !
 ! A146  A(46,49,54)           120.1798         estimate D2E/DX2                !
 ! A147  A(50,49,54)           116.8819         estimate D2E/DX2                !
 ! A148  A(49,50,51)           123.6292         estimate D2E/DX2                !
 ! A149  A(49,50,94)           119.0112         estimate D2E/DX2                !
 ! A150  A(51,50,94)           116.7127         estimate D2E/DX2                !
 ! A151  A(50,51,52)           120.6472         estimate D2E/DX2                !
 ! A152  A(50,51,95)           121.5755         estimate D2E/DX2                !
 ! A153  A(52,51,95)           116.7683         estimate D2E/DX2                !
 ! A154  A(51,52,53)           116.0662         estimate D2E/DX2                !
 ! A155  A(51,52,55)           121.4709         estimate D2E/DX2                !
 ! A156  A(53,52,55)           122.1673         estimate D2E/DX2                !
 ! A157  A(52,53,54)           120.6172         estimate D2E/DX2                !
 ! A158  A(52,53,96)           116.7235         estimate D2E/DX2                !
 ! A159  A(54,53,96)           122.5339         estimate D2E/DX2                !
 ! A160  A(49,54,53)           121.5919         estimate D2E/DX2                !
 ! A161  A(49,54,97)           116.9075         estimate D2E/DX2                !
 ! A162  A(53,54,97)           121.1365         estimate D2E/DX2                !
 ! A163  A(52,55,56)           118.9233         estimate D2E/DX2                !
 ! A164  A(52,55,60)           122.2079         estimate D2E/DX2                !
 ! A165  A(56,55,60)           118.8533         estimate D2E/DX2                !
 ! A166  A(55,56,57)           119.9925         estimate D2E/DX2                !
 ! A167  A(55,56,98)           118.106          estimate D2E/DX2                !
 ! A168  A(57,56,98)           121.8288         estimate D2E/DX2                !
 ! A169  A(56,57,58)           121.7347         estimate D2E/DX2                !
 ! A170  A(56,57,99)           119.2266         estimate D2E/DX2                !
 ! A171  A(58,57,99)           118.7587         estimate D2E/DX2                !
 ! A172  A(57,58,59)           120.0711         estimate D2E/DX2                !
 ! A173  A(57,58,100)          121.4462         estimate D2E/DX2                !
 ! A174  A(59,58,100)          118.0117         estimate D2E/DX2                !
 ! A175  A(58,59,60)           119.9382         estimate D2E/DX2                !
 ! A176  A(58,59,101)          120.3642         estimate D2E/DX2                !
 ! A177  A(60,59,101)          119.5783         estimate D2E/DX2                !
 ! A178  A(55,60,59)           119.0261         estimate D2E/DX2                !
 ! A179  A(55,60,102)          120.4769         estimate D2E/DX2                !
 ! A180  A(59,60,102)          120.4752         estimate D2E/DX2                !
 ! D1    D(6,1,2,3)              7.3686         estimate D2E/DX2                !
 ! D2    D(6,1,2,62)          -173.513          estimate D2E/DX2                !
 ! D3    D(61,1,2,3)          -179.5635         estimate D2E/DX2                !
 ! D4    D(61,1,2,62)           -0.4452         estimate D2E/DX2                !
 ! D5    D(2,1,6,5)             -5.9773         estimate D2E/DX2                !
 ! D6    D(2,1,6,65)          -179.8413         estimate D2E/DX2                !
 ! D7    D(61,1,6,5)          -179.1481         estimate D2E/DX2                !
 ! D8    D(61,1,6,65)            6.9879         estimate D2E/DX2                !
 ! D9    D(1,2,3,4)             -4.3604         estimate D2E/DX2                !
 ! D10   D(1,2,3,63)          -178.2811         estimate D2E/DX2                !
 ! D11   D(62,2,3,4)           176.5283         estimate D2E/DX2                !
 ! D12   D(62,2,3,63)            2.6076         estimate D2E/DX2                !
 ! D13   D(2,3,4,5)              0.3252         estimate D2E/DX2                !
 ! D14   D(2,3,4,7)           -175.6873         estimate D2E/DX2                !
 ! D15   D(63,3,4,5)           174.1015         estimate D2E/DX2                !
 ! D16   D(63,3,4,7)            -1.911          estimate D2E/DX2                !
 ! D17   D(3,4,5,6)              0.9772         estimate D2E/DX2                !
 ! D18   D(3,4,5,64)           174.9853         estimate D2E/DX2                !
 ! D19   D(7,4,5,6)            177.0265         estimate D2E/DX2                !
 ! D20   D(7,4,5,64)            -8.9654         estimate D2E/DX2                !
 ! D21   D(3,4,7,8)            -52.7099         estimate D2E/DX2                !
 ! D22   D(3,4,7,12)           128.4448         estimate D2E/DX2                !
 ! D23   D(5,4,7,8)            131.4439         estimate D2E/DX2                !
 ! D24   D(5,4,7,12)           -47.4015         estimate D2E/DX2                !
 ! D25   D(4,5,6,1)              1.8638         estimate D2E/DX2                !
 ! D26   D(4,5,6,65)           176.0686         estimate D2E/DX2                !
 ! D27   D(64,5,6,1)          -172.1287         estimate D2E/DX2                !
 ! D28   D(64,5,6,65)            2.0761         estimate D2E/DX2                !
 ! D29   D(4,7,8,9)           -175.3771         estimate D2E/DX2                !
 ! D30   D(4,7,8,66)            -6.2037         estimate D2E/DX2                !
 ! D31   D(12,7,8,9)             3.5734         estimate D2E/DX2                !
 ! D32   D(12,7,8,66)          172.7468         estimate D2E/DX2                !
 ! D33   D(4,7,12,11)          179.3237         estimate D2E/DX2                !
 ! D34   D(4,7,12,69)           -4.8558         estimate D2E/DX2                !
 ! D35   D(8,7,12,11)            0.4369         estimate D2E/DX2                !
 ! D36   D(8,7,12,69)          176.2574         estimate D2E/DX2                !
 ! D37   D(7,8,9,10)            -8.1951         estimate D2E/DX2                !
 ! D38   D(7,8,9,67)           178.7183         estimate D2E/DX2                !
 ! D39   D(66,8,9,10)         -177.1258         estimate D2E/DX2                !
 ! D40   D(66,8,9,67)            9.7876         estimate D2E/DX2                !
 ! D41   D(8,9,10,11)            8.8394         estimate D2E/DX2                !
 ! D42   D(8,9,10,13)         -176.757          estimate D2E/DX2                !
 ! D43   D(67,9,10,11)        -177.7963         estimate D2E/DX2                !
 ! D44   D(67,9,10,13)          -3.3927         estimate D2E/DX2                !
 ! D45   D(9,10,11,12)          -5.4876         estimate D2E/DX2                !
 ! D46   D(9,10,11,68)         179.4102         estimate D2E/DX2                !
 ! D47   D(13,10,11,12)       -179.6246         estimate D2E/DX2                !
 ! D48   D(13,10,11,68)          5.2732         estimate D2E/DX2                !
 ! D49   D(9,10,13,14)         -52.9021         estimate D2E/DX2                !
 ! D50   D(9,10,13,18)         128.6043         estimate D2E/DX2                !
 ! D51   D(11,10,13,14)        121.0975         estimate D2E/DX2                !
 ! D52   D(11,10,13,18)        -57.3962         estimate D2E/DX2                !
 ! D53   D(10,11,12,7)           0.8316         estimate D2E/DX2                !
 ! D54   D(10,11,12,69)       -174.662          estimate D2E/DX2                !
 ! D55   D(68,11,12,7)         175.6835         estimate D2E/DX2                !
 ! D56   D(68,11,12,69)          0.19           estimate D2E/DX2                !
 ! D57   D(10,13,14,15)       -178.5372         estimate D2E/DX2                !
 ! D58   D(10,13,14,70)         -2.6569         estimate D2E/DX2                !
 ! D59   D(18,13,14,15)          0.0644         estimate D2E/DX2                !
 ! D60   D(18,13,14,70)        175.9447         estimate D2E/DX2                !
 ! D61   D(10,13,18,17)        179.0307         estimate D2E/DX2                !
 ! D62   D(10,13,18,73)         -3.6245         estimate D2E/DX2                !
 ! D63   D(14,13,18,17)          0.4364         estimate D2E/DX2                !
 ! D64   D(14,13,18,73)        177.7812         estimate D2E/DX2                !
 ! D65   D(13,14,15,16)         -0.5524         estimate D2E/DX2                !
 ! D66   D(13,14,15,71)        178.1513         estimate D2E/DX2                !
 ! D67   D(70,14,15,16)       -176.4343         estimate D2E/DX2                !
 ! D68   D(70,14,15,71)          2.2694         estimate D2E/DX2                !
 ! D69   D(14,15,16,17)          0.5351         estimate D2E/DX2                !
 ! D70   D(14,15,16,19)        176.8854         estimate D2E/DX2                !
 ! D71   D(71,15,16,17)       -178.166          estimate D2E/DX2                !
 ! D72   D(71,15,16,19)         -1.8158         estimate D2E/DX2                !
 ! D73   D(15,16,17,18)         -0.0933         estimate D2E/DX2                !
 ! D74   D(15,16,17,72)       -179.6229         estimate D2E/DX2                !
 ! D75   D(19,16,17,18)       -176.3131         estimate D2E/DX2                !
 ! D76   D(19,16,17,72)          4.1573         estimate D2E/DX2                !
 ! D77   D(15,16,19,20)       -131.544          estimate D2E/DX2                !
 ! D78   D(15,16,19,24)         55.6481         estimate D2E/DX2                !
 ! D79   D(17,16,19,20)         44.4518         estimate D2E/DX2                !
 ! D80   D(17,16,19,24)       -128.3561         estimate D2E/DX2                !
 ! D81   D(16,17,18,13)         -0.4235         estimate D2E/DX2                !
 ! D82   D(16,17,18,73)       -177.9118         estimate D2E/DX2                !
 ! D83   D(72,17,18,13)        179.0776         estimate D2E/DX2                !
 ! D84   D(72,17,18,73)          1.5893         estimate D2E/DX2                !
 ! D85   D(16,19,20,21)        178.5409         estimate D2E/DX2                !
 ! D86   D(16,19,20,74)          7.9736         estimate D2E/DX2                !
 ! D87   D(24,19,20,21)         -8.2995         estimate D2E/DX2                !
 ! D88   D(24,19,20,74)       -178.8667         estimate D2E/DX2                !
 ! D89   D(16,19,24,23)       -177.9596         estimate D2E/DX2                !
 ! D90   D(16,19,24,77)         -9.0829         estimate D2E/DX2                !
 ! D91   D(20,19,24,23)          8.463          estimate D2E/DX2                !
 ! D92   D(20,19,24,77)        177.3396         estimate D2E/DX2                !
 ! D93   D(19,20,21,22)          8.3516         estimate D2E/DX2                !
 ! D94   D(19,20,21,75)       -178.9986         estimate D2E/DX2                !
 ! D95   D(74,20,21,22)        178.5296         estimate D2E/DX2                !
 ! D96   D(74,20,21,75)         -8.8207         estimate D2E/DX2                !
 ! D97   D(20,21,22,23)         -7.7411         estimate D2E/DX2                !
 ! D98   D(20,21,22,25)        177.1876         estimate D2E/DX2                !
 ! D99   D(75,21,22,23)        179.3961         estimate D2E/DX2                !
 ! D100  D(75,21,22,25)          4.3248         estimate D2E/DX2                !
 ! D101  D(21,22,23,24)          7.4815         estimate D2E/DX2                !
 ! D102  D(21,22,23,76)       -175.5586         estimate D2E/DX2                !
 ! D103  D(25,22,23,24)       -177.2178         estimate D2E/DX2                !
 ! D104  D(25,22,23,76)         -0.2579         estimate D2E/DX2                !
 ! D105  D(21,22,25,26)       -131.9905         estimate D2E/DX2                !
 ! D106  D(21,22,25,30)         51.3201         estimate D2E/DX2                !
 ! D107  D(23,22,25,26)         52.8302         estimate D2E/DX2                !
 ! D108  D(23,22,25,30)       -123.8591         estimate D2E/DX2                !
 ! D109  D(22,23,24,19)         -8.3223         estimate D2E/DX2                !
 ! D110  D(22,23,24,77)       -177.2992         estimate D2E/DX2                !
 ! D111  D(76,23,24,19)        174.5821         estimate D2E/DX2                !
 ! D112  D(76,23,24,77)          5.6052         estimate D2E/DX2                !
 ! D113  D(22,25,26,27)       -176.5301         estimate D2E/DX2                !
 ! D114  D(22,25,26,78)         -0.7131         estimate D2E/DX2                !
 ! D115  D(30,25,26,27)          0.2308         estimate D2E/DX2                !
 ! D116  D(30,25,26,78)        176.0478         estimate D2E/DX2                !
 ! D117  D(22,25,30,29)       -176.8306         estimate D2E/DX2                !
 ! D118  D(22,25,30,81)         -4.3538         estimate D2E/DX2                !
 ! D119  D(26,25,30,29)          6.2733         estimate D2E/DX2                !
 ! D120  D(26,25,30,81)        178.7501         estimate D2E/DX2                !
 ! D121  D(25,26,27,28)         -7.3351         estimate D2E/DX2                !
 ! D122  D(25,26,27,79)       -177.265          estimate D2E/DX2                !
 ! D123  D(78,26,27,28)        176.6417         estimate D2E/DX2                !
 ! D124  D(78,26,27,79)          6.7118         estimate D2E/DX2                !
 ! D125  D(26,27,28,29)          7.5181         estimate D2E/DX2                !
 ! D126  D(26,27,28,31)       -179.863          estimate D2E/DX2                !
 ! D127  D(79,27,28,29)        177.6028         estimate D2E/DX2                !
 ! D128  D(79,27,28,31)         -9.7783         estimate D2E/DX2                !
 ! D129  D(27,28,29,30)         -1.4268         estimate D2E/DX2                !
 ! D130  D(27,28,29,80)        171.1706         estimate D2E/DX2                !
 ! D131  D(31,28,29,30)       -174.3274         estimate D2E/DX2                !
 ! D132  D(31,28,29,80)         -1.73           estimate D2E/DX2                !
 ! D133  D(27,28,31,32)        -45.5831         estimate D2E/DX2                !
 ! D134  D(27,28,31,36)        127.0097         estimate D2E/DX2                !
 ! D135  D(29,28,31,32)        126.6834         estimate D2E/DX2                !
 ! D136  D(29,28,31,36)        -60.7238         estimate D2E/DX2                !
 ! D137  D(28,29,30,25)         -5.5496         estimate D2E/DX2                !
 ! D138  D(28,29,30,81)       -178.9926         estimate D2E/DX2                !
 ! D139  D(80,29,30,25)       -177.8485         estimate D2E/DX2                !
 ! D140  D(80,29,30,81)          8.7085         estimate D2E/DX2                !
 ! D141  D(28,31,32,33)        176.1822         estimate D2E/DX2                !
 ! D142  D(28,31,32,82)         -5.0514         estimate D2E/DX2                !
 ! D143  D(36,31,32,33)          3.1558         estimate D2E/DX2                !
 ! D144  D(36,31,32,82)       -178.0778         estimate D2E/DX2                !
 ! D145  D(28,31,36,35)       -176.0638         estimate D2E/DX2                !
 ! D146  D(28,31,36,85)          5.0204         estimate D2E/DX2                !
 ! D147  D(32,31,36,35)         -2.796          estimate D2E/DX2                !
 ! D148  D(32,31,36,85)        178.2882         estimate D2E/DX2                !
 ! D149  D(31,32,33,34)         -2.7658         estimate D2E/DX2                !
 ! D150  D(31,32,33,83)        175.7146         estimate D2E/DX2                !
 ! D151  D(82,32,33,34)        178.6441         estimate D2E/DX2                !
 ! D152  D(82,32,33,83)         -2.8755         estimate D2E/DX2                !
 ! D153  D(32,33,34,35)          1.5532         estimate D2E/DX2                !
 ! D154  D(32,33,34,37)        178.2802         estimate D2E/DX2                !
 ! D155  D(83,33,34,35)       -176.8386         estimate D2E/DX2                !
 ! D156  D(83,33,34,37)         -0.1116         estimate D2E/DX2                !
 ! D157  D(33,34,35,36)         -0.908          estimate D2E/DX2                !
 ! D158  D(33,34,35,84)        176.063          estimate D2E/DX2                !
 ! D159  D(37,34,35,36)       -177.7096         estimate D2E/DX2                !
 ! D160  D(37,34,35,84)         -0.7386         estimate D2E/DX2                !
 ! D161  D(33,34,37,38)         51.9809         estimate D2E/DX2                !
 ! D162  D(33,34,37,42)       -128.5415         estimate D2E/DX2                !
 ! D163  D(35,34,37,38)       -131.3558         estimate D2E/DX2                !
 ! D164  D(35,34,37,42)         48.1218         estimate D2E/DX2                !
 ! D165  D(34,35,36,31)          1.7415         estimate D2E/DX2                !
 ! D166  D(34,35,36,85)       -179.3858         estimate D2E/DX2                !
 ! D167  D(84,35,36,31)       -175.4553         estimate D2E/DX2                !
 ! D168  D(84,35,36,85)          3.4174         estimate D2E/DX2                !
 ! D169  D(34,37,38,39)        176.9094         estimate D2E/DX2                !
 ! D170  D(34,37,38,86)          2.9107         estimate D2E/DX2                !
 ! D171  D(42,37,38,39)         -2.578          estimate D2E/DX2                !
 ! D172  D(42,37,38,86)       -176.5766         estimate D2E/DX2                !
 ! D173  D(34,37,42,41)        176.9946         estimate D2E/DX2                !
 ! D174  D(34,37,42,89)          7.1964         estimate D2E/DX2                !
 ! D175  D(38,37,42,41)         -3.4955         estimate D2E/DX2                !
 ! D176  D(38,37,42,89)       -173.2937         estimate D2E/DX2                !
 ! D177  D(37,38,39,40)          5.7219         estimate D2E/DX2                !
 ! D178  D(37,38,39,87)       -177.953          estimate D2E/DX2                !
 ! D179  D(86,38,39,40)        179.1338         estimate D2E/DX2                !
 ! D180  D(86,38,39,87)         -4.5412         estimate D2E/DX2                !
 ! D181  D(38,39,40,41)         -2.6901         estimate D2E/DX2                !
 ! D182  D(38,39,40,43)       -178.96           estimate D2E/DX2                !
 ! D183  D(87,39,40,41)       -178.6585         estimate D2E/DX2                !
 ! D184  D(87,39,40,43)          5.0716         estimate D2E/DX2                !
 ! D185  D(39,40,41,42)         -3.4794         estimate D2E/DX2                !
 ! D186  D(39,40,41,88)       -175.5455         estimate D2E/DX2                !
 ! D187  D(43,40,41,42)        172.7944         estimate D2E/DX2                !
 ! D188  D(43,40,41,88)          0.7283         estimate D2E/DX2                !
 ! D189  D(39,40,43,44)        -60.2185         estimate D2E/DX2                !
 ! D190  D(39,40,43,48)        124.8723         estimate D2E/DX2                !
 ! D191  D(41,40,43,44)        123.3872         estimate D2E/DX2                !
 ! D192  D(41,40,43,48)        -51.522          estimate D2E/DX2                !
 ! D193  D(40,41,42,37)          6.4872         estimate D2E/DX2                !
 ! D194  D(40,41,42,89)        175.741          estimate D2E/DX2                !
 ! D195  D(88,41,42,37)        179.4098         estimate D2E/DX2                !
 ! D196  D(88,41,42,89)        -11.3364         estimate D2E/DX2                !
 ! D197  D(40,43,44,45)       -178.4408         estimate D2E/DX2                !
 ! D198  D(40,43,44,90)          0.5111         estimate D2E/DX2                !
 ! D199  D(48,43,44,45)         -2.978          estimate D2E/DX2                !
 ! D200  D(48,43,44,90)        175.9739         estimate D2E/DX2                !
 ! D201  D(40,43,48,47)       -179.1371         estimate D2E/DX2                !
 ! D202  D(40,43,48,93)         -8.2255         estimate D2E/DX2                !
 ! D203  D(44,43,48,47)          5.6664         estimate D2E/DX2                !
 ! D204  D(44,43,48,93)        176.578          estimate D2E/DX2                !
 ! D205  D(43,44,45,46)          1.1083         estimate D2E/DX2                !
 ! D206  D(43,44,45,91)        178.417          estimate D2E/DX2                !
 ! D207  D(90,44,45,46)       -177.807          estimate D2E/DX2                !
 ! D208  D(90,44,45,91)         -0.4982         estimate D2E/DX2                !
 ! D209  D(44,45,46,47)         -1.4028         estimate D2E/DX2                !
 ! D210  D(44,45,46,49)        179.3956         estimate D2E/DX2                !
 ! D211  D(91,45,46,47)       -178.6591         estimate D2E/DX2                !
 ! D212  D(91,45,46,49)          2.1393         estimate D2E/DX2                !
 ! D213  D(45,46,47,48)          3.5206         estimate D2E/DX2                !
 ! D214  D(45,46,47,92)        176.0853         estimate D2E/DX2                !
 ! D215  D(49,46,47,48)       -177.2651         estimate D2E/DX2                !
 ! D216  D(49,46,47,92)         -4.7005         estimate D2E/DX2                !
 ! D217  D(45,46,49,50)         49.5072         estimate D2E/DX2                !
 ! D218  D(45,46,49,54)       -129.6912         estimate D2E/DX2                !
 ! D219  D(47,46,49,50)       -129.702          estimate D2E/DX2                !
 ! D220  D(47,46,49,54)         51.0996         estimate D2E/DX2                !
 ! D221  D(46,47,48,43)         -6.0513         estimate D2E/DX2                !
 ! D222  D(46,47,48,93)       -177.3847         estimate D2E/DX2                !
 ! D223  D(92,47,48,43)       -178.5164         estimate D2E/DX2                !
 ! D224  D(92,47,48,93)         10.1503         estimate D2E/DX2                !
 ! D225  D(46,49,50,51)        175.7845         estimate D2E/DX2                !
 ! D226  D(46,49,50,94)          5.3181         estimate D2E/DX2                !
 ! D227  D(54,49,50,51)         -4.9924         estimate D2E/DX2                !
 ! D228  D(54,49,50,94)       -175.4588         estimate D2E/DX2                !
 ! D229  D(46,49,54,53)        178.4286         estimate D2E/DX2                !
 ! D230  D(46,49,54,97)          5.283          estimate D2E/DX2                !
 ! D231  D(50,49,54,53)         -0.8171         estimate D2E/DX2                !
 ! D232  D(50,49,54,97)       -173.9628         estimate D2E/DX2                !
 ! D233  D(49,50,51,52)          9.3502         estimate D2E/DX2                !
 ! D234  D(49,50,51,95)        177.4881         estimate D2E/DX2                !
 ! D235  D(94,50,51,52)       -179.9815         estimate D2E/DX2                !
 ! D236  D(94,50,51,95)        -11.8436         estimate D2E/DX2                !
 ! D237  D(50,51,52,53)         -7.5557         estimate D2E/DX2                !
 ! D238  D(50,51,52,55)        178.5594         estimate D2E/DX2                !
 ! D239  D(95,51,52,53)       -176.244          estimate D2E/DX2                !
 ! D240  D(95,51,52,55)          9.871          estimate D2E/DX2                !
 ! D241  D(51,52,53,54)          2.0354         estimate D2E/DX2                !
 ! D242  D(51,52,53,96)       -173.9949         estimate D2E/DX2                !
 ! D243  D(55,52,53,54)        175.8738         estimate D2E/DX2                !
 ! D244  D(55,52,53,96)         -0.1564         estimate D2E/DX2                !
 ! D245  D(51,52,55,56)       -129.7665         estimate D2E/DX2                !
 ! D246  D(51,52,55,60)         48.784          estimate D2E/DX2                !
 ! D247  D(53,52,55,56)         56.7243         estimate D2E/DX2                !
 ! D248  D(53,52,55,60)       -124.7252         estimate D2E/DX2                !
 ! D249  D(52,53,54,49)          1.995          estimate D2E/DX2                !
 ! D250  D(52,53,54,97)        174.8525         estimate D2E/DX2                !
 ! D251  D(96,53,54,49)        177.7889         estimate D2E/DX2                !
 ! D252  D(96,53,54,97)         -9.3536         estimate D2E/DX2                !
 ! D253  D(52,55,56,57)       -179.0396         estimate D2E/DX2                !
 ! D254  D(52,55,56,98)         -2.0819         estimate D2E/DX2                !
 ! D255  D(60,55,56,57)          2.3606         estimate D2E/DX2                !
 ! D256  D(60,55,56,98)        179.3184         estimate D2E/DX2                !
 ! D257  D(52,55,60,59)       -179.9292         estimate D2E/DX2                !
 ! D258  D(52,55,60,102)         1.7603         estimate D2E/DX2                !
 ! D259  D(56,55,60,59)         -1.3777         estimate D2E/DX2                !
 ! D260  D(56,55,60,102)      -179.6882         estimate D2E/DX2                !
 ! D261  D(55,56,57,58)         -5.4824         estimate D2E/DX2                !
 ! D262  D(55,56,57,99)       -179.3272         estimate D2E/DX2                !
 ! D263  D(98,56,57,58)        177.6762         estimate D2E/DX2                !
 ! D264  D(98,56,57,99)          3.8314         estimate D2E/DX2                !
 ! D265  D(56,57,58,59)          7.3523         estimate D2E/DX2                !
 ! D266  D(56,57,58,100)       179.3211         estimate D2E/DX2                !
 ! D267  D(99,57,58,59)       -178.7749         estimate D2E/DX2                !
 ! D268  D(99,57,58,100)        -6.8062         estimate D2E/DX2                !
 ! D269  D(57,58,59,60)         -6.2236         estimate D2E/DX2                !
 ! D270  D(57,58,59,101)       177.7627         estimate D2E/DX2                !
 ! D271  D(100,58,59,60)      -178.4644         estimate D2E/DX2                !
 ! D272  D(100,58,59,101)        5.5219         estimate D2E/DX2                !
 ! D273  D(58,59,60,55)          3.2109         estimate D2E/DX2                !
 ! D274  D(58,59,60,102)      -178.4786         estimate D2E/DX2                !
 ! D275  D(101,59,60,55)       179.2561         estimate D2E/DX2                !
 ! D276  D(101,59,60,102)       -2.4334         estimate D2E/DX2                !
 --------------------------------------------------------------------------------
 Trust Radius=3.00D-01 FncErr=1.00D-07 GrdErr=1.00D-06 EigMax=2.50D+02 EigMin=1.00D-04
 Number of steps in this run=    577 maximum allowed number of steps=    612.
 GradGradGradGradGradGradGradGradGradGradGradGradGradGradGradGradGradGrad

 Leave Link  103 at Sat Jul 25 09:47:11 2020, MaxMem=  4026531840 cpu:               0.2 elap:               0.1
 (Enter /opt/ohpc/pub/libs/gaussian/g16-A.03/sandybridge/g16/l202.exe)
 Stoichiometry    C60H42
 Framework group  C1[X(C60H42)]
 Deg. of freedom   300
 Full point group                 C1      NOp   1
 Largest Abelian subgroup         C1      NOp   1
 Largest concise Abelian subgroup C1      NOp   1
                         Standard orientation:                         
 ---------------------------------------------------------------------
 Center     Atomic      Atomic             Coordinates (Angstroms)
 Number     Number       Type             X           Y           Z
 ---------------------------------------------------------------------
      1          6           0       20.801612   -0.417100    0.183530
      2          6           0       20.156787    0.655783   -0.510583
      3          6           0       18.807872    0.764408   -0.515845
      4          6           0       17.974402   -0.273598    0.112811
      5          6           0       18.662932   -1.377583    0.723436
      6          6           0       20.074170   -1.441937    0.732374
      7          6           0       16.560083   -0.239454    0.048722
      8          6           0       15.848693    0.968473    0.462386
      9          6           0       14.474189    1.058228    0.520432
     10          6           0       13.696744   -0.066842   -0.031705
     11          6           0       14.398519   -1.187071   -0.386201
     12          6           0       15.761525   -1.289543   -0.363486
     13          6           0       12.249117    0.015498   -0.056549
     14          6           0       11.469037    0.321765    1.131202
     15          6           0       10.095484    0.385450    1.176789
     16          6           0        9.340205    0.141263   -0.053948
     17          6           0       10.158872   -0.163441   -1.223786
     18          6           0       11.536052   -0.210599   -1.153661
     19          6           0        7.946517    0.129861   -0.050276
     20          6           0        7.133886   -0.866046   -0.633526
     21          6           0        5.795274   -0.841820   -0.575929
     22          6           0        5.092954    0.205136   -0.104459
     23          6           0        5.764354    1.282793    0.510812
     24          6           0        7.223554    1.265840    0.446305
     25          6           0        3.603485    0.231491   -0.107817
     26          6           0        2.876628    1.282615   -0.559399
     27          6           0        1.497957    1.362944   -0.511768
     28          6           0        0.710595    0.219208   -0.099102
     29          6           0        1.473381   -0.911747    0.407736
     30          6           0        2.899686   -0.838749    0.436088
     31          6           0       -0.722398    0.218930   -0.025448
     32          6           0       -1.502590    1.276557    0.567837
     33          6           0       -2.829660    1.222120    0.520893
     34          6           0       -3.575417    0.231447   -0.115643
     35          6           0       -2.881269   -0.815610   -0.734865
     36          6           0       -1.486505   -0.775827   -0.683121
     37          6           0       -5.055363    0.222606   -0.090445
     38          6           0       -5.843860    1.329238   -0.451684
     39          6           0       -7.230898    1.290306   -0.483989
     40          6           0       -7.860812    0.152969   -0.032121
     41          6           0       -7.157662   -0.955005    0.394701
     42          6           0       -5.759195   -0.999790    0.319894
     43          6           0       -9.358107    0.084355   -0.081734
     44          6           0      -10.163855    1.049423    0.648788
     45          6           0      -11.536554    0.983657    0.641206
     46          6           0      -12.191568    0.034797   -0.007398
     47          6           0      -11.470163   -0.953522   -0.759690
     48          6           0      -10.075178   -0.879232   -0.686992
     49          6           0      -13.703375   -0.015769    0.016395
     50          6           0      -14.475008    1.054005   -0.246474
     51          6           0      -15.834746    1.005914   -0.310375
     52          6           0      -16.563584   -0.202296    0.110048
     53          6           0      -15.759688   -1.347240    0.417471
     54          6           0      -14.400930   -1.277294    0.356653
     55          6           0      -18.052370   -0.263629    0.077713
     56          6           0      -18.747301   -0.705557    1.235709
     57          6           0      -20.116856   -0.789318    1.223557
     58          6           0      -20.833571   -0.365875    0.188473
     59          6           0      -20.180250    0.048530   -1.013559
     60          6           0      -18.798105    0.131448   -1.055923
     61          1           0       21.960073   -0.494938    0.186835
     62          1           0       20.776976    1.411624   -1.035985
     63          1           0       18.354572    1.578917   -1.079353
     64          1           0       18.131419   -2.069386    1.230440
     65          1           0       20.533671   -2.273699    1.270020
     66          1           0       16.458104    1.773612    0.911108
     67          1           0       13.951430    1.953783    0.848502
     68          1           0       13.785237   -2.011291   -0.785313
     69          1           0       16.299766   -2.169442   -0.732945
     70          1           0       12.003502    0.446274    2.059309
     71          1           0        9.586778    0.589972    2.104230
     72          1           0        9.617715   -0.343141   -2.155599
     73          1           0       12.058520   -0.424878   -2.158961
     74          1           0        7.650734   -1.747473   -1.001654
     75          1           0        5.197384   -1.681104   -1.050035
     76          1           0        5.289712    2.072090    0.945265
     77          1           0        7.762032    2.050592    0.944438
     78          1           0        3.409340    2.237777   -0.962572
     79          1           0        0.997265    2.202733   -0.926037
     80          1           0        0.927109   -1.736790    0.866324
     81          1           0        3.346207   -1.775442    0.828494
     82          1           0       -0.905517    2.042443    1.035895
     83          1           0       -3.352749    2.067545    1.086107
     84          1           0       -3.321797   -1.632645   -1.185354
     85          1           0       -0.873450   -1.613321   -1.189847
     86          1           0       -5.273719    2.163035   -0.793773
     87          1           0       -7.726373    2.186267   -0.807833
     88          1           0       -7.618715   -1.929490    0.704421
     89          1           0       -5.168689   -1.827283    0.708005
     90          1           0       -9.604489    1.869389    1.256085
     91          1           0      -12.109649    1.750820    1.254340
     92          1           0      -11.959899   -1.736288   -1.223074
     93          1           0       -9.527889   -1.664852   -1.346514
     94          1           0      -13.971630    2.038313   -0.594104
     95          1           0      -16.412812    1.876255   -0.481118
     96          1           0      -16.255597   -2.215164    0.617861
     97          1           0      -13.769450   -2.129102    0.672869
     98          1           0      -18.125778   -1.036266    2.149212
     99          1           0      -20.625781   -1.111644    2.101448
    100          1           0      -21.934031   -0.445640    0.179127
    101          1           0      -20.763224    0.361470   -1.875966
    102          1           0      -18.302674    0.462971   -1.941054
 ---------------------------------------------------------------------
 Rotational constants (GHZ):           0.5463894           0.0042423           0.0042311
 Leave Link  202 at Sat Jul 25 09:47:11 2020, MaxMem=  4026531840 cpu:               0.2 elap:               0.0
 (Enter /opt/ohpc/pub/libs/gaussian/g16-A.03/sandybridge/g16/l301.exe)
 Standard basis: CC-pVDZ (5D, 7F)
 Ernie: Thresh=  0.10000D-02 Tol=  0.10000D-05 Strict=F.
 Ernie:  120 primitive shells out of 1530 were deleted.
 There are  1110 symmetry adapted cartesian basis functions of A   symmetry.
 There are  1050 symmetry adapted basis functions of A   symmetry.
  1050 basis functions,  2274 primitive gaussians,  1110 cartesian basis functions
   201 alpha electrons      201 beta electrons
       nuclear repulsion energy      5750.0414998119 Hartrees.
 IExCor=32609 DFT=T Ex+Corr=LC-wPBE ExCW=0 ScaHFX=  1.000000
 ScaDFX=  1.000000  0.000000  1.000000  1.000000 ScalE2=  1.000000  1.000000
 IRadAn=      5 IRanWt=     -1 IRanGd=            0 ICorTp=0 IEmpDi=  4
 HFx  wShort=  0.000000 wLong=  0.357700 cFull=  0.000000 cShort=  0.000000 cLong=  1.000000
 DFx  wShort=  0.000000 wLong=  0.357700 cFull=  0.000000 cShort=  0.000000 cLong=  1.000000
 NAtoms=  102 NActive=  102 NUniq=  102 SFac= 1.00D+00 NAtFMM=   60 NAOKFM=T Big=T
 Integral buffers will be    131072 words long.
 Raffenetti 2 integral format.
 Two-electron integral symmetry is turned on.
 Leave Link  301 at Sat Jul 25 09:47:11 2020, MaxMem=  4026531840 cpu:               0.9 elap:               0.1
 (Enter /opt/ohpc/pub/libs/gaussian/g16-A.03/sandybridge/g16/l302.exe)
 NPDir=0 NMtPBC=     1 NCelOv=     1 NCel=       1 NClECP=     1 NCelD=      1
         NCelK=      1 NCelE2=     1 NClLst=     1 CellRange=     0.0.
 One-electron integrals computed using PRISM.
 One-electron integral symmetry used in STVInt
 NBasis=  1050 RedAO= T EigKep=  2.67D-04  NBF=  1050
 NBsUse=  1050 1.00D-06 EigRej= -1.00D+00 NBFU=  1050
 Precomputing XC quadrature grid using
 IXCGrd= 4 IRadAn=           5 IRanWt=          -1 IRanGd=           0 AccXCQ= 0.00D+00.
 Generated NRdTot=       0 NPtTot=           0 NUsed=           0 NTot=          32
 NSgBfM=   608   608   608   608   608 MxSgAt=   102 MxSgA2=    88.
 Leave Link  302 at Sat Jul 25 09:47:15 2020, MaxMem=  4026531840 cpu:              27.0 elap:               3.4
 (Enter /opt/ohpc/pub/libs/gaussian/g16-A.03/sandybridge/g16/l303.exe)
 DipDrv:  MaxL=1.
[...]
  Beta virt. eigenvalues --    1.14610   1.14960   1.15189   1.15315   1.15855
  Beta virt. eigenvalues --    1.15926   1.16066   1.16186   1.16706   1.17311
  Beta virt. eigenvalues --    1.17420   1.17640   1.17841   1.17921   1.17941
  Beta virt. eigenvalues --    1.18190   1.18206   1.18243   1.18658   1.18828
  Beta virt. eigenvalues --    1.18963   1.19262   1.19578   1.19789   1.19899
  Beta virt. eigenvalues --    1.19935   1.19958   1.20962   1.21127   1.21355
  Beta virt. eigenvalues --    1.22274   1.22497   1.22584   1.23005   1.23462
  Beta virt. eigenvalues --    1.23933   1.24236   1.24811   1.25079   1.25276
  Beta virt. eigenvalues --    1.25719   1.26516   1.26529   1.27307   1.27559
  Beta virt. eigenvalues --    1.27854   1.27999   1.28563   1.28780   1.29230
  Beta virt. eigenvalues --    1.29399   1.32341   1.32742   1.33627   1.33862
  Beta virt. eigenvalues --    1.33967   1.34263   1.34355   1.34612   1.35091
  Beta virt. eigenvalues --    1.35597   1.35737   1.35954   1.38304   1.40759
  Beta virt. eigenvalues --    1.42528   1.42544   1.42908   1.43126   1.43247
  Beta virt. eigenvalues --    1.43357   1.43514   1.43673   1.43770   1.44319
  Beta virt. eigenvalues --    1.44892   1.44927   1.45274   1.47209   1.48691
  Beta virt. eigenvalues --    1.49736   1.50941   1.51873   1.52384   1.52690
  Beta virt. eigenvalues --    1.53220   1.53664   1.53949   1.54570   1.54712
  Beta virt. eigenvalues --    1.54728   1.55113   1.55240   1.55767   1.55817
  Beta virt. eigenvalues --    1.56077   1.56623   1.56721   1.56754   1.57874
  Beta virt. eigenvalues --    1.58424   1.58635   1.58737   1.58898   1.59193
  Beta virt. eigenvalues --    1.59365   1.59398   1.59529   1.59756   1.60012
  Beta virt. eigenvalues --    1.60026   1.60500   1.60740   1.61087   1.61129
  Beta virt. eigenvalues --    1.61434   1.61763   1.62077   1.62654   1.62909
  Beta virt. eigenvalues --    1.63199   1.63553   1.65582   1.65796   1.65976
  Beta virt. eigenvalues --    1.66163   1.66604   1.67002   1.67289   1.67315
  Beta virt. eigenvalues --    1.67431   1.67990   1.67993   1.68045   1.68384
  Beta virt. eigenvalues --    1.68691   1.69136   1.69186   1.69705   1.69706
  Beta virt. eigenvalues --    1.70074   1.70342   1.70559   1.70698   1.70888
  Beta virt. eigenvalues --    1.71057   1.71282   1.71580   1.71754   1.71763
  Beta virt. eigenvalues --    1.71867   1.72051   1.72334   1.72346   1.72360
  Beta virt. eigenvalues --    1.72424   1.72805   1.73356   1.73436   1.73576
  Beta virt. eigenvalues --    1.73677   1.73692   1.73943   1.74207   1.74369
  Beta virt. eigenvalues --    1.74512   1.74536   1.74715   1.74958   1.75059
  Beta virt. eigenvalues --    1.75073   1.75182   1.75375   1.75583   1.75885
  Beta virt. eigenvalues --    1.76401   1.76493   1.76690   1.76863   1.77674
  Beta virt. eigenvalues --    1.77978   1.77996   1.78002   1.79920   1.80130
  Beta virt. eigenvalues --    1.80331   1.80814   1.81212   1.81409   1.81709
  Beta virt. eigenvalues --    1.81732   1.82094   1.82120   1.82417   1.82441
  Beta virt. eigenvalues --    1.82773   1.83006   1.83079   1.83293   1.83345
  Beta virt. eigenvalues --    1.83460   1.83498   1.83767   1.84162   1.84308
  Beta virt. eigenvalues --    1.84502   1.84588   1.84992   1.85014   1.85398
  Beta virt. eigenvalues --    1.85619   1.85798   1.85963   1.86018   1.86270
  Beta virt. eigenvalues --    1.86451   1.86465   1.86643   1.87005   1.87376
  Beta virt. eigenvalues --    1.87684   1.87718   1.87790   1.88218   1.88220
  Beta virt. eigenvalues --    1.88532   1.88700   1.89011   1.89199   1.89449
  Beta virt. eigenvalues --    1.89930   1.90006   1.90238   1.91010   1.91118
  Beta virt. eigenvalues --    1.91432   1.92109   1.92651   1.92682   1.93004
  Beta virt. eigenvalues --    1.93419   1.94135   1.94365   1.94396   1.94768
  Beta virt. eigenvalues --    1.94897   1.95023   1.95170   1.95242   1.95636
  Beta virt. eigenvalues --    1.95726   1.95979   1.96073   1.96144   1.96266
  Beta virt. eigenvalues --    1.96493   1.96552   1.96755   1.97102   1.97161
  Beta virt. eigenvalues --    1.97626   1.97657   1.98264   1.98469   1.98495
  Beta virt. eigenvalues --    1.98667   1.98954   1.99000   1.99434   1.99695
  Beta virt. eigenvalues --    2.00010   2.00015   2.00657   2.01403   2.02096
  Beta virt. eigenvalues --    2.02720   2.02855   2.03140   2.03182   2.03754
  Beta virt. eigenvalues --    2.03999   2.04220   2.04298   2.04972   2.05097
  Beta virt. eigenvalues --    2.05635   2.05750   2.06056   2.06452   2.06530
  Beta virt. eigenvalues --    2.06801   2.07024   2.08238   2.08239   2.08289
  Beta virt. eigenvalues --    2.08330   2.08443   2.08503   2.08586   2.08728
  Beta virt. eigenvalues --    2.08806   2.09001   2.09041   2.09076   2.09196
  Beta virt. eigenvalues --    2.09337   2.09476   2.09599   2.09906   2.10005
  Beta virt. eigenvalues --    2.10185   2.10456   2.10458   2.11212   2.12601
  Beta virt. eigenvalues --    2.13392   2.14406   2.15222   2.16752   2.16876
  Beta virt. eigenvalues --    2.18051   2.18237   2.18818   2.18866   2.19020
  Beta virt. eigenvalues --    2.19282   2.19326   2.19647   2.20101   2.20585
  Beta virt. eigenvalues --    2.20925   2.21136   2.21249   2.24228   2.25027
  Beta virt. eigenvalues --    2.26612   2.27605   2.27998   2.28084   2.28956
  Beta virt. eigenvalues --    2.29723   2.30385   2.31084   2.32289   2.32399
  Beta virt. eigenvalues --    2.33141   2.33160   2.33198   2.33557   2.33922
  Beta virt. eigenvalues --    2.33965   2.34047   2.34200   2.34632   2.35079
  Beta virt. eigenvalues --    2.35306   2.35714   2.37009   2.37137   2.38934
  Beta virt. eigenvalues --    2.40487   2.41610   2.44690   2.46493   2.47632
  Beta virt. eigenvalues --    2.47872   2.47872   2.49164   2.49858   2.50124
  Beta virt. eigenvalues --    2.50394   2.50958   2.51155   2.51348   2.51701
  Beta virt. eigenvalues --    2.52294   2.53000   2.53457   2.53462   2.53524
  Beta virt. eigenvalues --    2.53664   2.53843   2.53991   2.54104   2.54451
  Beta virt. eigenvalues --    2.54541   2.54644   2.54695   2.54723   2.54738
  Beta virt. eigenvalues --    2.54936   2.55146   2.55908   2.56245   2.57558
  Beta virt. eigenvalues --    2.58641   2.60814   2.63495   2.65806   2.68466
  Beta virt. eigenvalues --    2.71525   2.74009   2.74173   2.74178   2.74904
  Beta virt. eigenvalues --    2.75266   2.75350   2.76082   2.76171   2.76316
  Beta virt. eigenvalues --    2.77068   2.77680   2.77836   2.78733   2.79142
  Beta virt. eigenvalues --    2.79532   2.79622   2.80387   2.80430   2.80760
  Beta virt. eigenvalues --    2.81265   2.81782   2.81980   2.82154   2.82607
  Beta virt. eigenvalues --    2.82623   2.84281   2.84996   2.86223   2.86837
  Beta virt. eigenvalues --    2.88459   2.88668   2.90722   2.91610   2.92967
  Beta virt. eigenvalues --    2.93907   2.94369   2.94395   2.94570   2.94764
  Beta virt. eigenvalues --    2.95088   2.95487   2.95557   2.95758   3.01229
  Beta virt. eigenvalues --    3.01306   3.01907   3.02935   3.04612   3.06226
  Beta virt. eigenvalues --    3.07825   3.09795   3.11215   3.12491   3.46148
  Beta virt. eigenvalues --    3.48341   3.51645   3.55571   3.59841   3.64015
  Beta virt. eigenvalues --    3.67635   3.70522   3.72367   3.72870
          Condensed to atoms (all electrons):
          Atomic-Atomic Spin Densities.
 Mulliken charges and spin densities:
               1          2
     1  C    0.001443   0.000000
     2  C    0.013993  -0.000000
     3  C   -0.006995   0.000000
     4  C   -0.006444  -0.000000
     5  C   -0.006994   0.000000
     6  C    0.013992  -0.000000
     7  C    0.000272  -0.000000
     8  C    0.007139   0.000000
     9  C    0.005276  -0.000000
    10  C   -0.000620   0.000000
    11  C    0.005275  -0.000000
    12  C    0.007139   0.000000
    13  C    0.002791  -0.000000
    14  C    0.004502   0.000000
    15  C    0.004387  -0.000000
    16  C    0.002677  -0.000000
    17  C    0.004386   0.000000
    18  C    0.004504  -0.000000
    19  C   -0.000295  -0.000000
    20  C    0.005725   0.000000
    21  C    0.005730  -0.000000
    22  C   -0.000409   0.000000
    23  C    0.005728  -0.000000
    24  C    0.005723   0.000000
    25  C    0.002848  -0.000000
    26  C    0.004670   0.000000
    27  C    0.004268   0.000000
    28  C    0.002647  -0.000000
    29  C    0.004268  -0.000000
    30  C    0.004669   0.000000
    31  C    0.002797  -0.000000
    32  C    0.004423   0.000000
    33  C    0.004460  -0.000000
    34  C    0.002764   0.000000
    35  C    0.004459  -0.000000
    36  C    0.004424   0.000000
    37  C    0.002730   0.000000
    38  C    0.004429  -0.000000
    39  C    0.004446   0.000000
    40  C    0.002822  -0.000000
    41  C    0.004446  -0.000000
    42  C    0.004429   0.000000
    43  C    0.002594   0.000000
    44  C    0.004207  -0.000000
    45  C    0.004694  -0.000000
    46  C    0.002905   0.000000
    47  C    0.004692  -0.000000
    48  C    0.004208  -0.000000
    49  C   -0.000659  -0.000000
    50  C    0.005309   0.000000
    51  C    0.007127   0.000000
    52  C    0.000286   0.000000
    53  C    0.007137  -0.000000
    54  C    0.005304  -0.000000
    55  C   -0.006442   0.000000
    56  C   -0.007008  -0.000000
    57  C    0.013993   0.000000
    58  C    0.001442  -0.000000
    59  C    0.013995   0.000000
    60  C   -0.007013  -0.000000
    61  H   -0.000022   0.000000
    62  H    0.001447  -0.000000
    63  H   -0.006174   0.000000
    64  H   -0.006174   0.000000
    65  H    0.001448   0.000000
    66  H   -0.005702  -0.000000
    67  H   -0.006235  -0.000000
    68  H   -0.006236  -0.000000
    69  H   -0.005702  -0.000000
    70  H   -0.005499  -0.000000
    71  H   -0.005585  -0.000000
    72  H   -0.005585  -0.000000
    73  H   -0.005500  -0.000000
    74  H   -0.005958  -0.000000
    75  H   -0.005999  -0.000000
    76  H   -0.005998  -0.000000
    77  H   -0.005957  -0.000000
    78  H   -0.005539   0.000000
    79  H   -0.005835   0.000000
    80  H   -0.005835  -0.000000
    81  H   -0.005539  -0.000000
    82  H   -0.005914  -0.000000
    83  H   -0.005886  -0.000000
    84  H   -0.005885  -0.000000
    85  H   -0.005915  -0.000000
    86  H   -0.005931   0.000000
    87  H   -0.005897   0.000000
    88  H   -0.005898   0.000000
    89  H   -0.005931   0.000000
    90  H   -0.005947   0.000000
    91  H   -0.005568   0.000000
    92  H   -0.005567  -0.000000
    93  H   -0.005948   0.000000
    94  H   -0.006214   0.000000
    95  H   -0.005690   0.000000
    96  H   -0.005691   0.000000
    97  H   -0.006212   0.000000
    98  H   -0.006156   0.000000
    99  H    0.001455   0.000000
   100  H   -0.000019  -0.000000
   101  H    0.001454  -0.000000
   102  H   -0.006155  -0.000000
 Sum of Mulliken charges =  -0.00000   0.00000
 Mulliken charges and spin densities with hydrogens summed into heavy atoms:
               1          2
     1  C    0.001421   0.000000
     2  C    0.015440  -0.000000
     3  C   -0.013169   0.000000
     4  C   -0.006444  -0.000000
     5  C   -0.013168   0.000000
     6  C    0.015440  -0.000000
     7  C    0.000272  -0.000000
     8  C    0.001438   0.000000
     9  C   -0.000959  -0.000000
    10  C   -0.000620   0.000000
    11  C   -0.000960  -0.000000
    12  C    0.001438   0.000000
    13  C    0.002791  -0.000000
    14  C   -0.000996   0.000000
    15  C   -0.001198  -0.000000
    16  C    0.002677  -0.000000
    17  C   -0.001199   0.000000
    18  C   -0.000995  -0.000000
    19  C   -0.000295  -0.000000
    20  C   -0.000233   0.000000
    21  C   -0.000269  -0.000000
    22  C   -0.000409   0.000000
    23  C   -0.000270  -0.000000
    24  C   -0.000234   0.000000
    25  C    0.002848  -0.000000
    26  C   -0.000869   0.000000
    27  C   -0.001568   0.000000
    28  C    0.002647  -0.000000
    29  C   -0.001567  -0.000000
    30  C   -0.000869   0.000000
    31  C    0.002797  -0.000000
    32  C   -0.001492   0.000000
    33  C   -0.001426  -0.000000
    34  C    0.002764   0.000000
    35  C   -0.001427  -0.000000
    36  C   -0.001491   0.000000
    37  C    0.002730   0.000000
    38  C   -0.001503  -0.000000
    39  C   -0.001451   0.000000
    40  C    0.002822  -0.000000
    41  C   -0.001452  -0.000000
    42  C   -0.001502   0.000000
    43  C    0.002594   0.000000
    44  C   -0.001740  -0.000000
    45  C   -0.000874  -0.000000
    46  C    0.002905   0.000000
    47  C   -0.000875  -0.000000
    48  C   -0.001741  -0.000000
    49  C   -0.000659  -0.000000
    50  C   -0.000905   0.000000
    51  C    0.001437   0.000000
    52  C    0.000286   0.000000
    53  C    0.001445  -0.000000
    54  C   -0.000909  -0.000000
    55  C   -0.006442   0.000000
    56  C   -0.013164  -0.000000
    57  C    0.015448   0.000000
    58  C    0.001423  -0.000000
    59  C    0.015449   0.000000
    60  C   -0.013167  -0.000000
 Electronic spatial extent (au):  <R**2>=         226884.5358
 Charge=             -0.0000 electrons
 Dipole moment (field-independent basis, Debye):
    X=              0.0003    Y=              0.0000    Z=             -0.0000  Tot=              0.0003
 Quadrupole moment (field-independent basis, Debye-Ang):
   XX=           -292.3612   YY=           -317.0233   ZZ=           -350.0846
   XY=              0.0003   XZ=              0.0003   YZ=             -0.1779
 Traceless Quadrupole moment (field-independent basis, Debye-Ang):
   XX=             27.4618   YY=              2.7998   ZZ=            -30.2616
   XY=              0.0003   XZ=              0.0003   YZ=             -0.1779
 Octapole moment (field-independent basis, Debye-Ang**2):
  XXX=             -2.4152  YYY=             -0.0001  ZZZ=             -0.0004  XYY=             45.9560
  XXY=             -0.0005  XXZ=             -0.0087  XZZ=            -45.8499  YZZ=              0.0003
  YYZ=             -0.0012  XYZ=            104.1685
 Hexadecapole moment (field-independent basis, Debye-Ang**3):
 XXXX=        -276967.2375 YYYY=          -2122.4983 ZZZZ=          -1071.6516 XXXY=              0.1138
 XXXZ=              0.1360 YYYX=              0.0228 YYYZ=             -0.3821 ZZZX=              0.0158
 ZZZY=             -0.3203 XXYY=         -50966.3309 XXZZ=         -54041.8598 YYZZ=           -532.2119
 XXYZ=          -1476.7509 YYXZ=             -0.0124 ZZXY=             -0.0113
 N-N= 5.766434897866D+03 E-N=-1.688763511948D+04  KE= 2.293820872876D+03
 Leave Link  601 at Sat Jul 25 12:35:55 2020, MaxMem=  4026531840 cpu:               8.7 elap:               1.2
 (Enter /opt/ohpc/pub/libs/gaussian/g16-A.03/sandybridge/g16/l9999.exe)

 Test job not archived.
 1\1\GINC-SKYLAKE013\FOpt\ULC-wPBE\CC-pVDZ\C60H42\RDU230\25-Jul-2020\0\
 \#P uLC-wPBE/cc-pVDZ iop(3/107=0357700000, 3/108=0357700000) opt\\H42 
 C60\\0,1\C,20.8083178255,-0.0097740891,0.0036327894\C,20.1076484395,1.
 1291520542,-0.3809370063\C,18.7172478836,1.1287183898,-0.3804964263\C,
 18.0018681249,-0.00974308,0.0033711327\C,18.7171509007,-1.1482202072,0
 .3873758244\C,20.1075515812,-1.1486844717,0.3880709223\C,16.5150149223
 ,-0.0097295579,0.0032309636\C,15.7948926202,1.0807279661,0.4989228165\
 C,14.4061627059,1.0803434772,0.4998074282\C,13.6860244705,-0.009696462
 7,0.0029701835\C,14.406229264,-1.099751641,-0.4937339569\C,15.79495945
 44,-1.1001706242,-0.4925946185\C,12.200059314,-0.0096722194,0.00283054
 79\C,11.4796521312,0.4638474851,1.1031562527\C,10.0909770314,0.4639294
 961,1.1030224475\C,9.3708057949,-0.0095943275,0.0025542857\C,10.091166
 1839,-0.4831669428,-1.09776928\C,11.479842269,-0.4831608362,-1.0976316
 375\C,7.8848722037,-0.0095499066,0.0024111273\C,7.1646411293,-1.099403
 5837,-0.4947935284\C,5.775985923,-1.0997515096,-0.4940922414\C,5.05576
 55012,-0.0094577312,0.002137383\C,5.7759604682,1.0807911513,0.49850309
 22\C,7.1646149941,1.0803454782,0.4994857701\C,3.5698366689,-0.00940519
 39,0.0019891337\C,2.8496587192,1.1315616628,-0.363331425\C,1.460999858
 ,1.1315350313,-0.3635298793\C,0.7406246537,-0.0093121798,0.0017118889\
 C,1.4608513308,-1.1502073002,0.3670980754\C,2.8495101426,-1.1503241848
 ,0.3671710324\C,-0.7452359041,-0.0092608358,0.0015691235\C,-1.46553903
 45,1.0839339228,0.4914480056\C,-2.8541868773,1.083984819,0.4913179918\
 C,-3.5744710396,-0.0091596987,0.0013081035\C,-2.8541745275,-1.10235433
 01,-0.4885741491\C,-1.4655261476,-1.1024003588,-0.4884456626\C,-5.0603
 303443,-0.009111977,0.0011751326\C,-5.7805434477,1.1316789033,-0.36456
 13088\C,-7.1691931789,1.1317049799,-0.3647062371\C,-7.8895719851,-0.00
 90254789,0.0009305232\C,-7.1693247603,-1.1498011237,0.3666881742\C,-5.
 7806763663,-1.1498618978,0.3667855427\C,-9.3754331068,-0.0089767114,0.
 0008080124\C,-10.0957386301,1.084350641,0.49036381\C,-11.4844028965,1.
 0844505711,0.4902204816\C,-12.2047015676,-0.0088628286,0.0005627417\C,
 -11.4844080999,-1.1022378677,-0.4889622717\C,-10.0957419106,-1.1022455
 18,-0.4888620258\C,-13.6906651614,-0.0088013355,0.0004272353\C,-14.410
 7481574,1.1297736666,-0.3720669467\C,-15.7994778494,1.1294220066,-0.37
 32325052\C,-16.5196365288,-0.0087128295,0.00014718\C,-15.7996274448,-1
 .1469034829,0.3736383198\C,-14.4108986511,-1.1473397779,0.3727585314\C
 ,-18.0064918428,-0.0086698431,-0.0000332393\C,-18.7219622846,-0.586733
 129,1.0531367887\C,-20.1123618493,-0.5866298057,1.0536882739\C,-20.812
 9271725,-0.0085625459,-0.0003667221\C,-20.1120673944,0.5694506598,-1.0
 542563612\C,-18.7216689152,0.5694480031,-1.0533721593\H,21.9013154873,
 -0.0097874524,0.003738465\H,20.6488960711,2.0266793628,-0.6917008695\H
 ,18.1741971215,2.0209716721,-0.7038590733\H,18.1740200275,-2.040460738
 6,0.7106365208\H,20.6487243917,-2.0462235593,0.6989321984\H,16.3328999
 365,1.9416100799,0.9049229341\H,13.8684321315,1.9522287469,0.882008680
 1\H,13.8685473478,-1.9716243546,-0.876033749\H,16.3330242648,-1.961064
 0283,-0.8984939956\H,12.0170537287,0.813173102,1.9888999315\H,9.553477
 3726,0.813285292,1.9887040873\H,9.5538206777,-0.8324987107,-1.98355386
 25\H,12.0174012378,-0.8325314962,-1.9832613927\H,7.7023601931,-1.97110
 53498,-0.8773756389\H,5.2383094362,-1.9603995644,-0.900992777\H,5.2382
 60945,1.9414692371,0.9053101768\H,7.7023172423,1.95202458,0.8821446646
 \H,3.3871921888,2.0289644889,-0.6812778128\H,0.923574269,2.028931623,-
 0.6816824864\H,0.9233062249,-2.0475670037,0.6851519703\H,3.3869229146,
 -2.0477631463,0.6852213071\H,-0.9280389613,1.94033839,0.9074130738\H,-
 3.3917164285,1.9404283613,0.9071633937\H,-3.3916892485,-1.958753285,-0
 .9045313033\H,-0.9280120837,-1.9588448007,-0.9043101623\H,-5.242962505
 4,2.0289309219,-0.6828592093\H,-7.7066667509,2.0289695861,-0.683132095
 8\H,-7.7069065295,-2.047036881,0.6850138284\H,-5.2432053644,-2.0471440
 717,0.6851816219\H,-9.5582631065,1.9408956853,0.9060906824\H,-12.02191
 42291,1.9410616716,0.9057456612\H,-12.0219145453,-1.9588108442,-0.9045
 710914\H,-9.5582654728,-1.9588436732,-0.9044799923\H,-13.8729865427,2.
 0301938956,-0.6810481845\H,-16.3374769196,2.0378161908,-0.6574564588\H
 ,-16.3377419104,-2.0552707206,0.6577302415\H,-13.8732556096,-2.0477936
 09,0.6818480719\H,-18.1789793786,-1.0246408266,1.8951522647\H,-20.6537
 002116,-1.0368669028,1.8899393499\H,-21.9059255862,-0.0085139631,-0.00
 04904772\H,-20.6531686536,1.0197205332,-1.8906424758\H,-18.1784516059,
 1.0073216225,-1.895255498\\Version=EM64L-G16RevA.03\State=1-A\HF=-2310
 .0937013\S2=0.\S2-1=0.\S2A=0.\RMSD=4.045e-09\RMSF=1.043e-06\Dipole=0.0
 00128,0.0000011,-0.0000093\Quadrupole=20.4172102,2.0224339,-22.439644,
 -0.000481,0.0043331,1.2112689\PG=C01 [X(C60H42)]\\@


 A people that values its privileges above its principles soon loses both.
 -- Dwight D. Eisenhower
 Job cpu time:       0 days 22 hours  6 minutes 31.3 seconds.
 Elapsed time:       0 days  2 hours 48 minutes 43.7 seconds.
 File lengths (MBytes):  RWF=   1260 Int=      0 D2E=      0 Chk=    116 Scr=      8
 Normal termination of Gaussian 16 at Sat Jul 25 12:35:55 2020.
