 Entering Gaussian System, Link 0=g16
 Input=mols_55_7_04_CF-CF_opt_0.gjf
 Output=mols_55_7_04_CF-CF_opt_0.log
 Initial command:
 /opt/ohpc/pub/libs/gaussian/g16-A.03/sandybridge/g16/l1.exe "/mnt/gpfs2_4m/scratch/rdu230/ondemand/projects/dihedral_energies/7trial/wtuning/mols_55_7_04_CF-CF/Gau-366954.inp" -scrdir="/mnt/gpfs2_4m/scratch/rdu230/ondemand/projects/dihedral_energies/7trial/wtuning/mols_55_7_04_CF-CF/"
 Entering Link 1 = /opt/ohpc/pub/libs/gaussian/g16-A.03/sandybridge/g16/l1.exe PID=    366955.
  
 Copyright (c) 1988,1990,1992,1993,1995,1998,2003,2009,2016,
            Gaussian, Inc.  All Rights Reserved.
  
 This is part of the Gaussian(R) 16 program.  It is based on
 the Gaussian(R) 09 system (copyright 2009, Gaussian, Inc.),
 the Gaussian(R) 03 system (copyright 2003, Gaussian, Inc.),
 the Gaussian(R) 98 system (copyright 1998, Gaussian, Inc.),
 the Gaussian(R) 94 system (copyright 1995, Gaussian, Inc.),
 the Gaussian 92(TM) system (copyright 1992, Gaussian, Inc.),
 the Gaussian 90(TM) system (copyright 1990, Gaussian, Inc.),
 the Gaussian 88(TM) system (copyright 1988, Gaussian, Inc.),
 the Gaussian 86(TM) system (copyright 1986, Carnegie Mellon
 University), and the Gaussian 82(TM) system (copyright 1983,
 Carnegie Mellon University). Gaussian is a federally registered
 trademark of Gaussian, Inc.
  
 This software contains proprietary and confidential information,
 including trade secrets, belonging to Gaussian, Inc.
  
 This software is provided under written license and may be
 used, copied, transmitted, or stored only in accord with that
 written license.
  
 The following legend is applicable only to US Government
 contracts under FAR:
  
                    RESTRICTED RIGHTS LEGEND
  
 Use, reproduction and disclosure by the US Government is
 subject to restrictions as set forth in subparagraphs (a)
 and (c) of the Commercial Computer Software - Restricted
 Rights clause in FAR 52.227-19.
  
 Gaussian, Inc.
 340 Quinnipiac St., Bldg. 40, Wallingford CT 06492
  
  
 ---------------------------------------------------------------
 Warning -- This program may not be used in any manner that
 competes with the business of Gaussian, Inc. or will provide
 assistance to any competitor of Gaussian, Inc.  The licensee
 of this program is prohibited from giving any competitor of
 Gaussian, Inc. access to this program.  By using this program,
 the user acknowledges that Gaussian, Inc. is engaged in the
 business of creating and licensing software in the field of
 computational chemistry and represents and warrants to the
 licensee that it is not a competitor of Gaussian, Inc. and that
 it will not use this program in any manner prohibited above.
 ---------------------------------------------------------------
  

 Cite this work as:
 Gaussian 16, Revision A.03,
 M. J. Frisch, G. W. Trucks, H. B. Schlegel, G. E. Scuseria, 
 M. A. Robb, J. R. Cheeseman, G. Scalmani, V. Barone, 
 G. A. Petersson, H. Nakatsuji, X. Li, M. Caricato, A. V. Marenich, 
 J. Bloino, B. G. Janesko, R. Gomperts, B. Mennucci, H. P. Hratchian, 
 J. V. Ortiz, A. F. Izmaylov, J. L. Sonnenberg, D. Williams-Young, 
 F. Ding, F. Lipparini, F. Egidi, J. Goings, B. Peng, A. Petrone, 
 T. Henderson, D. Ranasinghe, V. G. Zakrzewski, J. Gao, N. Rega, 
 G. Zheng, W. Liang, M. Hada, M. Ehara, K. Toyota, R. Fukuda, 
 J. Hasegawa, M. Ishida, T. Nakajima, Y. Honda, O. Kitao, H. Nakai, 
 T. Vreven, K. Throssell, J. A. Montgomery, Jr., J. E. Peralta, 
 F. Ogliaro, M. J. Bearpark, J. J. Heyd, E. N. Brothers, K. N. Kudin, 
 V. N. Staroverov, T. A. Keith, R. Kobayashi, J. Normand, 
 K. Raghavachari, A. P. Rendell, J. C. Burant, S. S. Iyengar, 
 J. Tomasi, M. Cossi, J. M. Millam, M. Klene, C. Adamo, R. Cammi, 
 J. W. Ochterski, R. L. Martin, K. Morokuma, O. Farkas, 
 J. B. Foresman, and D. J. Fox, Gaussian, Inc., Wallingford CT, 2016.
 
 ******************************************
 Gaussian 16:  EM64L-G16RevA.03 25-Dec-2016
                24-Jul-2020 
 ******************************************
 %mem=30GB
 %nproc=8
 Will use up to    8 processors via shared memory.
 ---------------------------------------------------------------
 #P uLC-wPBE/cc-pVDZ iop(3/107=0244100000, 3/108=0244100000) opt
 ---------------------------------------------------------------
 1/18=20,19=15,26=3,38=1/1,3;
 2/9=110,12=2,17=6,18=5,40=1/2;
 3/5=16,11=2,25=1,30=1,71=1,74=-41,107=244100000,108=244100000,116=2/1,2,3;
 4//1;
 5/5=2,38=5/2;
 6/7=2,8=2,9=2,10=2,28=1/1;
 7//1,2,3,16;
 1/18=20,19=15,26=3/3(2);
 2/9=110/2;
 99//99;
 2/9=110/2;
 3/5=16,11=2,25=1,30=1,71=1,74=-41,107=244100000,108=244100000,116=2/1,2,3;
 4/5=5,16=3,69=1/1;
 5/5=2,38=5/2;
 7//1,2,3,16;
 1/18=20,19=15,26=3/3(-5);
 2/9=110/2;
 6/7=2,8=2,9=2,10=2,19=2,28=1/1;
 99/9=1/99;
 Leave Link    1 at Fri Jul 24 16:33:26 2020, MaxMem=  4026531840 cpu:               1.0 elap:               0.1
 (Enter /opt/ohpc/pub/libs/gaussian/g16-A.03/sandybridge/g16/l101.exe)
 ---------------
 H16 C56 S14 F14
 ---------------
 Symbolic Z-matrix:
 Charge =  0 Multiplicity = 1
 C                     25.46028  -1.47468  -0.95673 
 C                     24.70116  -2.22103  -0.09395 
 C                     23.32894  -1.80052   0.08214 
 F                     22.54128  -2.40322   0.85954 
 C                     23.11659  -0.64585  -0.64708 
 S                     24.43403  -0.20519  -1.56011 
 C                     21.86408   0.05323  -0.80462 
 C                     21.68032   1.40291  -1.10847 
 F                     22.6183   2.28652  -1.41999 
 C                     20.28038   1.76723  -1.03935 
 C                     19.45233   0.77932  -0.77551 
 S                     20.36473  -0.6775   -0.41007 
 C                     17.94201   0.85889  -0.59736 
 C                     17.1913   1.9379   -0.68001 
 C                     15.85579   1.74635  -0.52522 
 F                     14.88163   2.70654  -0.59296 
 C                     15.5412   0.39931  -0.34116 
 S                     16.98664  -0.52653  -0.37407 
 C                     14.22537  -0.26781  -0.0232 
 C                     13.89933  -1.53167   0.2512 
 F                     14.87924  -2.48626   0.4301 
 C                     12.51763  -1.82297   0.419 
 C                     11.78268  -0.70516   0.27258 
 S                     12.80016   0.68502  -0.20462 
 C                     10.34943  -0.56082   0.3023 
 C                     9.43936  -1.62738   0.39189 
 C                     8.06488  -1.21874   0.48758 
 F                     7.10411  -2.10847   0.53806 
 C                     7.96985   0.14122   0.51498 
 S                     9.49252   0.90093   0.3512 
 C                     6.7564    0.94616   0.54347 
 C                     6.6127    2.33154   0.53374 
 F                     7.63341   3.15611   0.37036 
 C                     5.22512   2.71956   0.68116 
 C                     4.39127   1.69128   0.83909 
 S                     5.13302   0.23945   0.80591 
 C                     2.97654   1.84456   0.99715 
 C                     2.31584   2.8489    1.64695 
 C                     0.90395   2.75461   1.54711 
 F                     0.09535   3.70239   2.1417 
 C                     0.44983   1.59773   0.92806 
 S                     1.77637   0.75299   0.42183 
 C                    -0.88406   1.31904   0.66321 
 C                    -1.88973   2.1338    0.13572 
 F                    -1.70377   3.37916  -0.12929 
 C                    -3.17959   1.56639   0.02816 
 C                    -3.13756   0.1419    0.40986 
 S                    -1.53179  -0.23364   0.88486 
 C                    -4.24236  -0.72827   0.4959 
 C                    -4.24545  -2.07295   0.80416 
 C                    -5.61129  -2.63805   0.7967 
 F                    -5.83683  -3.88796   1.07293 
 C                    -6.53726  -1.72766   0.30245 
 S                    -5.83097  -0.2451   -0.06272 
 C                    -8.00526  -2.02646   0.15626 
 C                    -8.52825  -3.15795  -0.22552 
 F                    -7.92497  -4.2648   -0.53688 
 C                    -9.98398  -3.15043  -0.25373 
 C                    -10.48187  -1.9136    0.10542 
 S                    -9.12246  -0.79978   0.55275 
 C                    -11.78743  -1.41715   0.20679 
 C                    -12.33034  -0.19628   0.7549 
 C                    -13.69907  -0.11903   0.70553 
 F                    -14.39275   0.98998   1.1387 
 C                    -14.29777  -1.21857   0.07935 
 S                    -13.10815  -2.37809  -0.35217 
 C                    -15.71328  -1.39836  -0.14416 
 C                    -16.46838  -2.55025  -0.20235 
 F                    -15.84571  -3.80969  -0.16207 
 C                    -17.87299  -2.46525  -0.37127 
 C                    -18.24047  -1.10496  -0.38278 
 S                    -16.87555  -0.13064  -0.25527 
 C                    -19.59552  -0.57083  -0.53342 
 C                    -20.76709  -1.34235  -0.65129 
 C                    -21.92298  -0.52323  -0.7997 
 F                    -23.13835  -1.07763  -0.81778 
 C                    -21.60618   0.83369  -0.72444 
 S                    -19.95452   1.05714  -0.53611 
 C                    -22.59767   1.92236  -0.81798 
 C                    -22.4495   3.14672  -0.19001 
 F                    -21.46752   3.52293   0.53581 
 C                    -23.59156   3.97092  -0.41592 
 C                    -24.51936   3.32287  -1.21949 
 S                    -24.056    1.79679  -1.6009 
 H                     26.48298  -1.61422  -1.30985 
 H                     25.06556  -3.14325   0.45555 
 H                     20.00074   2.82681  -1.31902 
 H                     17.60771   2.94463  -0.93613 
 H                     12.19901  -2.77111   0.69015 
 H                     9.76053  -2.67123   0.31354 
 H                     4.93437   3.84158   0.65444 
 H                     2.81871   3.75533   2.1533 
 H                    -4.06191   2.02282  -0.25139 
 H                    -3.44248  -2.61058   1.14532 
 H                    -10.5898  -3.9636   -0.61804 
 H                    -11.70076   0.57166   1.10335 
 H                    -18.53035  -3.31271  -0.51683 
 H                    -20.80372  -2.43511  -0.673 
 H                    -23.6537   5.0275   -0.07915 
 H                    -25.55331   3.73651  -1.56759 
 
 ITRead=  0  0  0  0  0  0  0  0  0  0  0  0  0  0  0  0  0  0  0  0
 ITRead=  0  0  0  0  0  0  0  0  0  0  0  0  0  0  0  0  0  0  0  0
 ITRead=  0  0  0  0  0  0  0  0  0  0  0  0  0  0  0  0  0  0  0  0
 ITRead=  0  0  0  0  0  0  0  0  0  0  0  0  0  0  0  0  0  0  0  0
 ITRead=  0  0  0  0  0  0  0  0  0  0  0  0  0  0  0  0  0  0  0  0
 MicOpt= -1 -1 -1 -1 -1 -1 -1 -1 -1 -1 -1 -1 -1 -1 -1 -1 -1 -1 -1 -1
 MicOpt= -1 -1 -1 -1 -1 -1 -1 -1 -1 -1 -1 -1 -1 -1 -1 -1 -1 -1 -1 -1
 MicOpt= -1 -1 -1 -1 -1 -1 -1 -1 -1 -1 -1 -1 -1 -1 -1 -1 -1 -1 -1 -1
 MicOpt= -1 -1 -1 -1 -1 -1 -1 -1 -1 -1 -1 -1 -1 -1 -1 -1 -1 -1 -1 -1
 MicOpt= -1 -1 -1 -1 -1 -1 -1 -1 -1 -1 -1 -1 -1 -1 -1 -1 -1 -1 -1 -1
 NAtoms=    100 NQM=      100 NQMF=       0 NMMI=      0 NMMIF=      0
                NMic=       0 NMicF=      0.
                    Isotopes and Nuclear Properties:
 (Nuclear quadrupole moments (NQMom) in fm**2, nuclear magnetic moments (NMagM)
  in nuclear magnetons)

  Atom         1           2           3           4           5           6           7           8           9          10
 IAtWgt=          12          12          12          19          12          32          12          12          19          12
 AtmWgt=  12.0000000  12.0000000  12.0000000  18.9984033  12.0000000  31.9720718  12.0000000  12.0000000  18.9984033  12.0000000
 NucSpn=           0           0           0           1           0           0           0           0           1           0
 AtZEff=  -0.0000000  -0.0000000  -0.0000000  -0.0000000  -0.0000000  -0.0000000  -0.0000000  -0.0000000  -0.0000000  -0.0000000
 NQMom=    0.0000000   0.0000000   0.0000000   0.0000000   0.0000000   0.0000000   0.0000000   0.0000000   0.0000000   0.0000000
 NMagM=    0.0000000   0.0000000   0.0000000   2.6288670   0.0000000   0.0000000   0.0000000   0.0000000   2.6288670   0.0000000
 AtZNuc=   6.0000000   6.0000000   6.0000000   9.0000000   6.0000000  16.0000000   6.0000000   6.0000000   9.0000000   6.0000000

  Atom        11          12          13          14          15          16          17          18          19          20
 IAtWgt=          12          32          12          12          12          19          12          32          12          12
 AtmWgt=  12.0000000  31.9720718  12.0000000  12.0000000  12.0000000  18.9984033  12.0000000  31.9720718  12.0000000  12.0000000
 NucSpn=           0           0           0           0           0           1           0           0           0           0
 AtZEff=  -0.0000000  -0.0000000  -0.0000000  -0.0000000  -0.0000000  -0.0000000  -0.0000000  -0.0000000  -0.0000000  -0.0000000
 NQMom=    0.0000000   0.0000000   0.0000000   0.0000000   0.0000000   0.0000000   0.0000000   0.0000000   0.0000000   0.0000000
 NMagM=    0.0000000   0.0000000   0.0000000   0.0000000   0.0000000   2.6288670   0.0000000   0.0000000   0.0000000   0.0000000
 AtZNuc=   6.0000000  16.0000000   6.0000000   6.0000000   6.0000000   9.0000000   6.0000000  16.0000000   6.0000000   6.0000000

  Atom        21          22          23          24          25          26          27          28          29          30
 IAtWgt=          19          12          12          32          12          12          12          19          12          32
 AtmWgt=  18.9984033  12.0000000  12.0000000  31.9720718  12.0000000  12.0000000  12.0000000  18.9984033  12.0000000  31.9720718
 NucSpn=           1           0           0           0           0           0           0           1           0           0
 AtZEff=  -0.0000000  -0.0000000  -0.0000000  -0.0000000  -0.0000000  -0.0000000  -0.0000000  -0.0000000  -0.0000000  -0.0000000
 NQMom=    0.0000000   0.0000000   0.0000000   0.0000000   0.0000000   0.0000000   0.0000000   0.0000000   0.0000000   0.0000000
 NMagM=    2.6288670   0.0000000   0.0000000   0.0000000   0.0000000   0.0000000   0.0000000   2.6288670   0.0000000   0.0000000
 AtZNuc=   9.0000000   6.0000000   6.0000000  16.0000000   6.0000000   6.0000000   6.0000000   9.0000000   6.0000000  16.0000000

  Atom        31          32          33          34          35          36          37          38          39          40
 IAtWgt=          12          12          19          12          12          32          12          12          12          19
 AtmWgt=  12.0000000  12.0000000  18.9984033  12.0000000  12.0000000  31.9720718  12.0000000  12.0000000  12.0000000  18.9984033
 NucSpn=           0           0           1           0           0           0           0           0           0           1
 AtZEff=  -0.0000000  -0.0000000  -0.0000000  -0.0000000  -0.0000000  -0.0000000  -0.0000000  -0.0000000  -0.0000000  -0.0000000
 NQMom=    0.0000000   0.0000000   0.0000000   0.0000000   0.0000000   0.0000000   0.0000000   0.0000000   0.0000000   0.0000000
 NMagM=    0.0000000   0.0000000   2.6288670   0.0000000   0.0000000   0.0000000   0.0000000   0.0000000   0.0000000   2.6288670
 AtZNuc=   6.0000000   6.0000000   9.0000000   6.0000000   6.0000000  16.0000000   6.0000000   6.0000000   6.0000000   9.0000000

  Atom        41          42          43          44          45          46          47          48          49          50
 IAtWgt=          12          32          12          12          19          12          12          32          12          12
 AtmWgt=  12.0000000  31.9720718  12.0000000  12.0000000  18.9984033  12.0000000  12.0000000  31.9720718  12.0000000  12.0000000
 NucSpn=           0           0           0           0           1           0           0           0           0           0
 AtZEff=  -0.0000000  -0.0000000  -0.0000000  -0.0000000  -0.0000000  -0.0000000  -0.0000000  -0.0000000  -0.0000000  -0.0000000
 NQMom=    0.0000000   0.0000000   0.0000000   0.0000000   0.0000000   0.0000000   0.0000000   0.0000000   0.0000000   0.0000000
 NMagM=    0.0000000   0.0000000   0.0000000   0.0000000   2.6288670   0.0000000   0.0000000   0.0000000   0.0000000   0.0000000
 AtZNuc=   6.0000000  16.0000000   6.0000000   6.0000000   9.0000000   6.0000000   6.0000000  16.0000000   6.0000000   6.0000000

  Atom        51          52          53          54          55          56          57          58          59          60
 IAtWgt=          12          19          12          32          12          12          19          12          12          32
 AtmWgt=  12.0000000  18.9984033  12.0000000  31.9720718  12.0000000  12.0000000  18.9984033  12.0000000  12.0000000  31.9720718
 NucSpn=           0           1           0           0           0           0           1           0           0           0
 AtZEff=  -0.0000000  -0.0000000  -0.0000000  -0.0000000  -0.0000000  -0.0000000  -0.0000000  -0.0000000  -0.0000000  -0.0000000
 NQMom=    0.0000000   0.0000000   0.0000000   0.0000000   0.0000000   0.0000000   0.0000000   0.0000000   0.0000000   0.0000000
 NMagM=    0.0000000   2.6288670   0.0000000   0.0000000   0.0000000   0.0000000   2.6288670   0.0000000   0.0000000   0.0000000
 AtZNuc=   6.0000000   9.0000000   6.0000000  16.0000000   6.0000000   6.0000000   9.0000000   6.0000000   6.0000000  16.0000000

  Atom        61          62          63          64          65          66          67          68          69          70
 IAtWgt=          12          12          12          19          12          32          12          12          19          12
 AtmWgt=  12.0000000  12.0000000  12.0000000  18.9984033  12.0000000  31.9720718  12.0000000  12.0000000  18.9984033  12.0000000
 NucSpn=           0           0           0           1           0           0           0           0           1           0
 AtZEff=  -0.0000000  -0.0000000  -0.0000000  -0.0000000  -0.0000000  -0.0000000  -0.0000000  -0.0000000  -0.0000000  -0.0000000
 NQMom=    0.0000000   0.0000000   0.0000000   0.0000000   0.0000000   0.0000000   0.0000000   0.0000000   0.0000000   0.0000000
 NMagM=    0.0000000   0.0000000   0.0000000   2.6288670   0.0000000   0.0000000   0.0000000   0.0000000   2.6288670   0.0000000
 AtZNuc=   6.0000000   6.0000000   6.0000000   9.0000000   6.0000000  16.0000000   6.0000000   6.0000000   9.0000000   6.0000000

  Atom        71          72          73          74          75          76          77          78          79          80
 IAtWgt=          12          32          12          12          12          19          12          32          12          12
 AtmWgt=  12.0000000  31.9720718  12.0000000  12.0000000  12.0000000  18.9984033  12.0000000  31.9720718  12.0000000  12.0000000
 NucSpn=           0           0           0           0           0           1           0           0           0           0
 AtZEff=  -0.0000000  -0.0000000  -0.0000000  -0.0000000  -0.0000000  -0.0000000  -0.0000000  -0.0000000  -0.0000000  -0.0000000
 NQMom=    0.0000000   0.0000000   0.0000000   0.0000000   0.0000000   0.0000000   0.0000000   0.0000000   0.0000000   0.0000000
 NMagM=    0.0000000   0.0000000   0.0000000   0.0000000   0.0000000   2.6288670   0.0000000   0.0000000   0.0000000   0.0000000
 AtZNuc=   6.0000000  16.0000000   6.0000000   6.0000000   6.0000000   9.0000000   6.0000000  16.0000000   6.0000000   6.0000000

  Atom        81          82          83          84          85          86          87          88          89          90
 IAtWgt=          19          12          12          32           1           1           1           1           1           1
 AtmWgt=  18.9984033  12.0000000  12.0000000  31.9720718   1.0078250   1.0078250   1.0078250   1.0078250   1.0078250   1.0078250
 NucSpn=           1           0           0           0           1           1           1           1           1           1
 AtZEff=  -0.0000000  -0.0000000  -0.0000000  -0.0000000  -0.0000000  -0.0000000  -0.0000000  -0.0000000  -0.0000000  -0.0000000
 NQMom=    0.0000000   0.0000000   0.0000000   0.0000000   0.0000000   0.0000000   0.0000000   0.0000000   0.0000000   0.0000000
 NMagM=    2.6288670   0.0000000   0.0000000   0.0000000   2.7928460   2.7928460   2.7928460   2.7928460   2.7928460   2.7928460
 AtZNuc=   9.0000000   6.0000000   6.0000000  16.0000000   1.0000000   1.0000000   1.0000000   1.0000000   1.0000000   1.0000000

  Atom        91          92          93          94          95          96          97          98          99         100
 IAtWgt=           1           1           1           1           1           1           1           1           1           1
 AtmWgt=   1.0078250   1.0078250   1.0078250   1.0078250   1.0078250   1.0078250   1.0078250   1.0078250   1.0078250   1.0078250
 NucSpn=           1           1           1           1           1           1           1           1           1           1
 AtZEff=  -0.0000000  -0.0000000  -0.0000000  -0.0000000  -0.0000000  -0.0000000  -0.0000000  -0.0000000  -0.0000000  -0.0000000
 NQMom=    0.0000000   0.0000000   0.0000000   0.0000000   0.0000000   0.0000000   0.0000000   0.0000000   0.0000000   0.0000000
 NMagM=    2.7928460   2.7928460   2.7928460   2.7928460   2.7928460   2.7928460   2.7928460   2.7928460   2.7928460   2.7928460
 AtZNuc=   1.0000000   1.0000000   1.0000000   1.0000000   1.0000000   1.0000000   1.0000000   1.0000000   1.0000000   1.0000000
 Leave Link  101 at Fri Jul 24 16:33:27 2020, MaxMem=  4026531840 cpu:               3.0 elap:               0.4
 (Enter /opt/ohpc/pub/libs/gaussian/g16-A.03/sandybridge/g16/l103.exe)

 GradGradGradGradGradGradGradGradGradGradGradGradGradGradGradGradGradGrad
 Berny optimization.
 Initialization pass.
                           ----------------------------
                           !    Initial Parameters    !
                           ! (Angstroms and Degrees)  !
 --------------------------                            --------------------------
 ! Name  Definition              Value          Derivative Info.                !
 --------------------------------------------------------------------------------
 ! R1    R(1,2)                  1.3703         estimate D2E/DX2                !
 ! R2    R(1,6)                  1.7404         estimate D2E/DX2                !
 ! R3    R(1,85)                 1.0909         estimate D2E/DX2                !
 ! R4    R(2,3)                  1.446          estimate D2E/DX2                !
 ! R5    R(2,86)                 1.1337         estimate D2E/DX2                !
 ! R6    R(3,4)                  1.2602         estimate D2E/DX2                !
 ! R7    R(3,5)                  1.3821         estimate D2E/DX2                !
 ! R8    R(5,6)                  1.6624         estimate D2E/DX2                !
 ! R9    R(5,7)                  1.443          estimate D2E/DX2                !
 ! R10   R(7,8)                  1.3956         estimate D2E/DX2                !
 ! R11   R(7,12)                 1.714          estimate D2E/DX2                !
 ! R12   R(8,9)                  1.3258         estimate D2E/DX2                !
 ! R13   R(8,10)                 1.4482         estimate D2E/DX2                !
 ! R14   R(10,11)                1.3158         estimate D2E/DX2                !
 ! R15   R(10,87)                1.131          estimate D2E/DX2                !
 ! R16   R(11,12)                1.7574         estimate D2E/DX2                !
 ! R17   R(11,13)                1.5229         estimate D2E/DX2                !
 ! R18   R(13,14)                1.3171         estimate D2E/DX2                !
 ! R19   R(13,18)                1.6976         estimate D2E/DX2                !
 ! R20   R(14,15)                1.358          estimate D2E/DX2                !
 ! R21   R(14,88)                1.1191         estimate D2E/DX2                !
 ! R22   R(15,16)                1.3695         estimate D2E/DX2                !
 ! R23   R(15,17)                1.3955         estimate D2E/DX2                !
 ! R24   R(17,18)                1.7168         estimate D2E/DX2                !
 ! R25   R(17,19)                1.5092         estimate D2E/DX2                !
 ! R26   R(19,20)                1.3338         estimate D2E/DX2                !
 ! R27   R(19,24)                1.724          estimate D2E/DX2                !
 ! R28   R(20,21)                1.3797         estimate D2E/DX2                !
 ! R29   R(20,22)                1.422          estimate D2E/DX2                !
 ! R30   R(22,23)                1.3458         estimate D2E/DX2                !
 ! R31   R(22,89)                1.0363         estimate D2E/DX2                !
 ! R32   R(23,24)                1.7876         estimate D2E/DX2                !
 ! R33   R(23,25)                1.4408         estimate D2E/DX2                !
 ! R34   R(25,26)                1.4049         estimate D2E/DX2                !
 ! R35   R(25,30)                1.6951         estimate D2E/DX2                !
 ! R36   R(26,27)                1.4371         estimate D2E/DX2                !
 ! R37   R(26,90)                1.0949         estimate D2E/DX2                !
 ! R38   R(27,28)                1.3104         estimate D2E/DX2                !
 ! R39   R(27,29)                1.3635         estimate D2E/DX2                !
 ! R40   R(29,30)                1.7095         estimate D2E/DX2                !
 ! R41   R(29,31)                1.4564         estimate D2E/DX2                !
 ! R42   R(31,32)                1.3929         estimate D2E/DX2                !
 ! R43   R(31,36)                1.7899         estimate D2E/DX2                !
 ! R44   R(32,33)                1.3223         estimate D2E/DX2                !
 ! R45   R(32,34)                1.4483         estimate D2E/DX2                !
 ! R46   R(34,35)                1.3333         estimate D2E/DX2                !
 ! R47   R(34,91)                1.1594         estimate D2E/DX2                !
 ! R48   R(35,36)                1.6307         estimate D2E/DX2                !
 ! R49   R(35,37)                1.4318         estimate D2E/DX2                !
 ! R50   R(37,38)                1.3666         estimate D2E/DX2                !
 ! R51   R(37,42)                1.7213         estimate D2E/DX2                !
 ! R52   R(38,39)                1.4186         estimate D2E/DX2                !
 ! R53   R(38,92)                1.1536         estimate D2E/DX2                !
 ! R54   R(39,40)                1.3804         estimate D2E/DX2                !
 ! R55   R(39,41)                1.3885         estimate D2E/DX2                !
 ! R56   R(41,42)                1.6521         estimate D2E/DX2                !
 ! R57   R(41,43)                1.3882         estimate D2E/DX2                !
 ! R58   R(43,44)                1.3977         estimate D2E/DX2                !
 ! R59   R(43,48)                1.6969         estimate D2E/DX2                !
 ! R60   R(44,45)                1.2868         estimate D2E/DX2                !
 ! R61   R(44,46)                1.4133         estimate D2E/DX2                !
 ! R62   R(46,47)                1.4753         estimate D2E/DX2                !
 ! R63   R(46,93)                1.032          estimate D2E/DX2                !
 ! R64   R(47,48)                1.7161         estimate D2E/DX2                !
 ! R65   R(47,49)                1.409          estimate D2E/DX2                !
 ! R66   R(49,50)                1.3796         estimate D2E/DX2                !
 ! R67   R(49,54)                1.7519         estimate D2E/DX2                !
 ! R68   R(50,51)                1.4781         estimate D2E/DX2                !
 ! R69   R(50,94)                1.0248         estimate D2E/DX2                !
 ! R70   R(51,52)                1.2998         estimate D2E/DX2                !
 ! R71   R(51,53)                1.3894         estimate D2E/DX2                !
 ! R72   R(53,54)                1.6823         estimate D2E/DX2                !
 ! R73   R(53,55)                1.5052         estimate D2E/DX2                !
 ! R74   R(55,56)                1.3037         estimate D2E/DX2                !
 ! R75   R(55,60)                1.7059         estimate D2E/DX2                !
 ! R76   R(56,57)                1.2985         estimate D2E/DX2                !
 ! R77   R(56,58)                1.456          estimate D2E/DX2                !
 ! R78   R(58,59)                1.3808         estimate D2E/DX2                !
 ! R79   R(58,95)                1.0775         estimate D2E/DX2                !
 ! R80   R(59,60)                1.8135         estimate D2E/DX2                !
 ! R81   R(59,61)                1.4004         estimate D2E/DX2                !
 ! R82   R(61,62)                1.4442         estimate D2E/DX2                !
 ! R83   R(61,66)                1.7263         estimate D2E/DX2                !
 ! R84   R(62,63)                1.3718         estimate D2E/DX2                !
 ! R85   R(62,96)                1.0524         estimate D2E/DX2                !
 ! R86   R(63,64)                1.3779         estimate D2E/DX2                !
 ! R87   R(63,65)                1.3998         estimate D2E/DX2                !
 ! R88   R(65,66)                1.7164         estimate D2E/DX2                !
 ! R89   R(65,67)                1.4443         estimate D2E/DX2                !
 ! R90   R(67,68)                1.3786         estimate D2E/DX2                !
 ! R91   R(67,72)                1.7235         estimate D2E/DX2                !
 ! R92   R(68,69)                1.4055         estimate D2E/DX2                !
 ! R93   R(68,70)                1.4173         estimate D2E/DX2                !
 ! R94   R(70,71)                1.4091         estimate D2E/DX2                !
 ! R95   R(70,97)                1.0824         estimate D2E/DX2                !
 ! R96   R(71,72)                1.6818         estimate D2E/DX2                !
 ! R97   R(71,73)                1.4643         estimate D2E/DX2                !
 ! R98   R(73,74)                1.4077         estimate D2E/DX2                !
 ! R99   R(73,78)                1.6671         estimate D2E/DX2                !
 ! R100  R(74,75)                1.4244         estimate D2E/DX2                !
 ! R101  R(74,98)                1.0936         estimate D2E/DX2                !
 ! R102  R(75,76)                1.336          estimate D2E/DX2                !
 ! R103  R(75,77)                1.3954         estimate D2E/DX2                !
 ! R104  R(77,78)                1.6773         estimate D2E/DX2                !
 ! R105  R(77,79)                1.4755         estimate D2E/DX2                !
 ! R106  R(79,80)                1.384          estimate D2E/DX2                !
 ! R107  R(79,84)                1.66           estimate D2E/DX2                !
 ! R108  R(80,81)                1.2777         estimate D2E/DX2                !
 ! R109  R(80,82)                1.4264         estimate D2E/DX2                !
 ! R110  R(82,83)                1.388          estimate D2E/DX2                !
 ! R111  R(82,99)                1.1107         estimate D2E/DX2                !
 ! R112  R(83,84)                1.6399         estimate D2E/DX2                !
 ! R113  R(83,100)               1.1668         estimate D2E/DX2                !
 ! A1    A(2,1,6)              106.7935         estimate D2E/DX2                !
 ! A2    A(2,1,85)             130.8052         estimate D2E/DX2                !
 ! A3    A(6,1,85)             122.2682         estimate D2E/DX2                !
 ! A4    A(1,2,3)              116.3602         estimate D2E/DX2                !
 ! A5    A(1,2,86)             124.7636         estimate D2E/DX2                !
 ! A6    A(3,2,86)             118.854          estimate D2E/DX2                !
 ! A7    A(2,3,4)              121.9519         estimate D2E/DX2                !
 ! A8    A(2,3,5)              108.9365         estimate D2E/DX2                !
 ! A9    A(4,3,5)              128.9793         estimate D2E/DX2                !
 ! A10   A(3,5,6)              112.9228         estimate D2E/DX2                !
 ! A11   A(3,5,7)              126.5635         estimate D2E/DX2                !
 ! A12   A(6,5,7)              119.9667         estimate D2E/DX2                !
 ! A13   A(1,6,5)               94.7923         estimate D2E/DX2                !
 ! A14   A(5,7,8)              127.3423         estimate D2E/DX2                !
 ! A15   A(5,7,12)             121.8444         estimate D2E/DX2                !
 ! A16   A(8,7,12)             110.3185         estimate D2E/DX2                !
 ! A17   A(7,8,9)              127.0536         estimate D2E/DX2                !
 ! A18   A(7,8,10)             111.111          estimate D2E/DX2                !
 ! A19   A(9,8,10)             121.8347         estimate D2E/DX2                !
 ! A20   A(8,10,11)            115.4067         estimate D2E/DX2                !
 ! A21   A(8,10,87)            117.5738         estimate D2E/DX2                !
 ! A22   A(11,10,87)           126.6839         estimate D2E/DX2                !
 ! A23   A(10,11,12)           109.7171         estimate D2E/DX2                !
 ! A24   A(10,11,13)           127.4715         estimate D2E/DX2                !
 ! A25   A(12,11,13)           122.269          estimate D2E/DX2                !
 ! A26   A(7,12,11)             93.0312         estimate D2E/DX2                !
 ! A27   A(11,13,14)           126.924          estimate D2E/DX2                !
 ! A28   A(11,13,18)           122.064          estimate D2E/DX2                !
 ! A29   A(14,13,18)           110.8592         estimate D2E/DX2                !
 ! A30   A(13,14,15)           115.9656         estimate D2E/DX2                !
 ! A31   A(13,14,88)           122.6323         estimate D2E/DX2                !
 ! A32   A(15,14,88)           121.2561         estimate D2E/DX2                !
 ! A33   A(14,15,16)           126.5129         estimate D2E/DX2                !
 ! A34   A(14,15,17)           111.8932         estimate D2E/DX2                !
 ! A35   A(16,15,17)           121.5305         estimate D2E/DX2                !
 ! A36   A(15,17,18)           109.1614         estimate D2E/DX2                !
 ! A37   A(15,17,19)           130.6205         estimate D2E/DX2                !
 ! A38   A(18,17,19)           119.9813         estimate D2E/DX2                !
 ! A39   A(13,18,17)            92.076          estimate D2E/DX2                !
 ! A40   A(17,19,20)           132.4819         estimate D2E/DX2                !
 ! A41   A(17,19,24)           117.021          estimate D2E/DX2                !
 ! A42   A(20,19,24)           110.0774         estimate D2E/DX2                !
 ! A43   A(19,20,21)           120.577          estimate D2E/DX2                !
 ! A44   A(19,20,22)           117.1237         estimate D2E/DX2                !
 ! A45   A(21,20,22)           122.2135         estimate D2E/DX2                !
 ! A46   A(20,22,23)           110.3431         estimate D2E/DX2                !
 ! A47   A(20,22,89)           121.1329         estimate D2E/DX2                !
 ! A48   A(23,22,89)           128.3515         estimate D2E/DX2                !
 ! A49   A(22,23,24)           111.3554         estimate D2E/DX2                !
 ! A50   A(22,23,25)           128.6249         estimate D2E/DX2                !
 ! A51   A(24,23,25)           119.5902         estimate D2E/DX2                !
 ! A52   A(19,24,23)            90.7242         estimate D2E/DX2                !
 ! A53   A(23,25,26)           124.7248         estimate D2E/DX2                !
 ! A54   A(23,25,30)           126.1466         estimate D2E/DX2                !
 ! A55   A(26,25,30)           108.9867         estimate D2E/DX2                !
 ! A56   A(25,26,27)           114.0737         estimate D2E/DX2                !
 ! A57   A(25,26,90)           121.9491         estimate D2E/DX2                !
 ! A58   A(27,26,90)           123.8056         estimate D2E/DX2                !
 ! A59   A(26,27,28)           120.7108         estimate D2E/DX2                !
 ! A60   A(26,27,29)           110.5845         estimate D2E/DX2                !
 ! A61   A(28,27,29)           128.7046         estimate D2E/DX2                !
 ! A62   A(27,29,30)           112.2858         estimate D2E/DX2                !
 ! A63   A(27,29,31)           127.5662         estimate D2E/DX2                !
 ! A64   A(30,29,31)           119.8917         estimate D2E/DX2                !
 ! A65   A(25,30,29)            94.0032         estimate D2E/DX2                !
 ! A66   A(29,31,32)           129.4598         estimate D2E/DX2                !
 ! A67   A(29,31,36)           122.7048         estimate D2E/DX2                !
 ! A68   A(32,31,36)           107.468          estimate D2E/DX2                !
 ! A69   A(31,32,33)           122.7836         estimate D2E/DX2                !
 ! A70   A(31,32,34)           111.3829         estimate D2E/DX2                !
 ! A71   A(33,32,34)           125.8075         estimate D2E/DX2                !
 ! A72   A(32,34,35)           113.8672         estimate D2E/DX2                !
 ! A73   A(32,34,91)           119.8138         estimate D2E/DX2                !
 ! A74   A(35,34,91)           126.319          estimate D2E/DX2                !
 ! A75   A(34,35,36)           113.5636         estimate D2E/DX2                !
 ! A76   A(34,35,37)           123.2632         estimate D2E/DX2                !
 ! A77   A(36,35,37)           123.163          estimate D2E/DX2                !
 ! A78   A(31,36,35)            93.6699         estimate D2E/DX2                !
 ! A79   A(35,37,38)           127.51           estimate D2E/DX2                !
 ! A80   A(35,37,42)           125.7437         estimate D2E/DX2                !
 ! A81   A(38,37,42)           106.7319         estimate D2E/DX2                !
 ! A82   A(37,38,39)           113.5088         estimate D2E/DX2                !
 ! A83   A(37,38,92)           125.1282         estimate D2E/DX2                !
 ! A84   A(39,38,92)           121.1296         estimate D2E/DX2                !
 ! A85   A(38,39,40)           120.4674         estimate D2E/DX2                !
 ! A86   A(38,39,41)           114.3488         estimate D2E/DX2                !
 ! A87   A(40,39,41)           124.9261         estimate D2E/DX2                !
 ! A88   A(39,41,42)           107.4592         estimate D2E/DX2                !
 ! A89   A(39,41,43)           124.5136         estimate D2E/DX2                !
 ! A90   A(42,41,43)           127.6196         estimate D2E/DX2                !
 ! A91   A(37,42,41)            97.6533         estimate D2E/DX2                !
 ! A92   A(41,43,44)           130.2684         estimate D2E/DX2                !
 ! A93   A(41,43,48)           121.7053         estimate D2E/DX2                !
 ! A94   A(44,43,48)           107.9412         estimate D2E/DX2                !
 ! A95   A(43,44,45)           122.5434         estimate D2E/DX2                !
 ! A96   A(43,44,46)           116.833          estimate D2E/DX2                !
 ! A97   A(45,44,46)           120.3185         estimate D2E/DX2                !
 ! A98   A(44,46,47)           109.9965         estimate D2E/DX2                !
 ! A99   A(44,46,93)           128.5632         estimate D2E/DX2                !
 ! A100  A(47,46,93)           121.4322         estimate D2E/DX2                !
 ! A101  A(46,47,48)           108.0322         estimate D2E/DX2                !
 ! A102  A(46,47,49)           126.1406         estimate D2E/DX2                !
 ! A103  A(48,47,49)           125.5661         estimate D2E/DX2                !
 ! A104  A(43,48,47)            96.9372         estimate D2E/DX2                !
 ! A105  A(47,49,50)           128.1252         estimate D2E/DX2                !
 ! A106  A(47,49,54)           121.4147         estimate D2E/DX2                !
 ! A107  A(50,49,54)           109.7573         estimate D2E/DX2                !
 ! A108  A(49,50,51)           111.9368         estimate D2E/DX2                !
 ! A109  A(49,50,94)           125.7313         estimate D2E/DX2                !
 ! A110  A(51,50,94)           121.677          estimate D2E/DX2                !
 ! A111  A(50,51,52)           121.7964         estimate D2E/DX2                !
 ! A112  A(50,51,53)           111.5372         estimate D2E/DX2                !
 ! A113  A(52,51,53)           126.1596         estimate D2E/DX2                !
 ! A114  A(51,53,54)           112.0152         estimate D2E/DX2                !
 ! A115  A(51,53,55)           123.6725         estimate D2E/DX2                !
 ! A116  A(54,53,55)           124.2844         estimate D2E/DX2                !
 ! A117  A(49,54,53)            93.9238         estimate D2E/DX2                !
 ! A118  A(53,55,56)           126.298          estimate D2E/DX2                !
 ! A119  A(53,55,60)           118.2549         estimate D2E/DX2                !
 ! A120  A(56,55,60)           115.4325         estimate D2E/DX2                !
 ! A121  A(55,56,57)           128.5854         estimate D2E/DX2                !
 ! A122  A(55,56,58)           113.721          estimate D2E/DX2                !
 ! A123  A(57,56,58)           117.6634         estimate D2E/DX2                !
 ! A124  A(56,58,59)           111.1057         estimate D2E/DX2                !
 ! A125  A(56,58,95)           124.388          estimate D2E/DX2                !
 ! A126  A(59,58,95)           124.1389         estimate D2E/DX2                !
 ! A127  A(58,59,60)           110.1217         estimate D2E/DX2                !
 ! A128  A(58,59,61)           132.2607         estimate D2E/DX2                !
 ! A129  A(60,59,61)           117.597          estimate D2E/DX2                !
 ! A130  A(55,60,59)            89.5382         estimate D2E/DX2                !
 ! A131  A(59,61,62)           132.6567         estimate D2E/DX2                !
 ! A132  A(59,61,66)           119.5024         estimate D2E/DX2                !
 ! A133  A(62,61,66)           107.8094         estimate D2E/DX2                !
 ! A134  A(61,62,63)           114.1436         estimate D2E/DX2                !
 ! A135  A(61,62,96)           121.1742         estimate D2E/DX2                !
 ! A136  A(63,62,96)           124.5921         estimate D2E/DX2                !
 ! A137  A(62,63,64)           122.4315         estimate D2E/DX2                !
 ! A138  A(62,63,65)           113.4912         estimate D2E/DX2                !
 ! A139  A(64,63,65)           123.8827         estimate D2E/DX2                !
 ! A140  A(63,65,66)           110.2838         estimate D2E/DX2                !
 ! A141  A(63,65,67)           125.8862         estimate D2E/DX2                !
 ! A142  A(66,65,67)           123.8002         estimate D2E/DX2                !
 ! A143  A(61,66,65)            94.1754         estimate D2E/DX2                !
 ! A144  A(65,67,68)           130.3448         estimate D2E/DX2                !
 ! A145  A(65,67,72)           125.4051         estimate D2E/DX2                !
 ! A146  A(68,67,72)           104.0349         estimate D2E/DX2                !
 ! A147  A(67,68,69)           120.3219         estimate D2E/DX2                !
 ! A148  A(67,68,70)           119.8525         estimate D2E/DX2                !
 ! A149  A(69,68,70)           119.7494         estimate D2E/DX2                !
 ! A150  A(68,70,71)           108.5018         estimate D2E/DX2                !
 ! A151  A(68,70,97)           124.819          estimate D2E/DX2                !
 ! A152  A(71,70,97)           126.6095         estimate D2E/DX2                !
 ! A153  A(70,71,72)           110.3027         estimate D2E/DX2                !
 ! A154  A(70,71,73)           126.4639         estimate D2E/DX2                !
 ! A155  A(72,71,73)           123.1956         estimate D2E/DX2                !
 ! A156  A(67,72,71)            97.242          estimate D2E/DX2                !
 ! A157  A(71,73,74)           125.3696         estimate D2E/DX2                !
 ! A158  A(71,73,78)           123.7561         estimate D2E/DX2                !
 ! A159  A(74,73,78)           110.8453         estimate D2E/DX2                !
 ! A160  A(73,74,75)           111.6477         estimate D2E/DX2                !
 ! A161  A(73,74,98)           125.2523         estimate D2E/DX2                !
 ! A162  A(75,74,98)           123.0492         estimate D2E/DX2                !
 ! A163  A(74,75,76)           120.0657         estimate D2E/DX2                !
 ! A164  A(74,75,77)           111.6742         estimate D2E/DX2                !
 ! A165  A(76,75,77)           127.6462         estimate D2E/DX2                !
 ! A166  A(75,77,78)           111.0478         estimate D2E/DX2                !
 ! A167  A(75,77,79)           124.1598         estimate D2E/DX2                !
 ! A168  A(78,77,79)           124.7874         estimate D2E/DX2                !
 ! A169  A(73,78,77)            94.7116         estimate D2E/DX2                !
 ! A170  A(77,79,80)           123.5075         estimate D2E/DX2                !
 ! A171  A(77,79,84)           124.3638         estimate D2E/DX2                !
 ! A172  A(80,79,84)           112.0238         estimate D2E/DX2                !
 ! A173  A(79,80,81)           126.9058         estimate D2E/DX2                !
 ! A174  A(79,80,82)           110.7074         estimate D2E/DX2                !
 ! A175  A(81,80,82)           122.3553         estimate D2E/DX2                !
 ! A176  A(80,82,83)           110.9228         estimate D2E/DX2                !
 ! A177  A(80,82,99)           123.1229         estimate D2E/DX2                !
 ! A178  A(83,82,99)           125.612          estimate D2E/DX2                !
 ! A179  A(82,83,84)           112.3514         estimate D2E/DX2                !
 ! A180  A(82,83,100)          126.839          estimate D2E/DX2                !
 ! A181  A(84,83,100)          120.7256         estimate D2E/DX2                !
 ! A182  A(79,84,83)            93.9071         estimate D2E/DX2                !
 ! D1    D(6,1,2,3)              0.3005         estimate D2E/DX2                !
 ! D2    D(6,1,2,86)           178.5577         estimate D2E/DX2                !
 ! D3    D(85,1,2,3)          -175.4817         estimate D2E/DX2                !
 ! D4    D(85,1,2,86)            2.7754         estimate D2E/DX2                !
 ! D5    D(2,1,6,5)              2.0836         estimate D2E/DX2                !
 ! D6    D(85,1,6,5)           178.3086         estimate D2E/DX2                !
 ! D7    D(1,2,3,4)           -179.3337         estimate D2E/DX2                !
 ! D8    D(1,2,3,5)             -3.1648         estimate D2E/DX2                !
 ! D9    D(86,2,3,4)             2.301          estimate D2E/DX2                !
 ! D10   D(86,2,3,5)           178.4699         estimate D2E/DX2                !
 ! D11   D(2,3,5,6)              4.6745         estimate D2E/DX2                !
 ! D12   D(2,3,5,7)            176.111          estimate D2E/DX2                !
 ! D13   D(4,3,5,6)           -179.5078         estimate D2E/DX2                !
 ! D14   D(4,3,5,7)             -8.0713         estimate D2E/DX2                !
 ! D15   D(3,5,6,1)             -4.0743         estimate D2E/DX2                !
 ! D16   D(7,5,6,1)           -176.139          estimate D2E/DX2                !
 ! D17   D(3,5,7,8)            155.6436         estimate D2E/DX2                !
 ! D18   D(3,5,7,12)           -15.481          estimate D2E/DX2                !
 ! D19   D(6,5,7,8)            -33.4652         estimate D2E/DX2                !
 ! D20   D(6,5,7,12)           155.4102         estimate D2E/DX2                !
 ! D21   D(5,7,8,9)              5.9667         estimate D2E/DX2                !
 ! D22   D(5,7,8,10)          -173.7266         estimate D2E/DX2                !
 ! D23   D(12,7,8,9)           177.9328         estimate D2E/DX2                !
 ! D24   D(12,7,8,10)           -1.7606         estimate D2E/DX2                !
 ! D25   D(5,7,12,11)          176.8923         estimate D2E/DX2                !
 ! D26   D(8,7,12,11)            4.4082         estimate D2E/DX2                !
 ! D27   D(7,8,10,11)           -3.0914         estimate D2E/DX2                !
 ! D28   D(7,8,10,87)         -176.889          estimate D2E/DX2                !
 ! D29   D(9,8,10,11)          177.1967         estimate D2E/DX2                !
 ! D30   D(9,8,10,87)            3.3991         estimate D2E/DX2                !
 ! D31   D(8,10,11,12)           6.2698         estimate D2E/DX2                !
 ! D32   D(8,10,11,13)         177.888          estimate D2E/DX2                !
 ! D33   D(87,10,11,12)        179.4111         estimate D2E/DX2                !
 ! D34   D(87,10,11,13)         -8.9707         estimate D2E/DX2                !
 ! D35   D(10,11,12,7)          -6.157          estimate D2E/DX2                !
 ! D36   D(13,11,12,7)        -178.293          estimate D2E/DX2                !
 ! D37   D(10,11,13,14)          0.2012         estimate D2E/DX2                !
 ! D38   D(10,11,13,18)        175.2866         estimate D2E/DX2                !
 ! D39   D(12,11,13,14)        170.8615         estimate D2E/DX2                !
 ! D40   D(12,11,13,18)        -14.0531         estimate D2E/DX2                !
 ! D41   D(11,13,14,15)        177.8915         estimate D2E/DX2                !
 ! D42   D(11,13,14,88)          2.2366         estimate D2E/DX2                !
 ! D43   D(18,13,14,15)          2.3475         estimate D2E/DX2                !
 ! D44   D(18,13,14,88)       -173.3074         estimate D2E/DX2                !
 ! D45   D(11,13,18,17)       -177.6146         estimate D2E/DX2                !
 ! D46   D(14,13,18,17)         -1.8176         estimate D2E/DX2                !
 ! D47   D(13,14,15,16)       -178.7995         estimate D2E/DX2                !
 ! D48   D(13,14,15,17)         -1.6815         estimate D2E/DX2                !
 ! D49   D(88,14,15,16)         -3.08           estimate D2E/DX2                !
 ! D50   D(88,14,15,17)        174.0381         estimate D2E/DX2                !
 ! D51   D(14,15,17,18)          0.2157         estimate D2E/DX2                !
 ! D52   D(14,15,17,19)        174.491          estimate D2E/DX2                !
 ! D53   D(16,15,17,18)        177.4983         estimate D2E/DX2                !
 ! D54   D(16,15,17,19)         -8.2263         estimate D2E/DX2                !
 ! D55   D(15,17,18,13)          0.8891         estimate D2E/DX2                !
 ! D56   D(19,17,18,13)       -174.0963         estimate D2E/DX2                !
 ! D57   D(15,17,19,20)       -174.544          estimate D2E/DX2                !
 ! D58   D(15,17,19,24)         13.7489         estimate D2E/DX2                !
 ! D59   D(18,17,19,20)         -0.7889         estimate D2E/DX2                !
 ! D60   D(18,17,19,24)       -172.496          estimate D2E/DX2                !
 ! D61   D(17,19,20,21)          7.4066         estimate D2E/DX2                !
 ! D62   D(17,19,20,22)       -175.8875         estimate D2E/DX2                !
 ! D63   D(24,19,20,21)        179.5437         estimate D2E/DX2                !
 ! D64   D(24,19,20,22)         -3.7503         estimate D2E/DX2                !
 ! D65   D(17,19,24,23)        178.6867         estimate D2E/DX2                !
 ! D66   D(20,19,24,23)          5.1896         estimate D2E/DX2                !
 ! D67   D(19,20,22,23)         -0.6386         estimate D2E/DX2                !
 ! D68   D(19,20,22,89)       -176.2463         estimate D2E/DX2                !
 ! D69   D(21,20,22,23)        176.0094         estimate D2E/DX2                !
 ! D70   D(21,20,22,89)          0.4016         estimate D2E/DX2                !
 ! D71   D(20,22,23,24)          4.5894         estimate D2E/DX2                !
 ! D72   D(20,22,23,25)        176.9225         estimate D2E/DX2                !
 ! D73   D(89,22,23,24)        179.7944         estimate D2E/DX2                !
 ! D74   D(89,22,23,25)         -7.8725         estimate D2E/DX2                !
 ! D75   D(22,23,24,19)         -5.7309         estimate D2E/DX2                !
 ! D76   D(25,23,24,19)       -178.8468         estimate D2E/DX2                !
 ! D77   D(22,23,25,26)         -5.3328         estimate D2E/DX2                !
 ! D78   D(22,23,25,30)        169.8538         estimate D2E/DX2                !
 ! D79   D(24,23,25,26)        166.4521         estimate D2E/DX2                !
 ! D80   D(24,23,25,30)        -18.3613         estimate D2E/DX2                !
 ! D81   D(23,25,26,27)        176.3509         estimate D2E/DX2                !
 ! D82   D(23,25,26,90)         -8.2395         estimate D2E/DX2                !
 ! D83   D(30,25,26,27)          0.4601         estimate D2E/DX2                !
 ! D84   D(30,25,26,90)        175.8697         estimate D2E/DX2                !
 ! D85   D(23,25,30,29)       -174.8591         estimate D2E/DX2                !
 ! D86   D(26,25,30,29)          0.9584         estimate D2E/DX2                !
 ! D87   D(25,26,27,28)        177.9983         estimate D2E/DX2                !
 ! D88   D(25,26,27,29)         -2.0992         estimate D2E/DX2                !
 ! D89   D(90,26,27,28)          2.6862         estimate D2E/DX2                !
 ! D90   D(90,26,27,29)       -177.4114         estimate D2E/DX2                !
 ! D91   D(26,27,29,30)          2.7725         estimate D2E/DX2                !
 ! D92   D(26,27,29,31)        176.8825         estimate D2E/DX2                !
 ! D93   D(28,27,29,30)       -177.3349         estimate D2E/DX2                !
 ! D94   D(28,27,29,31)         -3.2249         estimate D2E/DX2                !
 ! D95   D(27,29,30,25)         -2.2334         estimate D2E/DX2                !
 ! D96   D(31,29,30,25)       -176.8499         estimate D2E/DX2                !
 ! D97   D(27,29,31,32)       -177.9679         estimate D2E/DX2                !
 ! D98   D(27,29,31,36)          9.8967         estimate D2E/DX2                !
 ! D99   D(30,29,31,32)         -4.2558         estimate D2E/DX2                !
 ! D100  D(30,29,31,36)       -176.3912         estimate D2E/DX2                !
 ! D101  D(29,31,32,33)          6.4085         estimate D2E/DX2                !
 ! D102  D(29,31,32,34)       -175.3481         estimate D2E/DX2                !
 ! D103  D(36,31,32,33)        179.4756         estimate D2E/DX2                !
 ! D104  D(36,31,32,34)         -2.281          estimate D2E/DX2                !
 ! D105  D(29,31,36,35)        175.2536         estimate D2E/DX2                !
 ! D106  D(32,31,36,35)          1.6123         estimate D2E/DX2                !
 ! D107  D(31,32,34,35)          2.1433         estimate D2E/DX2                !
 ! D108  D(31,32,34,91)       -177.8336         estimate D2E/DX2                !
 ! D109  D(33,32,34,35)       -179.6776         estimate D2E/DX2                !
 ! D110  D(33,32,34,91)          0.3454         estimate D2E/DX2                !
 ! D111  D(32,34,35,36)         -0.8654         estimate D2E/DX2                !
 ! D112  D(32,34,35,37)       -179.7356         estimate D2E/DX2                !
 ! D113  D(91,34,35,36)        179.1098         estimate D2E/DX2                !
 ! D114  D(91,34,35,37)          0.2396         estimate D2E/DX2                !
 ! D115  D(34,35,36,31)         -0.4351         estimate D2E/DX2                !
 ! D116  D(37,35,36,31)        178.4364         estimate D2E/DX2                !
 ! D117  D(34,35,37,38)        -35.1846         estimate D2E/DX2                !
 ! D118  D(34,35,37,42)        146.3826         estimate D2E/DX2                !
 ! D119  D(36,35,37,38)        146.0525         estimate D2E/DX2                !
 ! D120  D(36,35,37,42)        -32.3803         estimate D2E/DX2                !
 ! D121  D(35,37,38,39)        176.0687         estimate D2E/DX2                !
 ! D122  D(35,37,38,92)          1.5923         estimate D2E/DX2                !
 ! D123  D(42,37,38,39)         -5.2595         estimate D2E/DX2                !
 ! D124  D(42,37,38,92)       -179.7358         estimate D2E/DX2                !
 ! D125  D(35,37,42,41)       -178.5164         estimate D2E/DX2                !
 ! D126  D(38,37,42,41)          2.7817         estimate D2E/DX2                !
 ! D127  D(37,38,39,40)       -179.4491         estimate D2E/DX2                !
 ! D128  D(37,38,39,41)          6.1015         estimate D2E/DX2                !
 ! D129  D(92,38,39,40)         -4.726          estimate D2E/DX2                !
 ! D130  D(92,38,39,41)       -179.1754         estimate D2E/DX2                !
 ! D131  D(38,39,41,42)         -3.6686         estimate D2E/DX2                !
 ! D132  D(38,39,41,43)       -176.8132         estimate D2E/DX2                !
 ! D133  D(40,39,41,42)       -177.8325         estimate D2E/DX2                !
 ! D134  D(40,39,41,43)          9.0229         estimate D2E/DX2                !
 ! D135  D(39,41,42,37)          0.4842         estimate D2E/DX2                !
 ! D136  D(43,41,42,37)        173.3512         estimate D2E/DX2                !
 ! D137  D(39,41,43,44)         44.5118         estimate D2E/DX2                !
 ! D138  D(39,41,43,48)       -139.2694         estimate D2E/DX2                !
 ! D139  D(42,41,43,44)       -127.2231         estimate D2E/DX2                !
 ! D140  D(42,41,43,48)         48.9957         estimate D2E/DX2                !
 ! D141  D(41,43,44,45)         -4.0993         estimate D2E/DX2                !
 ! D142  D(41,43,44,46)       -177.7657         estimate D2E/DX2                !
 ! D143  D(48,43,44,45)        179.2816         estimate D2E/DX2                !
 ! D144  D(48,43,44,46)          5.6152         estimate D2E/DX2                !
 ! D145  D(41,43,48,47)        179.3802         estimate D2E/DX2                !
 ! D146  D(44,43,48,47)         -3.6517         estimate D2E/DX2                !
 ! D147  D(43,44,46,47)         -4.987          estimate D2E/DX2                !
 ! D148  D(43,44,46,93)        173.9745         estimate D2E/DX2                !
 ! D149  D(45,44,46,47)       -178.8026         estimate D2E/DX2                !
 ! D150  D(45,44,46,93)          0.159          estimate D2E/DX2                !
 ! D151  D(44,46,47,48)          1.9189         estimate D2E/DX2                !
 ! D152  D(44,46,47,49)        176.2909         estimate D2E/DX2                !
 ! D153  D(93,46,47,48)       -177.1295         estimate D2E/DX2                !
 ! D154  D(93,46,47,49)         -2.7575         estimate D2E/DX2                !
 ! D155  D(46,47,48,43)          1.0139         estimate D2E/DX2                !
 ! D156  D(49,47,48,43)       -173.3988         estimate D2E/DX2                !
 ! D157  D(46,47,49,50)        177.6448         estimate D2E/DX2                !
 ! D158  D(46,47,49,54)          8.2727         estimate D2E/DX2                !
 ! D159  D(48,47,49,50)         -8.938          estimate D2E/DX2                !
 ! D160  D(48,47,49,54)       -178.3101         estimate D2E/DX2                !
 ! D161  D(47,49,50,51)        179.864          estimate D2E/DX2                !
 ! D162  D(47,49,50,94)          9.0674         estimate D2E/DX2                !
 ! D163  D(54,49,50,51)         -9.7634         estimate D2E/DX2                !
 ! D164  D(54,49,50,94)        179.44           estimate D2E/DX2                !
 ! D165  D(47,49,54,53)        178.3153         estimate D2E/DX2                !
 ! D166  D(50,49,54,53)          7.1834         estimate D2E/DX2                !
 ! D167  D(49,50,51,52)       -179.3934         estimate D2E/DX2                !
 ! D168  D(49,50,51,53)          8.3014         estimate D2E/DX2                !
 ! D169  D(94,50,51,52)         -8.1688         estimate D2E/DX2                !
 ! D170  D(94,50,51,53)        179.5259         estimate D2E/DX2                !
 ! D171  D(50,51,53,54)         -2.7579         estimate D2E/DX2                !
 ! D172  D(50,51,53,55)        179.0917         estimate D2E/DX2                !
 ! D173  D(52,51,53,54)       -174.655          estimate D2E/DX2                !
 ! D174  D(52,51,53,55)          7.1946         estimate D2E/DX2                !
 ! D175  D(51,53,54,49)         -2.3923         estimate D2E/DX2                !
 ! D176  D(55,53,54,49)        175.7447         estimate D2E/DX2                !
 ! D177  D(51,53,55,56)        -38.4358         estimate D2E/DX2                !
 ! D178  D(51,53,55,60)        140.1105         estimate D2E/DX2                !
 ! D179  D(54,53,55,56)        143.6396         estimate D2E/DX2                !
 ! D180  D(54,53,55,60)        -37.814          estimate D2E/DX2                !
 ! D181  D(53,55,56,57)          1.2924         estimate D2E/DX2                !
 ! D182  D(53,55,56,58)        179.2212         estimate D2E/DX2                !
 ! D183  D(60,55,56,57)       -177.2898         estimate D2E/DX2                !
 ! D184  D(60,55,56,58)          0.6391         estimate D2E/DX2                !
 ! D185  D(53,55,60,59)        179.4144         estimate D2E/DX2                !
 ! D186  D(56,55,60,59)         -1.8828         estimate D2E/DX2                !
 ! D187  D(55,56,58,59)          1.5062         estimate D2E/DX2                !
 ! D188  D(55,56,58,95)        174.7831         estimate D2E/DX2                !
 ! D189  D(57,56,58,59)        179.6784         estimate D2E/DX2                !
 ! D190  D(57,56,58,95)         -7.0448         estimate D2E/DX2                !
 ! D191  D(56,58,59,60)         -2.776          estimate D2E/DX2                !
 ! D192  D(56,58,59,61)        178.9596         estimate D2E/DX2                !
 ! D193  D(95,58,59,60)       -176.0728         estimate D2E/DX2                !
 ! D194  D(95,58,59,61)          5.6627         estimate D2E/DX2                !
 ! D195  D(58,59,60,55)          2.6529         estimate D2E/DX2                !
 ! D196  D(61,59,60,55)       -178.7964         estimate D2E/DX2                !
 ! D197  D(58,59,61,62)        169.8645         estimate D2E/DX2                !
 ! D198  D(58,59,61,66)         -7.8177         estimate D2E/DX2                !
 ! D199  D(60,59,61,62)         -8.2966         estimate D2E/DX2                !
 ! D200  D(60,59,61,66)        174.0212         estimate D2E/DX2                !
 ! D201  D(59,61,62,63)       -177.3335         estimate D2E/DX2                !
 ! D202  D(59,61,62,96)          5.9647         estimate D2E/DX2                !
 ! D203  D(66,61,62,63)          0.5479         estimate D2E/DX2                !
 ! D204  D(66,61,62,96)       -176.154          estimate D2E/DX2                !
 ! D205  D(59,61,66,65)        179.4097         estimate D2E/DX2                !
 ! D206  D(62,61,66,65)          1.1998         estimate D2E/DX2                !
 ! D207  D(61,62,63,64)       -177.687          estimate D2E/DX2                !
 ! D208  D(61,62,63,65)         -2.576          estimate D2E/DX2                !
 ! D209  D(96,62,63,64)         -1.1151         estimate D2E/DX2                !
 ! D210  D(96,62,63,65)        173.996          estimate D2E/DX2                !
 ! D211  D(62,63,65,66)          3.3971         estimate D2E/DX2                !
 ! D212  D(62,63,65,67)       -178.5369         estimate D2E/DX2                !
 ! D213  D(64,63,65,66)        178.4264         estimate D2E/DX2                !
 ! D214  D(64,63,65,67)         -3.5077         estimate D2E/DX2                !
 ! D215  D(63,65,66,61)         -2.6174         estimate D2E/DX2                !
 ! D216  D(67,65,66,61)        179.2683         estimate D2E/DX2                !
 ! D217  D(63,65,67,68)       -149.1273         estimate D2E/DX2                !
 ! D218  D(63,65,67,72)         24.6648         estimate D2E/DX2                !
 ! D219  D(66,65,67,68)         28.6895         estimate D2E/DX2                !
 ! D220  D(66,65,67,72)       -157.5184         estimate D2E/DX2                !
 ! D221  D(65,67,68,69)         -6.3112         estimate D2E/DX2                !
 ! D222  D(65,67,68,70)        176.8723         estimate D2E/DX2                !
 ! D223  D(72,67,68,69)        178.9014         estimate D2E/DX2                !
 ! D224  D(72,67,68,70)          2.0849         estimate D2E/DX2                !
 ! D225  D(65,67,72,71)       -175.6218         estimate D2E/DX2                !
 ! D226  D(68,67,72,71)         -0.4951         estimate D2E/DX2                !
 ! D227  D(67,68,70,71)         -2.9437         estimate D2E/DX2                !
 ! D228  D(67,68,70,97)        174.1865         estimate D2E/DX2                !
 ! D229  D(69,68,70,71)       -179.7786         estimate D2E/DX2                !
 ! D230  D(69,68,70,97)         -2.6484         estimate D2E/DX2                !
 ! D231  D(68,70,71,72)          2.252          estimate D2E/DX2                !
 ! D232  D(68,70,71,73)       -179.9388         estimate D2E/DX2                !
 ! D233  D(97,70,71,72)       -174.8129         estimate D2E/DX2                !
 ! D234  D(97,70,71,73)          2.9963         estimate D2E/DX2                !
 ! D235  D(70,71,72,67)         -1.0698         estimate D2E/DX2                !
 ! D236  D(73,71,72,67)       -178.9643         estimate D2E/DX2                !
 ! D237  D(70,71,73,74)          2.0895         estimate D2E/DX2                !
 ! D238  D(70,71,73,78)        179.9455         estimate D2E/DX2                !
 ! D239  D(72,71,73,74)        179.634          estimate D2E/DX2                !
 ! D240  D(72,71,73,78)         -2.51           estimate D2E/DX2                !
 ! D241  D(71,73,74,75)       -179.3006         estimate D2E/DX2                !
 ! D242  D(71,73,74,98)         -1.8348         estimate D2E/DX2                !
 ! D243  D(78,73,74,75)          2.6067         estimate D2E/DX2                !
 ! D244  D(78,73,74,98)       -179.9275         estimate D2E/DX2                !
 ! D245  D(71,73,78,77)       -179.4152         estimate D2E/DX2                !
 ! D246  D(74,73,78,77)         -1.2859         estimate D2E/DX2                !
 ! D247  D(73,74,75,76)       -174.6175         estimate D2E/DX2                !
 ! D248  D(73,74,75,77)         -2.93           estimate D2E/DX2                !
 ! D249  D(98,74,75,76)          7.8514         estimate D2E/DX2                !
 ! D250  D(98,74,75,77)        179.539          estimate D2E/DX2                !
 ! D251  D(74,75,77,78)          1.964          estimate D2E/DX2                !
 ! D252  D(74,75,77,79)       -178.8236         estimate D2E/DX2                !
 ! D253  D(76,75,77,78)        172.872          estimate D2E/DX2                !
 ! D254  D(76,75,77,79)         -7.9156         estimate D2E/DX2                !
 ! D255  D(75,77,78,73)         -0.4001         estimate D2E/DX2                !
 ! D256  D(79,77,78,73)       -179.6066         estimate D2E/DX2                !
 ! D257  D(75,77,79,80)        150.2556         estimate D2E/DX2                !
 ! D258  D(75,77,79,84)        -25.7206         estimate D2E/DX2                !
 ! D259  D(78,77,79,80)        -30.6395         estimate D2E/DX2                !
 ! D260  D(78,77,79,84)        153.3844         estimate D2E/DX2                !
 ! D261  D(77,79,80,81)          0.4813         estimate D2E/DX2                !
 ! D262  D(77,79,80,82)       -177.4991         estimate D2E/DX2                !
 ! D263  D(84,79,80,81)        176.899          estimate D2E/DX2                !
 ! D264  D(84,79,80,82)         -1.0815         estimate D2E/DX2                !
 ! D265  D(77,79,84,83)        178.6673         estimate D2E/DX2                !
 ! D266  D(80,79,84,83)          2.2859         estimate D2E/DX2                !
 ! D267  D(79,80,82,83)         -1.0021         estimate D2E/DX2                !
 ! D268  D(79,80,82,99)       -174.6216         estimate D2E/DX2                !
 ! D269  D(81,80,82,83)       -179.0904         estimate D2E/DX2                !
 ! D270  D(81,80,82,99)          7.29           estimate D2E/DX2                !
 ! D271  D(80,82,83,84)          2.6975         estimate D2E/DX2                !
 ! D272  D(80,82,83,100)       179.3555         estimate D2E/DX2                !
 ! D273  D(99,82,83,84)        176.1237         estimate D2E/DX2                !
 ! D274  D(99,82,83,100)        -7.2182         estimate D2E/DX2                !
 ! D275  D(82,83,84,79)         -2.885          estimate D2E/DX2                !
 ! D276  D(100,83,84,79)      -179.7739         estimate D2E/DX2                !
 --------------------------------------------------------------------------------
 Trust Radius=3.00D-01 FncErr=1.00D-07 GrdErr=1.00D-06 EigMax=2.50D+02 EigMin=1.00D-04
 Number of steps in this run=    581 maximum allowed number of steps=    600.
 GradGradGradGradGradGradGradGradGradGradGradGradGradGradGradGradGradGrad

 Leave Link  103 at Fri Jul 24 16:33:27 2020, MaxMem=  4026531840 cpu:               0.2 elap:               0.0
 (Enter /opt/ohpc/pub/libs/gaussian/g16-A.03/sandybridge/g16/l202.exe)
 Stoichiometry    C56H16F14S14
 Framework group  C1[X(C56H16F14S14)]
 Deg. of freedom   294
 Full point group                 C1      NOp   1
 Largest Abelian subgroup         C1      NOp   1
 Largest concise Abelian subgroup C1      NOp   1
                         Standard orientation:                         
 ---------------------------------------------------------------------
 Center     Atomic      Atomic             Coordinates (Angstroms)
 Number     Number       Type             X           Y           Z
 ---------------------------------------------------------------------
      1          6           0       25.454091   -1.486949   -0.949315
      2          6           0       24.694444   -2.232580   -0.086384
      3          6           0       23.322272   -1.811588    0.088948
      4          9           0       22.534152   -2.413613    0.866414
      5          6           0       23.110515   -0.657285   -0.641026
      6         16           0       24.428420   -0.217525   -1.553823
      7          6           0       21.858265    0.042059   -0.799438
      8          6           0       21.674990    1.391609   -1.104146
      9          9           0       22.613332    2.274776   -1.415836
     10          6           0       20.275129    1.756359   -1.035753
     11          6           0       19.446705    0.768835   -0.771646
     12         16           0       20.358560   -0.688022   -0.405010
     13          6           0       17.936338    0.848938   -0.594095
     14          6           0       17.185967    1.928105   -0.677657
     15          6           0       15.850343    1.737027   -0.523245
     16          9           0       14.876474    2.697447   -0.591914
     17          6           0       15.535311    0.390182   -0.338519
     18         16           0       16.980502   -0.536087   -0.370344
     19          6           0       14.219171   -0.276383   -0.020652
     20          6           0       13.892678   -1.539987    0.254368
     21          9           0       14.872248   -2.494747    0.434192
     22          6           0       12.510831   -1.830806    0.421829
     23          6           0       11.776254   -0.712875    0.274477
     24         16           0       12.794294    0.676735   -0.203154
     25          6           0       10.343030   -0.568114    0.303581
     26          6           0        9.432627   -1.634372    0.393459
     27          6           0        8.058222   -1.225283    0.488409
     28          9           0        7.097190   -2.114719    0.539050
     29          6           0        7.963570    0.134713    0.514972
     30         16           0        9.486514    0.893897    0.351308
     31          6           0        6.750332    0.940010    0.542546
     32          6           0        6.607023    2.325430    0.531945
     33          9           0        7.628025    3.149610    0.368468
     34          6           0        5.219499    2.713919    0.678631
     35          6           0        4.385308    1.685965    0.836855
     36         16           0        5.126664    0.233907    0.804797
     37          6           0        2.970559    1.839733    0.994299
     38          6           0        2.309897    2.844647    1.643270
     39          6           0        0.898016    2.750695    1.542963
     40          9           0        0.089467    3.699041    2.136691
     41          6           0        0.443803    1.593571    0.924417
     42         16           0        1.770298    0.748163    0.419173
     43          6           0       -0.890068    1.315107    0.659241
     44          6           0       -1.895309    2.129840    0.130904
     45          9           0       -1.708900    3.374991   -0.134774
     46          6           0       -3.185293    1.562724    0.023192
     47          6           0       -3.143803    0.138448    0.405743
     48         16           0       -1.538314   -0.237263    0.881555
     49          6           0       -4.248876   -0.731359    0.491885
     50          6           0       -4.252462   -2.075859    0.800931
     51          6           0       -5.618451   -2.640580    0.793295
     52          9           0       -5.844450   -3.890270    1.070179
     53          6           0       -6.543981   -1.730225    0.298174
     54         16           0       -5.837149   -0.248069   -0.067606
     55          6           0       -8.012015   -2.028695    0.151613
     56          6           0       -8.535187   -3.160262   -0.229694
     57          9           0       -7.932097   -4.267464   -0.540185
     58          6           0       -9.990896   -3.152351   -0.258446
     59          6           0      -10.488570   -1.915166    0.099791
     60         16           0       -9.129017   -0.801469    0.546975
     61          6           0      -11.794033   -1.418297    0.200392
     62          6           0      -12.336803   -0.196950    0.747587
     63          6           0      -13.705494   -0.119351    0.697662
     64          9           0      -14.399018    0.990111    1.129929
     65          6           0      -14.304269   -1.219089    0.071906
     66         16           0      -13.114810   -2.379190   -0.358493
     67          6           0      -15.719749   -1.398613   -0.152018
     68          6           0      -16.475150   -2.550322   -0.209818
     69          9           0      -15.852851   -3.809912   -0.168568
     70          6           0      -17.879669   -2.465026   -0.379308
     71          6           0      -18.246769   -1.104645   -0.391746
     72         16           0      -16.881617   -0.130629   -0.264300
     73          6           0      -19.601612   -0.570221   -0.543207
     74          6           0      -20.773352   -1.341477   -0.661049
     75          6           0      -21.928955   -0.522122   -0.810369
     76          9           0      -23.144472   -1.076190   -0.828579
     77          6           0      -21.611805    0.834750   -0.735794
     78         16           0      -19.960150    1.057845   -0.546983
     79          6           0      -22.602958    1.923641   -0.830332
     80          6           0      -22.454675    3.148336   -0.203026
     81          9           0      -21.472856    3.524687    0.522936
     82          6           0      -23.596420    3.972720   -0.429840
     83          6           0      -24.524102    3.324462   -1.233371
     84         16           0      -24.061031    1.798020   -1.613719
     85          1           0       26.476881   -1.626982   -1.301978
     86          1           0       25.058381   -3.154583    0.463791
     87          1           0       19.995886    2.815854   -1.316153
     88          1           0       17.602747    2.934567   -0.934209
     89          1           0       12.191842   -2.778698    0.693412
     90          1           0        9.753535   -2.678358    0.315847
     91          1           0        4.929074    3.836003    0.651145
     92          1           0        2.812842    3.751228    2.149272
     93          1           0       -4.067379    2.019240   -0.256943
     94          1           0       -3.449765   -2.613513    1.142701
     95          1           0      -10.596815   -3.965564   -0.622508
     96          1           0      -11.707134    0.571019    1.095819
     97          1           0      -18.537219   -3.312384   -0.524617
     98          1           0      -20.810279   -2.434245   -0.682133
     99          1           0      -23.658390    5.029511   -0.093713
    100          1           0      -25.557809    3.738185   -1.582099
 ---------------------------------------------------------------------
 Rotational constants (GHZ):           0.0839655           0.0015966           0.0015745
 Leave Link  202 at Fri Jul 24 16:33:27 2020, MaxMem=  4026531840 cpu:               0.1 elap:               0.0
 (Enter /opt/ohpc/pub/libs/gaussian/g16-A.03/sandybridge/g16/l301.exe)
 Standard basis: CC-pVDZ (5D, 7F)
 Ernie: Thresh=  0.10000D-02 Tol=  0.10000D-05 Strict=F.
 Ernie:  280 primitive shells out of 2320 were deleted.
 There are  1396 symmetry adapted cartesian basis functions of A   symmetry.
 There are  1312 symmetry adapted basis functions of A   symmetry.
  1312 basis functions,  3416 primitive gaussians,  1396 cartesian basis functions
   351 alpha electrons      351 beta electrons
       nuclear repulsion energy     14210.9511069615 Hartrees.
 IExCor=32609 DFT=T Ex+Corr=LC-wPBE ExCW=0 ScaHFX=  1.000000
 ScaDFX=  1.000000  0.000000  1.000000  1.000000 ScalE2=  1.000000  1.000000
 IRadAn=      5 IRanWt=     -1 IRanGd=            0 ICorTp=0 IEmpDi=  4
 HFx  wShort=  0.000000 wLong=  0.244100 cFull=  0.000000 cShort=  0.000000 cLong=  1.000000
 DFx  wShort=  0.000000 wLong=  0.244100 cFull=  0.000000 cShort=  0.000000 cLong=  1.000000
 NAtoms=  100 NActive=  100 NUniq=  100 SFac= 1.00D+00 NAtFMM=   60 NAOKFM=T Big=T
 Integral buffers will be    131072 words long.
 Raffenetti 2 integral format.
 Two-electron integral symmetry is turned on.
 Leave Link  301 at Fri Jul 24 16:33:27 2020, MaxMem=  4026531840 cpu:               0.5 elap:               0.1
 (Enter /opt/ohpc/pub/libs/gaussian/g16-A.03/sandybridge/g16/l302.exe)
 NPDir=0 NMtPBC=     1 NCelOv=     1 NCel=       1 NClECP=     1 NCelD=      1
         NCelK=      1 NCelE2=     1 NClLst=     1 CellRange=     0.0.
 One-electron integrals computed using PRISM.
 One-electron integral symmetry used in STVInt
 NBasis=  1312 RedAO= T EigKep=  2.93D-04  NBF=  1312
 NBsUse=  1312 1.00D-06 EigRej= -1.00D+00 NBFU=  1312
 Precomputing XC quadrature grid using
 IXCGrd= 4 IRadAn=           5 IRanWt=          -1 IRanGd=           0 AccXCQ= 0.00D+00.
 Generated NRdTot=       0 NPtTot=           0 NUsed=           0 NTot=          32
 NSgBfM=   611   611   611   611   611 MxSgAt=   100 MxSgA2=    68.
 Leave Link  302 at Fri Jul 24 16:33:33 2020, MaxMem=  4026531840 cpu:              49.4 elap:               6.3
 (Enter /opt/ohpc/pub/libs/gaussian/g16-A.03/sandybridge/g16/l303.exe)
 DipDrv:  MaxL=1.
 Leave Link  303 at Fri Jul 24 16:33:34 2020, MaxMem=  4026531840 cpu:               2.3 elap:               0.3
 (Enter /opt/ohpc/pub/libs/gaussian/g16-A.03/sandybridge/g16/l401.exe)
[...]
              Bcc     0.0000     0.000     0.000     0.000 -0.1494  0.6066  0.7808
 
              Baa    -0.0000    -0.000    -0.000    -0.000  0.6513 -0.3866  0.6529
    44 C(13)  Bbb     0.0000     0.000     0.000     0.000  0.6963  0.6465 -0.3117
              Bcc     0.0000     0.000     0.000     0.000 -0.3016  0.6577  0.6903
 
              Baa    -0.0000    -0.000    -0.000    -0.000 -0.6765 -0.2379  0.6970
    45 F(19)  Bbb    -0.0000    -0.000    -0.000    -0.000  0.0535  0.9280  0.3687
              Bcc     0.0000     0.000     0.000     0.000  0.7345 -0.2867  0.6150
 
              Baa    -0.0000    -0.000    -0.000    -0.000  0.8811  0.4724  0.0218
    46 C(13)  Bbb    -0.0000    -0.000    -0.000    -0.000 -0.4567  0.8380  0.2988
              Bcc     0.0000     0.000     0.000     0.000  0.1229 -0.2732  0.9541
 
              Baa    -0.0000    -0.000    -0.000    -0.000  0.4131  0.9053 -0.0991
    47 C(13)  Bbb     0.0000     0.000     0.000     0.000  0.7605 -0.4028 -0.5094
              Bcc     0.0000     0.000     0.000     0.000  0.5010 -0.1351  0.8548
 
              Baa    -0.0000    -0.000    -0.000    -0.000 -0.6801 -0.1924  0.7074
    48 S(33)  Bbb     0.0000     0.000     0.000     0.000  0.6989  0.1212  0.7049
              Bcc     0.0000     0.000     0.000     0.000 -0.2214  0.9738  0.0520
 
              Baa    -0.0000    -0.000    -0.000    -0.000 -0.2135 -0.1361  0.9674
    49 C(13)  Bbb    -0.0000    -0.000    -0.000    -0.000 -0.3141  0.9472  0.0639
              Bcc     0.0000     0.000     0.000     0.000  0.9251  0.2902  0.2449
 
              Baa    -0.0000    -0.000    -0.000    -0.000 -0.3816  0.8757 -0.2957
    50 C(13)  Bbb    -0.0000    -0.000    -0.000    -0.000  0.7955  0.4741  0.3773
              Bcc     0.0000     0.000     0.000     0.000 -0.4707  0.0913  0.8776
 
              Baa    -0.0000    -0.000    -0.000    -0.000  0.9722 -0.0254  0.2328
    51 C(13)  Bbb    -0.0000    -0.000    -0.000    -0.000 -0.1200  0.7997  0.5883
              Bcc     0.0000     0.000     0.000     0.000 -0.2011 -0.5998  0.7745
 
              Baa    -0.0000    -0.000    -0.000    -0.000  0.5994 -0.1367  0.7887
    52 F(19)  Bbb     0.0000     0.000     0.000     0.000  0.7531  0.4301 -0.4978
              Bcc     0.0000     0.000     0.000     0.000 -0.2712  0.8924  0.3608
 
              Baa    -0.0000    -0.000    -0.000    -0.000  0.9057 -0.3617 -0.2211
    53 C(13)  Bbb    -0.0000    -0.000    -0.000    -0.000  0.2833  0.9044 -0.3191
              Bcc     0.0000     0.000     0.000     0.000  0.3154  0.2263  0.9216
 
              Baa    -0.0000    -0.000    -0.000    -0.000 -0.3946  0.2456  0.8854
    54 S(33)  Bbb     0.0000     0.000     0.000     0.000 -0.5908  0.6702 -0.4492
              Bcc     0.0000     0.000     0.000     0.000  0.7038  0.7003  0.1194
 
              Baa    -0.0000    -0.000    -0.000    -0.000  0.8610  0.4941  0.1208
    55 C(13)  Bbb     0.0000     0.000     0.000     0.000 -0.3685  0.7696 -0.5214
              Bcc     0.0000     0.000     0.000     0.000 -0.3506  0.4044  0.8447
 
              Baa    -0.0000    -0.000    -0.000    -0.000  0.0016  0.1061  0.9944
    56 C(13)  Bbb    -0.0000    -0.000    -0.000    -0.000  0.9854 -0.1692  0.0165
              Bcc     0.0000     0.000     0.000     0.000  0.1700  0.9799 -0.1048
 
              Baa    -0.0000    -0.000    -0.000    -0.000 -0.0705  0.9122 -0.4035
    57 F(19)  Bbb     0.0000     0.000     0.000     0.000  0.2346  0.4084  0.8821
              Bcc     0.0000     0.000     0.000     0.000  0.9695 -0.0325 -0.2428
 
              Baa    -0.0000    -0.000    -0.000    -0.000  0.9151 -0.2755  0.2945
    58 C(13)  Bbb     0.0000     0.000     0.000     0.000 -0.2262  0.2539  0.9404
              Bcc     0.0000     0.000     0.000     0.000  0.3339  0.9272 -0.1700
 
              Baa    -0.0000    -0.000    -0.000    -0.000  0.8917  0.3473  0.2903
    59 C(13)  Bbb    -0.0000    -0.000    -0.000    -0.000 -0.3707  0.1924  0.9086
              Bcc     0.0000     0.000     0.000     0.000 -0.2597  0.9178 -0.3003
 
              Baa    -0.0000    -0.000    -0.000    -0.000  0.9998  0.0216  0.0002
    60 S(33)  Bbb     0.0000     0.000     0.000     0.000 -0.0199  0.9267 -0.3754
              Bcc     0.0000     0.000     0.000     0.000 -0.0083  0.3753  0.9269
 
              Baa    -0.0000    -0.000    -0.000    -0.000 -0.6664  0.7415  0.0780
    61 C(13)  Bbb     0.0000     0.000     0.000     0.000 -0.0484 -0.1474  0.9879
              Bcc     0.0000     0.000     0.000     0.000  0.7440  0.6546  0.1341
 
              Baa    -0.0000    -0.000    -0.000    -0.000  0.8151  0.5539  0.1700
    62 C(13)  Bbb    -0.0000    -0.000    -0.000    -0.000 -0.5704  0.8186  0.0673
              Bcc     0.0000     0.000     0.000     0.000 -0.1018 -0.1518  0.9831
 
              Baa    -0.0000    -0.000    -0.000    -0.000  0.3212  0.9451  0.0599
    63 C(13)  Bbb     0.0000     0.000     0.000     0.000  0.9103 -0.3255  0.2558
              Bcc     0.0000     0.000     0.000     0.000 -0.2613  0.0276  0.9649
 
              Baa    -0.0000    -0.000    -0.000    -0.000 -0.1670 -0.0153  0.9858
    64 F(19)  Bbb    -0.0000    -0.000    -0.000    -0.000  0.8596 -0.4919  0.1380
              Bcc     0.0000     0.000     0.000     0.000  0.4829  0.8705  0.0953
 
              Baa    -0.0000    -0.000    -0.000    -0.000  0.5123 -0.3430  0.7873
    65 C(13)  Bbb    -0.0000    -0.000    -0.000    -0.000  0.7485 -0.2711 -0.6051
              Bcc     0.0000     0.000     0.000     0.000  0.4210  0.8994  0.1178
 
              Baa    -0.0000    -0.000    -0.000    -0.000  0.5349  0.3445  0.7715
    66 S(33)  Bbb     0.0000     0.000     0.000     0.000  0.1209  0.8725 -0.4735
              Bcc     0.0000     0.000     0.000     0.000  0.8362 -0.3466 -0.4250
 
              Baa    -0.0000    -0.000    -0.000    -0.000  0.9387 -0.3445 -0.0141
    67 C(13)  Bbb     0.0000     0.000     0.000     0.000  0.3370  0.9082  0.2481
              Bcc     0.0000     0.000     0.000     0.000 -0.0726 -0.2377  0.9686
 
              Baa    -0.0000    -0.000    -0.000    -0.000  0.9588  0.0456  0.2804
    68 C(13)  Bbb     0.0000     0.000     0.000     0.000 -0.2831  0.2346  0.9299
              Bcc     0.0000     0.000     0.000     0.000  0.0234  0.9710 -0.2379
 
              Baa    -0.0000    -0.000    -0.000    -0.000 -0.1985 -0.0677  0.9778
    69 F(19)  Bbb    -0.0000    -0.000    -0.000    -0.000  0.3738  0.9170  0.1394
              Bcc     0.0000     0.000     0.000     0.000  0.9060 -0.3932  0.1567
 
              Baa    -0.0000    -0.000    -0.000    -0.000  0.9466 -0.2297  0.2261
    70 C(13)  Bbb     0.0000     0.000     0.000     0.000  0.2789  0.9353 -0.2177
              Bcc     0.0000     0.000     0.000     0.000 -0.1615  0.2691  0.9495
 
              Baa    -0.0000    -0.000    -0.000    -0.000 -0.4805  0.8732 -0.0816
    71 C(13)  Bbb    -0.0000    -0.000    -0.000    -0.000  0.8754  0.4719 -0.1047
              Bcc     0.0000     0.000     0.000     0.000  0.0529  0.1218  0.9911
 
              Baa    -0.0000    -0.000    -0.000    -0.000  0.9355 -0.0161 -0.3530
    72 S(33)  Bbb    -0.0000    -0.000    -0.000    -0.000  0.2837  0.6299  0.7230
              Bcc     0.0000     0.000     0.000     0.000 -0.2107  0.7765 -0.5938
 
              Baa    -0.0000    -0.000    -0.000    -0.000  0.8703 -0.2850  0.4016
    73 C(13)  Bbb     0.0000     0.000     0.000     0.000  0.4246  0.8474 -0.3187
              Bcc     0.0000     0.000     0.000     0.000 -0.2495  0.4479  0.8586
 
              Baa    -0.0000    -0.000    -0.000    -0.000  0.9756 -0.0987  0.1959
    74 C(13)  Bbb     0.0000     0.000     0.000     0.000 -0.2176 -0.3211  0.9217
              Bcc     0.0000     0.000     0.000     0.000  0.0281  0.9419  0.3347
 
              Baa    -0.0000    -0.000    -0.000    -0.000 -0.0322 -0.0317  0.9990
    75 C(13)  Bbb    -0.0000    -0.000    -0.000    -0.000 -0.3087  0.9510  0.0202
              Bcc     0.0000     0.000     0.000     0.000  0.9506  0.3077  0.0404
 
              Baa    -0.0000    -0.000    -0.000    -0.000  0.8715  0.4762  0.1168
    76 F(19)  Bbb    -0.0000    -0.000    -0.000    -0.000 -0.2978  0.3248  0.8977
              Bcc     0.0000     0.000     0.000     0.000 -0.3896  0.8171 -0.4249
 
              Baa    -0.0000    -0.000    -0.000    -0.000  0.9874  0.1566  0.0247
    77 C(13)  Bbb    -0.0000    -0.000    -0.000    -0.000 -0.0865  0.4014  0.9118
              Bcc     0.0000     0.000     0.000     0.000 -0.1329  0.9024 -0.4099
 
              Baa    -0.0000    -0.000    -0.000    -0.000 -0.3647  0.9142  0.1766
    78 S(33)  Bbb     0.0000     0.000     0.000     0.000  0.1752 -0.1189  0.9773
              Bcc     0.0000     0.000     0.000     0.000  0.9145  0.3874 -0.1168
 
              Baa    -0.0000    -0.000    -0.000    -0.000 -0.5130  0.4028  0.7580
    79 C(13)  Bbb    -0.0000    -0.000    -0.000    -0.000  0.8578  0.2726  0.4357
              Bcc     0.0000     0.000     0.000     0.000 -0.0312  0.8738 -0.4854
 
              Baa    -0.0000    -0.000    -0.000    -0.000 -0.1743  0.5123  0.8409
    80 C(13)  Bbb    -0.0000    -0.000    -0.000    -0.000  0.9528  0.3032  0.0128
              Bcc     0.0000     0.000     0.000     0.000 -0.2484  0.8035 -0.5410
 
              Baa    -0.0000    -0.000    -0.000    -0.000  0.0127  0.9266 -0.3758
    81 F(19)  Bbb     0.0000     0.000     0.000     0.000 -0.1439  0.3736  0.9163
              Bcc     0.0000     0.000     0.000     0.000  0.9895  0.0425  0.1381
 
              Baa    -0.0000    -0.000    -0.000    -0.000  0.5124  0.8374 -0.1902
    82 C(13)  Bbb    -0.0000    -0.000    -0.000    -0.000 -0.2810  0.3728  0.8843
              Bcc     0.0000     0.000     0.000     0.000  0.8114 -0.3997  0.4264
 
              Baa    -0.0000    -0.000    -0.000    -0.000  0.2216  0.8086 -0.5451
    83 C(13)  Bbb     0.0000     0.000     0.000     0.000  0.6055 -0.5522 -0.5731
              Bcc     0.0000     0.000     0.000     0.000  0.7644  0.2031  0.6120
 
              Baa    -0.0000    -0.000    -0.000    -0.000 -0.5921  0.7801  0.2020
    84 S(33)  Bbb     0.0000     0.000     0.000     0.000 -0.3193 -0.4573  0.8300
              Bcc     0.0000     0.000     0.000     0.000  0.7399  0.4270  0.5199
 
              Baa    -0.0000    -0.000    -0.000    -0.000  0.9090 -0.1881 -0.3719
    85 H(1)   Bbb     0.0000     0.000     0.000     0.000  0.3399 -0.1815  0.9228
              Bcc     0.0000     0.000     0.000     0.000  0.2411  0.9652  0.1010
 
              Baa    -0.0000    -0.000    -0.000    -0.000  0.2331  0.9473 -0.2199
    86 H(1)   Bbb    -0.0000    -0.000    -0.000    -0.000  0.8543 -0.3075 -0.4191
              Bcc     0.0000     0.000     0.000     0.000  0.4646  0.0902  0.8809
 
              Baa    -0.0000    -0.000    -0.000    -0.000  0.4267 -0.0642  0.9021
    87 H(1)   Bbb     0.0000     0.000     0.000     0.000  0.8454 -0.3261 -0.4230
              Bcc     0.0000     0.000     0.000     0.000  0.3214  0.9431 -0.0849
 
              Baa    -0.0000    -0.000    -0.000    -0.000 -0.1229 -0.5216  0.8443
    88 H(1)   Bbb    -0.0000    -0.000    -0.000    -0.000  0.9807 -0.1940  0.0229
              Bcc     0.0000     0.000     0.000     0.000  0.1518  0.8309  0.5354
 
              Baa    -0.0000    -0.000    -0.000    -0.000  0.7554  0.0924 -0.6488
    89 H(1)   Bbb    -0.0000    -0.000    -0.000    -0.000  0.2445  0.8788  0.4098
              Bcc     0.0000     0.000     0.000     0.000  0.6080 -0.4681  0.6412
 
              Baa    -0.0000    -0.000    -0.000    -0.000  0.9747  0.1257  0.1849
    90 H(1)   Bbb    -0.0000    -0.000    -0.000    -0.000 -0.2037  0.1578  0.9662
              Bcc     0.0000     0.000     0.000     0.000 -0.0922  0.9794 -0.1794
 
              Baa    -0.0000    -0.000    -0.000    -0.000 -0.2016  0.7830 -0.5885
    91 H(1)   Bbb     0.0000     0.000     0.000     0.000 -0.6016  0.3752  0.7052
              Bcc     0.0000     0.000     0.000     0.000  0.7730  0.4962  0.3954
 
              Baa    -0.0000    -0.000    -0.000    -0.000  0.7678 -0.4543  0.4518
    92 H(1)   Bbb    -0.0000    -0.000    -0.000    -0.000 -0.4271  0.1627  0.8894
              Bcc     0.0000     0.000     0.000     0.000  0.4776  0.8759  0.0692
 
              Baa    -0.0000    -0.000    -0.000    -0.000  0.6404 -0.4072  0.6513
    93 H(1)   Bbb     0.0000     0.000     0.000     0.000  0.7656  0.4065 -0.4986
              Bcc     0.0000     0.000     0.000     0.000 -0.0617  0.8179  0.5720
 
              Baa    -0.0000    -0.000    -0.000    -0.000  0.7681  0.3847  0.5120
    94 H(1)   Bbb    -0.0000    -0.000    -0.000    -0.000 -0.5782  0.0730  0.8126
              Bcc     0.0000     0.000     0.000     0.000 -0.2752  0.9202 -0.2785
 
              Baa    -0.0000    -0.000    -0.000    -0.000  0.7409  0.6303 -0.2317
    95 H(1)   Bbb     0.0000     0.000     0.000     0.000 -0.6707  0.6772 -0.3025
              Bcc     0.0000     0.000     0.000     0.000 -0.0338  0.3795  0.9246
 
              Baa    -0.0000    -0.000    -0.000    -0.000  0.0479  0.9901  0.1323
    96 H(1)   Bbb     0.0000     0.000     0.000     0.000  0.9360 -0.0907  0.3402
              Bcc     0.0000     0.000     0.000     0.000 -0.3488 -0.1075  0.9310
 
              Baa    -0.0000    -0.000    -0.000    -0.000  0.0019 -0.1813  0.9834
    97 H(1)   Bbb     0.0000     0.000     0.000     0.000  0.9959 -0.0885 -0.0183
              Bcc     0.0000     0.000     0.000     0.000  0.0903  0.9794  0.1804
 
              Baa    -0.0000    -0.000    -0.000    -0.000  0.9195  0.3470  0.1845
    98 H(1)   Bbb    -0.0000    -0.000    -0.000    -0.000 -0.3706  0.6093  0.7010
              Bcc     0.0000     0.000     0.000     0.000 -0.1309  0.7130 -0.6889
 
              Baa    -0.0000    -0.000    -0.000    -0.000 -0.2866  0.4247  0.8588
    99 H(1)   Bbb    -0.0000    -0.000    -0.000    -0.000  0.9542  0.2072  0.2160
              Bcc     0.0000     0.000     0.000     0.000 -0.0862  0.8813 -0.4646
 
              Baa    -0.0000    -0.000    -0.000    -0.000 -0.0044  0.9442  0.3295
   100 H(1)   Bbb    -0.0000    -0.000    -0.000    -0.000 -0.0051 -0.3295  0.9441
              Bcc     0.0000     0.000     0.000     0.000  1.0000  0.0024  0.0062
 

 ---------------------------------------------------------------------------------

 No NMR shielding tensors so no spin-rotation constants.
 Leave Link  601 at Sat Jul 25 04:48:20 2020, MaxMem=  4026531840 cpu:              17.6 elap:               2.4
 (Enter /opt/ohpc/pub/libs/gaussian/g16-A.03/sandybridge/g16/l9999.exe)

 Test job not archived.
 1\1\GINC-SKYLAKE033\FOpt\ULC-wPBE\CC-pVDZ\C56H16F14S14\RDU230\25-Jul-2
 020\0\\#P uLC-wPBE/cc-pVDZ iop(3/107=0244100000, 3/108=0244100000) opt
 \\H16 C56 S14 F14\\0,1\C,24.9146585816,-2.254122414,-1.5513533713\C,24
 .2145820471,-2.6444568384,-0.4401904579\C,22.8652523834,-2.2115532795,
 -0.5190871964\F,21.9657421851,-2.4686045592,0.4522338647\C,22.53269023
 48,-1.5082216484,-1.6568296141\S,23.9433832171,-1.3746397465,-2.672881
 9845\C,21.242522937,-0.9437170606,-2.0149494542\C,20.905551218,-0.2364
 709961,-3.1490189992\F,21.8013462337,0.0247838937,-4.1217627447\C,19.5
 565229234,0.1835240199,-3.2329893867\C,18.8402107877,-0.2085519632,-2.
 1233863069\S,19.8375015966,-1.0791255046,-0.9925086582\C,17.4313488959
 ,0.0482814319,-1.8429540749\C,16.6841820795,1.1356805102,-2.2405443094
 \C,15.3464442894,1.0321248944,-1.7913372502\F,14.4245808796,1.98025988
 53,-2.0510030482\C,15.0476864631,-0.0952087306,-1.0557913226\S,16.4763
 7699,-1.0866211447,-0.9311986467\C,13.7780975676,-0.46469878,-0.457529
 1673\C,13.4771300878,-1.5951740378,0.272520215\F,14.3969229949,-2.5460
 929381,0.5283796244\C,12.1471483384,-1.6834895852,0.7470930507\C,11.40
 40820459,-0.5891911177,0.3609456041\S,12.3492093073,0.5256617955,-0.58
 52413794\C,9.9974122695,-0.328948192,0.6483449439\C,8.9937779197,-1.25
 73304629,0.8209408599\C,7.7566424728,-0.6305238017,1.1008679774\F,6.62
 37565984,-1.33181043,1.3027833188\C,7.7793545462,0.7476155406,1.139910
 8165\S,9.406326406,1.2973554524,0.8404775527\C,6.6749655878,1.65549864
 1,1.3898759226\C,6.697827364,3.0335613005,1.4318837812\F,7.829611759,3
 .7354871486,1.2276805875\C,5.4554865645,3.6606244316,1.6884426282\C,4.
 4517962634,2.7319213208,1.8558725769\S,5.0509311864,1.1046408348,1.702
 8063303\C,3.0455634213,2.9916568615,2.1484739759\C,2.5200893389,4.0415
 077891,2.869342933\C,1.1060313283,3.9671861282,2.9482129003\F,0.384580
 1636,4.8653786414,3.6332686006\C,0.5385739649,2.888592839,2.3054552603
 \S,1.7917528509,1.9436160673,1.5500029295\C,-0.8702743471,2.5355656974
 ,2.2178885845\C,-1.9458714477,3.3740008871,2.0227559884\F,-1.814093371
 2,4.6976384902,1.8585551746\C,-3.2118831264,2.7353277921,1.9954087527\
 C,-3.0984431107,1.3725612739,2.1627062358\S,-1.4377336339,0.8942644417
 ,2.3599504447\C,-4.1588992574,0.3701779605,2.1851311557\C,-4.167297784
 9,-0.8546066146,2.815704989\C,-5.3938924938,-1.5384956134,2.6165484703
 \F,-5.638987552,-2.7334310743,3.1714078583\C,-6.3197700179,-0.86926053
 19,1.8465835054\S,-5.6449652844,0.6499470225,1.3253101698\C,-7.6594959
 509,-1.2994670558,1.4763266787\C,-8.0740316006,-2.5571986341,1.0967658
 417\F,-7.2356177043,-3.5979074659,0.9962172567\C,-9.4573592448,-2.6751
 991829,0.8066828272\C,-10.1140864636,-1.4733952075,0.9576449752\S,-9.0
 234997872,-0.2150467766,1.4621226143\C,-11.5269881967,-1.1785646517,0.
 7457899582\C,-12.2918317108,-0.1922990656,1.3295737339\C,-13.627494148
 2,-0.2340199918,0.8642262455\F,-14.5678935854,0.6272048358,1.298924114
 5\C,-13.9100051507,-1.2230514204,-0.0539919518\S,-12.4571024249,-2.132
 1113464,-0.3741886123\C,-15.179025218,-1.5164657153,-0.6940428509\C,-1
 5.4609741645,-2.5051697215,-1.6128128872\F,-14.518801322,-3.3652967703
 ,-2.0478902807\C,-16.7958114237,-2.5469963999,-2.0800718309\C,-17.5622
 715279,-1.5631840044,-1.493927917\S,-16.6328035485,-0.6094146631,-0.37
 25468248\C,-18.9805265599,-1.2977766673,-1.7119682269\C,-19.9616833736
 ,-2.2102682358,-2.0325423869\C,-21.2210402393,-1.5811366802,-2.1789118
 805\F,-22.3376501852,-2.2711127597,-2.4854765303\C,-21.2365288243,-0.2
 182942488,-1.9730699045\S,-19.6198659247,0.318054978,-1.6036548978\C,-
 22.3694342796,0.6890111548,-2.0412276411\C,-22.3787436715,2.0521360242
 ,-1.8372683338\F,-21.2584304061,2.73796855,-1.5320888705\C,-23.6436398
 865,2.6818345984,-1.9705967346\C,-24.6113807828,1.7640058739,-2.284025
 7134\S,-23.9889016913,0.1607589522,-2.413405382\H,25.9674270601,-2.437
 1366008,-1.7789698438\H,24.6231452955,-3.2110393078,0.4003027632\H,19.
 1398904141,0.7221262326,-4.0877945942\H,17.0722543326,1.9883462059,-2.
 8031977957\H,11.7763140906,-2.5040087072,1.3663740088\H,9.1193850083,-
 2.3386849197,0.7254033727\H,5.3157311857,4.744090528,1.7174048936\H,3.
 1141080735,4.8161078323,3.3611832868\H,-4.1564983196,3.2717352374,1.86
 94734144\H,-3.3511321758,-1.2454452872,3.4297940266\H,-9.9350503111,-3
 .6143061829,0.5138336027\H,-11.9329291677,0.5198748737,2.0775559189\H,
 -17.1544201519,-3.2527409235,-2.8334190686\H,-19.8052878793,-3.2872693
 643,-2.1324737888\H,-23.8058390593,3.7544504922,-1.8381092089\H,-25.67
 6380261,1.9427846612,-2.4496777862\\Version=EM64L-G16RevA.03\State=1-A
 \HF=-9111.5535745\S2=0.\S2-1=0.\S2A=0.\RMSD=4.347e-09\RMSF=9.837e-07\D
 ipole=0.0111215,0.0150633,-0.1900253\Quadrupole=76.3919843,-32.6753302
 ,-43.7166541,-16.9859882,7.2564087,-0.2449502\PG=C01 [X(C56H16F14S14)]
 \\@


 THE MORE ACCURATE THE CALCULATIONS BECOME, THE MORE THE CONCEPTS
 TEND TO VANISH INTO THIN AIR.
     -- R.S. MULLIKEN, J.C.P. 43,S2(1965)
 Job cpu time:       4 days  0 hours  2 minutes 36.7 seconds.
 Elapsed time:       0 days 12 hours 14 minutes 47.7 seconds.
 File lengths (MBytes):  RWF=   1928 Int=      0 D2E=      0 Chk=    172 Scr=      8
 Normal termination of Gaussian 16 at Sat Jul 25 04:48:20 2020.
