 Entering Gaussian System, Link 0=g16
 Input=mols_65_1_04_c-n-C_opt_0.gjf
 Output=mols_65_1_04_c-n-C_opt_0.log
 Initial command:
 /opt/ohpc/pub/libs/gaussian/g16-A.03/sandybridge/g16/l1.exe "/mnt/gpfs2_4m/scratch/rdu230/ondemand/projects/dihedral_energies/7trial/wtuning/mols_65_1_04_c-n-C/Gau-224314.inp" -scrdir="/mnt/gpfs2_4m/scratch/rdu230/ondemand/projects/dihedral_energies/7trial/wtuning/mols_65_1_04_c-n-C/"
 Entering Link 1 = /opt/ohpc/pub/libs/gaussian/g16-A.03/sandybridge/g16/l1.exe PID=    224315.
  
 Copyright (c) 1988,1990,1992,1993,1995,1998,2003,2009,2016,
            Gaussian, Inc.  All Rights Reserved.
  
 This is part of the Gaussian(R) 16 program.  It is based on
 the Gaussian(R) 09 system (copyright 2009, Gaussian, Inc.),
 the Gaussian(R) 03 system (copyright 2003, Gaussian, Inc.),
 the Gaussian(R) 98 system (copyright 1998, Gaussian, Inc.),
 the Gaussian(R) 94 system (copyright 1995, Gaussian, Inc.),
 the Gaussian 92(TM) system (copyright 1992, Gaussian, Inc.),
 the Gaussian 90(TM) system (copyright 1990, Gaussian, Inc.),
 the Gaussian 88(TM) system (copyright 1988, Gaussian, Inc.),
 the Gaussian 86(TM) system (copyright 1986, Carnegie Mellon
 University), and the Gaussian 82(TM) system (copyright 1983,
 Carnegie Mellon University). Gaussian is a federally registered
 trademark of Gaussian, Inc.
  
 This software contains proprietary and confidential information,
 including trade secrets, belonging to Gaussian, Inc.
  
 This software is provided under written license and may be
 used, copied, transmitted, or stored only in accord with that
 written license.
  
 The following legend is applicable only to US Government
 contracts under FAR:
  
                    RESTRICTED RIGHTS LEGEND
  
 Use, reproduction and disclosure by the US Government is
 subject to restrictions as set forth in subparagraphs (a)
 and (c) of the Commercial Computer Software - Restricted
 Rights clause in FAR 52.227-19.
  
 Gaussian, Inc.
 340 Quinnipiac St., Bldg. 40, Wallingford CT 06492
  
  
 ---------------------------------------------------------------
 Warning -- This program may not be used in any manner that
 competes with the business of Gaussian, Inc. or will provide
 assistance to any competitor of Gaussian, Inc.  The licensee
 of this program is prohibited from giving any competitor of
 Gaussian, Inc. access to this program.  By using this program,
 the user acknowledges that Gaussian, Inc. is engaged in the
 business of creating and licensing software in the field of
 computational chemistry and represents and warrants to the
 licensee that it is not a competitor of Gaussian, Inc. and that
 it will not use this program in any manner prohibited above.
 ---------------------------------------------------------------
  

 Cite this work as:
 Gaussian 16, Revision A.03,
 M. J. Frisch, G. W. Trucks, H. B. Schlegel, G. E. Scuseria, 
 M. A. Robb, J. R. Cheeseman, G. Scalmani, V. Barone, 
 G. A. Petersson, H. Nakatsuji, X. Li, M. Caricato, A. V. Marenich, 
 J. Bloino, B. G. Janesko, R. Gomperts, B. Mennucci, H. P. Hratchian, 
 J. V. Ortiz, A. F. Izmaylov, J. L. Sonnenberg, D. Williams-Young, 
 F. Ding, F. Lipparini, F. Egidi, J. Goings, B. Peng, A. Petrone, 
 T. Henderson, D. Ranasinghe, V. G. Zakrzewski, J. Gao, N. Rega, 
 G. Zheng, W. Liang, M. Hada, M. Ehara, K. Toyota, R. Fukuda, 
 J. Hasegawa, M. Ishida, T. Nakajima, Y. Honda, O. Kitao, H. Nakai, 
 T. Vreven, K. Throssell, J. A. Montgomery, Jr., J. E. Peralta, 
 F. Ogliaro, M. J. Bearpark, J. J. Heyd, E. N. Brothers, K. N. Kudin, 
 V. N. Staroverov, T. A. Keith, R. Kobayashi, J. Normand, 
 K. Raghavachari, A. P. Rendell, J. C. Burant, S. S. Iyengar, 
 J. Tomasi, M. Cossi, J. M. Millam, M. Klene, C. Adamo, R. Cammi, 
 J. W. Ochterski, R. L. Martin, K. Morokuma, O. Farkas, 
 J. B. Foresman, and D. J. Fox, Gaussian, Inc., Wallingford CT, 2016.
 
 ******************************************
 Gaussian 16:  EM64L-G16RevA.03 25-Dec-2016
                24-Jul-2020 
 ******************************************
 %mem=30GB
 %nproc=8
 Will use up to    8 processors via shared memory.
 ---------------------------------------------------------------
 #P uLC-wPBE/cc-pVDZ iop(3/107=0471700000, 3/108=0471700000) opt
 ---------------------------------------------------------------
 1/18=20,19=15,26=3,38=1/1,3;
 2/9=110,12=2,17=6,18=5,40=1/2;
 3/5=16,11=2,25=1,30=1,71=1,74=-41,107=471700000,108=471700000,116=2/1,2,3;
 4//1;
 5/5=2,38=5/2;
 6/7=2,8=2,9=2,10=2,28=1/1;
 7//1,2,3,16;
 1/18=20,19=15,26=3/3(2);
 2/9=110/2;
 99//99;
 2/9=110/2;
 3/5=16,11=2,25=1,30=1,71=1,74=-41,107=471700000,108=471700000,116=2/1,2,3;
 4/5=5,16=3,69=1/1;
 5/5=2,38=5/2;
 7//1,2,3,16;
 1/18=20,19=15,26=3/3(-5);
 2/9=110/2;
 6/7=2,8=2,9=2,10=2,19=2,28=1/1;
 99/9=1/99;
 Leave Link    1 at Fri Jul 24 12:44:16 2020, MaxMem=  4026531840 cpu:               2.4 elap:               0.3
 (Enter /opt/ohpc/pub/libs/gaussian/g16-A.03/sandybridge/g16/l101.exe)
 -----------
 H7 C9 S1 N1
 -----------
 Symbolic Z-matrix:
 Charge =  0 Multiplicity = 1
 C                    -3.4426   -0.15766  -0.04907 
 C                    -2.92818   1.10066   0.04496 
 C                    -1.50805   1.23983  -0.02283 
 C                    -0.73558   0.1053   -0.00577 
 N                    -1.21118  -1.11441  -0.04457 
 C                    -2.5454   -1.20512  -0.02895 
 C                     0.71454   0.25082   0.01585 
 C                     1.5887    1.41532   0.0267 
 C                     2.98057   1.0526    0.04236 
 C                     3.21381  -0.25035  -0.0334 
 S                     1.74989  -1.13022   0.0215 
 H                    -4.53263  -0.27568   0.01219 
 H                    -3.59356   1.95896   0.03227 
 H                    -1.14928   2.29621   0.03092 
 H                    -2.93814  -2.30486   0.01012 
 H                     1.21395   2.42458   0.02724 
 H                     3.73931   1.80091   0.04566 
 H                     4.14218  -0.83095   0.03384 
 
 ITRead=  0  0  0  0  0  0  0  0  0  0  0  0  0  0  0  0  0  0
 MicOpt= -1 -1 -1 -1 -1 -1 -1 -1 -1 -1 -1 -1 -1 -1 -1 -1 -1 -1
 NAtoms=     18 NQM=       18 NQMF=       0 NMMI=      0 NMMIF=      0
                NMic=       0 NMicF=      0.
                    Isotopes and Nuclear Properties:
 (Nuclear quadrupole moments (NQMom) in fm**2, nuclear magnetic moments (NMagM)
  in nuclear magnetons)

  Atom         1           2           3           4           5           6           7           8           9          10
 IAtWgt=          12          12          12          12          14          12          12          12          12          12
 AtmWgt=  12.0000000  12.0000000  12.0000000  12.0000000  14.0030740  12.0000000  12.0000000  12.0000000  12.0000000  12.0000000
 NucSpn=           0           0           0           0           2           0           0           0           0           0
 AtZEff=  -0.0000000  -0.0000000  -0.0000000  -0.0000000  -0.0000000  -0.0000000  -0.0000000  -0.0000000  -0.0000000  -0.0000000
 NQMom=    0.0000000   0.0000000   0.0000000   0.0000000   2.0440000   0.0000000   0.0000000   0.0000000   0.0000000   0.0000000
 NMagM=    0.0000000   0.0000000   0.0000000   0.0000000   0.4037610   0.0000000   0.0000000   0.0000000   0.0000000   0.0000000
 AtZNuc=   6.0000000   6.0000000   6.0000000   6.0000000   7.0000000   6.0000000   6.0000000   6.0000000   6.0000000   6.0000000

  Atom        11          12          13          14          15          16          17          18
 IAtWgt=          32           1           1           1           1           1           1           1
 AtmWgt=  31.9720718   1.0078250   1.0078250   1.0078250   1.0078250   1.0078250   1.0078250   1.0078250
 NucSpn=           0           1           1           1           1           1           1           1
 AtZEff=  -0.0000000  -0.0000000  -0.0000000  -0.0000000  -0.0000000  -0.0000000  -0.0000000  -0.0000000
 NQMom=    0.0000000   0.0000000   0.0000000   0.0000000   0.0000000   0.0000000   0.0000000   0.0000000
 NMagM=    0.0000000   2.7928460   2.7928460   2.7928460   2.7928460   2.7928460   2.7928460   2.7928460
 AtZNuc=  16.0000000   1.0000000   1.0000000   1.0000000   1.0000000   1.0000000   1.0000000   1.0000000
 Leave Link  101 at Fri Jul 24 12:44:16 2020, MaxMem=  4026531840 cpu:               2.8 elap:               0.4
 (Enter /opt/ohpc/pub/libs/gaussian/g16-A.03/sandybridge/g16/l103.exe)

 GradGradGradGradGradGradGradGradGradGradGradGradGradGradGradGradGradGrad
 Berny optimization.
 Initialization pass.
                           ----------------------------
                           !    Initial Parameters    !
                           ! (Angstroms and Degrees)  !
 --------------------------                            --------------------------
 ! Name  Definition              Value          Derivative Info.                !
 --------------------------------------------------------------------------------
 ! R1    R(1,2)                  1.3627         estimate D2E/DX2                !
 ! R2    R(1,6)                  1.3793         estimate D2E/DX2                !
 ! R3    R(1,12)                 1.0981         estimate D2E/DX2                !
 ! R4    R(2,3)                  1.4285         estimate D2E/DX2                !
 ! R5    R(2,13)                 1.0861         estimate D2E/DX2                !
 ! R6    R(3,4)                  1.3726         estimate D2E/DX2                !
 ! R7    R(3,14)                 1.1169         estimate D2E/DX2                !
 ! R8    R(4,5)                  1.3097         estimate D2E/DX2                !
 ! R9    R(4,7)                  1.4576         estimate D2E/DX2                !
 ! R10   R(5,6)                  1.3374         estimate D2E/DX2                !
 ! R11   R(6,15)                 1.1684         estimate D2E/DX2                !
 ! R12   R(7,8)                  1.4561         estimate D2E/DX2                !
 ! R13   R(7,11)                 1.7261         estimate D2E/DX2                !
 ! R14   R(8,9)                  1.4384         estimate D2E/DX2                !
 ! R15   R(8,16)                 1.0766         estimate D2E/DX2                !
 ! R16   R(9,10)                 1.3258         estimate D2E/DX2                !
 ! R17   R(9,17)                 1.0657         estimate D2E/DX2                !
 ! R18   R(10,11)                1.7089         estimate D2E/DX2                !
 ! R19   R(10,18)                1.097          estimate D2E/DX2                !
 ! A1    A(2,1,6)              117.0446         estimate D2E/DX2                !
 ! A2    A(2,1,12)             118.043          estimate D2E/DX2                !
 ! A3    A(6,1,12)             124.2806         estimate D2E/DX2                !
 ! A4    A(1,2,3)              117.5147         estimate D2E/DX2                !
 ! A5    A(1,2,13)             119.8459         estimate D2E/DX2                !
 ! A6    A(3,2,13)             122.1068         estimate D2E/DX2                !
 ! A7    A(2,3,4)              118.5769         estimate D2E/DX2                !
 ! A8    A(2,3,14)             114.1528         estimate D2E/DX2                !
 ! A9    A(4,3,14)             126.8952         estimate D2E/DX2                !
 ! A10   A(3,4,5)              124.4018         estimate D2E/DX2                !
 ! A11   A(3,4,7)              118.526          estimate D2E/DX2                !
 ! A12   A(5,4,7)              117.0448         estimate D2E/DX2                !
 ! A13   A(4,5,6)              115.1564         estimate D2E/DX2                !
 ! A14   A(1,6,5)              126.6724         estimate D2E/DX2                !
 ! A15   A(1,6,15)             119.7757         estimate D2E/DX2                !
 ! A16   A(5,6,15)             113.5513         estimate D2E/DX2                !
 ! A17   A(4,7,8)              132.626          estimate D2E/DX2                !
 ! A18   A(4,7,11)             121.1276         estimate D2E/DX2                !
 ! A19   A(8,7,11)             106.245          estimate D2E/DX2                !
 ! A20   A(7,8,9)              112.2909         estimate D2E/DX2                !
 ! A21   A(7,8,16)             122.7345         estimate D2E/DX2                !
 ! A22   A(9,8,16)             124.9741         estimate D2E/DX2                !
 ! A23   A(8,9,10)             114.6715         estimate D2E/DX2                !
 ! A24   A(8,9,17)             120.7898         estimate D2E/DX2                !
 ! A25   A(10,9,17)            124.4026         estimate D2E/DX2                !
 ! A26   A(9,10,11)            110.6992         estimate D2E/DX2                !
 ! A27   A(9,10,18)            131.7194         estimate D2E/DX2                !
 ! A28   A(11,10,18)           116.7744         estimate D2E/DX2                !
 ! A29   A(7,11,10)             95.8419         estimate D2E/DX2                !
 ! D1    D(6,1,2,3)              8.1092         estimate D2E/DX2                !
 ! D2    D(6,1,2,13)           179.9162         estimate D2E/DX2                !
 ! D3    D(12,1,2,3)           179.3934         estimate D2E/DX2                !
 ! D4    D(12,1,2,13)           -8.7996         estimate D2E/DX2                !
 ! D5    D(2,1,6,5)             -6.329          estimate D2E/DX2                !
 ! D6    D(2,1,6,15)           173.3987         estimate D2E/DX2                !
 ! D7    D(12,1,6,5)          -177.0142         estimate D2E/DX2                !
 ! D8    D(12,1,6,15)            2.7136         estimate D2E/DX2                !
 ! D9    D(1,2,3,4)             -8.1864         estimate D2E/DX2                !
 ! D10   D(1,2,3,14)           178.359          estimate D2E/DX2                !
 ! D11   D(13,2,3,4)          -179.7956         estimate D2E/DX2                !
 ! D12   D(13,2,3,14)            6.7498         estimate D2E/DX2                !
 ! D13   D(2,3,4,5)              6.033          estimate D2E/DX2                !
 ! D14   D(2,3,4,7)           -175.9335         estimate D2E/DX2                !
 ! D15   D(14,3,4,5)           178.5601         estimate D2E/DX2                !
 ! D16   D(14,3,4,7)            -3.4063         estimate D2E/DX2                !
 ! D17   D(3,4,5,6)             -3.5648         estimate D2E/DX2                !
 ! D18   D(7,4,5,6)            178.375          estimate D2E/DX2                !
 ! D19   D(3,4,7,8)              0.1469         estimate D2E/DX2                !
 ! D20   D(3,4,7,11)          -179.3567         estimate D2E/DX2                !
 ! D21   D(5,4,7,8)            178.3252         estimate D2E/DX2                !
 ! D22   D(5,4,7,11)            -1.1784         estimate D2E/DX2                !
 ! D23   D(4,5,6,1)              3.7312         estimate D2E/DX2                !
 ! D24   D(4,5,6,15)          -176.011          estimate D2E/DX2                !
 ! D25   D(4,7,8,9)           -179.7373         estimate D2E/DX2                !
 ! D26   D(4,7,8,16)             0.5225         estimate D2E/DX2                !
 ! D27   D(11,7,8,9)            -0.1799         estimate D2E/DX2                !
 ! D28   D(11,7,8,16)         -179.9201         estimate D2E/DX2                !
 ! D29   D(4,7,11,10)          177.2508         estimate D2E/DX2                !
 ! D30   D(8,7,11,10)           -2.3688         estimate D2E/DX2                !
 ! D31   D(7,8,9,10)             3.6873         estimate D2E/DX2                !
 ! D32   D(7,8,9,17)           179.6293         estimate D2E/DX2                !
 ! D33   D(16,8,9,10)         -176.5794         estimate D2E/DX2                !
 ! D34   D(16,8,9,17)           -0.6375         estimate D2E/DX2                !
 ! D35   D(8,9,10,11)           -5.4063         estimate D2E/DX2                !
 ! D36   D(8,9,10,18)         -174.5354         estimate D2E/DX2                !
 ! D37   D(17,9,10,11)         178.8191         estimate D2E/DX2                !
 ! D38   D(17,9,10,18)           9.69           estimate D2E/DX2                !
 ! D39   D(9,10,11,7)            4.5782         estimate D2E/DX2                !
 ! D40   D(18,10,11,7)         175.5063         estimate D2E/DX2                !
 --------------------------------------------------------------------------------
 Trust Radius=3.00D-01 FncErr=1.00D-07 GrdErr=1.00D-06 EigMax=2.50D+02 EigMin=1.00D-04
 Number of steps in this run=     98 maximum allowed number of steps=    108.
 GradGradGradGradGradGradGradGradGradGradGradGradGradGradGradGradGradGrad

 Leave Link  103 at Fri Jul 24 12:44:16 2020, MaxMem=  4026531840 cpu:               0.1 elap:               0.0
 (Enter /opt/ohpc/pub/libs/gaussian/g16-A.03/sandybridge/g16/l202.exe)
                          Input orientation:                          
 ---------------------------------------------------------------------
 Center     Atomic      Atomic             Coordinates (Angstroms)
 Number     Number       Type             X           Y           Z
 ---------------------------------------------------------------------
      1          6           0       -3.442602   -0.157662   -0.049069
      2          6           0       -2.928176    1.100663    0.044957
      3          6           0       -1.508054    1.239829   -0.022833
      4          6           0       -0.735583    0.105303   -0.005766
      5          7           0       -1.211185   -1.114407   -0.044573
      6          6           0       -2.545398   -1.205123   -0.028950
      7          6           0        0.714536    0.250817    0.015850
      8          6           0        1.588696    1.415324    0.026695
      9          6           0        2.980571    1.052598    0.042359
     10          6           0        3.213810   -0.250347   -0.033402
     11         16           0        1.749888   -1.130222    0.021495
     12          1           0       -4.532625   -0.275682    0.012191
     13          1           0       -3.593557    1.958955    0.032269
     14          1           0       -1.149282    2.296214    0.030922
     15          1           0       -2.938140   -2.304857    0.010116
     16          1           0        1.213951    2.424584    0.027244
     17          1           0        3.739305    1.800908    0.045658
     18          1           0        4.142182   -0.830950    0.033838
 ---------------------------------------------------------------------
                    Distance matrix (angstroms):
                    1          2          3          4          5
     1  C    0.000000
     2  C    1.362665   0.000000
     3  C    2.386660   1.428534   0.000000
     4  C    2.720106   2.408481   1.372644   0.000000
     5  N    2.427880   2.804034   2.372979   1.309731   0.000000
     6  C    1.379331   2.338510   2.655920   2.234543   1.337385
     7  C    4.177663   3.740646   2.433012   1.457562   2.361332
     8  C    5.272000   4.527856   3.102114   2.668236   3.774116
     9  C    6.536837   5.908943   4.493001   3.835295   4.719564
    10  C    6.657076   6.289305   4.951438   3.965470   4.508581
    11  S    5.283257   5.182826   4.029056   2.775758   2.961852
    12  H    1.098104   2.114156   3.383198   3.816150   3.426171
    13  H    2.123551   1.086075   2.206695   3.406683   3.889364
    14  H    3.359646   2.143363   1.116941   2.229929   3.412018
    15  H    2.206452   3.405713   3.822438   3.265024   2.098222
    16  H    5.325158   4.348597   2.969085   3.029990   4.290792
    17  H    7.444781   6.704151   5.277715   4.785639   5.745829
    18  H    7.615060   7.329476   6.018015   4.966964   5.361440
                    6          7          8          9         10
     6  C    0.000000
     7  C    3.570566   0.000000
     8  C    4.894954   1.456142   0.000000
     9  C    5.969818   2.403845   1.438448   0.000000
    10  C    5.837816   2.549502   2.327889   1.325823   0.000000
    11  S    4.296235   1.726052   2.550650   2.505937   1.708877
    12  H    2.194225   5.273511   6.350613   7.629767   7.746611
    13  H    3.333733   4.634401   5.210692   6.636320   7.157204
    14  H    3.769892   2.767254   2.876197   4.313050   5.052295
    15  H    1.168412   4.457975   5.859374   6.804754   6.486092
    16  H    5.225958   2.230428   1.076587   2.236855   3.340415
    17  H    6.967014   3.398955   2.184984   1.065672   2.118972
    18  H    6.698334   3.594343   3.400895   2.212954   1.097039
                   11         12         13         14         15
    11  S    0.000000
    12  H    6.340370   0.000000
    13  H    6.172158   2.424016   0.000000
    14  H    4.488401   4.249942   2.467433   0.000000
    15  H    4.832960   2.580686   4.313949   4.936628   0.000000
    16  H    3.594984   6.349394   4.830007   2.366720   6.293470
    17  H    3.542582   8.528668   7.334577   4.913637   7.838804
    18  H    2.410972   8.692587   8.223456   6.146442   7.232145
                   16         17         18
    16  H    0.000000
    17  H    2.601293   0.000000
    18  H    4.378708   2.662541   0.000000
 Stoichiometry    C9H7NS
 Framework group  C1[X(C9H7NS)]
 Deg. of freedom    48
 Full point group                 C1      NOp   1
 Largest Abelian subgroup         C1      NOp   1
 Largest concise Abelian subgroup C1      NOp   1
                         Standard orientation:                         
 ---------------------------------------------------------------------
 Center     Atomic      Atomic             Coordinates (Angstroms)
 Number     Number       Type             X           Y           Z
 ---------------------------------------------------------------------
      1          6           0        3.448639   -0.148174    0.030612
      2          6           0        2.927980    1.108753   -0.046236
      3          6           0        1.507627    1.240572    0.030771
      4          6           0        0.740255    0.102758    0.004867
      5          7           0        1.221616   -1.115105    0.027151
      6          6           0        2.556124   -1.199471    0.003322
      7          6           0       -0.710609    0.241808   -0.007290
      8          6           0       -1.590114    1.402312   -0.000105
      9          6           0       -2.980385    1.033361   -0.012443
     10          6           0       -3.207268   -0.271428    0.049648
     11         16           0       -1.739669   -1.143845   -0.023183
     12          1           0        4.538841   -0.260449   -0.037851
     13          1           0        3.589500    1.969909   -0.027298
     14          1           0        1.143757    2.295834   -0.008957
     15          1           0        2.953657   -2.296860   -0.050441
     16          1           0       -1.219982    2.413233    0.008887
     17          1           0       -3.742530    1.778146   -0.003098
     18          1           0       -4.133335   -0.855508   -0.019246
 ---------------------------------------------------------------------
 Rotational constants (GHZ):           2.9305627           0.6172819           0.5099989
 Leave Link  202 at Fri Jul 24 12:44:16 2020, MaxMem=  4026531840 cpu:               0.1 elap:               0.0
 (Enter /opt/ohpc/pub/libs/gaussian/g16-A.03/sandybridge/g16/l301.exe)
 Standard basis: CC-pVDZ (5D, 7F)
 Ernie: Thresh=  0.10000D-02 Tol=  0.10000D-05 Strict=F.
 Ernie:  30 primitive shells out of 305 were deleted.
 There are   204 symmetry adapted cartesian basis functions of A   symmetry.
 There are   193 symmetry adapted basis functions of A   symmetry.
   193 basis functions,   450 primitive gaussians,   204 cartesian basis functions
    42 alpha electrons       42 beta electrons
       nuclear repulsion energy       622.6935359736 Hartrees.
 IExCor=32609 DFT=T Ex+Corr=LC-wPBE ExCW=0 ScaHFX=  1.000000
 ScaDFX=  1.000000  0.000000  1.000000  1.000000 ScalE2=  1.000000  1.000000
 IRadAn=      5 IRanWt=     -1 IRanGd=            0 ICorTp=0 IEmpDi=  4
 HFx  wShort=  0.000000 wLong=  0.471700 cFull=  0.000000 cShort=  0.000000 cLong=  1.000000
 DFx  wShort=  0.000000 wLong=  0.471700 cFull=  0.000000 cShort=  0.000000 cLong=  1.000000
 NAtoms=   18 NActive=   18 NUniq=   18 SFac= 1.00D+00 NAtFMM=   60 NAOKFM=F Big=F
 Integral buffers will be    131072 words long.
 Raffenetti 2 integral format.
 Two-electron integral symmetry is turned on.
 Leave Link  301 at Fri Jul 24 12:44:16 2020, MaxMem=  4026531840 cpu:               0.4 elap:               0.1
 (Enter /opt/ohpc/pub/libs/gaussian/g16-A.03/sandybridge/g16/l302.exe)
 NPDir=0 NMtPBC=     1 NCelOv=     1 NCel=       1 NClECP=     1 NCelD=      1
         NCelK=      1 NCelE2=     1 NClLst=     1 CellRange=     0.0.
 One-electron integrals computed using PRISM.
 One-electron integral symmetry used in STVInt
 NBasis=   193 RedAO= T EigKep=  5.04D-04  NBF=   193
 NBsUse=   193 1.00D-06 EigRej= -1.00D+00 NBFU=   193
 Precomputing XC quadrature grid using
 IXCGrd= 4 IRadAn=           5 IRanWt=          -1 IRanGd=           0 AccXCQ= 0.00D+00.
 Generated NRdTot=       0 NPtTot=           0 NUsed=           0 NTot=          32
 NSgBfM=   204   204   204   204   204 MxSgAt=    18 MxSgA2=    18.
 Leave Link  302 at Fri Jul 24 12:44:16 2020, MaxMem=  4026531840 cpu:               1.7 elap:               0.2
 (Enter /opt/ohpc/pub/libs/gaussian/g16-A.03/sandybridge/g16/l303.exe)
 DipDrv:  MaxL=1.
 Leave Link  303 at Fri Jul 24 12:44:16 2020, MaxMem=  4026531840 cpu:               0.3 elap:               0.1
 (Enter /opt/ohpc/pub/libs/gaussian/g16-A.03/sandybridge/g16/l401.exe)
 ExpMin= 1.22D-01 ExpMax= 1.11D+05 ExpMxC= 1.07D+03 IAcc=3 IRadAn=         5 AccDes= 0.00D+00
 Harris functional with IExCor=32609 and IRadAn=       5 diagonalized for initial guess.
 HarFok:  IExCor=32609 AccDes= 0.00D+00 IRadAn=         5 IDoV= 1 UseB2=F ITyADJ=14
 ICtDFT=  3500011 ScaDFX=  1.000000  1.000000  1.000000  1.000000
 FoFCou: FMM=F IPFlag=           0 FMFlag=      100000 FMFlg1=           0
         NFxFlg=           0 DoJE=T BraDBF=F KetDBF=T FulRan=T
         wScrn=  0.000000 ICntrl=       500 IOpCl=  0 I1Cent=   200000004 NGrid=           0
         NMat0=    1 NMatS0=      1 NMatT0=    0 NMatD0=    1 NMtDS0=    0 NMtDT0=    0
 Petite list used in FoFCou.
 Harris En= -799.605368873494    
 JPrj=0 DoOrth=F DoCkMO=F.
 Initial guess <Sx>= 0.0000 <Sy>= 0.0000 <Sz>= 0.0000 <S**2>= 0.0000 S= 0.0000
 Leave Link  401 at Fri Jul 24 12:44:17 2020, MaxMem=  4026531840 cpu:               8.1 elap:               1.1
 (Enter /opt/ohpc/pub/libs/gaussian/g16-A.03/sandybridge/g16/l502.exe)
 Integral symmetry usage will be decided dynamically.
 UHF open shell SCF:
 Using DIIS extrapolation, IDIIS=  1040.
 NGot=  4026531840 LenX=  4026444776 LenY=  4026402719
 Requested convergence on RMS density matrix=1.00D-08 within 128 cycles.
 Requested convergence on MAX density matrix=1.00D-06.
 Requested convergence on             energy=1.00D-06.
 No special actions if energy rises.
 Fock matrices will be formed incrementally for  20 cycles.
 Integral accuracy reduced to 1.0D-05 until final iterations.

 Cycle   1  Pass 0  IDiag  1:
 FoFJK:  IHMeth= 1 ICntrl=       0 DoSepK=T KAlg= 0 I1Cent=           0 FoldK=F
 IRaf=         1 NMat=       1 IRICut=       1 DoRegI=T DoRafI=F ISym2E= 0 IDoP0=0 IntGTp=1.
 FoFCou: FMM=F IPFlag=           0 FMFlag=      100000 FMFlg1=           0
         NFxFlg=           0 DoJE=T BraDBF=F KetDBF=F FulRan=T
         wScrn=  0.000000 ICntrl=       500 IOpCl=  0 I1Cent=           0 NGrid=           0
         NMat0=    1 NMatS0=      1 NMatT0=    0 NMatD0=    1 NMtDS0=    0 NMtDT0=    0
 Symmetry not used in FoFCou.
 E= -799.430298822182    
 DIIS: error= 2.74D-02 at cycle   1 NSaved=   1.
 NSaved= 1 IEnMin= 1 EnMin= -799.430298822182     IErMin= 1 ErrMin= 2.74D-02
 ErrMax= 2.74D-02  0.00D+00 EMaxC= 1.00D-01 BMatC= 9.06D-01 BMatP= 9.06D-01
 IDIUse=3 WtCom= 7.26D-01 WtEn= 2.74D-01
 Coeff-Com:  0.100D+01
 Coeff-En:   0.100D+01
 Coeff:      0.100D+01
 Gap=     0.438 Goal=   None    Shift=    0.000
 Gap=     0.438 Goal=   None    Shift=    0.000
 GapD=    0.438 DampG=2.000 DampE=0.500 DampFc=1.0000 IDamp=-1.
 RMSDP=4.72D-03 MaxDP=1.32D-01              OVMax= 2.16D-01

 Cycle   2  Pass 0  IDiag  1:
 RMSU=  4.63D-03    CP:  9.65D-01
 E= -799.554699449336     Delta-E=       -0.124400627154 Rises=F Damp=F
 DIIS: error= 1.95D-02 at cycle   2 NSaved=   2.
 NSaved= 2 IEnMin= 2 EnMin= -799.554699449336     IErMin= 2 ErrMin= 1.95D-02
 ErrMax= 1.95D-02  0.00D+00 EMaxC= 1.00D-01 BMatC= 5.33D-01 BMatP= 9.06D-01
 IDIUse=3 WtCom= 8.05D-01 WtEn= 1.95D-01
 Coeff-Com:  0.429D+00 0.571D+00
 Coeff-En:   0.300D+00 0.700D+00
 Coeff:      0.404D+00 0.596D+00
 Gap=     0.347 Goal=   None    Shift=    0.000
 Gap=     0.347 Goal=   None    Shift=    0.000
 RMSDP=2.19D-03 MaxDP=7.50D-02 DE=-1.24D-01 OVMax= 1.27D-01

 Cycle   3  Pass 0  IDiag  1:
 RMSU=  1.47D-03    CP:  9.69D-01  6.50D-01
 E= -799.693555273037     Delta-E=       -0.138855823701 Rises=F Damp=F
 DIIS: error= 4.10D-03 at cycle   3 NSaved=   3.
 NSaved= 3 IEnMin= 3 EnMin= -799.693555273037     IErMin= 3 ErrMin= 4.10D-03
 ErrMax= 4.10D-03  0.00D+00 EMaxC= 1.00D-01 BMatC= 1.53D-02 BMatP= 5.33D-01
 IDIUse=3 WtCom= 9.59D-01 WtEn= 4.10D-02
 Coeff-Com:  0.812D-01 0.176D+00 0.742D+00
 Coeff-En:   0.000D+00 0.000D+00 0.100D+01
 Coeff:      0.778D-01 0.169D+00 0.753D+00
 Gap=     0.347 Goal=   None    Shift=    0.000
 Gap=     0.347 Goal=   None    Shift=    0.000
 RMSDP=4.78D-04 MaxDP=1.40D-02 DE=-1.39D-01 OVMax= 3.35D-02

 Cycle   4  Pass 0  IDiag  1:
 RMSU=  3.94D-04    CP:  9.68D-01  6.89D-01  8.67D-01
 E= -799.697551432830     Delta-E=       -0.003996159793 Rises=F Damp=F
 DIIS: error= 1.89D-03 at cycle   4 NSaved=   4.
 NSaved= 4 IEnMin= 4 EnMin= -799.697551432830     IErMin= 4 ErrMin= 1.89D-03
 ErrMax= 1.89D-03  0.00D+00 EMaxC= 1.00D-01 BMatC= 3.15D-03 BMatP= 1.53D-02
 IDIUse=3 WtCom= 9.81D-01 WtEn= 1.89D-02
 Coeff-Com: -0.133D-01-0.205D-02 0.317D+00 0.699D+00
 Coeff-En:   0.000D+00 0.000D+00 0.000D+00 0.100D+01
 Coeff:     -0.131D-01-0.201D-02 0.311D+00 0.704D+00
 Gap=     0.349 Goal=   None    Shift=    0.000
 Gap=     0.349 Goal=   None    Shift=    0.000
 RMSDP=1.67D-04 MaxDP=5.01D-03 DE=-4.00D-03 OVMax= 8.41D-03

 Cycle   5  Pass 0  IDiag  1:
 RMSU=  1.18D-04    CP:  9.68D-01  6.91D-01  9.40D-01  8.70D-01
 E= -799.698466316228     Delta-E=       -0.000914883398 Rises=F Damp=F
 DIIS: error= 6.94D-04 at cycle   5 NSaved=   5.
 NSaved= 5 IEnMin= 5 EnMin= -799.698466316228     IErMin= 5 ErrMin= 6.94D-04
 ErrMax= 6.94D-04  0.00D+00 EMaxC= 1.00D-01 BMatC= 2.26D-04 BMatP= 3.15D-03
 IDIUse=3 WtCom= 9.93D-01 WtEn= 6.94D-03
 Coeff-Com: -0.115D-01-0.208D-01 0.280D-01 0.214D+00 0.790D+00
 Coeff-En:   0.000D+00 0.000D+00 0.000D+00 0.000D+00 0.100D+01
 Coeff:     -0.114D-01-0.206D-01 0.278D-01 0.212D+00 0.792D+00
 Gap=     0.350 Goal=   None    Shift=    0.000
 Gap=     0.350 Goal=   None    Shift=    0.000
 RMSDP=6.71D-05 MaxDP=2.14D-03 DE=-9.15D-04 OVMax= 4.90D-03

 Cycle   6  Pass 0  IDiag  1:
 RMSU=  4.84D-05    CP:  9.67D-01  6.91D-01  9.56D-01  9.64D-01  1.11D+00
 E= -799.698580880678     Delta-E=       -0.000114564450 Rises=F Damp=F
 DIIS: error= 2.28D-04 at cycle   6 NSaved=   6.
 NSaved= 6 IEnMin= 6 EnMin= -799.698580880678     IErMin= 6 ErrMin= 2.28D-04
 ErrMax= 2.28D-04  0.00D+00 EMaxC= 1.00D-01 BMatC= 4.03D-05 BMatP= 2.26D-04
 IDIUse=3 WtCom= 9.98D-01 WtEn= 2.28D-03
 Coeff-Com: -0.223D-02-0.847D-02-0.358D-01-0.392D-01 0.198D+00 0.888D+00
 Coeff-En:   0.000D+00 0.000D+00 0.000D+00 0.000D+00 0.000D+00 0.100D+01
 Coeff:     -0.223D-02-0.845D-02-0.357D-01-0.391D-01 0.198D+00 0.888D+00
 Gap=     0.350 Goal=   None    Shift=    0.000
 Gap=     0.350 Goal=   None    Shift=    0.000
 RMSDP=3.84D-05 MaxDP=1.59D-03 DE=-1.15D-04 OVMax= 4.45D-03

 Cycle   7  Pass 0  IDiag  1:
 RMSU=  2.24D-05    CP:  9.67D-01  6.91D-01  9.63D-01  9.95D-01  1.31D+00
                    CP:  1.24D+00
 E= -799.698617239545     Delta-E=       -0.000036358867 Rises=F Damp=F
 DIIS: error= 1.81D-04 at cycle   7 NSaved=   7.
 NSaved= 7 IEnMin= 7 EnMin= -799.698617239545     IErMin= 7 ErrMin= 1.81D-04
 ErrMax= 1.81D-04  0.00D+00 EMaxC= 1.00D-01 BMatC= 9.00D-06 BMatP= 4.03D-05
 IDIUse=3 WtCom= 9.98D-01 WtEn= 1.81D-03
 Coeff-Com:  0.227D-02 0.292D-02-0.885D-02-0.557D-01-0.203D+00 0.134D+00
 Coeff-Com:  0.113D+01
 Coeff-En:   0.000D+00 0.000D+00 0.000D+00 0.000D+00 0.000D+00 0.000D+00
 Coeff-En:   0.100D+01
 Coeff:      0.227D-02 0.292D-02-0.883D-02-0.556D-01-0.203D+00 0.133D+00
 Coeff:      0.113D+01
 Gap=     0.351 Goal=   None    Shift=    0.000
 Gap=     0.351 Goal=   None    Shift=    0.000
 RMSDP=2.87D-05 MaxDP=1.11D-03 DE=-3.64D-05 OVMax= 3.05D-03

 Cycle   8  Pass 0  IDiag  1:
 RMSU=  8.62D-06    CP:  9.67D-01  6.91D-01  9.67D-01  1.02D+00  1.43D+00
                    CP:  1.63D+00  1.40D+00
 E= -799.698628471145     Delta-E=       -0.000011231601 Rises=F Damp=F
 DIIS: error= 3.06D-05 at cycle   8 NSaved=   8.
 NSaved= 8 IEnMin= 8 EnMin= -799.698628471145     IErMin= 8 ErrMin= 3.06D-05
 ErrMax= 3.06D-05  0.00D+00 EMaxC= 1.00D-01 BMatC= 1.16D-06 BMatP= 9.00D-06
 IDIUse=1 WtCom= 1.00D+00 WtEn= 0.00D+00
 Coeff-Com:  0.933D-03 0.179D-02 0.237D-02-0.990D-02-0.825D-01-0.731D-01
 Coeff-Com:  0.309D+00 0.851D+00
 Coeff:      0.933D-03 0.179D-02 0.237D-02-0.990D-02-0.825D-01-0.731D-01
 Coeff:      0.309D+00 0.851D+00
 Gap=     0.351 Goal=   None    Shift=    0.000
 Gap=     0.351 Goal=   None    Shift=    0.000
 RMSDP=7.83D-06 MaxDP=2.83D-04 DE=-1.12D-05 OVMax= 8.27D-04

 Initial convergence to 1.0D-05 achieved.  Increase integral accuracy.
 Cycle   9  Pass 1  IDiag  1:
 E= -799.698505633924     Delta-E=        0.000122837221 Rises=F Damp=F
 DIIS: error= 2.84D-05 at cycle   1 NSaved=   1.
 NSaved= 1 IEnMin= 1 EnMin= -799.698505633924     IErMin= 1 ErrMin= 2.84D-05
 ErrMax= 2.84D-05  0.00D+00 EMaxC= 1.00D-01 BMatC= 8.27D-07 BMatP= 8.27D-07
 IDIUse=1 WtCom= 1.00D+00 WtEn= 0.00D+00
 Coeff-Com:  0.100D+01
 Coeff:      0.100D+01
 Gap=     0.351 Goal=   None    Shift=    0.000
 Gap=     0.351 Goal=   None    Shift=    0.000
 RMSDP=7.83D-06 MaxDP=2.83D-04 DE= 1.23D-04 OVMax= 1.69D-04

 Cycle  10  Pass 1  IDiag  1:
 RMSU=  2.20D-05    CP:  1.00D+00
 E= -799.698505815660     Delta-E=       -0.000000181735 Rises=F Damp=F
 DIIS: error= 1.38D-05 at cycle   2 NSaved=   2.
 NSaved= 2 IEnMin= 2 EnMin= -799.698505815660     IErMin= 2 ErrMin= 1.38D-05
 ErrMax= 1.38D-05  0.00D+00 EMaxC= 1.00D-01 BMatC= 1.43D-07 BMatP= 8.27D-07
 IDIUse=1 WtCom= 1.00D+00 WtEn= 0.00D+00
 Coeff-Com:  0.191D+00 0.809D+00
 Coeff:      0.191D+00 0.809D+00
 Gap=     0.351 Goal=   None    Shift=    0.000
 Gap=     0.351 Goal=   None    Shift=    0.000
 RMSDP=1.84D-06 MaxDP=4.77D-05 DE=-1.82D-07 OVMax= 1.10D-04

 Cycle  11  Pass 1  IDiag  1:
 RMSU=  1.57D-06    CP:  1.00D+00  1.04D+00
 E= -799.698505853714     Delta-E=       -0.000000038054 Rises=F Damp=F
 DIIS: error= 1.21D-05 at cycle   3 NSaved=   3.
 NSaved= 3 IEnMin= 3 EnMin= -799.698505853714     IErMin= 3 ErrMin= 1.21D-05
 ErrMax= 1.21D-05  0.00D+00 EMaxC= 1.00D-01 BMatC= 6.78D-08 BMatP= 1.43D-07
 IDIUse=1 WtCom= 1.00D+00 WtEn= 0.00D+00
 Coeff-Com: -0.397D-01 0.393D+00 0.647D+00
 Coeff:     -0.397D-01 0.393D+00 0.647D+00
 Gap=     0.351 Goal=   None    Shift=    0.000
 Gap=     0.351 Goal=   None    Shift=    0.000
 RMSDP=8.27D-07 MaxDP=1.80D-05 DE=-3.81D-08 OVMax= 5.05D-05

 Cycle  12  Pass 1  IDiag  1:
 RMSU=  6.69D-07    CP:  1.00D+00  1.06D+00  8.16D-01
 E= -799.698505845481     Delta-E=        0.000000008233 Rises=F Damp=F
 DIIS: error= 2.38D-06 at cycle   4 NSaved=   4.
 NSaved= 4 IEnMin= 3 EnMin= -799.698505853714     IErMin= 4 ErrMin= 2.38D-06
 ErrMax= 2.38D-06  0.00D+00 EMaxC= 1.00D-01 BMatC= 3.09D-09 BMatP= 6.78D-08
 IDIUse=1 WtCom= 1.00D+00 WtEn= 0.00D+00
 Coeff-Com: -0.101D-01-0.986D-01-0.913D-01 0.120D+01
 Coeff:     -0.101D-01-0.986D-01-0.913D-01 0.120D+01
 Gap=     0.351 Goal=   None    Shift=    0.000
 Gap=     0.351 Goal=   None    Shift=    0.000
 RMSDP=4.78D-07 MaxDP=1.65D-05 DE= 8.23D-09 OVMax= 4.54D-05

 Cycle  13  Pass 1  IDiag  1:
 RMSU=  2.22D-07    CP:  1.00D+00  1.06D+00  9.37D-01  1.56D+00
 E= -799.698505850384     Delta-E=       -0.000000004903 Rises=F Damp=F
 DIIS: error= 1.62D-06 at cycle   5 NSaved=   5.
 NSaved= 5 IEnMin= 3 EnMin= -799.698505853714     IErMin= 5 ErrMin= 1.62D-06
 ErrMax= 1.62D-06  0.00D+00 EMaxC= 1.00D-01 BMatC= 1.30D-09 BMatP= 3.09D-09
 IDIUse=1 WtCom= 1.00D+00 WtEn= 0.00D+00
 Coeff-Com:  0.927D-02-0.178D+00-0.268D+00 0.518D+00 0.918D+00
 Coeff:      0.927D-02-0.178D+00-0.268D+00 0.518D+00 0.918D+00
 Gap=     0.351 Goal=   None    Shift=    0.000
 Gap=     0.351 Goal=   None    Shift=    0.000
 RMSDP=3.13D-07 MaxDP=1.07D-05 DE=-4.90D-09 OVMax= 3.15D-05

 Cycle  14  Pass 1  IDiag  1:
 RMSU=  1.15D-07    CP:  1.00D+00  1.07D+00  1.01D+00  1.95D+00  1.23D+00
 E= -799.698505846857     Delta-E=        0.000000003527 Rises=F Damp=F
 DIIS: error= 4.04D-07 at cycle   6 NSaved=   6.
 NSaved= 6 IEnMin= 3 EnMin= -799.698505853714     IErMin= 6 ErrMin= 4.04D-07
 ErrMax= 4.04D-07  0.00D+00 EMaxC= 1.00D-01 BMatC= 9.28D-11 BMatP= 1.30D-09
 IDIUse=1 WtCom= 1.00D+00 WtEn= 0.00D+00
 Coeff-Com:  0.347D-02-0.451D-01-0.732D-01 0.698D-01 0.276D+00 0.769D+00
 Coeff:      0.347D-02-0.451D-01-0.732D-01 0.698D-01 0.276D+00 0.769D+00
 Gap=     0.351 Goal=   None    Shift=    0.000
 Gap=     0.351 Goal=   None    Shift=    0.000
 RMSDP=5.27D-08 MaxDP=1.61D-06 DE= 3.53D-09 OVMax= 4.50D-06

 Cycle  15  Pass 1  IDiag  1:
 RMSU=  3.26D-08    CP:  1.00D+00  1.06D+00  1.02D+00  1.99D+00  1.35D+00
                    CP:  1.09D+00
 E= -799.698505846909     Delta-E=       -0.000000000052 Rises=F Damp=F
 DIIS: error= 1.91D-07 at cycle   7 NSaved=   7.
 NSaved= 7 IEnMin= 3 EnMin= -799.698505853714     IErMin= 7 ErrMin= 1.91D-07
 ErrMax= 1.91D-07  0.00D+00 EMaxC= 1.00D-01 BMatC= 2.32D-11 BMatP= 9.28D-11
 IDIUse=1 WtCom= 1.00D+00 WtEn= 0.00D+00
 Coeff-Com: -0.147D-02 0.347D-01 0.502D-01-0.122D+00-0.169D+00 0.270D+00
 Coeff-Com:  0.937D+00
 Coeff:     -0.147D-02 0.347D-01 0.502D-01-0.122D+00-0.169D+00 0.270D+00
 Coeff:      0.937D+00
 Gap=     0.351 Goal=   None    Shift=    0.000
 Gap=     0.351 Goal=   None    Shift=    0.000
 RMSDP=3.32D-08 MaxDP=1.14D-06 DE=-5.21D-11 OVMax= 3.24D-06

 Cycle  16  Pass 1  IDiag  1:
 RMSU=  1.71D-08    CP:  1.00D+00  1.06D+00  1.02D+00  2.01D+00  1.41D+00
                    CP:  1.28D+00  1.08D+00
 E= -799.698505846903     Delta-E=        0.000000000006 Rises=F Damp=F
 DIIS: error= 4.46D-08 at cycle   8 NSaved=   8.
 NSaved= 8 IEnMin= 3 EnMin= -799.698505853714     IErMin= 8 ErrMin= 4.46D-08
 ErrMax= 4.46D-08  0.00D+00 EMaxC= 1.00D-01 BMatC= 1.21D-12 BMatP= 2.32D-11
 IDIUse=1 WtCom= 1.00D+00 WtEn= 0.00D+00
 Coeff-Com: -0.644D-03 0.122D-01 0.183D-01-0.356D-01-0.658D-01-0.857D-03
 Coeff-Com:  0.201D+00 0.871D+00
 Coeff:     -0.644D-03 0.122D-01 0.183D-01-0.356D-01-0.658D-01-0.857D-03
 Coeff:      0.201D+00 0.871D+00
 Gap=     0.351 Goal=   None    Shift=    0.000
 Gap=     0.351 Goal=   None    Shift=    0.000
 RMSDP=7.66D-09 MaxDP=2.00D-07 DE= 6.37D-12 OVMax= 5.63D-07

 SCF Done:  E(ULC-wPBE) =  -799.698505847     A.U. after   16 cycles
            NFock= 16  Conv=0.77D-08     -V/T= 2.0047
 <Sx>= 0.0000 <Sy>= 0.0000 <Sz>= 0.0000 <S**2>=-0.0000 S=-0.0000
 <L.S>= 0.000000000000E+00
 KE= 7.959296667366D+02 PE=-3.123773937912D+03 EE= 9.054522293545D+02
 Annihilation of the first spin contaminant:
 S**2 before annihilation    -0.0000,   after    -0.0000
 Leave Link  502 at Fri Jul 24 12:45:04 2020, MaxMem=  4026531840 cpu:             360.1 elap:              46.1
 (Enter /opt/ohpc/pub/libs/gaussian/g16-A.03/sandybridge/g16/l601.exe)
 Copying SCF densities to generalized density rwf, IOpCl= 1 IROHF=0.

 **********************************************************************

            Population analysis using the SCF density.

 **********************************************************************

 Orbital symmetries:
 Alpha Orbitals:
       Occupied  (A) (A) (A) (A) (A) (A) (A) (A) (A) (A) (A) (A)
                 (A) (A) (A) (A) (A) (A) (A) (A) (A) (A) (A) (A)
                 (A) (A) (A) (A) (A) (A) (A) (A) (A) (A) (A) (A)
                 (A) (A) (A) (A) (A) (A)
       Virtual   (A) (A) (A) (A) (A) (A) (A) (A) (A) (A) (A) (A)
                 (A) (A) (A) (A) (A) (A) (A) (A) (A) (A) (A) (A)
                 (A) (A) (A) (A) (A) (A) (A) (A) (A) (A) (A) (A)
                 (A) (A) (A) (A) (A) (A) (A) (A) (A) (A) (A) (A)
                 (A) (A) (A) (A) (A) (A) (A) (A) (A) (A) (A) (A)
                 (A) (A) (A) (A) (A) (A) (A) (A) (A) (A) (A) (A)
                 (A) (A) (A) (A) (A) (A) (A) (A) (A) (A) (A) (A)
                 (A) (A) (A) (A) (A) (A) (A) (A) (A) (A) (A) (A)
                 (A) (A) (A) (A) (A) (A) (A) (A) (A) (A) (A) (A)
                 (A) (A) (A) (A) (A) (A) (A) (A) (A) (A) (A) (A)
                 (A) (A) (A) (A) (A) (A) (A) (A) (A) (A) (A) (A)
                 (A) (A) (A) (A) (A) (A) (A) (A) (A) (A) (A) (A)
                 (A) (A) (A) (A) (A) (A) (A)
 Beta  Orbitals:
       Occupied  (A) (A) (A) (A) (A) (A) (A) (A) (A) (A) (A) (A)
                 (A) (A) (A) (A) (A) (A) (A) (A) (A) (A) (A) (A)
                 (A) (A) (A) (A) (A) (A) (A) (A) (A) (A) (A) (A)
                 (A) (A) (A) (A) (A) (A)
       Virtual   (A) (A) (A) (A) (A) (A) (A) (A) (A) (A) (A) (A)
                 (A) (A) (A) (A) (A) (A) (A) (A) (A) (A) (A) (A)
                 (A) (A) (A) (A) (A) (A) (A) (A) (A) (A) (A) (A)
                 (A) (A) (A) (A) (A) (A) (A) (A) (A) (A) (A) (A)
                 (A) (A) (A) (A) (A) (A) (A) (A) (A) (A) (A) (A)
                 (A) (A) (A) (A) (A) (A) (A) (A) (A) (A) (A) (A)
                 (A) (A) (A) (A) (A) (A) (A) (A) (A) (A) (A) (A)
                 (A) (A) (A) (A) (A) (A) (A) (A) (A) (A) (A) (A)
                 (A) (A) (A) (A) (A) (A) (A) (A) (A) (A) (A) (A)
                 (A) (A) (A) (A) (A) (A) (A) (A) (A) (A) (A) (A)
                 (A) (A) (A) (A) (A) (A) (A) (A) (A) (A) (A) (A)
                 (A) (A) (A) (A) (A) (A) (A) (A) (A) (A) (A) (A)
                 (A) (A) (A) (A) (A) (A) (A)
 The electronic state is 1-A.
 Alpha  occ. eigenvalues --  -88.35066 -14.26008 -10.21514 -10.21113 -10.19960
 Alpha  occ. eigenvalues --  -10.19043 -10.18392 -10.17975 -10.17469 -10.17349
 Alpha  occ. eigenvalues --  -10.16045  -7.95964  -5.97149  -5.96566  -5.96272
 Alpha  occ. eigenvalues --   -1.14763  -1.06551  -0.99531  -0.96572  -0.90390
 Alpha  occ. eigenvalues --   -0.88654  -0.80391  -0.79876  -0.71479  -0.70479
 Alpha  occ. eigenvalues --   -0.67401  -0.64251  -0.63756  -0.59258  -0.57560
 Alpha  occ. eigenvalues --   -0.55827  -0.54698  -0.53443  -0.52134  -0.49655
 Alpha  occ. eigenvalues --   -0.48666  -0.45513  -0.42542  -0.40247  -0.39687
 Alpha  occ. eigenvalues --   -0.35723  -0.32387
 Alpha virt. eigenvalues --    0.02682   0.05514   0.12142   0.14952   0.16109
 Alpha virt. eigenvalues --    0.16778   0.17867   0.18727   0.20625   0.21654
 Alpha virt. eigenvalues --    0.22859   0.24144   0.27562   0.27855   0.33374
 Alpha virt. eigenvalues --    0.34909   0.36831   0.39480   0.41754   0.43367
 Alpha virt. eigenvalues --    0.44321   0.49660   0.52157   0.53396   0.53993
 Alpha virt. eigenvalues --    0.56020   0.56756   0.57934   0.58514   0.59441
 Alpha virt. eigenvalues --    0.60693   0.61361   0.61590   0.62030   0.63511
 Alpha virt. eigenvalues --    0.63643   0.63873   0.64423   0.65749   0.67195
 Alpha virt. eigenvalues --    0.69088   0.69814   0.70677   0.71210   0.73487
 Alpha virt. eigenvalues --    0.73751   0.75804   0.76838   0.78033   0.79655
 Alpha virt. eigenvalues --    0.81706   0.82939   0.83327   0.84767   0.85781
 Alpha virt. eigenvalues --    0.87856   0.89058   0.94696   0.95665   0.97738
 Alpha virt. eigenvalues --    0.98862   1.01988   1.04160   1.04347   1.04950
 Alpha virt. eigenvalues --    1.05740   1.08093   1.09541   1.10733   1.11012
 Alpha virt. eigenvalues --    1.13165   1.13405   1.14664   1.15334   1.16162
 Alpha virt. eigenvalues --    1.21510   1.23064   1.23882   1.25544   1.27036
 Alpha virt. eigenvalues --    1.29037   1.30352   1.33045   1.37794   1.38982
 Alpha virt. eigenvalues --    1.44486   1.46188   1.52977   1.55571   1.58509
 Alpha virt. eigenvalues --    1.59221   1.61343   1.62912   1.63310   1.64047
 Alpha virt. eigenvalues --    1.64906   1.66836   1.68185   1.70925   1.73137
 Alpha virt. eigenvalues --    1.74503   1.75056   1.76128   1.78778   1.79356
 Alpha virt. eigenvalues --    1.80814   1.81410   1.83153   1.83764   1.85014
 Alpha virt. eigenvalues --    1.87253   1.91357   1.92454   1.92793   1.96848
 Alpha virt. eigenvalues --    1.98285   1.99899   2.01604   2.03481   2.06425
 Alpha virt. eigenvalues --    2.06893   2.08384   2.08570   2.11758   2.12536
 Alpha virt. eigenvalues --    2.14456   2.20472   2.20838   2.26082   2.28243
 Alpha virt. eigenvalues --    2.29729   2.41464   2.42300   2.46161   2.46961
 Alpha virt. eigenvalues --    2.51773   2.53095   2.58061   2.61507   2.62419
 Alpha virt. eigenvalues --    2.65197   2.68690   2.73762   2.81376   2.85731
 Alpha virt. eigenvalues --    2.86550   2.97307   3.05093   3.13195   3.32704
 Alpha virt. eigenvalues --    3.59720
  Beta  occ. eigenvalues --  -88.35066 -14.26008 -10.21514 -10.21113 -10.19960
  Beta  occ. eigenvalues --  -10.19043 -10.18392 -10.17975 -10.17469 -10.17349
  Beta  occ. eigenvalues --  -10.16045  -7.95964  -5.97149  -5.96566  -5.96272
  Beta  occ. eigenvalues --   -1.14763  -1.06551  -0.99531  -0.96572  -0.90390
  Beta  occ. eigenvalues --   -0.88654  -0.80391  -0.79876  -0.71479  -0.70479
  Beta  occ. eigenvalues --   -0.67401  -0.64251  -0.63756  -0.59258  -0.57560
  Beta  occ. eigenvalues --   -0.55827  -0.54698  -0.53443  -0.52134  -0.49655
  Beta  occ. eigenvalues --   -0.48666  -0.45513  -0.42542  -0.40247  -0.39687
  Beta  occ. eigenvalues --   -0.35723  -0.32387
  Beta virt. eigenvalues --    0.02682   0.05514   0.12142   0.14952   0.16109
  Beta virt. eigenvalues --    0.16778   0.17867   0.18727   0.20625   0.21654
  Beta virt. eigenvalues --    0.22859   0.24144   0.27562   0.27855   0.33374
  Beta virt. eigenvalues --    0.34909   0.36831   0.39480   0.41754   0.43367
  Beta virt. eigenvalues --    0.44321   0.49660   0.52157   0.53396   0.53993
  Beta virt. eigenvalues --    0.56020   0.56756   0.57934   0.58514   0.59441
  Beta virt. eigenvalues --    0.60693   0.61361   0.61590   0.62030   0.63511
  Beta virt. eigenvalues --    0.63643   0.63873   0.64423   0.65749   0.67195
  Beta virt. eigenvalues --    0.69088   0.69814   0.70677   0.71210   0.73487
  Beta virt. eigenvalues --    0.73751   0.75804   0.76838   0.78033   0.79655
  Beta virt. eigenvalues --    0.81706   0.82939   0.83327   0.84767   0.85781
  Beta virt. eigenvalues --    0.87856   0.89058   0.94696   0.95665   0.97738
  Beta virt. eigenvalues --    0.98862   1.01988   1.04160   1.04347   1.04950
  Beta virt. eigenvalues --    1.05740   1.08093   1.09541   1.10733   1.11012
  Beta virt. eigenvalues --    1.13165   1.13405   1.14664   1.15334   1.16162
  Beta virt. eigenvalues --    1.21510   1.23064   1.23882   1.25544   1.27036
  Beta virt. eigenvalues --    1.29037   1.30352   1.33045   1.37794   1.38982
  Beta virt. eigenvalues --    1.44486   1.46188   1.52977   1.55571   1.58509
  Beta virt. eigenvalues --    1.59221   1.61343   1.62912   1.63310   1.64047
  Beta virt. eigenvalues --    1.64906   1.66836   1.68185   1.70925   1.73137
  Beta virt. eigenvalues --    1.74503   1.75056   1.76128   1.78778   1.79356
  Beta virt. eigenvalues --    1.80814   1.81410   1.83153   1.83764   1.85014
  Beta virt. eigenvalues --    1.87253   1.91357   1.92454   1.92793   1.96848
  Beta virt. eigenvalues --    1.98285   1.99899   2.01604   2.03481   2.06425
  Beta virt. eigenvalues --    2.06893   2.08384   2.08570   2.11758   2.12536
  Beta virt. eigenvalues --    2.14456   2.20472   2.20838   2.26082   2.28243
  Beta virt. eigenvalues --    2.29729   2.41464   2.42300   2.46161   2.46961
  Beta virt. eigenvalues --    2.51773   2.53095   2.58061   2.61507   2.62419
  Beta virt. eigenvalues --    2.65197   2.68690   2.73762   2.81376   2.85731
  Beta virt. eigenvalues --    2.86550   2.97307   3.05093   3.13195   3.32704
  Beta virt. eigenvalues --    3.59720
          Condensed to atoms (all electrons):
               1          2          3          4          5          6
     1  C    4.824230   0.538126  -0.015907  -0.049984  -0.046785   0.486537
     2  C    0.538126   4.641822   0.532475  -0.036022  -0.021986  -0.038843
     3  C   -0.015907   0.532475   5.002782   0.439674  -0.078850  -0.063632
     4  C   -0.049984  -0.036022   0.439674   4.738686   0.636717  -0.088879
     5  N   -0.046785  -0.021986  -0.078850   0.636717   6.221084   0.585634
     6  C    0.486537  -0.038843  -0.063632  -0.088879   0.585634   4.701820
     7  C    0.000491   0.004831  -0.119084   0.293982  -0.075712   0.006042
     8  C   -0.000031   0.000426  -0.012788  -0.044953   0.001506  -0.000155
     9  C   -0.000000  -0.000012  -0.000106   0.006406  -0.000046   0.000005
    10  C    0.000000   0.000004  -0.000138   0.003354   0.000461   0.000010
    11  S    0.000136  -0.000140   0.007162  -0.055147   0.012300   0.000234
    12  H    0.406052  -0.033842   0.007303   0.000666   0.003404  -0.038396
    13  H   -0.040485   0.411596  -0.037855   0.006431  -0.000340   0.007508
    14  H    0.007334  -0.034003   0.405911  -0.033921   0.003263   0.000453
    15  H   -0.059330   0.005233   0.000598   0.002126  -0.027804   0.408338
    16  H   -0.000001   0.000312   0.001954  -0.013044   0.000000  -0.000016
    17  H    0.000000  -0.000000   0.000036  -0.000211   0.000001  -0.000000
    18  H    0.000000  -0.000000   0.000002  -0.000168   0.000000   0.000000
               7          8          9         10         11         12
     1  C    0.000491  -0.000031  -0.000000   0.000000   0.000136   0.406052
     2  C    0.004831   0.000426  -0.000012   0.000004  -0.000140  -0.033842
     3  C   -0.119084  -0.012788  -0.000106  -0.000138   0.007162   0.007303
     4  C    0.293982  -0.044953   0.006406   0.003354  -0.055147   0.000666
     5  N   -0.075712   0.001506  -0.000046   0.000461   0.012300   0.003404
     6  C    0.006042  -0.000155   0.000005   0.000010   0.000234  -0.038396
     7  C    5.366279   0.561992  -0.050943  -0.090297   0.357853   0.000071
     8  C    0.561992   4.790571   0.517312  -0.045646  -0.106294   0.000000
     9  C   -0.050943   0.517312   4.642280   0.554788  -0.097932   0.000000
    10  C   -0.090297  -0.045646   0.554788   4.998596   0.379279  -0.000000
    11  S    0.357853  -0.106294  -0.097932   0.379279  15.330325  -0.000002
    12  H    0.000071   0.000000   0.000000  -0.000000  -0.000002   0.642030
    13  H   -0.000263  -0.000007  -0.000000   0.000000   0.000005  -0.012061
    14  H   -0.013776   0.001799   0.000441  -0.000060   0.000041  -0.000245
    15  H   -0.000590   0.000009   0.000000  -0.000001  -0.000088  -0.006811
    16  H   -0.039093   0.418369  -0.040126   0.008214   0.006244   0.000000
    17  H    0.007526  -0.036486   0.420040  -0.054647   0.007213  -0.000000
    18  H    0.001684   0.006412  -0.022353   0.409483  -0.036676  -0.000000
              13         14         15         16         17         18
     1  C   -0.040485   0.007334  -0.059330  -0.000001   0.000000   0.000000
     2  C    0.411596  -0.034003   0.005233   0.000312  -0.000000  -0.000000
     3  C   -0.037855   0.405911   0.000598   0.001954   0.000036   0.000002
     4  C    0.006431  -0.033921   0.002126  -0.013044  -0.000211  -0.000168
     5  N   -0.000340   0.003263  -0.027804   0.000000   0.000001   0.000000
     6  C    0.007508   0.000453   0.408338  -0.000016  -0.000000   0.000000
     7  C   -0.000263  -0.013776  -0.000590  -0.039093   0.007526   0.001684
     8  C   -0.000007   0.001799   0.000009   0.418369  -0.036486   0.006412
     9  C   -0.000000   0.000441   0.000000  -0.040126   0.420040  -0.022353
    10  C    0.000000  -0.000060  -0.000001   0.008214  -0.054647   0.409483
    11  S    0.000005   0.000041  -0.000088   0.006244   0.007213  -0.036676
    12  H   -0.012061  -0.000245  -0.006811   0.000000  -0.000000  -0.000000
    13  H    0.646657  -0.010403  -0.000201   0.000014  -0.000000   0.000000
    14  H   -0.010403   0.636761   0.000070  -0.001399   0.000017  -0.000000
    15  H   -0.000201   0.000070   0.622108  -0.000000  -0.000000  -0.000000
    16  H    0.000014  -0.001399  -0.000000   0.655035  -0.007134  -0.000088
    17  H   -0.000000   0.000017  -0.000000  -0.007134   0.661543  -0.007221
    18  H    0.000000  -0.000000  -0.000000  -0.000088  -0.007221   0.588488
          Atomic-Atomic Spin Densities.
               1          2          3          4          5          6
     1  C   -0.000000   0.000000  -0.000000   0.000000   0.000000   0.000000
     2  C    0.000000   0.000000  -0.000000   0.000000  -0.000000  -0.000000
     3  C   -0.000000  -0.000000  -0.000000  -0.000000   0.000000   0.000000
     4  C    0.000000   0.000000  -0.000000  -0.000000  -0.000000  -0.000000
     5  N    0.000000  -0.000000   0.000000  -0.000000   0.000000   0.000000
     6  C    0.000000  -0.000000   0.000000  -0.000000   0.000000  -0.000000
     7  C    0.000000   0.000000  -0.000000   0.000000   0.000000   0.000000
     8  C   -0.000000  -0.000000  -0.000000   0.000000  -0.000000   0.000000
     9  C   -0.000000   0.000000  -0.000000  -0.000000   0.000000  -0.000000
    10  C    0.000000  -0.000000   0.000000  -0.000000   0.000000   0.000000
    11  S   -0.000000  -0.000000  -0.000000   0.000000   0.000000   0.000000
    12  H   -0.000000   0.000000   0.000000   0.000000   0.000000  -0.000000
    13  H    0.000000  -0.000000  -0.000000  -0.000000   0.000000  -0.000000
    14  H   -0.000000   0.000000   0.000000  -0.000000   0.000000   0.000000
    15  H   -0.000000   0.000000   0.000000   0.000000  -0.000000   0.000000
    16  H   -0.000000  -0.000000  -0.000000   0.000000  -0.000000   0.000000
    17  H   -0.000000   0.000000  -0.000000   0.000000  -0.000000   0.000000
    18  H   -0.000000   0.000000  -0.000000  -0.000000   0.000000   0.000000
               7          8          9         10         11         12
     1  C    0.000000  -0.000000  -0.000000   0.000000  -0.000000  -0.000000
     2  C    0.000000  -0.000000   0.000000  -0.000000  -0.000000   0.000000
     3  C   -0.000000  -0.000000  -0.000000   0.000000  -0.000000   0.000000
     4  C    0.000000   0.000000  -0.000000  -0.000000   0.000000   0.000000
     5  N    0.000000  -0.000000   0.000000   0.000000   0.000000   0.000000
     6  C    0.000000   0.000000  -0.000000   0.000000   0.000000  -0.000000
     7  C    0.000000   0.000000   0.000000  -0.000000  -0.000000   0.000000
     8  C    0.000000  -0.000000   0.000000  -0.000000   0.000000   0.000000
     9  C    0.000000   0.000000   0.000000  -0.000000  -0.000000   0.000000
    10  C   -0.000000  -0.000000  -0.000000   0.000000   0.000000   0.000000
    11  S   -0.000000   0.000000  -0.000000   0.000000  -0.000000  -0.000000
    12  H    0.000000   0.000000   0.000000   0.000000  -0.000000   0.000000
    13  H    0.000000  -0.000000  -0.000000  -0.000000   0.000000  -0.000000
    14  H   -0.000000  -0.000000   0.000000  -0.000000   0.000000  -0.000000
    15  H   -0.000000  -0.000000   0.000000  -0.000000   0.000000  -0.000000
    16  H   -0.000000  -0.000000   0.000000  -0.000000   0.000000   0.000000
    17  H    0.000000  -0.000000   0.000000  -0.000000  -0.000000  -0.000000
    18  H   -0.000000  -0.000000  -0.000000   0.000000   0.000000  -0.000000
              13         14         15         16         17         18
     1  C    0.000000  -0.000000  -0.000000  -0.000000  -0.000000  -0.000000
     2  C   -0.000000   0.000000   0.000000  -0.000000   0.000000   0.000000
     3  C   -0.000000   0.000000   0.000000  -0.000000  -0.000000  -0.000000
     4  C   -0.000000  -0.000000   0.000000   0.000000   0.000000  -0.000000
     5  N    0.000000   0.000000  -0.000000  -0.000000  -0.000000   0.000000
     6  C   -0.000000   0.000000   0.000000   0.000000   0.000000   0.000000
     7  C    0.000000  -0.000000  -0.000000  -0.000000   0.000000  -0.000000
     8  C   -0.000000  -0.000000  -0.000000  -0.000000  -0.000000  -0.000000
     9  C   -0.000000   0.000000   0.000000   0.000000   0.000000  -0.000000
    10  C   -0.000000  -0.000000  -0.000000  -0.000000  -0.000000   0.000000
    11  S    0.000000   0.000000   0.000000   0.000000  -0.000000   0.000000
    12  H   -0.000000  -0.000000  -0.000000   0.000000  -0.000000  -0.000000
    13  H   -0.000000   0.000000   0.000000  -0.000000   0.000000   0.000000
    14  H    0.000000   0.000000   0.000000  -0.000000   0.000000  -0.000000
    15  H    0.000000   0.000000   0.000000  -0.000000   0.000000  -0.000000
    16  H   -0.000000  -0.000000  -0.000000   0.000000   0.000000  -0.000000
    17  H    0.000000   0.000000   0.000000   0.000000  -0.000000   0.000000
    18  H    0.000000  -0.000000  -0.000000  -0.000000   0.000000  -0.000000
 Mulliken charges and spin densities:
               1          2
     1  C   -0.050383   0.000000
     2  C    0.030025   0.000000
     3  C   -0.069537  -0.000000
     4  C    0.194287  -0.000000
     5  N   -0.212847   0.000000
     6  C    0.033340   0.000000
     7  C   -0.210994   0.000000
     8  C   -0.052037  -0.000000
     9  C    0.070246   0.000000
    10  C   -0.163399   0.000000
    11  S    0.195487  -0.000000
    12  H    0.031831   0.000000
    13  H    0.029405  -0.000000
    14  H    0.037718   0.000000
    15  H    0.056342   0.000000
    16  H    0.010757   0.000000
    17  H    0.009323  -0.000000
    18  H    0.060436  -0.000000
 Sum of Mulliken charges =  -0.00000  -0.00000
 Mulliken charges and spin densities with hydrogens summed into heavy atoms:
               1          2
     1  C   -0.018552   0.000000
     2  C    0.059429   0.000000
     3  C   -0.031819  -0.000000
     4  C    0.194287  -0.000000
     5  N   -0.212847   0.000000
     6  C    0.089682   0.000000
     7  C   -0.210994   0.000000
     8  C   -0.041280  -0.000000
     9  C    0.079569   0.000000
    10  C   -0.102963   0.000000
    11  S    0.195487  -0.000000
 Electronic spatial extent (au):  <R**2>=           2091.5333
 Charge=             -0.0000 electrons
 Dipole moment (field-independent basis, Debye):
    X=              1.3108    Y=              2.0355    Z=             -0.1784  Tot=              2.4276
 Quadrupole moment (field-independent basis, Debye-Ang):
   XX=            -53.3170   YY=            -65.0845   ZZ=            -74.8535
   XY=              1.2894   XZ=             -0.1700   YZ=              0.1492
 Traceless Quadrupole moment (field-independent basis, Debye-Ang):
   XX=             11.1013   YY=             -0.6662   ZZ=            -10.4352
   XY=              1.2894   XZ=             -0.1700   YZ=              0.1492
 Octapole moment (field-independent basis, Debye-Ang**2):
  XXX=              9.6394  YYY=             10.4175  ZZZ=             -0.2694  XYY=              3.8985
  XXY=             -2.7090  XXZ=             -2.2581  XZZ=              0.7341  YZZ=             -3.4276
  YYZ=             -0.5788  XYZ=             -0.0033
 Hexadecapole moment (field-independent basis, Debye-Ang**3):
 XXXX=          -1919.5172 YYYY=           -504.8535 ZZZZ=            -82.9044 XXXY=             30.0049
 XXXZ=             -2.1352 YYYX=             -2.3841 YYYZ=              0.7982 ZZZX=              0.2470
 ZZZY=              0.1029 XXYY=           -406.4329 XXZZ=           -429.2040 YYZZ=           -111.9456
 XXYZ=              1.1709 YYXZ=             -0.7642 ZZXY=              2.3241
 N-N= 6.226935359736D+02 E-N=-3.123773940312D+03  KE= 7.959296667366D+02
                          Isotropic Fermi Contact Couplings
        Atom                 a.u.       MegaHertz       Gauss      10(-4) cm-1
     1  C(13)             -0.00000      -0.00000      -0.00000      -0.00000
     2  C(13)              0.00000       0.00000       0.00000       0.00000
     3  C(13)             -0.00000      -0.00000      -0.00000      -0.00000
     4  C(13)              0.00000       0.00000       0.00000       0.00000
     5  N(14)              0.00000       0.00000       0.00000       0.00000
     6  C(13)              0.00000       0.00000       0.00000       0.00000
     7  C(13)             -0.00000      -0.00000      -0.00000      -0.00000
     8  C(13)             -0.00000      -0.00000      -0.00000      -0.00000
     9  C(13)              0.00000       0.00000       0.00000       0.00000
    10  C(13)             -0.00000      -0.00000      -0.00000      -0.00000
    11  S(33)              0.00000       0.00000       0.00000       0.00000
    12  H(1)               0.00000       0.00000       0.00000       0.00000
    13  H(1)               0.00000       0.00000       0.00000       0.00000
    14  H(1)               0.00000       0.00000       0.00000       0.00000
    15  H(1)               0.00000       0.00000       0.00000       0.00000
    16  H(1)               0.00000       0.00000       0.00000       0.00000
    17  H(1)              -0.00000      -0.00000      -0.00000      -0.00000
    18  H(1)              -0.00000      -0.00000      -0.00000      -0.00000
 --------------------------------------------------------
       Center         ----  Spin Dipole Couplings  ----
                      3XX-RR        3YY-RR        3ZZ-RR
 --------------------------------------------------------
     1   Atom       -0.000000      0.000000     -0.000000
     2   Atom        0.000000      0.000000     -0.000000
     3   Atom        0.000000      0.000000     -0.000000
     4   Atom        0.000000     -0.000000     -0.000000
     5   Atom        0.000000     -0.000000     -0.000000
     6   Atom       -0.000000      0.000000     -0.000000
     7   Atom        0.000000      0.000000     -0.000000
     8   Atom       -0.000000      0.000000      0.000000
     9   Atom        0.000000     -0.000000     -0.000000
    10   Atom       -0.000000      0.000000     -0.000000
    11   Atom        0.000000     -0.000000     -0.000000
    12   Atom        0.000000     -0.000000     -0.000000
    13   Atom        0.000000     -0.000000     -0.000000
    14   Atom        0.000000     -0.000000     -0.000000
    15   Atom       -0.000000      0.000000     -0.000000
    16   Atom        0.000000     -0.000000     -0.000000
    17   Atom        0.000000     -0.000000      0.000000
    18   Atom        0.000000     -0.000000     -0.000000
 --------------------------------------------------------
                        XY            XZ            YZ
 --------------------------------------------------------
     1   Atom       -0.000000      0.000000     -0.000000
     2   Atom       -0.000000     -0.000000      0.000000
     3   Atom        0.000000      0.000000      0.000000
     4   Atom        0.000000     -0.000000      0.000000
     5   Atom        0.000000     -0.000000     -0.000000
     6   Atom        0.000000      0.000000      0.000000
     7   Atom       -0.000000     -0.000000     -0.000000
     8   Atom       -0.000000      0.000000     -0.000000
     9   Atom        0.000000     -0.000000      0.000000
    10   Atom       -0.000000      0.000000     -0.000000
    11   Atom       -0.000000     -0.000000     -0.000000
    12   Atom        0.000000      0.000000     -0.000000
    13   Atom        0.000000      0.000000     -0.000000
    14   Atom       -0.000000     -0.000000      0.000000
    15   Atom       -0.000000     -0.000000      0.000000
    16   Atom       -0.000000     -0.000000     -0.000000
    17   Atom        0.000000     -0.000000      0.000000
    18   Atom        0.000000     -0.000000      0.000000
 --------------------------------------------------------


 ---------------------------------------------------------------------------------
              Anisotropic Spin Dipole Couplings in Principal Axis System
 ---------------------------------------------------------------------------------

       Atom             a.u.   MegaHertz   Gauss  10(-4) cm-1        Axes

              Baa    -0.0000    -0.000    -0.000    -0.000  0.9939  0.1043 -0.0359
     1 C(13)  Bbb    -0.0000    -0.000    -0.000    -0.000  0.0318  0.0408  0.9987
              Bcc     0.0000     0.000     0.000     0.000 -0.1057  0.9937 -0.0372
 
              Baa    -0.0000    -0.000    -0.000    -0.000  0.7031  0.7111  0.0008
     2 C(13)  Bbb    -0.0000    -0.000    -0.000    -0.000  0.0165 -0.0175  0.9997
              Bcc     0.0000     0.000     0.000     0.000  0.7109 -0.7029 -0.0240
 
              Baa    -0.0000    -0.000    -0.000    -0.000  0.7120 -0.6989  0.0676
     3 C(13)  Bbb    -0.0000    -0.000    -0.000    -0.000 -0.0787  0.0162  0.9968
              Bcc     0.0000     0.000     0.000     0.000  0.6977  0.7151  0.0435
 
              Baa    -0.0000    -0.000    -0.000    -0.000 -0.0659  0.9728 -0.2223
     4 C(13)  Bbb    -0.0000    -0.000    -0.000    -0.000  0.0020  0.2229  0.9748
              Bcc     0.0000     0.000     0.000     0.000  0.9978  0.0638 -0.0167
 
              Baa    -0.0000    -0.000    -0.000    -0.000 -0.2181  0.9755  0.0276
     5 N(14)  Bbb    -0.0000    -0.000    -0.000    -0.000  0.0545 -0.0161  0.9984
              Bcc     0.0000     0.000     0.000     0.000  0.9744  0.2193 -0.0497
 
              Baa    -0.0000    -0.000    -0.000    -0.000 -0.3128 -0.0173  0.9497
     6 C(13)  Bbb    -0.0000    -0.000    -0.000    -0.000  0.9444 -0.1127  0.3090
              Bcc     0.0000     0.000     0.000     0.000  0.1017  0.9935  0.0516
 
              Baa    -0.0000    -0.000    -0.000    -0.000  0.5588  0.4357  0.7056
     7 C(13)  Bbb    -0.0000    -0.000    -0.000    -0.000  0.3038  0.6842 -0.6631
              Bcc     0.0000     0.000     0.000     0.000  0.7717 -0.5848 -0.2499
 
              Baa    -0.0000    -0.000    -0.000    -0.000  0.9096  0.4133 -0.0414
     8 C(13)  Bbb     0.0000     0.000     0.000     0.000 -0.0060  0.1127  0.9936
              Bcc     0.0000     0.000     0.000     0.000 -0.4153  0.9036 -0.1050
 
              Baa    -0.0000    -0.000    -0.000    -0.000  0.1366 -0.1870  0.9728
     9 C(13)  Bbb    -0.0000    -0.000    -0.000    -0.000 -0.3755  0.8989  0.2255
              Bcc     0.0000     0.000     0.000     0.000  0.9167  0.3961 -0.0525
 
              Baa    -0.0000    -0.000    -0.000    -0.000  0.9873  0.1586 -0.0014
    10 C(13)  Bbb    -0.0000    -0.000    -0.000    -0.000 -0.0177  0.1189  0.9927
              Bcc     0.0000     0.000     0.000     0.000 -0.1576  0.9801 -0.1202
 
              Baa    -0.0000    -0.000    -0.000    -0.000  0.1929  0.9805  0.0372
    11 S(33)  Bbb    -0.0000    -0.000    -0.000    -0.000 -0.0024 -0.0374  0.9993
              Bcc     0.0000     0.000     0.000     0.000  0.9812 -0.1929 -0.0049
 
              Baa    -0.0000    -0.000    -0.000    -0.000 -0.5986  0.7752  0.2019
    12 H(1)   Bbb    -0.0000    -0.000    -0.000    -0.000  0.1444 -0.1434  0.9791
              Bcc     0.0000     0.000     0.000     0.000  0.7879  0.6152 -0.0261
 
              Baa    -0.0000    -0.000    -0.000    -0.000 -0.2260  0.9634  0.1444
    13 H(1)   Bbb    -0.0000    -0.000    -0.000    -0.000 -0.0893 -0.1681  0.9817
              Bcc     0.0000     0.000     0.000     0.000  0.9700  0.2090  0.1240
 
              Baa    -0.0000    -0.000    -0.000    -0.000  0.5027  0.8639 -0.0307
    14 H(1)   Bbb    -0.0000    -0.000    -0.000    -0.000  0.0193  0.0243  0.9995
              Bcc     0.0000     0.000     0.000     0.000  0.8642 -0.5030 -0.0044
 
              Baa    -0.0000    -0.000    -0.000    -0.000 -0.0418 -0.0545  0.9976
    15 H(1)   Bbb    -0.0000    -0.000    -0.000    -0.000  0.9817  0.1836  0.0512
              Bcc     0.0000     0.000     0.000     0.000 -0.1859  0.9815  0.0458
 
              Baa    -0.0000    -0.000    -0.000    -0.000  0.5129  0.7215  0.4652
    16 H(1)   Bbb     0.0000     0.000     0.000     0.000 -0.5288 -0.1614  0.8333
              Bcc     0.0000     0.000     0.000     0.000  0.6763 -0.6734  0.2987
 
              Baa    -0.0000    -0.000    -0.000    -0.000 -0.0835  0.9806 -0.1775
    17 H(1)   Bbb     0.0000     0.000     0.000     0.000  0.1626  0.1892  0.9684
              Bcc     0.0000     0.000     0.000     0.000  0.9832  0.0520 -0.1752
 
              Baa    -0.0000    -0.000    -0.000    -0.000 -0.0415  0.9974 -0.0586
    18 H(1)   Bbb    -0.0000    -0.000    -0.000    -0.000  0.1485  0.0642  0.9868
              Bcc     0.0000     0.000     0.000     0.000  0.9880  0.0322 -0.1508
 

 ---------------------------------------------------------------------------------

 No NMR shielding tensors so no spin-rotation constants.
 Leave Link  601 at Fri Jul 24 12:45:04 2020, MaxMem=  4026531840 cpu:               3.5 elap:               0.6
 (Enter /opt/ohpc/pub/libs/gaussian/g16-A.03/sandybridge/g16/l701.exe)
 ... and contract with generalized density number  0.
 Compute integral first derivatives.
 Leave Link  701 at Fri Jul 24 12:45:04 2020, MaxMem=  4026531840 cpu:               1.2 elap:               0.2
 (Enter /opt/ohpc/pub/libs/gaussian/g16-A.03/sandybridge/g16/l702.exe)
 L702 exits ... SP integral derivatives will be done elsewhere.
 Leave Link  702 at Fri Jul 24 12:45:04 2020, MaxMem=  4026531840 cpu:               0.2 elap:               0.0
 (Enter /opt/ohpc/pub/libs/gaussian/g16-A.03/sandybridge/g16/l703.exe)
 Integral derivatives from FoFJK, PRISM(SPDF).
 Compute integral first derivatives, UseDBF=F ICtDFT=           0.
 Calling FoFJK, ICntrl=      2127 FMM=F ISym2X=0 I1Cent= 0 IOpClX= 1 NMat=1 NMatS=1 NMatT=0.
 FoFJK:  IHMeth= 1 ICntrl=    2127 DoSepK=T KAlg= 0 I1Cent=           0 FoldK=F
 IRaf=         1 NMat=       1 IRICut=       1 DoRegI=T DoRafI=F ISym2E= 0 IDoP0=0 IntGTp=1.
 FoFCou: FMM=F IPFlag=           0 FMFlag=      100000 FMFlg1=         800
         NFxFlg=           0 DoJE=F BraDBF=F KetDBF=F FulRan=T
         wScrn=  0.000000 ICntrl=      2527 IOpCl=  0 I1Cent=           0 NGrid=           0
         NMat0=    1 NMatS0=      1 NMatT0=    0 NMatD0=    1 NMtDS0=    0 NMtDT0=    0
 Symmetry not used in FoFCou.
 Leave Link  703 at Fri Jul 24 12:45:14 2020, MaxMem=  4026531840 cpu:              74.6 elap:               9.4
 (Enter /opt/ohpc/pub/libs/gaussian/g16-A.03/sandybridge/g16/l716.exe)
 Dipole        = 5.15717916D-01 8.00816007D-01-7.01876530D-02
 ***** Axes restored to original set *****
 -------------------------------------------------------------------
 Center     Atomic                   Forces (Hartrees/Bohr)
 Number     Number              X              Y              Z
 -------------------------------------------------------------------
      1        6          -0.014782977   -0.004279623    0.016435860
      2        6           0.044866806    0.011948889   -0.021292641
      3        6          -0.056067355    0.036630777    0.016766504
      4        6           0.026904867    0.025819397   -0.008082626
      5        7          -0.035952836   -0.013331238    0.007436595
      6        6          -0.001499431   -0.065544672   -0.003802508
      7        6           0.078608406    0.045800577    0.000738568
      8        6          -0.031046678   -0.066174215    0.001726441
      9        6          -0.031011221    0.040808882   -0.008004634
     10        6          -0.006598949   -0.043734763    0.012685172
     11       16          -0.009826763   -0.009628522   -0.005598416
     12        1           0.008287812   -0.007878300   -0.003694774
     13        1           0.002549039    0.004098705    0.003613637
     14        1           0.004784132   -0.022978472   -0.002578558
     15        1           0.012707372    0.041287907   -0.004062723
     16        1          -0.000581595    0.007335288    0.000228201
     17        1           0.013081987    0.010912582    0.001214134
     18        1          -0.004422614    0.008906802   -0.003728233
 -------------------------------------------------------------------
 Cartesian Forces:  Max     0.078608406 RMS     0.026143820
 Leave Link  716 at Fri Jul 24 12:45:14 2020, MaxMem=  4026531840 cpu:               0.2 elap:               0.0
 (Enter /opt/ohpc/pub/libs/gaussian/g16-A.03/sandybridge/g16/l103.exe)

 GradGradGradGradGradGradGradGradGradGradGradGradGradGradGradGradGradGrad
 Berny optimization.
 FormGI is forming the generalized inverse of G from B-inverse, IUseBI=4.
 Internal  Forces:  Max     0.066104823 RMS     0.013414994
 Search for a local minimum.
 Step number   1 out of a maximum of   98
 All quantities printed in internal units (Hartrees-Bohrs-Radians)
 RMS Force = .13415D-01 SwitMx=.10000D-02 MixMth= 1
 Mixed Optimization -- RFO/linear search
 Second derivative matrix not updated -- first step.
 ITU=  0
     Eigenvalues ---    0.01327   0.01341   0.01429   0.01473   0.01998
     Eigenvalues ---    0.02155   0.02202   0.02222   0.02240   0.02314
     Eigenvalues ---    0.02409   0.02471   0.02521   0.02661   0.02780
     Eigenvalues ---    0.15738   0.15763   0.15855   0.15906   0.15955
     Eigenvalues ---    0.16000   0.16000   0.21924   0.22104   0.22314
     Eigenvalues ---    0.23763   0.24373   0.24992   0.24999   0.27123
     Eigenvalues ---    0.31876   0.32084   0.33546   0.33893   0.34012
     Eigenvalues ---    0.35270   0.36410   0.36625   0.37271   0.37783
     Eigenvalues ---    0.38842   0.39762   0.45840   0.49825   0.50897
     Eigenvalues ---    0.56203   0.57830   0.62808
 RFO step:  Lambda=-4.32020879D-02 EMin= 1.32732224D-02
 Linear search not attempted -- first point.
 Maximum step size (   0.300) exceeded in Quadratic search.
    -- Step size scaled by   0.893
 Iteration  1 RMS(Cart)=  0.04295198 RMS(Int)=  0.00101365
 Iteration  2 RMS(Cart)=  0.00110936 RMS(Int)=  0.00055295
 Iteration  3 RMS(Cart)=  0.00000097 RMS(Int)=  0.00055295
 ITry= 1 IFail=0 DXMaxC= 1.16D-01 DCOld= 1.00D+10 DXMaxT= 3.00D-01 DXLimC= 3.00D+00 Rises=F
 Variable       Old X    -DE/DX   Delta X   Delta X   Delta X     New X
                                 (Linear)    (Quad)   (Total)
    R1        2.57506   0.02654   0.00000   0.04070   0.04072   2.61579
    R2        2.60656   0.00455   0.00000   0.00713   0.00719   2.61375
    R3        2.07512  -0.00759   0.00000  -0.01772  -0.01772   2.05740
    R4        2.69954  -0.03368   0.00000  -0.06676  -0.06681   2.63273
    R5        2.05238   0.00163   0.00000   0.00369   0.00369   2.05607
    R6        2.59392   0.01427   0.00000   0.02380   0.02374   2.61766
    R7        2.11071  -0.02032   0.00000  -0.05011  -0.05011   2.06061
    R8        2.47503   0.03044   0.00000   0.04031   0.04029   2.51533
    R9        2.75439   0.00757   0.00000   0.01625   0.01625   2.77064
   R10        2.52729  -0.01707   0.00000  -0.02403  -0.02398   2.50331
   R11        2.20798  -0.04327   0.00000  -0.12282  -0.12282   2.08516
   R12        2.75171  -0.06610   0.00000  -0.14717  -0.14683   2.60488
   R13        3.26176  -0.00450   0.00000  -0.01462  -0.01403   3.24774
   R14        2.71827  -0.02375   0.00000  -0.04857  -0.04890   2.66937
   R15        2.03445   0.00708   0.00000   0.01551   0.01551   2.04997
   R16        2.50544   0.03500   0.00000   0.05170   0.05112   2.55656
   R17        2.01383   0.01698   0.00000   0.03600   0.03600   2.04983
   R18        3.22931  -0.00652   0.00000  -0.00979  -0.00993   3.21938
   R19        2.07310  -0.00869   0.00000  -0.02022  -0.02022   2.05288
    A1        2.04281   0.00461   0.00000   0.01432   0.01382   2.05663
    A2        2.06024   0.00722   0.00000   0.03742   0.03701   2.09724
    A3        2.16910  -0.01120   0.00000  -0.04363  -0.04420   2.12490
    A4        2.05102   0.00732   0.00000   0.02316   0.02245   2.07347
    A5        2.09171   0.00139   0.00000   0.01328   0.01280   2.10451
    A6        2.13117  -0.00811   0.00000  -0.02851  -0.02904   2.10212
    A7        2.06956  -0.00176   0.00000  -0.00482  -0.00529   2.06426
    A8        1.99234   0.01357   0.00000   0.05995   0.05987   2.05221
    A9        2.21474  -0.01148   0.00000  -0.05056  -0.05079   2.16395
   A10        2.17122  -0.00828   0.00000  -0.02154  -0.02175   2.14947
   A11        2.06867   0.01045   0.00000   0.03016   0.03021   2.09888
   A12        2.04282  -0.00214   0.00000  -0.00816  -0.00811   2.03471
   A13        2.00986   0.01226   0.00000   0.04306   0.04295   2.05281
   A14        2.21085  -0.01344   0.00000  -0.04473  -0.04474   2.16611
   A15        2.09048   0.00460   0.00000   0.01308   0.01308   2.10356
   A16        1.98184   0.00883   0.00000   0.03167   0.03167   2.01351
   A17        2.31476  -0.01729   0.00000  -0.04584  -0.04619   2.26857
   A18        2.11407  -0.01181   0.00000  -0.02914  -0.02949   2.08459
   A19        1.85433   0.02910   0.00000   0.07494   0.07563   1.92996
   A20        1.95985   0.00370   0.00000   0.00272   0.00253   1.96238
   A21        2.14212   0.00020   0.00000   0.00766   0.00774   2.14986
   A22        2.18121  -0.00390   0.00000  -0.01034  -0.01027   2.17094
   A23        2.00140  -0.01132   0.00000  -0.02990  -0.03107   1.97033
   A24        2.10818   0.00705   0.00000   0.02185   0.02227   2.13045
   A25        2.17124   0.00440   0.00000   0.01004   0.01040   2.18163
   A26        1.93206   0.00121   0.00000   0.02217   0.02069   1.95275
   A27        2.29894  -0.00513   0.00000  -0.02774  -0.02808   2.27086
   A28        2.03810   0.00467   0.00000   0.01593   0.01590   2.05399
   A29        1.67276  -0.02234   0.00000  -0.06459  -0.06407   1.60869
    D1        0.14153  -0.00355   0.00000  -0.05827  -0.05960   0.08193
    D2        3.14013   0.00038   0.00000  -0.00004  -0.00055   3.13958
    D3        3.13101  -0.00028   0.00000  -0.00677  -0.00650   3.12450
    D4       -0.15358   0.00364   0.00000   0.05146   0.05255  -0.10103
    D5       -0.11046   0.00415   0.00000   0.04724   0.04648  -0.06398
    D6        3.02638   0.00425   0.00000   0.05120   0.05052   3.07690
    D7       -3.08948  -0.00123   0.00000  -0.01601  -0.01541  -3.10489
    D8        0.04736  -0.00113   0.00000  -0.01205  -0.01137   0.03599
    D9       -0.14288   0.00457   0.00000   0.06247   0.06264  -0.08024
   D10        3.11295   0.00245   0.00000   0.02620   0.02498   3.13793
   D11       -3.13802  -0.00031   0.00000  -0.00095   0.00002  -3.13801
   D12        0.11781  -0.00243   0.00000  -0.03722  -0.03764   0.08017
   D13        0.10529  -0.00373   0.00000  -0.04680  -0.04618   0.05911
   D14       -3.07062  -0.00258   0.00000  -0.03035  -0.02966  -3.10028
   D15        3.11646   0.00063   0.00000   0.00317   0.00237   3.11883
   D16       -0.05945   0.00177   0.00000   0.01962   0.01889  -0.04056
   D17       -0.06222   0.00196   0.00000   0.02458   0.02448  -0.03774
   D18        3.11323   0.00061   0.00000   0.00764   0.00781   3.12104
   D19        0.00256  -0.00046   0.00000  -0.00809  -0.00814  -0.00558
   D20       -3.13037  -0.00017   0.00000  -0.00235  -0.00251  -3.13288
   D21        3.11236   0.00045   0.00000   0.00682   0.00699   3.11935
   D22       -0.02057   0.00075   0.00000   0.01256   0.01262  -0.00795
   D23        0.06512  -0.00190   0.00000  -0.02478  -0.02468   0.04044
   D24       -3.07197  -0.00199   0.00000  -0.02850  -0.02850  -3.10047
   D25       -3.13701   0.00004   0.00000   0.00162   0.00169  -3.13532
   D26        0.00912  -0.00066   0.00000  -0.00713  -0.00683   0.00229
   D27       -0.00314  -0.00035   0.00000  -0.00380  -0.00389  -0.00703
   D28       -3.14020  -0.00105   0.00000  -0.01255  -0.01240   3.13058
   D29        3.09361   0.00115   0.00000   0.02416   0.02445   3.11806
   D30       -0.04134   0.00154   0.00000   0.02899   0.02951  -0.01183
   D31        0.06436  -0.00276   0.00000  -0.03576  -0.03541   0.02895
   D32        3.13512  -0.00070   0.00000  -0.00582  -0.00503   3.13009
[...]
    11  S    0.360967  -0.100544  -0.093259   0.368763  15.322172  -0.000004
    12  H    0.000066  -0.000000   0.000000  -0.000000  -0.000004   0.651133
    13  H   -0.000291   0.000002  -0.000000  -0.000000   0.000007  -0.011278
    14  H   -0.017814   0.003692   0.000617  -0.000076  -0.000047  -0.000156
    15  H   -0.000684   0.000015   0.000000  -0.000002  -0.000112  -0.007820
    16  H   -0.036929   0.416028  -0.042236   0.008317   0.006337   0.000000
    17  H    0.008732  -0.038437   0.418375  -0.049625   0.006369  -0.000000
    18  H    0.001431   0.007520  -0.021115   0.407763  -0.036210  -0.000000
              13         14         15         16         17         18
     1  C   -0.048585   0.007536  -0.054239  -0.000008   0.000000   0.000000
     2  C    0.417632  -0.039283   0.005141   0.000587  -0.000000  -0.000000
     3  C   -0.039692   0.406795   0.000852   0.002121   0.000033   0.000003
     4  C    0.007070  -0.028245   0.001269  -0.016158  -0.000216  -0.000221
     5  N   -0.000507   0.004229  -0.024854   0.000036   0.000002   0.000000
     6  C    0.007236   0.000222   0.413132  -0.000016  -0.000000  -0.000000
     7  C   -0.000291  -0.017814  -0.000684  -0.036929   0.008732   0.001431
     8  C    0.000002   0.003692   0.000015   0.416028  -0.038437   0.007520
     9  C   -0.000000   0.000617   0.000000  -0.042236   0.418375  -0.021115
    10  C   -0.000000  -0.000076  -0.000002   0.008317  -0.049625   0.407763
    11  S    0.000007  -0.000047  -0.000112   0.006337   0.006369  -0.036210
    12  H   -0.011278  -0.000156  -0.007820   0.000000  -0.000000  -0.000000
    13  H    0.654430  -0.011936  -0.000181   0.000024  -0.000000   0.000000
    14  H   -0.011936   0.658393   0.000084  -0.002448   0.000020  -0.000000
    15  H   -0.000181   0.000084   0.635186  -0.000001  -0.000000  -0.000000
    16  H    0.000024  -0.002448  -0.000001   0.656561  -0.006789  -0.000095
    17  H   -0.000000   0.000020  -0.000000  -0.006789   0.652496  -0.007184
    18  H    0.000000  -0.000000  -0.000000  -0.000095  -0.007184   0.599928
          Atomic-Atomic Spin Densities.
               1          2          3          4          5          6
     1  C   -0.000000   0.000000   0.000000   0.000000  -0.000000  -0.000000
     2  C    0.000000  -0.000000   0.000000  -0.000000   0.000000   0.000000
     3  C    0.000000   0.000000   0.000000   0.000000  -0.000000  -0.000000
     4  C    0.000000  -0.000000   0.000000  -0.000000   0.000000   0.000000
     5  N   -0.000000   0.000000  -0.000000   0.000000   0.000000   0.000000
     6  C   -0.000000   0.000000  -0.000000   0.000000   0.000000   0.000000
     7  C    0.000000  -0.000000   0.000000   0.000000  -0.000000   0.000000
     8  C    0.000000  -0.000000   0.000000   0.000000   0.000000   0.000000
     9  C   -0.000000   0.000000  -0.000000  -0.000000   0.000000  -0.000000
    10  C    0.000000  -0.000000   0.000000   0.000000  -0.000000   0.000000
    11  S    0.000000  -0.000000   0.000000   0.000000  -0.000000  -0.000000
    12  H   -0.000000   0.000000   0.000000   0.000000  -0.000000  -0.000000
    13  H    0.000000  -0.000000   0.000000  -0.000000   0.000000   0.000000
    14  H   -0.000000   0.000000  -0.000000   0.000000  -0.000000   0.000000
    15  H   -0.000000  -0.000000  -0.000000   0.000000  -0.000000   0.000000
    16  H    0.000000  -0.000000   0.000000   0.000000  -0.000000  -0.000000
    17  H   -0.000000   0.000000  -0.000000  -0.000000   0.000000  -0.000000
    18  H    0.000000  -0.000000   0.000000   0.000000  -0.000000   0.000000
               7          8          9         10         11         12
     1  C    0.000000   0.000000  -0.000000   0.000000   0.000000  -0.000000
     2  C   -0.000000  -0.000000   0.000000  -0.000000  -0.000000   0.000000
     3  C    0.000000   0.000000  -0.000000   0.000000   0.000000   0.000000
     4  C    0.000000   0.000000  -0.000000   0.000000   0.000000   0.000000
     5  N   -0.000000   0.000000   0.000000  -0.000000  -0.000000  -0.000000
     6  C    0.000000   0.000000  -0.000000   0.000000  -0.000000  -0.000000
     7  C    0.000000   0.000000  -0.000000   0.000000  -0.000000  -0.000000
     8  C    0.000000  -0.000000   0.000000  -0.000000   0.000000   0.000000
     9  C   -0.000000   0.000000  -0.000000   0.000000  -0.000000  -0.000000
    10  C    0.000000  -0.000000   0.000000  -0.000000   0.000000   0.000000
    11  S   -0.000000   0.000000  -0.000000   0.000000   0.000000   0.000000
    12  H   -0.000000   0.000000  -0.000000   0.000000   0.000000   0.000000
    13  H   -0.000000  -0.000000   0.000000  -0.000000  -0.000000  -0.000000
    14  H    0.000000   0.000000  -0.000000   0.000000   0.000000  -0.000000
    15  H    0.000000   0.000000  -0.000000  -0.000000   0.000000  -0.000000
    16  H    0.000000  -0.000000   0.000000  -0.000000   0.000000   0.000000
    17  H   -0.000000   0.000000  -0.000000   0.000000  -0.000000  -0.000000
    18  H    0.000000  -0.000000   0.000000  -0.000000   0.000000   0.000000
              13         14         15         16         17         18
     1  C    0.000000  -0.000000  -0.000000   0.000000  -0.000000   0.000000
     2  C   -0.000000   0.000000  -0.000000  -0.000000   0.000000  -0.000000
     3  C    0.000000  -0.000000  -0.000000   0.000000  -0.000000   0.000000
     4  C   -0.000000   0.000000   0.000000   0.000000  -0.000000   0.000000
     5  N    0.000000  -0.000000  -0.000000  -0.000000   0.000000  -0.000000
     6  C    0.000000   0.000000   0.000000  -0.000000  -0.000000   0.000000
     7  C   -0.000000   0.000000   0.000000   0.000000  -0.000000   0.000000
     8  C   -0.000000   0.000000   0.000000  -0.000000   0.000000  -0.000000
     9  C    0.000000  -0.000000  -0.000000   0.000000  -0.000000   0.000000
    10  C   -0.000000   0.000000  -0.000000  -0.000000   0.000000  -0.000000
    11  S   -0.000000   0.000000   0.000000   0.000000  -0.000000   0.000000
    12  H   -0.000000  -0.000000  -0.000000   0.000000  -0.000000   0.000000
    13  H    0.000000   0.000000   0.000000  -0.000000   0.000000  -0.000000
    14  H    0.000000  -0.000000  -0.000000   0.000000  -0.000000   0.000000
    15  H    0.000000  -0.000000  -0.000000   0.000000  -0.000000   0.000000
    16  H   -0.000000   0.000000   0.000000  -0.000000   0.000000  -0.000000
    17  H    0.000000  -0.000000  -0.000000   0.000000  -0.000000   0.000000
    18  H   -0.000000   0.000000   0.000000  -0.000000   0.000000  -0.000000
 Mulliken charges and spin densities:
               1          2
     1  C   -0.079895  -0.000000
     2  C    0.056808  -0.000000
     3  C   -0.042179   0.000000
     4  C    0.147888  -0.000000
     5  N   -0.229803  -0.000000
     6  C    0.089826   0.000000
     7  C   -0.159184   0.000000
     8  C   -0.045399  -0.000000
     9  C    0.039284   0.000000
    10  C   -0.158091  -0.000000
    11  S    0.202405   0.000000
    12  H    0.022563  -0.000000
    13  H    0.026071   0.000000
    14  H    0.018418  -0.000000
    15  H    0.032214  -0.000000
    16  H    0.014668  -0.000000
    17  H    0.016224   0.000000
    18  H    0.048182  -0.000000
 Sum of Mulliken charges =  -0.00000   0.00000
 Mulliken charges and spin densities with hydrogens summed into heavy atoms:
               1          2
     1  C   -0.057331  -0.000000
     2  C    0.082879   0.000000
     3  C   -0.023761   0.000000
     4  C    0.147888  -0.000000
     5  N   -0.229803  -0.000000
     6  C    0.122040   0.000000
     7  C   -0.159184   0.000000
     8  C   -0.030731  -0.000000
     9  C    0.055508   0.000000
    10  C   -0.109909  -0.000000
    11  S    0.202405   0.000000
 Electronic spatial extent (au):  <R**2>=           2053.3766
 Charge=             -0.0000 electrons
 Dipole moment (field-independent basis, Debye):
    X=              1.1244    Y=              1.8866    Z=             -0.0007  Tot=              2.1963
 Quadrupole moment (field-independent basis, Debye-Ang):
   XX=            -54.5616   YY=            -64.4387   ZZ=            -74.6048
   XY=              0.3956   XZ=             -0.0013   YZ=              0.0004
 Traceless Quadrupole moment (field-independent basis, Debye-Ang):
   XX=              9.9734   YY=              0.0963   ZZ=            -10.0697
   XY=              0.3956   XZ=             -0.0013   YZ=              0.0004
 Octapole moment (field-independent basis, Debye-Ang**2):
  XXX=              7.5320  YYY=              8.4985  ZZZ=             -0.0009  XYY=              3.9635
  XXY=             -4.4647  XXZ=             -0.0018  XZZ=              0.7836  YZZ=             -3.3134
  YYZ=             -0.0005  XYZ=             -0.0162
 Hexadecapole moment (field-independent basis, Debye-Ang**3):
 XXXX=          -1889.7911 YYYY=           -508.8517 ZZZZ=            -82.0863 XXXY=             12.8049
 XXXZ=             -0.0013 YYYX=             -5.6503 YYYZ=             -0.0030 ZZZX=              0.0080
 ZZZY=             -0.0005 XXYY=           -397.5352 XXZZ=           -418.7288 YYZZ=           -112.1657
 XXYZ=             -0.0059 YYXZ=             -0.0130 ZZXY=              1.8071
 N-N= 6.263370301759D+02 E-N=-3.131353074223D+03  KE= 7.961718779103D+02
                          Isotropic Fermi Contact Couplings
        Atom                 a.u.       MegaHertz       Gauss      10(-4) cm-1
     1  C(13)             -0.00000      -0.00000      -0.00000      -0.00000
     2  C(13)              0.00000       0.00000       0.00000       0.00000
     3  C(13)             -0.00000      -0.00000      -0.00000      -0.00000
     4  C(13)             -0.00000      -0.00000      -0.00000      -0.00000
     5  N(14)              0.00000       0.00000       0.00000       0.00000
     6  C(13)              0.00000       0.00000       0.00000       0.00000
     7  C(13)              0.00000       0.00000       0.00000       0.00000
     8  C(13)             -0.00000      -0.00000      -0.00000      -0.00000
     9  C(13)             -0.00000      -0.00000      -0.00000      -0.00000
    10  C(13)             -0.00000      -0.00000      -0.00000      -0.00000
    11  S(33)             -0.00000      -0.00000      -0.00000      -0.00000
    12  H(1)               0.00000       0.00000       0.00000       0.00000
    13  H(1)               0.00000       0.00000       0.00000       0.00000
    14  H(1)              -0.00000      -0.00000      -0.00000      -0.00000
    15  H(1)              -0.00000      -0.00000      -0.00000      -0.00000
    16  H(1)               0.00000       0.00000       0.00000       0.00000
    17  H(1)               0.00000       0.00000       0.00000       0.00000
    18  H(1)              -0.00000      -0.00000      -0.00000      -0.00000
 --------------------------------------------------------
       Center         ----  Spin Dipole Couplings  ----
                      3XX-RR        3YY-RR        3ZZ-RR
 --------------------------------------------------------
     1   Atom        0.000000     -0.000000      0.000000
     2   Atom       -0.000000     -0.000000      0.000000
     3   Atom        0.000000     -0.000000      0.000000
     4   Atom        0.000000      0.000000     -0.000000
     5   Atom        0.000000     -0.000000     -0.000000
     6   Atom        0.000000      0.000000     -0.000000
     7   Atom       -0.000000      0.000000      0.000000
     8   Atom        0.000000     -0.000000      0.000000
     9   Atom       -0.000000      0.000000      0.000000
    10   Atom       -0.000000      0.000000      0.000000
    11   Atom       -0.000000      0.000000     -0.000000
    12   Atom        0.000000     -0.000000     -0.000000
    13   Atom        0.000000     -0.000000      0.000000
    14   Atom        0.000000     -0.000000      0.000000
    15   Atom        0.000000     -0.000000      0.000000
    16   Atom        0.000000     -0.000000      0.000000
    17   Atom       -0.000000     -0.000000      0.000000
    18   Atom        0.000000     -0.000000     -0.000000
 --------------------------------------------------------
                        XY            XZ            YZ
 --------------------------------------------------------
     1   Atom        0.000000     -0.000000      0.000000
     2   Atom       -0.000000      0.000000     -0.000000
     3   Atom       -0.000000     -0.000000     -0.000000
     4   Atom        0.000000      0.000000     -0.000000
     5   Atom       -0.000000     -0.000000      0.000000
     6   Atom        0.000000     -0.000000      0.000000
     7   Atom       -0.000000      0.000000     -0.000000
     8   Atom       -0.000000     -0.000000      0.000000
     9   Atom        0.000000     -0.000000      0.000000
    10   Atom       -0.000000     -0.000000     -0.000000
    11   Atom        0.000000     -0.000000      0.000000
    12   Atom        0.000000      0.000000      0.000000
    13   Atom       -0.000000      0.000000      0.000000
    14   Atom        0.000000      0.000000      0.000000
    15   Atom        0.000000     -0.000000      0.000000
    16   Atom       -0.000000     -0.000000      0.000000
    17   Atom        0.000000     -0.000000      0.000000
    18   Atom        0.000000      0.000000      0.000000
 --------------------------------------------------------


 ---------------------------------------------------------------------------------
              Anisotropic Spin Dipole Couplings in Principal Axis System
 ---------------------------------------------------------------------------------

       Atom             a.u.   MegaHertz   Gauss  10(-4) cm-1        Axes

              Baa    -0.0000    -0.000    -0.000    -0.000 -0.3079  0.9514 -0.0028
     1 C(13)  Bbb     0.0000     0.000     0.000     0.000  0.9514  0.3079  0.0049
              Bcc     0.0000     0.000     0.000     0.000 -0.0055  0.0011  1.0000
 
              Baa    -0.0000    -0.000    -0.000    -0.000  0.5518  0.8340 -0.0023
     2 C(13)  Bbb    -0.0000    -0.000    -0.000    -0.000  0.8339 -0.5518 -0.0071
              Bcc     0.0000     0.000     0.000     0.000  0.0072 -0.0020  1.0000
 
              Baa    -0.0000    -0.000    -0.000    -0.000  0.1378  0.9905  0.0008
     3 C(13)  Bbb     0.0000     0.000     0.000     0.000  0.9905 -0.1378  0.0008
              Bcc     0.0000     0.000     0.000     0.000 -0.0009 -0.0007  1.0000
 
              Baa    -0.0000    -0.000    -0.000    -0.000 -0.0048  0.0041  1.0000
     4 C(13)  Bbb     0.0000     0.000     0.000     0.000 -0.0799  0.9968 -0.0045
              Bcc     0.0000     0.000     0.000     0.000  0.9968  0.0799  0.0045
 
              Baa    -0.0000    -0.000    -0.000    -0.000  0.4704  0.8790 -0.0777
     5 N(14)  Bbb    -0.0000    -0.000    -0.000    -0.000  0.0557  0.0583  0.9967
              Bcc     0.0000     0.000     0.000     0.000  0.8807 -0.4732 -0.0215
 
              Baa    -0.0000    -0.000    -0.000    -0.000  0.0008 -0.0022  1.0000
     6 C(13)  Bbb     0.0000     0.000     0.000     0.000 -0.5823  0.8130  0.0023
              Bcc     0.0000     0.000     0.000     0.000  0.8130  0.5823  0.0006
 
              Baa    -0.0000    -0.000    -0.000    -0.000  0.8221  0.5693 -0.0048
     7 C(13)  Bbb     0.0000     0.000     0.000     0.000 -0.0629  0.0992  0.9931
              Bcc     0.0000     0.000     0.000     0.000 -0.5659  0.8161 -0.1173
 
              Baa    -0.0000    -0.000    -0.000    -0.000  0.2565  0.9665 -0.0068
     8 C(13)  Bbb     0.0000     0.000     0.000     0.000  0.0336 -0.0019  0.9994
              Bcc     0.0000     0.000     0.000     0.000  0.9660 -0.2566 -0.0330
 
              Baa    -0.0000    -0.000    -0.000    -0.000  0.8139 -0.5810  0.0055
     9 C(13)  Bbb     0.0000     0.000     0.000     0.000  0.0014  0.0114  0.9999
              Bcc     0.0000     0.000     0.000     0.000  0.5811  0.8138 -0.0101
 
              Baa    -0.0000    -0.000    -0.000    -0.000  0.9835  0.1806  0.0138
    10 C(13)  Bbb     0.0000     0.000     0.000     0.000 -0.0154  0.0075  0.9999
              Bcc     0.0000     0.000     0.000     0.000 -0.1805  0.9835 -0.0102
 
              Baa    -0.0000    -0.000    -0.000    -0.000  0.9860 -0.1665  0.0099
    11 S(33)  Bbb    -0.0000    -0.000    -0.000    -0.000 -0.0123 -0.0137  0.9998
              Bcc     0.0000     0.000     0.000     0.000  0.1664  0.9859  0.0156
 
              Baa    -0.0000    -0.000    -0.000    -0.000 -0.5538  0.8326  0.0014
    12 H(1)   Bbb    -0.0000    -0.000    -0.000    -0.000 -0.0033 -0.0039  1.0000
              Bcc     0.0000     0.000     0.000     0.000  0.8326  0.5538  0.0049
 
              Baa    -0.0000    -0.000    -0.000    -0.000  0.3583  0.9336 -0.0035
    13 H(1)   Bbb     0.0000     0.000     0.000     0.000 -0.0059  0.0060  1.0000
              Bcc     0.0000     0.000     0.000     0.000  0.9336 -0.3582  0.0077
 
              Baa    -0.0000    -0.000    -0.000    -0.000 -0.3168  0.9485 -0.0012
    14 H(1)   Bbb     0.0000     0.000     0.000     0.000  0.9485  0.3168 -0.0023
              Bcc     0.0000     0.000     0.000     0.000  0.0018  0.0019  1.0000
 
              Baa    -0.0000    -0.000    -0.000    -0.000 -0.5306  0.8476 -0.0042
    15 H(1)   Bbb     0.0000     0.000     0.000     0.000 -0.0069  0.0006  1.0000
              Bcc     0.0000     0.000     0.000     0.000  0.8476  0.5306  0.0055
 
              Baa    -0.0000    -0.000    -0.000    -0.000  0.3006  0.9537 -0.0028
    16 H(1)   Bbb     0.0000     0.000     0.000     0.000  0.9537 -0.3006  0.0100
              Bcc     0.0000     0.000     0.000     0.000 -0.0087  0.0056  0.9999
 
              Baa    -0.0000    -0.000    -0.000    -0.000 -0.5507  0.8345 -0.0172
    17 H(1)   Bbb     0.0000     0.000     0.000     0.000  0.8344  0.5509  0.0176
              Bcc     0.0000     0.000     0.000     0.000 -0.0241  0.0047  0.9997
 
              Baa    -0.0000    -0.000    -0.000    -0.000 -0.3048  0.9520 -0.0282
    18 H(1)   Bbb    -0.0000    -0.000    -0.000    -0.000 -0.0281  0.0206  0.9994
              Bcc     0.0000     0.000     0.000     0.000  0.9520  0.3054  0.0205
 

 ---------------------------------------------------------------------------------

 No NMR shielding tensors so no spin-rotation constants.
 Leave Link  601 at Fri Jul 24 12:52:20 2020, MaxMem=  4026531840 cpu:               1.7 elap:               0.3
 (Enter /opt/ohpc/pub/libs/gaussian/g16-A.03/sandybridge/g16/l9999.exe)

 Test job not archived.
 1\1\GINC-SKYLAKE038\FOpt\ULC-wPBE\CC-pVDZ\C9H7N1S1\RDU230\24-Jul-2020\
 0\\#P uLC-wPBE/cc-pVDZ iop(3/107=0471700000, 3/108=0471700000) opt\\H7
  C9 S1 N1\\0,1\C,-3.4157368484,-0.170242999,-0.0057549569\C,-2.8993010
 595,1.1151763135,0.0094953648\C,-1.5297142587,1.2894543329,0.015412100
 1\C,-0.7120890173,0.1619887369,0.0056953178\N,-1.2055612035,-1.0734314
 611,-0.0089143176\C,-2.5210228987,-1.2262521472,-0.0143898319\C,0.7535
 505411,0.2646559976,0.010994555\C,1.5479065167,1.3725616872,0.02396678
 88\C,2.932008348,1.0563666195,0.0250171334\C,3.1481937137,-0.284488597
 3,0.0127722667\S,1.6931297303,-1.173802523,-0.0000948928\H,-4.48751418
 89,-0.3530559093,-0.0108140394\H,-3.5614986376,1.9793626538,0.01683438
 43\H,-1.0983228935,2.2866930644,0.0274974134\H,-2.8811968078,-2.256158
 2973,-0.0263515938\H,1.1653348289,2.3892393025,0.0325337502\H,3.726380
 2193,1.7972668398,0.034482216\H,4.1037909158,-0.7993886141,0.010619341
 8\\Version=EM64L-G16RevA.03\State=1-A\HF=-799.7246666\S2=0.\S2-1=0.\S2
 A=0.\RMSD=7.598e-09\RMSF=8.383e-06\Dipole=-0.4407515,0.7431913,0.00649
 52\Quadrupole=7.4135163,0.0722022,-7.4857186,-0.3106416,0.0399733,0.07
 54608\PG=C01 [X(C9H7N1S1)]\\@


 E PUR SI MUOVE    -- GALILEO GALILEI
 Job cpu time:       0 days  1 hours  3 minutes  0.8 seconds.
 Elapsed time:       0 days  0 hours  8 minutes  4.7 seconds.
 File lengths (MBytes):  RWF=    100 Int=      0 D2E=      0 Chk=     12 Scr=      8
 Normal termination of Gaussian 16 at Fri Jul 24 12:52:21 2020.
