 Entering Gaussian System, Link 0=g16
 Input=mols_65_3_26_n-cOC-CF_opt_0.gjf
 Output=mols_65_3_26_n-cOC-CF_opt_0.log
 Initial command:
 /opt/ohpc/pub/libs/gaussian/g16-A.03/sandybridge/g16/l1.exe "/mnt/gpfs2_4m/scratch/rdu230/ondemand/projects/dihedral_energies/7trial/wtuning/mols_65_3_26_n-cOC-CF/Gau-175985.inp" -scrdir="/mnt/gpfs2_4m/scratch/rdu230/ondemand/projects/dihedral_energies/7trial/wtuning/mols_65_3_26_n-cOC-CF/"
 Entering Link 1 = /opt/ohpc/pub/libs/gaussian/g16-A.03/sandybridge/g16/l1.exe PID=    175986.
  
 Copyright (c) 1988,1990,1992,1993,1995,1998,2003,2009,2016,
            Gaussian, Inc.  All Rights Reserved.
  
 This is part of the Gaussian(R) 16 program.  It is based on
 the Gaussian(R) 09 system (copyright 2009, Gaussian, Inc.),
 the Gaussian(R) 03 system (copyright 2003, Gaussian, Inc.),
 the Gaussian(R) 98 system (copyright 1998, Gaussian, Inc.),
 the Gaussian(R) 94 system (copyright 1995, Gaussian, Inc.),
 the Gaussian 92(TM) system (copyright 1992, Gaussian, Inc.),
 the Gaussian 90(TM) system (copyright 1990, Gaussian, Inc.),
 the Gaussian 88(TM) system (copyright 1988, Gaussian, Inc.),
 the Gaussian 86(TM) system (copyright 1986, Carnegie Mellon
 University), and the Gaussian 82(TM) system (copyright 1983,
 Carnegie Mellon University). Gaussian is a federally registered
 trademark of Gaussian, Inc.
  
 This software contains proprietary and confidential information,
 including trade secrets, belonging to Gaussian, Inc.
  
 This software is provided under written license and may be
 used, copied, transmitted, or stored only in accord with that
 written license.
  
 The following legend is applicable only to US Government
 contracts under FAR:
  
                    RESTRICTED RIGHTS LEGEND
  
 Use, reproduction and disclosure by the US Government is
 subject to restrictions as set forth in subparagraphs (a)
 and (c) of the Commercial Computer Software - Restricted
 Rights clause in FAR 52.227-19.
  
 Gaussian, Inc.
 340 Quinnipiac St., Bldg. 40, Wallingford CT 06492
  
  
 ---------------------------------------------------------------
 Warning -- This program may not be used in any manner that
 competes with the business of Gaussian, Inc. or will provide
 assistance to any competitor of Gaussian, Inc.  The licensee
 of this program is prohibited from giving any competitor of
 Gaussian, Inc. access to this program.  By using this program,
 the user acknowledges that Gaussian, Inc. is engaged in the
 business of creating and licensing software in the field of
 computational chemistry and represents and warrants to the
 licensee that it is not a competitor of Gaussian, Inc. and that
 it will not use this program in any manner prohibited above.
 ---------------------------------------------------------------
  

 Cite this work as:
 Gaussian 16, Revision A.03,
 M. J. Frisch, G. W. Trucks, H. B. Schlegel, G. E. Scuseria, 
 M. A. Robb, J. R. Cheeseman, G. Scalmani, V. Barone, 
 G. A. Petersson, H. Nakatsuji, X. Li, M. Caricato, A. V. Marenich, 
 J. Bloino, B. G. Janesko, R. Gomperts, B. Mennucci, H. P. Hratchian, 
 J. V. Ortiz, A. F. Izmaylov, J. L. Sonnenberg, D. Williams-Young, 
 F. Ding, F. Lipparini, F. Egidi, J. Goings, B. Peng, A. Petrone, 
 T. Henderson, D. Ranasinghe, V. G. Zakrzewski, J. Gao, N. Rega, 
 G. Zheng, W. Liang, M. Hada, M. Ehara, K. Toyota, R. Fukuda, 
 J. Hasegawa, M. Ishida, T. Nakajima, Y. Honda, O. Kitao, H. Nakai, 
 T. Vreven, K. Throssell, J. A. Montgomery, Jr., J. E. Peralta, 
 F. Ogliaro, M. J. Bearpark, J. J. Heyd, E. N. Brothers, K. N. Kudin, 
 V. N. Staroverov, T. A. Keith, R. Kobayashi, J. Normand, 
 K. Raghavachari, A. P. Rendell, J. C. Burant, S. S. Iyengar, 
 J. Tomasi, M. Cossi, J. M. Millam, M. Klene, C. Adamo, R. Cammi, 
 J. W. Ochterski, R. L. Martin, K. Morokuma, O. Farkas, 
 J. B. Foresman, and D. J. Fox, Gaussian, Inc., Wallingford CT, 2016.
 
 ******************************************
 Gaussian 16:  EM64L-G16RevA.03 25-Dec-2016
                25-Jul-2020 
 ******************************************
 %mem=30GB
 %nproc=8
 Will use up to    8 processors via shared memory.
 ---------------------------------------------------------------
 #P uLC-wPBE/cc-pVDZ iop(3/107=0442400000, 3/108=0442400000) opt
 ---------------------------------------------------------------
 1/18=20,19=15,26=3,38=1/1,3;
 2/9=110,12=2,17=6,18=5,40=1/2;
 3/5=16,11=2,25=1,30=1,71=1,74=-41,107=442400000,108=442400000,116=2/1,2,3;
 4//1;
 5/5=2,38=5/2;
 6/7=2,8=2,9=2,10=2,28=1/1;
 7//1,2,3,16;
 1/18=20,19=15,26=3/3(2);
 2/9=110/2;
 99//99;
 2/9=110/2;
 3/5=16,11=2,25=1,30=1,71=1,74=-41,107=442400000,108=442400000,116=2/1,2,3;
 4/5=5,16=3,69=1/1;
 5/5=2,38=5/2;
 7//1,2,3,16;
 1/18=20,19=15,26=3/3(-5);
 2/9=110/2;
 6/7=2,8=2,9=2,10=2,19=2,28=1/1;
 99/9=1/99;
 Leave Link    1 at Sat Jul 25 03:36:15 2020, MaxMem=  4026531840 cpu:               0.7 elap:               0.1
 (Enter /opt/ohpc/pub/libs/gaussian/g16-A.03/sandybridge/g16/l101.exe)
 -------------------
 H20 C30 S3 N3 O3 F3
 -------------------
 Symbolic Z-matrix:
 Charge =  0 Multiplicity = 1
 C                    -9.78775  -3.5952    0.12928 
 C                    -8.66629  -3.79025  -0.50883 
 N                    -7.68721  -2.76922  -0.60686 
 C                    -7.99033  -1.62519  -0.04509 
 C                    -9.15676  -1.36714   0.64611 
 O                    -9.3224   -0.09056   1.2009 
 C                    -10.5701   0.29078   1.51278 
 C                    -10.09888  -2.35047   0.76613 
 C                    -6.88628  -0.63821  -0.20663 
 C                    -6.91931   0.69148  -0.65541 
 F                    -8.07569   1.3036   -0.95181 
 C                    -5.74626   1.33921  -0.75558 
 C                    -4.67114   0.5607   -0.42279 
 S                    -5.25544  -1.07116   0.01703 
 C                    -3.19851   0.84813  -0.32496 
 C                    -2.31569   0.00125  -0.97252 
 N                    -0.996     0.25795  -0.90393 
 C                    -0.51731   1.38909  -0.33759 
 C                    -1.35467   2.25128   0.33879 
 O                    -0.86596   3.30175   0.95055 
 C                    -1.73196   4.44376   1.32209 
 C                    -2.81717   1.99168   0.29149 
 C                     0.87334   1.53146  -0.37563 
 C                     1.63037   2.62113  -0.7114 
 F                     1.04743   3.85586  -1.1374 
 C                     3.07354   2.45481  -0.69845 
 C                     3.37961   1.25757  -0.29623 
 S                     1.98557   0.24608   0.08251 
 C                     4.72552   0.67537  -0.13268 
 C                     5.73986   1.32306   0.42081 
 N                     6.99905   0.89287   0.65096 
 C                     7.31345  -0.3941    0.13671 
 C                     6.3361   -1.1548   -0.49677 
 O                     6.70806  -2.35469  -0.94403 
 C                     5.6751   -3.38359  -1.03737 
 C                     4.99263  -0.65022  -0.60808 
 C                     8.67546  -0.81281   0.32617 
 C                     9.12869  -1.89008   0.93538 
 F                     8.39303  -2.83105   1.46701 
 C                     10.5984  -2.01816   1.00672 
 C                     11.15984  -0.97188   0.36806 
 S                     9.97621   0.20075  -0.12205 
 H                    -10.58254  -4.38421   0.14081 
 H                    -8.38127  -4.70056  -0.95684 
 H                    -11.32051   0.22854   0.70648 
 H                    -10.53264   1.4046    1.8525 
 H                    -10.947   -0.27038   2.37667 
 H                    -10.99521  -2.17112   1.2539 
 H                    -5.62458   2.42559  -0.99554 
 H                    -2.59552  -0.86906  -1.45208 
 H                    -2.36141   4.11873   2.12059 
 H                    -1.09101   5.22554   1.58151 
 H                    -2.31963   4.716     0.41447 
 H                    -3.51854   2.65142   0.81541 
 H                     3.70832   3.26778  -0.95336 
 H                     5.57533   2.32063   0.81341 
 H                     5.12649  -3.42582  -0.12602 
 H                     5.07902  -3.24287  -1.82947 
 H                     6.18202  -4.34438  -1.18585 
 H                     4.29199  -1.28551  -1.10111 
 H                     11.16297  -2.87427   1.40866 
 H                     12.24238  -0.69727   0.26879 
 
 ITRead=  0  0  0  0  0  0  0  0  0  0  0  0  0  0  0  0  0  0  0  0
 ITRead=  0  0  0  0  0  0  0  0  0  0  0  0  0  0  0  0  0  0  0  0
 ITRead=  0  0  0  0  0  0  0  0  0  0  0  0  0  0  0  0  0  0  0  0
 ITRead=  0  0
 MicOpt= -1 -1 -1 -1 -1 -1 -1 -1 -1 -1 -1 -1 -1 -1 -1 -1 -1 -1 -1 -1
 MicOpt= -1 -1 -1 -1 -1 -1 -1 -1 -1 -1 -1 -1 -1 -1 -1 -1 -1 -1 -1 -1
 MicOpt= -1 -1 -1 -1 -1 -1 -1 -1 -1 -1 -1 -1 -1 -1 -1 -1 -1 -1 -1 -1
 MicOpt= -1 -1
 NAtoms=     62 NQM=       62 NQMF=       0 NMMI=      0 NMMIF=      0
                NMic=       0 NMicF=      0.
                    Isotopes and Nuclear Properties:
 (Nuclear quadrupole moments (NQMom) in fm**2, nuclear magnetic moments (NMagM)
  in nuclear magnetons)

  Atom         1           2           3           4           5           6           7           8           9          10
 IAtWgt=          12          12          14          12          12          16          12          12          12          12
 AtmWgt=  12.0000000  12.0000000  14.0030740  12.0000000  12.0000000  15.9949146  12.0000000  12.0000000  12.0000000  12.0000000
 NucSpn=           0           0           2           0           0           0           0           0           0           0
 AtZEff=  -0.0000000  -0.0000000  -0.0000000  -0.0000000  -0.0000000  -0.0000000  -0.0000000  -0.0000000  -0.0000000  -0.0000000
 NQMom=    0.0000000   0.0000000   2.0440000   0.0000000   0.0000000   0.0000000   0.0000000   0.0000000   0.0000000   0.0000000
 NMagM=    0.0000000   0.0000000   0.4037610   0.0000000   0.0000000   0.0000000   0.0000000   0.0000000   0.0000000   0.0000000
 AtZNuc=   6.0000000   6.0000000   7.0000000   6.0000000   6.0000000   8.0000000   6.0000000   6.0000000   6.0000000   6.0000000

  Atom        11          12          13          14          15          16          17          18          19          20
 IAtWgt=          19          12          12          32          12          12          14          12          12          16
 AtmWgt=  18.9984033  12.0000000  12.0000000  31.9720718  12.0000000  12.0000000  14.0030740  12.0000000  12.0000000  15.9949146
 NucSpn=           1           0           0           0           0           0           2           0           0           0
 AtZEff=  -0.0000000  -0.0000000  -0.0000000  -0.0000000  -0.0000000  -0.0000000  -0.0000000  -0.0000000  -0.0000000  -0.0000000
 NQMom=    0.0000000   0.0000000   0.0000000   0.0000000   0.0000000   0.0000000   2.0440000   0.0000000   0.0000000   0.0000000
 NMagM=    2.6288670   0.0000000   0.0000000   0.0000000   0.0000000   0.0000000   0.4037610   0.0000000   0.0000000   0.0000000
 AtZNuc=   9.0000000   6.0000000   6.0000000  16.0000000   6.0000000   6.0000000   7.0000000   6.0000000   6.0000000   8.0000000

  Atom        21          22          23          24          25          26          27          28          29          30
 IAtWgt=          12          12          12          12          19          12          12          32          12          12
 AtmWgt=  12.0000000  12.0000000  12.0000000  12.0000000  18.9984033  12.0000000  12.0000000  31.9720718  12.0000000  12.0000000
 NucSpn=           0           0           0           0           1           0           0           0           0           0
 AtZEff=  -0.0000000  -0.0000000  -0.0000000  -0.0000000  -0.0000000  -0.0000000  -0.0000000  -0.0000000  -0.0000000  -0.0000000
 NQMom=    0.0000000   0.0000000   0.0000000   0.0000000   0.0000000   0.0000000   0.0000000   0.0000000   0.0000000   0.0000000
 NMagM=    0.0000000   0.0000000   0.0000000   0.0000000   2.6288670   0.0000000   0.0000000   0.0000000   0.0000000   0.0000000
 AtZNuc=   6.0000000   6.0000000   6.0000000   6.0000000   9.0000000   6.0000000   6.0000000  16.0000000   6.0000000   6.0000000

  Atom        31          32          33          34          35          36          37          38          39          40
 IAtWgt=          14          12          12          16          12          12          12          12          19          12
 AtmWgt=  14.0030740  12.0000000  12.0000000  15.9949146  12.0000000  12.0000000  12.0000000  12.0000000  18.9984033  12.0000000
 NucSpn=           2           0           0           0           0           0           0           0           1           0
 AtZEff=  -0.0000000  -0.0000000  -0.0000000  -0.0000000  -0.0000000  -0.0000000  -0.0000000  -0.0000000  -0.0000000  -0.0000000
 NQMom=    2.0440000   0.0000000   0.0000000   0.0000000   0.0000000   0.0000000   0.0000000   0.0000000   0.0000000   0.0000000
 NMagM=    0.4037610   0.0000000   0.0000000   0.0000000   0.0000000   0.0000000   0.0000000   0.0000000   2.6288670   0.0000000
 AtZNuc=   7.0000000   6.0000000   6.0000000   8.0000000   6.0000000   6.0000000   6.0000000   6.0000000   9.0000000   6.0000000

  Atom        41          42          43          44          45          46          47          48          49          50
 IAtWgt=          12          32           1           1           1           1           1           1           1           1
 AtmWgt=  12.0000000  31.9720718   1.0078250   1.0078250   1.0078250   1.0078250   1.0078250   1.0078250   1.0078250   1.0078250
 NucSpn=           0           0           1           1           1           1           1           1           1           1
 AtZEff=  -0.0000000  -0.0000000  -0.0000000  -0.0000000  -0.0000000  -0.0000000  -0.0000000  -0.0000000  -0.0000000  -0.0000000
 NQMom=    0.0000000   0.0000000   0.0000000   0.0000000   0.0000000   0.0000000   0.0000000   0.0000000   0.0000000   0.0000000
 NMagM=    0.0000000   0.0000000   2.7928460   2.7928460   2.7928460   2.7928460   2.7928460   2.7928460   2.7928460   2.7928460
 AtZNuc=   6.0000000  16.0000000   1.0000000   1.0000000   1.0000000   1.0000000   1.0000000   1.0000000   1.0000000   1.0000000

  Atom        51          52          53          54          55          56          57          58          59          60
 IAtWgt=           1           1           1           1           1           1           1           1           1           1
 AtmWgt=   1.0078250   1.0078250   1.0078250   1.0078250   1.0078250   1.0078250   1.0078250   1.0078250   1.0078250   1.0078250
 NucSpn=           1           1           1           1           1           1           1           1           1           1
 AtZEff=  -0.0000000  -0.0000000  -0.0000000  -0.0000000  -0.0000000  -0.0000000  -0.0000000  -0.0000000  -0.0000000  -0.0000000
 NQMom=    0.0000000   0.0000000   0.0000000   0.0000000   0.0000000   0.0000000   0.0000000   0.0000000   0.0000000   0.0000000
 NMagM=    2.7928460   2.7928460   2.7928460   2.7928460   2.7928460   2.7928460   2.7928460   2.7928460   2.7928460   2.7928460
 AtZNuc=   1.0000000   1.0000000   1.0000000   1.0000000   1.0000000   1.0000000   1.0000000   1.0000000   1.0000000   1.0000000

  Atom        61          62
 IAtWgt=           1           1
 AtmWgt=   1.0078250   1.0078250
 NucSpn=           1           1
 AtZEff=  -0.0000000  -0.0000000
 NQMom=    0.0000000   0.0000000
 NMagM=    2.7928460   2.7928460
 AtZNuc=   1.0000000   1.0000000
 Leave Link  101 at Sat Jul 25 03:36:15 2020, MaxMem=  4026531840 cpu:               2.9 elap:               0.4
 (Enter /opt/ohpc/pub/libs/gaussian/g16-A.03/sandybridge/g16/l103.exe)

 GradGradGradGradGradGradGradGradGradGradGradGradGradGradGradGradGradGrad
 Berny optimization.
 Initialization pass.
                           ----------------------------
                           !    Initial Parameters    !
                           ! (Angstroms and Degrees)  !
 --------------------------                            --------------------------
 ! Name  Definition              Value          Derivative Info.                !
 --------------------------------------------------------------------------------
 ! R1    R(1,2)                  1.305          estimate D2E/DX2                !
 ! R2    R(1,8)                  1.4324         estimate D2E/DX2                !
 ! R3    R(1,43)                 1.12           estimate D2E/DX2                !
 ! R4    R(2,3)                  1.418          estimate D2E/DX2                !
 ! R5    R(2,44)                 1.0539         estimate D2E/DX2                !
 ! R6    R(3,4)                  1.3101         estimate D2E/DX2                !
 ! R7    R(4,5)                  1.3802         estimate D2E/DX2                !
 ! R8    R(4,9)                  1.4897         estimate D2E/DX2                !
 ! R9    R(5,6)                  1.4017         estimate D2E/DX2                !
 ! R10   R(5,8)                  1.3671         estimate D2E/DX2                !
 ! R11   R(6,7)                  1.3414         estimate D2E/DX2                !
 ! R12   R(7,45)                 1.1032         estimate D2E/DX2                !
 ! R13   R(7,46)                 1.1651         estimate D2E/DX2                !
 ! R14   R(7,47)                 1.0969         estimate D2E/DX2                !
 ! R15   R(8,48)                 1.0361         estimate D2E/DX2                !
 ! R16   R(9,10)                 1.4038         estimate D2E/DX2                !
 ! R17   R(9,14)                 1.7021         estimate D2E/DX2                !
 ! R18   R(10,11)                1.3416         estimate D2E/DX2                !
 ! R19   R(10,12)                1.3437         estimate D2E/DX2                !
 ! R20   R(12,13)                1.3685         estimate D2E/DX2                !
 ! R21   R(12,49)                1.1192         estimate D2E/DX2                !
 ! R22   R(13,14)                1.7882         estimate D2E/DX2                !
 ! R23   R(13,15)                1.5036         estimate D2E/DX2                !
 ! R24   R(15,16)                1.3842         estimate D2E/DX2                !
 ! R25   R(15,22)                1.3539         estimate D2E/DX2                !
 ! R26   R(16,17)                1.3462         estimate D2E/DX2                !
 ! R27   R(16,50)                1.0323         estimate D2E/DX2                !
 ! R28   R(17,18)                1.3525         estimate D2E/DX2                !
 ! R29   R(18,19)                1.3791         estimate D2E/DX2                !
 ! R30   R(18,23)                1.3984         estimate D2E/DX2                !
 ! R31   R(19,20)                1.3102         estimate D2E/DX2                !
 ! R32   R(19,22)                1.4861         estimate D2E/DX2                !
 ! R33   R(20,21)                1.4806         estimate D2E/DX2                !
 ! R34   R(21,51)                1.0675         estimate D2E/DX2                !
 ! R35   R(21,52)                1.0437         estimate D2E/DX2                !
 ! R36   R(21,53)                1.115          estimate D2E/DX2                !
 ! R37   R(22,54)                1.0962         estimate D2E/DX2                !
 ! R38   R(23,24)                1.3687         estimate D2E/DX2                !
 ! R39   R(23,28)                1.7604         estimate D2E/DX2                !
 ! R40   R(24,25)                1.4303         estimate D2E/DX2                !
 ! R41   R(24,26)                1.4528         estimate D2E/DX2                !
 ! R42   R(26,27)                1.2996         estimate D2E/DX2                !
 ! R43   R(26,55)                1.0625         estimate D2E/DX2                !
 ! R44   R(27,28)                1.7635         estimate D2E/DX2                !
 ! R45   R(27,29)                1.4755         estimate D2E/DX2                !
 ! R46   R(29,30)                1.3247         estimate D2E/DX2                !
 ! R47   R(29,36)                1.4334         estimate D2E/DX2                !
 ! R48   R(30,31)                1.3504         estimate D2E/DX2                !
 ! R49   R(30,56)                1.0846         estimate D2E/DX2                !
 ! R50   R(31,32)                1.4211         estimate D2E/DX2                !
 ! R51   R(32,33)                1.3911         estimate D2E/DX2                !
 ! R52   R(32,37)                1.4375         estimate D2E/DX2                !
 ! R53   R(33,34)                1.3335         estimate D2E/DX2                !
 ! R54   R(33,36)                1.4394         estimate D2E/DX2                !
 ! R55   R(34,35)                1.4609         estimate D2E/DX2                !
 ! R56   R(35,57)                1.0646         estimate D2E/DX2                !
 ! R57   R(35,58)                1.0013         estimate D2E/DX2                !
 ! R58   R(35,59)                1.0964         estimate D2E/DX2                !
 ! R59   R(36,60)                1.0666         estimate D2E/DX2                !
 ! R60   R(37,38)                1.318          estimate D2E/DX2                !
 ! R61   R(37,42)                1.7088         estimate D2E/DX2                !
 ! R62   R(38,39)                1.3074         estimate D2E/DX2                !
 ! R63   R(38,40)                1.477          estimate D2E/DX2                !
 ! R64   R(40,41)                1.3483         estimate D2E/DX2                !
 ! R65   R(40,61)                1.1015         estimate D2E/DX2                !
 ! R66   R(41,42)                1.7367         estimate D2E/DX2                !
 ! R67   R(41,62)                1.1212         estimate D2E/DX2                !
 ! A1    A(2,1,8)              122.2741         estimate D2E/DX2                !
 ! A2    A(2,1,43)             120.6361         estimate D2E/DX2                !
 ! A3    A(8,1,43)             116.9669         estimate D2E/DX2                !
 ! A4    A(1,2,3)              121.3024         estimate D2E/DX2                !
 ! A5    A(1,2,44)             124.7093         estimate D2E/DX2                !
 ! A6    A(3,2,44)             113.9443         estimate D2E/DX2                !
 ! A7    A(2,3,4)              116.0646         estimate D2E/DX2                !
 ! A8    A(3,4,5)              124.9997         estimate D2E/DX2                !
 ! A9    A(3,4,9)              111.1364         estimate D2E/DX2                !
 ! A10   A(5,4,9)              123.8333         estimate D2E/DX2                !
 ! A11   A(4,5,6)              117.9272         estimate D2E/DX2                !
 ! A12   A(4,5,8)              119.4651         estimate D2E/DX2                !
 ! A13   A(6,5,8)              122.6076         estimate D2E/DX2                !
 ! A14   A(5,6,7)              117.4398         estimate D2E/DX2                !
 ! A15   A(6,7,45)             116.5328         estimate D2E/DX2                !
 ! A16   A(6,7,46)             108.0387         estimate D2E/DX2                !
 ! A17   A(6,7,47)             110.9323         estimate D2E/DX2                !
 ! A18   A(45,7,46)            106.7925         estimate D2E/DX2                !
 ! A19   A(45,7,47)            108.2409         estimate D2E/DX2                !
 ! A20   A(46,7,47)            105.6923         estimate D2E/DX2                !
 ! A21   A(1,8,5)              115.8699         estimate D2E/DX2                !
 ! A22   A(1,8,48)             123.2059         estimate D2E/DX2                !
 ! A23   A(5,8,48)             120.8638         estimate D2E/DX2                !
 ! A24   A(4,9,10)             130.1517         estimate D2E/DX2                !
 ! A25   A(4,9,14)             121.825          estimate D2E/DX2                !
 ! A26   A(10,9,14)            107.7879         estimate D2E/DX2                !
 ! A27   A(9,10,11)            121.5411         estimate D2E/DX2                !
 ! A28   A(9,10,12)            117.38           estimate D2E/DX2                !
 ! A29   A(11,10,12)           121.0691         estimate D2E/DX2                !
 ! A30   A(10,12,13)           113.1718         estimate D2E/DX2                !
 ! A31   A(10,12,49)           125.3656         estimate D2E/DX2                !
 ! A32   A(13,12,49)           121.2606         estimate D2E/DX2                !
 ! A33   A(12,13,14)           108.7988         estimate D2E/DX2                !
 ! A34   A(12,13,15)           132.5727         estimate D2E/DX2                !
 ! A35   A(14,13,15)           118.5848         estimate D2E/DX2                !
 ! A36   A(9,14,13)             92.7874         estimate D2E/DX2                !
 ! A37   A(13,15,16)           118.5072         estimate D2E/DX2                !
 ! A38   A(13,15,22)           117.8349         estimate D2E/DX2                !
 ! A39   A(16,15,22)           123.3761         estimate D2E/DX2                !
 ! A40   A(15,16,17)           118.9962         estimate D2E/DX2                !
 ! A41   A(15,16,50)           124.0729         estimate D2E/DX2                !
 ! A42   A(17,16,50)           116.7536         estimate D2E/DX2                !
 ! A43   A(16,17,18)           121.8543         estimate D2E/DX2                !
 ! A44   A(17,18,19)           120.8841         estimate D2E/DX2                !
 ! A45   A(17,18,23)           115.1947         estimate D2E/DX2                !
 ! A46   A(19,18,23)           123.6059         estimate D2E/DX2                !
 ! A47   A(18,19,20)           120.2494         estimate D2E/DX2                !
 ! A48   A(18,19,22)           118.2095         estimate D2E/DX2                !
 ! A49   A(20,19,22)           121.4664         estimate D2E/DX2                !
 ! A50   A(19,20,21)           121.1597         estimate D2E/DX2                !
 ! A51   A(20,21,51)           107.3228         estimate D2E/DX2                !
 ! A52   A(20,21,52)           106.3163         estimate D2E/DX2                !
 ! A53   A(20,21,53)           106.9974         estimate D2E/DX2                !
 ! A54   A(51,21,52)           113.8457         estimate D2E/DX2                !
 ! A55   A(51,21,53)           111.8672         estimate D2E/DX2                !
 ! A56   A(52,21,53)           110.0667         estimate D2E/DX2                !
 ! A57   A(15,22,19)           116.0532         estimate D2E/DX2                !
 ! A58   A(15,22,54)           123.074          estimate D2E/DX2                !
 ! A59   A(19,22,54)           120.6179         estimate D2E/DX2                !
 ! A60   A(18,23,24)           129.6251         estimate D2E/DX2                !
 ! A61   A(18,23,28)           123.1523         estimate D2E/DX2                !
 ! A62   A(24,23,28)           107.1998         estimate D2E/DX2                !
 ! A63   A(23,24,25)           122.3392         estimate D2E/DX2                !
 ! A64   A(23,24,26)           117.1375         estimate D2E/DX2                !
 ! A65   A(25,24,26)           120.4199         estimate D2E/DX2                !
 ! A66   A(24,26,27)           110.0103         estimate D2E/DX2                !
 ! A67   A(24,26,55)           120.25           estimate D2E/DX2                !
 ! A68   A(27,26,55)           129.6776         estimate D2E/DX2                !
 ! A69   A(26,27,28)           114.1236         estimate D2E/DX2                !
 ! A70   A(26,27,29)           127.7807         estimate D2E/DX2                !
 ! A71   A(28,27,29)           118.0954         estimate D2E/DX2                !
 ! A72   A(23,28,27)            91.4181         estimate D2E/DX2                !
 ! A73   A(27,29,30)           123.4947         estimate D2E/DX2                !
 ! A74   A(27,29,36)           119.8756         estimate D2E/DX2                !
 ! A75   A(30,29,36)           116.6197         estimate D2E/DX2                !
 ! A76   A(29,30,31)           129.0103         estimate D2E/DX2                !
 ! A77   A(29,30,56)           118.9998         estimate D2E/DX2                !
 ! A78   A(31,30,56)           111.8857         estimate D2E/DX2                !
 ! A79   A(30,31,32)           115.6653         estimate D2E/DX2                !
 ! A80   A(31,32,33)           120.302          estimate D2E/DX2                !
 ! A81   A(31,32,37)           115.1959         estimate D2E/DX2                !
 ! A82   A(33,32,37)           124.5021         estimate D2E/DX2                !
 ! A83   A(32,33,34)           116.6673         estimate D2E/DX2                !
 ! A84   A(32,33,36)           119.9517         estimate D2E/DX2                !
 ! A85   A(34,33,36)           123.3567         estimate D2E/DX2                !
 ! A86   A(33,34,35)           117.2528         estimate D2E/DX2                !
 ! A87   A(34,35,57)           109.7313         estimate D2E/DX2                !
 ! A88   A(34,35,58)           111.8695         estimate D2E/DX2                !
 ! A89   A(34,35,59)           107.3917         estimate D2E/DX2                !
 ! A90   A(57,35,58)           112.0874         estimate D2E/DX2                !
 ! A91   A(57,35,59)           108.6284         estimate D2E/DX2                !
 ! A92   A(58,35,59)           106.9338         estimate D2E/DX2                !
 ! A93   A(29,36,33)           118.1948         estimate D2E/DX2                !
 ! A94   A(29,36,60)           125.5739         estimate D2E/DX2                !
 ! A95   A(33,36,60)           116.1084         estimate D2E/DX2                !
 ! A96   A(32,37,38)           128.6708         estimate D2E/DX2                !
 ! A97   A(32,37,42)           120.9236         estimate D2E/DX2                !
 ! A98   A(38,37,42)           110.1379         estimate D2E/DX2                !
 ! A99   A(37,38,39)           125.6438         estimate D2E/DX2                !
 ! A100  A(37,38,40)           115.8101         estimate D2E/DX2                !
 ! A101  A(39,38,40)           118.5461         estimate D2E/DX2                !
 ! A102  A(38,40,41)           108.9165         estimate D2E/DX2                !
 ! A103  A(38,40,61)           126.517          estimate D2E/DX2                !
 ! A104  A(41,40,61)           124.2341         estimate D2E/DX2                !
 ! A105  A(40,41,42)           111.9528         estimate D2E/DX2                !
 ! A106  A(40,41,62)           129.3495         estimate D2E/DX2                !
 ! A107  A(42,41,62)           117.8824         estimate D2E/DX2                !
 ! A108  A(37,42,41)            92.5375         estimate D2E/DX2                !
 ! D1    D(8,1,2,3)             -0.0413         estimate D2E/DX2                !
 ! D2    D(8,1,2,44)           177.3965         estimate D2E/DX2                !
 ! D3    D(43,1,2,3)           175.8059         estimate D2E/DX2                !
 ! D4    D(43,1,2,44)           -6.7564         estimate D2E/DX2                !
 ! D5    D(2,1,8,5)              1.0627         estimate D2E/DX2                !
 ! D6    D(2,1,8,48)           178.2521         estimate D2E/DX2                !
 ! D7    D(43,1,8,5)          -174.9285         estimate D2E/DX2                !
 ! D8    D(43,1,8,48)            2.261          estimate D2E/DX2                !
 ! D9    D(1,2,3,4)             -1.2846         estimate D2E/DX2                !
 ! D10   D(44,2,3,4)          -178.9802         estimate D2E/DX2                !
 ! D11   D(2,3,4,5)              1.6403         estimate D2E/DX2                !
 ! D12   D(2,3,4,9)            179.6879         estimate D2E/DX2                !
 ! D13   D(3,4,5,6)            179.3461         estimate D2E/DX2                !
 ! D14   D(3,4,5,8)             -0.6282         estimate D2E/DX2                !
 ! D15   D(9,4,5,6)              1.5386         estimate D2E/DX2                !
 ! D16   D(9,4,5,8)           -178.4358         estimate D2E/DX2                !
 ! D17   D(3,4,9,10)           130.5016         estimate D2E/DX2                !
 ! D18   D(3,4,9,14)           -43.2087         estimate D2E/DX2                !
 ! D19   D(5,4,9,10)           -51.4237         estimate D2E/DX2                !
 ! D20   D(5,4,9,14)           134.8659         estimate D2E/DX2                !
 ! D21   D(4,5,6,7)            160.6475         estimate D2E/DX2                !
 ! D22   D(8,5,6,7)            -19.379          estimate D2E/DX2                !
 ! D23   D(4,5,8,1)             -0.7542         estimate D2E/DX2                !
 ! D24   D(4,5,8,48)          -178.0147         estimate D2E/DX2                !
 ! D25   D(6,5,8,1)            179.2727         estimate D2E/DX2                !
 ! D26   D(6,5,8,48)             2.0122         estimate D2E/DX2                !
 ! D27   D(5,6,7,45)           -54.0532         estimate D2E/DX2                !
 ! D28   D(5,6,7,46)          -174.1998         estimate D2E/DX2                !
 ! D29   D(5,6,7,47)            70.3884         estimate D2E/DX2                !
 ! D30   D(4,9,10,11)            3.94           estimate D2E/DX2                !
 ! D31   D(4,9,10,12)         -177.1884         estimate D2E/DX2                !
 ! D32   D(14,9,10,11)         178.3299         estimate D2E/DX2                !
 ! D33   D(14,9,10,12)          -2.7985         estimate D2E/DX2                !
 ! D34   D(4,9,14,13)          177.417          estimate D2E/DX2                !
 ! D35   D(10,9,14,13)           2.4622         estimate D2E/DX2                !
 ! D36   D(9,10,12,13)           1.5098         estimate D2E/DX2                !
 ! D37   D(9,10,12,49)        -173.3545         estimate D2E/DX2                !
 ! D38   D(11,10,12,13)       -179.6129         estimate D2E/DX2                !
 ! D39   D(11,10,12,49)          5.5228         estimate D2E/DX2                !
 ! D40   D(10,12,13,14)          0.49           estimate D2E/DX2                !
 ! D41   D(10,12,13,15)       -176.9983         estimate D2E/DX2                !
 ! D42   D(49,12,13,14)        175.5912         estimate D2E/DX2                !
 ! D43   D(49,12,13,15)         -1.8971         estimate D2E/DX2                !
 ! D44   D(12,13,14,9)          -1.7756         estimate D2E/DX2                !
 ! D45   D(15,13,14,9)         176.1182         estimate D2E/DX2                !
 ! D46   D(12,13,15,16)       -129.5992         estimate D2E/DX2                !
 ! D47   D(12,13,15,22)         44.5122         estimate D2E/DX2                !
 ! D48   D(14,13,15,16)         53.1088         estimate D2E/DX2                !
 ! D49   D(14,13,15,22)       -132.7798         estimate D2E/DX2                !
 ! D50   D(13,15,16,17)        179.2625         estimate D2E/DX2                !
 ! D51   D(13,15,16,50)         -5.7409         estimate D2E/DX2                !
 ! D52   D(22,15,16,17)          5.4995         estimate D2E/DX2                !
 ! D53   D(22,15,16,50)       -179.5039         estimate D2E/DX2                !
 ! D54   D(13,15,22,19)       -178.665          estimate D2E/DX2                !
 ! D55   D(13,15,22,54)          7.1122         estimate D2E/DX2                !
 ! D56   D(16,15,22,19)         -4.8628         estimate D2E/DX2                !
 ! D57   D(16,15,22,54)       -179.0856         estimate D2E/DX2                !
 ! D58   D(15,16,17,18)         -6.8119         estimate D2E/DX2                !
 ! D59   D(50,16,17,18)        177.8286         estimate D2E/DX2                !
 ! D60   D(16,17,18,19)          7.9666         estimate D2E/DX2                !
 ! D61   D(16,17,18,23)       -178.2563         estimate D2E/DX2                !
 ! D62   D(17,18,19,20)        175.9198         estimate D2E/DX2                !
 ! D63   D(17,18,19,22)         -7.1776         estimate D2E/DX2                !
 ! D64   D(23,18,19,20)          2.6831         estimate D2E/DX2                !
 ! D65   D(23,18,19,22)        179.5857         estimate D2E/DX2                !
 ! D66   D(17,18,23,24)        134.3703         estimate D2E/DX2                !
 ! D67   D(17,18,23,28)        -47.5976         estimate D2E/DX2                !
 ! D68   D(19,18,23,24)        -52.0427         estimate D2E/DX2                !
 ! D69   D(19,18,23,28)        125.9894         estimate D2E/DX2                !
 ! D70   D(18,19,20,21)        161.1898         estimate D2E/DX2                !
 ! D71   D(22,19,20,21)        -15.61           estimate D2E/DX2                !
 ! D72   D(18,19,22,15)          5.5835         estimate D2E/DX2                !
 ! D73   D(18,19,22,54)        179.9587         estimate D2E/DX2                !
 ! D74   D(20,19,22,15)       -177.5535         estimate D2E/DX2                !
 ! D75   D(20,19,22,54)         -3.1783         estimate D2E/DX2                !
 ! D76   D(19,20,21,51)         70.7844         estimate D2E/DX2                !
 ! D77   D(19,20,21,52)       -167.0371         estimate D2E/DX2                !
 ! D78   D(19,20,21,53)        -49.4352         estimate D2E/DX2                !
 ! D79   D(18,23,24,25)         -1.7673         estimate D2E/DX2                !
 ! D80   D(18,23,24,26)       -178.0812         estimate D2E/DX2                !
 ! D81   D(28,23,24,25)        179.9573         estimate D2E/DX2                !
 ! D82   D(28,23,24,26)          3.6434         estimate D2E/DX2                !
 ! D83   D(18,23,28,27)        178.8565         estimate D2E/DX2                !
 ! D84   D(24,23,28,27)         -2.73           estimate D2E/DX2                !
 ! D85   D(23,24,26,27)         -2.7602         estimate D2E/DX2                !
 ! D86   D(23,24,26,55)        179.8392         estimate D2E/DX2                !
 ! D87   D(25,24,26,27)       -179.1488         estimate D2E/DX2                !
 ! D88   D(25,24,26,55)          3.4506         estimate D2E/DX2                !
 ! D89   D(24,26,27,28)          0.3947         estimate D2E/DX2                !
 ! D90   D(24,26,27,29)       -179.7842         estimate D2E/DX2                !
 ! D91   D(55,26,27,28)        177.4769         estimate D2E/DX2                !
 ! D92   D(55,26,27,29)         -2.702          estimate D2E/DX2                !
 ! D93   D(26,27,28,23)          1.3786         estimate D2E/DX2                !
 ! D94   D(29,27,28,23)       -178.4611         estimate D2E/DX2                !
 ! D95   D(26,27,29,30)         43.4021         estimate D2E/DX2                !
 ! D96   D(26,27,29,36)       -135.4113         estimate D2E/DX2                !
 ! D97   D(28,27,29,30)       -136.783          estimate D2E/DX2                !
 ! D98   D(28,27,29,36)         44.4036         estimate D2E/DX2                !
 ! D99   D(27,29,30,31)        178.4417         estimate D2E/DX2                !
 ! D100  D(27,29,30,56)          2.4797         estimate D2E/DX2                !
 ! D101  D(36,29,30,31)         -2.7092         estimate D2E/DX2                !
 ! D102  D(36,29,30,56)       -178.6712         estimate D2E/DX2                !
 ! D103  D(27,29,36,33)        176.6259         estimate D2E/DX2                !
 ! D104  D(27,29,36,60)          0.8252         estimate D2E/DX2                !
 ! D105  D(30,29,36,33)         -2.2673         estimate D2E/DX2                !
 ! D106  D(30,29,36,60)       -178.0679         estimate D2E/DX2                !
 ! D107  D(29,30,31,32)          5.4485         estimate D2E/DX2                !
 ! D108  D(56,30,31,32)       -178.3573         estimate D2E/DX2                !
 ! D109  D(30,31,32,33)         -3.1033         estimate D2E/DX2                !
 ! D110  D(30,31,32,37)        176.8939         estimate D2E/DX2                !
 ! D111  D(31,32,33,34)       -179.5842         estimate D2E/DX2                !
 ! D112  D(31,32,33,36)         -1.3186         estimate D2E/DX2                !
 ! D113  D(37,32,33,34)          0.4189         estimate D2E/DX2                !
 ! D114  D(37,32,33,36)        178.6845         estimate D2E/DX2                !
 ! D115  D(31,32,37,38)        122.8305         estimate D2E/DX2                !
 ! D116  D(31,32,37,42)        -50.6109         estimate D2E/DX2                !
 ! D117  D(33,32,37,38)        -57.1725         estimate D2E/DX2                !
 ! D118  D(33,32,37,42)        129.3862         estimate D2E/DX2                !
 ! D119  D(32,33,34,35)        152.6222         estimate D2E/DX2                !
 ! D120  D(36,33,34,35)        -25.5786         estimate D2E/DX2                !
 ! D121  D(32,33,36,29)          4.0725         estimate D2E/DX2                !
 ! D122  D(32,33,36,60)       -179.7307         estimate D2E/DX2                !
 ! D123  D(34,33,36,29)       -177.7832         estimate D2E/DX2                !
 ! D124  D(34,33,36,60)         -1.5864         estimate D2E/DX2                !
 ! D125  D(33,34,35,57)        -48.927          estimate D2E/DX2                !
 ! D126  D(33,34,35,58)         76.1316         estimate D2E/DX2                !
 ! D127  D(33,34,35,59)       -166.8285         estimate D2E/DX2                !
 ! D128  D(32,37,38,39)          2.1265         estimate D2E/DX2                !
 ! D129  D(32,37,38,40)       -177.938          estimate D2E/DX2                !
 ! D130  D(42,37,38,39)        176.136          estimate D2E/DX2                !
 ! D131  D(42,37,38,40)         -3.9286         estimate D2E/DX2                !
 ! D132  D(32,37,42,41)       -178.9576         estimate D2E/DX2                !
 ! D133  D(38,37,42,41)          6.4928         estimate D2E/DX2                !
 ! D134  D(37,38,40,41)         -1.8064         estimate D2E/DX2                !
 ! D135  D(37,38,40,61)       -175.3738         estimate D2E/DX2                !
 ! D136  D(39,38,40,41)        178.1339         estimate D2E/DX2                !
 ! D137  D(39,38,40,61)          4.5665         estimate D2E/DX2                !
 ! D138  D(38,40,41,42)          6.6282         estimate D2E/DX2                !
 ! D139  D(38,40,41,62)        175.9021         estimate D2E/DX2                !
 ! D140  D(61,40,41,42)       -179.6242         estimate D2E/DX2                !
 ! D141  D(61,40,41,62)        -10.3503         estimate D2E/DX2                !
 ! D142  D(40,41,42,37)         -7.7821         estimate D2E/DX2                !
 ! D143  D(62,41,42,37)       -178.4113         estimate D2E/DX2                !
 --------------------------------------------------------------------------------
 Trust Radius=3.00D-01 FncErr=1.00D-07 GrdErr=1.00D-06 EigMax=2.50D+02 EigMin=1.00D-04
 Number of steps in this run=    328 maximum allowed number of steps=    372.
 GradGradGradGradGradGradGradGradGradGradGradGradGradGradGradGradGradGrad

 Leave Link  103 at Sat Jul 25 03:36:15 2020, MaxMem=  4026531840 cpu:               0.1 elap:               0.0
 (Enter /opt/ohpc/pub/libs/gaussian/g16-A.03/sandybridge/g16/l202.exe)
 Stoichiometry    C30H20F3N3O3S3
 Framework group  C1[X(C30H20F3N3O3S3)]
 Deg. of freedom   180
 Full point group                 C1      NOp   1
 Largest Abelian subgroup         C1      NOp   1
 Largest concise Abelian subgroup C1      NOp   1
                         Standard orientation:                         
 ---------------------------------------------------------------------
 Center     Atomic      Atomic             Coordinates (Angstroms)
 Number     Number       Type             X           Y           Z
 ---------------------------------------------------------------------
      1          6           0       -9.784782   -3.584901    0.126115
      2          6           0       -8.663474   -3.780350   -0.512154
      3          7           0       -7.683726   -2.759911   -0.609672
      4          6           0       -7.986071   -1.615993   -0.047258
      5          6           0       -9.152295   -1.357549    0.644138
      6          8           0       -9.317062   -0.081159    1.199638
      7          6           0      -10.564495    0.300830    1.511779
      8          6           0      -10.095062   -2.340323    0.763659
      9          6           0       -6.881376   -0.629650   -0.208304
     10          6           0       -6.913542    0.700306   -0.656346
     11          9           0       -8.069533    1.313353   -0.952361
     12          6           0       -5.740067    1.347312   -0.756213
     13          6           0       -4.665445    0.567908   -0.423896
     14         16           0       -5.250811   -1.063806    0.015048
     15          6           0       -3.192619    0.854309   -0.325980
     16          6           0       -2.310388    0.007208   -0.974041
     17          7           0       -0.990534    0.262992   -0.905373
     18          6           0       -0.511071    1.393510   -0.338429
     19          6           0       -1.347826    2.255879    0.338457
     20          8           0       -0.858399    3.305688    0.950774
     21          6           0       -1.723618    4.448066    1.322983
     22          6           0       -2.810500    1.997268    0.291087
     23          6           0        0.879674    1.534973   -0.376448
     24          6           0        1.637407    2.624326   -0.711652
     25          9           0        1.055271    3.859681   -1.136957
     26          6           0        3.080470    2.457049   -0.698859
     27          6           0        3.385768    1.259383   -0.297310
     28         16           0        1.991073    0.248605    0.080933
     29          6           0        4.731299    0.676209   -0.134138
     30          6           0        5.746088    1.322921    0.419655
     31          7           0        7.005002    0.891765    0.649519
     32          6           0        7.318533   -0.395126    0.134542
     33          6           0        6.340647   -1.154831   -0.499306
     34          8           0        6.711802   -2.354717   -0.947248
     35          6           0        5.678152   -3.382885   -1.041108
     36          6           0        4.997511   -0.649302   -0.610278
     37          6           0        8.680272   -0.814838    0.323719
     38          6           0        9.132817   -1.892744    0.932315
     39          9           0        8.396558   -2.833518    1.463462
     40          6           0       10.602442   -2.021838    1.003514
     41          6           0       11.164548   -0.975576    0.365409
     42         16           0        9.981675    0.198108   -0.124004
     43          1           0      -10.580088   -4.373397    0.137241
     44          1           0       -8.379083   -4.690599   -0.960677
     45          1           0      -11.314983    0.239529    0.705478
     46          1           0      -10.526290    1.414437    1.852106
     47          1           0      -10.941730   -0.260551    2.375378
     48          1           0      -10.991246   -2.160647    1.251564
     49          1           0       -5.617676    2.433750   -0.995585
     50          1           0       -2.590814   -0.862660   -1.454069
     51          1           0       -2.353249    4.123016    2.121336
     52          1           0       -1.082142    5.229282    1.582801
     53          1           0       -2.311156    4.721190    0.415539
     54          1           0       -3.511414    2.657182    0.815397
     55          1           0        3.715780    3.269734   -0.953351
     56          1           0        5.582243    2.320384    0.812812
     57          1           0        5.129557   -3.425254   -0.129758
     58          1           0        5.082129   -3.241339   -1.833103
     59          1           0        6.184432   -4.343927   -1.190137
     60          1           0        4.296430   -1.283856   -1.103634
     61          1           0       11.166467   -2.878539    1.404964
     62          1           0       12.247262   -0.701632    0.266243
 ---------------------------------------------------------------------
 Rotational constants (GHZ):           0.1806883           0.0180559           0.0167946
 Leave Link  202 at Sat Jul 25 03:36:15 2020, MaxMem=  4026531840 cpu:               0.1 elap:               0.0
 (Enter /opt/ohpc/pub/libs/gaussian/g16-A.03/sandybridge/g16/l301.exe)
 Standard basis: CC-pVDZ (5D, 7F)
 Ernie: Thresh=  0.10000D-02 Tol=  0.10000D-05 Strict=F.
 Ernie:  108 primitive shells out of 1108 were deleted.
 There are   742 symmetry adapted cartesian basis functions of A   symmetry.
 There are   700 symmetry adapted basis functions of A   symmetry.
   700 basis functions,  1640 primitive gaussians,   742 cartesian basis functions
   160 alpha electrons      160 beta electrons
       nuclear repulsion energy      4851.7074685632 Hartrees.
 IExCor=32609 DFT=T Ex+Corr=LC-wPBE ExCW=0 ScaHFX=  1.000000
 ScaDFX=  1.000000  0.000000  1.000000  1.000000 ScalE2=  1.000000  1.000000
 IRadAn=      5 IRanWt=     -1 IRanGd=            0 ICorTp=0 IEmpDi=  4
 HFx  wShort=  0.000000 wLong=  0.442400 cFull=  0.000000 cShort=  0.000000 cLong=  1.000000
 DFx  wShort=  0.000000 wLong=  0.442400 cFull=  0.000000 cShort=  0.000000 cLong=  1.000000
 NAtoms=   62 NActive=   62 NUniq=   62 SFac= 1.00D+00 NAtFMM=   60 NAOKFM=T Big=T
 Integral buffers will be    131072 words long.
 Raffenetti 2 integral format.
 Two-electron integral symmetry is turned on.
 Leave Link  301 at Sat Jul 25 03:36:16 2020, MaxMem=  4026531840 cpu:               0.4 elap:               0.1
 (Enter /opt/ohpc/pub/libs/gaussian/g16-A.03/sandybridge/g16/l302.exe)
 NPDir=0 NMtPBC=     1 NCelOv=     1 NCel=       1 NClECP=     1 NCelD=      1
         NCelK=      1 NCelE2=     1 NClLst=     1 CellRange=     0.0.
 One-electron integrals computed using PRISM.
 One-electron integral symmetry used in STVInt
 NBasis=   700 RedAO= T EigKep=  4.01D-04  NBF=   700
 NBsUse=   700 1.00D-06 EigRej= -1.00D+00 NBFU=   700
 Precomputing XC quadrature grid using
 IXCGrd= 4 IRadAn=           5 IRanWt=          -1 IRanGd=           0 AccXCQ= 0.00D+00.
 Generated NRdTot=       0 NPtTot=           0 NUsed=           0 NTot=          32
 NSgBfM=   638   638   638   638   638 MxSgAt=    62 MxSgA2=    62.
 Leave Link  302 at Sat Jul 25 03:36:17 2020, MaxMem=  4026531840 cpu:              13.3 elap:               1.7
 (Enter /opt/ohpc/pub/libs/gaussian/g16-A.03/sandybridge/g16/l303.exe)
 DipDrv:  MaxL=1.
 Leave Link  303 at Sat Jul 25 03:36:17 2020, MaxMem=  4026531840 cpu:               1.0 elap:               0.2
 (Enter /opt/ohpc/pub/libs/gaussian/g16-A.03/sandybridge/g16/l401.exe)
 ExpMin= 1.22D-01 ExpMax= 1.11D+05 ExpMxC= 1.07D+03 IAcc=3 IRadAn=         5 AccDes= 0.00D+00
 Harris functional with IExCor=32609 and IRadAn=       5 diagonalized for initial guess.
 HarFok:  IExCor=32609 AccDes= 0.00D+00 IRadAn=         5 IDoV= 1 UseB2=F ITyADJ=14
 ICtDFT=  3500011 ScaDFX=  1.000000  1.000000  1.000000  1.000000
 FoFCou: FMM=F IPFlag=           0 FMFlag=      100000 FMFlg1=        2001
         NFxFlg=           0 DoJE=T BraDBF=F KetDBF=T FulRan=T
         wScrn=  0.000000 ICntrl=       500 IOpCl=  0 I1Cent=   200000004 NGrid=           0
         NMat0=    1 NMatS0=      1 NMatT0=    0 NMatD0=    1 NMtDS0=    0 NMtDT0=    0
 Petite list used in FoFCou.
 Harris En= -3037.09985325017    
 JPrj=0 DoOrth=F DoCkMO=F.
 Initial guess <Sx>= 0.0000 <Sy>= 0.0000 <Sz>= 0.0000 <S**2>=-0.0000 S=-0.0000
 Leave Link  401 at Sat Jul 25 03:36:24 2020, MaxMem=  4026531840 cpu:              55.1 elap:               6.9
 (Enter /opt/ohpc/pub/libs/gaussian/g16-A.03/sandybridge/g16/l502.exe)
 Integral symmetry usage will be decided dynamically.
 UHF open shell SCF:
 Using DIIS extrapolation, IDIIS=  1040.
 NGot=  4026531840 LenX=  4025417212 LenY=  4024865906
 Requested convergence on RMS density matrix=1.00D-08 within 128 cycles.
 Requested convergence on MAX density matrix=1.00D-06.
 Requested convergence on             energy=1.00D-06.
 No special actions if energy rises.
 Fock matrices will be formed incrementally for  20 cycles.
 Integral accuracy reduced to 1.0D-05 until final iterations.

 Cycle   1  Pass 0  IDiag  1:
 FoFJK:  IHMeth= 1 ICntrl=       0 DoSepK=T KAlg= 0 I1Cent=           0 FoldK=F
 IRaf=         1 NMat=       1 IRICut=       1 DoRegI=T DoRafI=F ISym2E= 0 IDoP0=0 IntGTp=1.
 FoFCou: FMM=T IPFlag=           0 FMFlag=      100000 FMFlg1=        2001
         NFxFlg=           0 DoJE=T BraDBF=F KetDBF=F FulRan=T
         wScrn=  0.000000 ICntrl=       500 IOpCl=  0 I1Cent=           0 NGrid=           0
         NMat0=    1 NMatS0=      1 NMatT0=    0 NMatD0=    1 NMtDS0=    0 NMtDT0=    0
 Symmetry not used in FoFCou.
 FMM levels:  10  Number of levels for PrismC:   9
 E= -3036.85448714106    
 DIIS: error= 1.36D-02 at cycle   1 NSaved=   1.
 NSaved= 1 IEnMin= 1 EnMin= -3036.85448714106     IErMin= 1 ErrMin= 1.36D-02
 ErrMax= 1.36D-02  0.00D+00 EMaxC= 1.00D-01 BMatC= 2.63D+00 BMatP= 2.63D+00
 IDIUse=3 WtCom= 8.64D-01 WtEn= 1.36D-01
 Coeff-Com:  0.100D+01
 Coeff-En:   0.100D+01
 Coeff:      0.100D+01
 Gap=     0.374 Goal=   None    Shift=    0.000
 Gap=     0.374 Goal=   None    Shift=    0.000
 GapD=    0.374 DampG=1.000 DampE=0.500 DampFc=0.5000 IDamp=-1.
 Damping current iteration by 5.00D-01
 RMSDP=2.25D-03 MaxDP=1.24D-01              OVMax= 1.61D-01

 Cycle   2  Pass 0  IDiag  1:
 RMSU=  1.12D-03    CP:  9.90D-01
 E= -3037.24375528315     Delta-E=       -0.389268142095 Rises=F Damp=T
 DIIS: error= 4.46D-03 at cycle   2 NSaved=   2.
 NSaved= 2 IEnMin= 2 EnMin= -3037.24375528315     IErMin= 2 ErrMin= 4.46D-03
 ErrMax= 4.46D-03  0.00D+00 EMaxC= 1.00D-01 BMatC= 1.94D-01 BMatP= 2.63D+00
 IDIUse=3 WtCom= 9.55D-01 WtEn= 4.46D-02
 Coeff-Com: -0.184D+00 0.118D+01
 Coeff-En:   0.000D+00 0.100D+01
 Coeff:     -0.176D+00 0.118D+01
 Gap=     0.325 Goal=   None    Shift=    0.000
 Gap=     0.325 Goal=   None    Shift=    0.000
 RMSDP=7.88D-04 MaxDP=2.60D-02 DE=-3.89D-01 OVMax= 7.60D-02

 Cycle   3  Pass 0  IDiag  1:
 RMSU=  6.53D-04    CP:  9.82D-01  1.38D+00
 E= -3037.58551663115     Delta-E=       -0.341761347999 Rises=F Damp=F
 DIIS: error= 1.87D-03 at cycle   3 NSaved=   3.
 NSaved= 3 IEnMin= 3 EnMin= -3037.58551663115     IErMin= 3 ErrMin= 1.87D-03
 ErrMax= 1.87D-03  0.00D+00 EMaxC= 1.00D-01 BMatC= 3.33D-02 BMatP= 1.94D-01
 IDIUse=3 WtCom= 9.81D-01 WtEn= 1.87D-02
 Coeff-Com: -0.788D-01 0.341D+00 0.737D+00
 Coeff-En:   0.000D+00 0.000D+00 0.100D+01
 Coeff:     -0.773D-01 0.335D+00 0.742D+00
 Gap=     0.314 Goal=   None    Shift=    0.000
 Gap=     0.314 Goal=   None    Shift=    0.000
 RMSDP=2.10D-04 MaxDP=1.16D-02 DE=-3.42D-01 OVMax= 2.62D-02

 Cycle   4  Pass 0  IDiag  1:
 RMSU=  1.91D-04    CP:  9.81D-01  1.43D+00  8.93D-01
 E= -3037.59397861256     Delta-E=       -0.008461981409 Rises=F Damp=F
 DIIS: error= 1.02D-03 at cycle   4 NSaved=   4.
 NSaved= 4 IEnMin= 4 EnMin= -3037.59397861256     IErMin= 4 ErrMin= 1.02D-03
 ErrMax= 1.02D-03  0.00D+00 EMaxC= 1.00D-01 BMatC= 8.75D-03 BMatP= 3.33D-02
 IDIUse=3 WtCom= 9.90D-01 WtEn= 1.02D-02
 Coeff-Com: -0.529D-02 0.296D-02 0.323D+00 0.679D+00
 Coeff-En:   0.000D+00 0.000D+00 0.000D+00 0.100D+01
 Coeff:     -0.523D-02 0.293D-02 0.320D+00 0.683D+00
 Gap=     0.315 Goal=   None    Shift=    0.000
 Gap=     0.315 Goal=   None    Shift=    0.000
 RMSDP=8.95D-05 MaxDP=6.64D-03 DE=-8.46D-03 OVMax= 1.04D-02

 Cycle   5  Pass 0  IDiag  1:
 RMSU=  6.67D-05    CP:  9.81D-01  1.44D+00  9.76D-01  8.78D-01
 E= -3037.59662037201     Delta-E=       -0.002641759453 Rises=F Damp=F
 DIIS: error= 3.16D-04 at cycle   5 NSaved=   5.
 NSaved= 5 IEnMin= 5 EnMin= -3037.59662037201     IErMin= 5 ErrMin= 3.16D-04
 ErrMax= 3.16D-04  0.00D+00 EMaxC= 1.00D-01 BMatC= 9.03D-04 BMatP= 8.75D-03
 IDIUse=3 WtCom= 9.97D-01 WtEn= 3.16D-03
 Coeff-Com:  0.113D-01-0.470D-01 0.210D-01 0.233D+00 0.782D+00
 Coeff-En:   0.000D+00 0.000D+00 0.000D+00 0.000D+00 0.100D+01
 Coeff:      0.113D-01-0.469D-01 0.210D-01 0.232D+00 0.782D+00
 Gap=     0.316 Goal=   None    Shift=    0.000
 Gap=     0.316 Goal=   None    Shift=    0.000
 RMSDP=4.08D-05 MaxDP=2.05D-03 DE=-2.64D-03 OVMax= 6.19D-03

 Cycle   6  Pass 0  IDiag  1:
 RMSU=  3.00D-05    CP:  9.81D-01  1.44D+00  9.98D-01  1.00D+00  1.05D+00
 E= -3037.59707561706     Delta-E=       -0.000455245050 Rises=F Damp=F
 DIIS: error= 1.13D-04 at cycle   6 NSaved=   6.
 NSaved= 6 IEnMin= 6 EnMin= -3037.59707561706     IErMin= 6 ErrMin= 1.13D-04
 ErrMax= 1.13D-04  0.00D+00 EMaxC= 1.00D-01 BMatC= 1.64D-04 BMatP= 9.03D-04
 IDIUse=3 WtCom= 9.99D-01 WtEn= 1.13D-03
 Coeff-Com:  0.576D-02-0.184D-01-0.466D-01-0.463D-01 0.230D+00 0.876D+00
 Coeff-En:   0.000D+00 0.000D+00 0.000D+00 0.000D+00 0.000D+00 0.100D+01
 Coeff:      0.575D-02-0.184D-01-0.465D-01-0.463D-01 0.229D+00 0.876D+00
 Gap=     0.317 Goal=   None    Shift=    0.000
 Gap=     0.317 Goal=   None    Shift=    0.000
 RMSDP=2.33D-05 MaxDP=1.47D-03 DE=-4.55D-04 OVMax= 4.10D-03

 Cycle   7  Pass 0  IDiag  1:
 RMSU=  1.34D-05    CP:  9.81D-01  1.44D+00  1.01D+00  1.05D+00  1.26D+00
                    CP:  1.17D+00
 E= -3037.59720836921     Delta-E=       -0.000132752148 Rises=F Damp=F
 DIIS: error= 7.36D-05 at cycle   7 NSaved=   7.
 NSaved= 7 IEnMin= 7 EnMin= -3037.59720836921     IErMin= 7 ErrMin= 7.36D-05
 ErrMax= 7.36D-05  0.00D+00 EMaxC= 1.00D-01 BMatC= 3.47D-05 BMatP= 1.64D-04
 IDIUse=1 WtCom= 1.00D+00 WtEn= 0.00D+00
 Coeff-Com: -0.376D-03 0.377D-02-0.142D-01-0.600D-01-0.114D+00 0.252D+00
 Coeff-Com:  0.934D+00
 Coeff:     -0.376D-03 0.377D-02-0.142D-01-0.600D-01-0.114D+00 0.252D+00
 Coeff:      0.934D+00
 Gap=     0.317 Goal=   None    Shift=    0.000
 Gap=     0.317 Goal=   None    Shift=    0.000
 RMSDP=1.41D-05 MaxDP=7.39D-04 DE=-1.33D-04 OVMax= 2.26D-03

 Cycle   8  Pass 0  IDiag  1:
 RMSU=  7.35D-06    CP:  9.81D-01  1.44D+00  1.01D+00  1.07D+00  1.34D+00
                    CP:  1.47D+00  1.30D+00
 E= -3037.59723892262     Delta-E=       -0.000030553406 Rises=F Damp=F
 DIIS: error= 2.23D-05 at cycle   8 NSaved=   8.
 NSaved= 8 IEnMin= 8 EnMin= -3037.59723892262     IErMin= 8 ErrMin= 2.23D-05
 ErrMax= 2.23D-05  0.00D+00 EMaxC= 1.00D-01 BMatC= 6.75D-06 BMatP= 3.47D-05
 IDIUse=1 WtCom= 1.00D+00 WtEn= 0.00D+00
 Coeff-Com: -0.967D-03 0.421D-02 0.369D-02-0.131D-01-0.828D-01-0.646D-01
 Coeff-Com:  0.320D+00 0.833D+00
 Coeff:     -0.967D-03 0.421D-02 0.369D-02-0.131D-01-0.828D-01-0.646D-01
 Coeff:      0.320D+00 0.833D+00
 Gap=     0.317 Goal=   None    Shift=    0.000
 Gap=     0.317 Goal=   None    Shift=    0.000
 RMSDP=8.27D-06 MaxDP=3.09D-04 DE=-3.06D-05 OVMax= 7.88D-04

 Initial convergence to 1.0D-05 achieved.  Increase integral accuracy.
 Cycle   9  Pass 1  IDiag  1:
 E= -3037.59671090863     Delta-E=        0.000528013992 Rises=F Damp=F
 DIIS: error= 1.92D-04 at cycle   1 NSaved=   1.
 NSaved= 1 IEnMin= 1 EnMin= -3037.59671090863     IErMin= 1 ErrMin= 1.92D-04
 ErrMax= 1.92D-04  0.00D+00 EMaxC= 1.00D-01 BMatC= 9.42D-05 BMatP= 9.42D-05
 IDIUse=3 WtCom= 9.98D-01 WtEn= 1.92D-03
 Coeff-Com:  0.100D+01
 Coeff-En:   0.100D+01
 Coeff:      0.100D+01
 Gap=     0.317 Goal=   None    Shift=    0.000
 Gap=     0.317 Goal=   None    Shift=    0.000
 RMSDP=8.27D-06 MaxDP=3.09D-04 DE= 5.28D-04 OVMax= 4.64D-04

 Cycle  10  Pass 1  IDiag  1:
 RMSU=  1.20D-04    CP:  1.00D+00
 E= -3037.59673047063     Delta-E=       -0.000019562006 Rises=F Damp=F
 DIIS: error= 1.04D-05 at cycle   2 NSaved=   2.
 NSaved= 2 IEnMin= 2 EnMin= -3037.59673047063     IErMin= 2 ErrMin= 1.04D-05
 ErrMax= 1.04D-05  0.00D+00 EMaxC= 1.00D-01 BMatC= 7.18D-07 BMatP= 9.42D-05
 IDIUse=1 WtCom= 1.00D+00 WtEn= 0.00D+00
 Coeff-Com: -0.276D-01 0.103D+01
 Coeff:     -0.276D-01 0.103D+01
 Gap=     0.317 Goal=   None    Shift=    0.000
 Gap=     0.317 Goal=   None    Shift=    0.000
 RMSDP=6.35D-06 MaxDP=2.77D-04 DE=-1.96D-05 OVMax= 1.31D-04

 Cycle  11  Pass 1  IDiag  1:
 RMSU=  2.14D-06    CP:  1.00D+00  1.05D+00
 E= -3037.59673060636     Delta-E=       -0.000000135728 Rises=F Damp=F
 DIIS: error= 1.25D-05 at cycle   3 NSaved=   3.
 NSaved= 3 IEnMin= 3 EnMin= -3037.59673060636     IErMin= 2 ErrMin= 1.04D-05
 ErrMax= 1.25D-05  0.00D+00 EMaxC= 1.00D-01 BMatC= 6.74D-07 BMatP= 7.18D-07
 IDIUse=1 WtCom= 1.00D+00 WtEn= 0.00D+00
 Coeff-Com: -0.202D-01 0.522D+00 0.498D+00
 Coeff:     -0.202D-01 0.522D+00 0.498D+00
 Gap=     0.317 Goal=   None    Shift=    0.000
 Gap=     0.317 Goal=   None    Shift=    0.000
 RMSDP=6.49D-07 MaxDP=3.93D-05 DE=-1.36D-07 OVMax= 7.32D-05

 Cycle  12  Pass 1  IDiag  1:
 RMSU=  6.19D-07    CP:  1.00D+00  1.05D+00  9.61D-01
 E= -3037.59673077247     Delta-E=       -0.000000166111 Rises=F Damp=F
 DIIS: error= 1.87D-06 at cycle   4 NSaved=   4.
 NSaved= 4 IEnMin= 4 EnMin= -3037.59673077247     IErMin= 4 ErrMin= 1.87D-06
 ErrMax= 1.87D-06  0.00D+00 EMaxC= 1.00D-01 BMatC= 2.10D-08 BMatP= 6.74D-07
 IDIUse=1 WtCom= 1.00D+00 WtEn= 0.00D+00
 Coeff-Com:  0.318D-02-0.111D+00-0.175D-01 0.113D+01
 Coeff:      0.318D-02-0.111D+00-0.175D-01 0.113D+01
 Gap=     0.317 Goal=   None    Shift=    0.000
 Gap=     0.317 Goal=   None    Shift=    0.000
 RMSDP=3.76D-07 MaxDP=2.23D-05 DE=-1.66D-07 OVMax= 5.25D-05

 Cycle  13  Pass 1  IDiag  1:
 RMSU=  2.61D-07    CP:  1.00D+00  1.05D+00  1.06D+00  1.19D+00
 E= -3037.59673079514     Delta-E=       -0.000000022666 Rises=F Damp=F
 DIIS: error= 9.29D-07 at cycle   5 NSaved=   5.
 NSaved= 5 IEnMin= 5 EnMin= -3037.59673079514     IErMin= 5 ErrMin= 9.29D-07
 ErrMax= 9.29D-07  0.00D+00 EMaxC= 1.00D-01 BMatC= 7.18D-09 BMatP= 2.10D-08
 IDIUse=1 WtCom= 1.00D+00 WtEn= 0.00D+00
 Coeff-Com:  0.565D-02-0.156D+00-0.121D+00 0.371D+00 0.899D+00
 Coeff:      0.565D-02-0.156D+00-0.121D+00 0.371D+00 0.899D+00
 Gap=     0.317 Goal=   None    Shift=    0.000
 Gap=     0.317 Goal=   None    Shift=    0.000
 RMSDP=2.01D-07 MaxDP=1.18D-05 DE=-2.27D-08 OVMax= 3.64D-05

 Cycle  14  Pass 1  IDiag  1:
 RMSU=  1.07D-07    CP:  1.00D+00  1.05D+00  1.09D+00  1.33D+00  1.48D+00
 E= -3037.59673080327     Delta-E=       -0.000000008135 Rises=F Damp=F
 DIIS: error= 4.62D-07 at cycle   6 NSaved=   6.
 NSaved= 6 IEnMin= 6 EnMin= -3037.59673080327     IErMin= 6 ErrMin= 4.62D-07
 ErrMax= 4.62D-07  0.00D+00 EMaxC= 1.00D-01 BMatC= 1.42D-09 BMatP= 7.18D-09
 IDIUse=1 WtCom= 1.00D+00 WtEn= 0.00D+00
 Coeff-Com:  0.543D-03-0.916D-02-0.245D-01-0.202D+00 0.243D+00 0.992D+00
 Coeff:      0.543D-03-0.916D-02-0.245D-01-0.202D+00 0.243D+00 0.992D+00
 Gap=     0.317 Goal=   None    Shift=    0.000
 Gap=     0.317 Goal=   None    Shift=    0.000
 RMSDP=1.04D-07 MaxDP=6.02D-06 DE=-8.14D-09 OVMax= 1.76D-05

 Cycle  15  Pass 1  IDiag  1:
 RMSU=  4.20D-08    CP:  1.00D+00  1.05D+00  1.09D+00  1.36D+00  1.82D+00
                    CP:  1.19D+00
 E= -3037.59673080477     Delta-E=       -0.000000001492 Rises=F Damp=F
 DIIS: error= 2.36D-07 at cycle   7 NSaved=   7.
 NSaved= 7 IEnMin= 7 EnMin= -3037.59673080477     IErMin= 7 ErrMin= 2.36D-07
 ErrMax= 2.36D-07  0.00D+00 EMaxC= 1.00D-01 BMatC= 3.27D-10 BMatP= 1.42D-09
 IDIUse=1 WtCom= 1.00D+00 WtEn= 0.00D+00
 Coeff-Com: -0.537D-03 0.176D-01 0.537D-02-0.153D+00-0.310D-02 0.481D+00
 Coeff-Com:  0.653D+00
 Coeff:     -0.537D-03 0.176D-01 0.537D-02-0.153D+00-0.310D-02 0.481D+00
 Coeff:      0.653D+00
 Gap=     0.317 Goal=   None    Shift=    0.000
 Gap=     0.317 Goal=   None    Shift=    0.000
 RMSDP=2.74D-08 MaxDP=1.61D-06 DE=-1.49D-09 OVMax= 5.17D-06

 Cycle  16  Pass 1  IDiag  1:
 RMSU=  1.63D-08    CP:  1.00D+00  1.05D+00  1.09D+00  1.37D+00  1.89D+00
                    CP:  1.29D+00  1.03D+00
 E= -3037.59673080492     Delta-E=       -0.000000000151 Rises=F Damp=F
 DIIS: error= 6.95D-08 at cycle   8 NSaved=   8.
 NSaved= 8 IEnMin= 8 EnMin= -3037.59673080492     IErMin= 8 ErrMin= 6.95D-08
 ErrMax= 6.95D-08  0.00D+00 EMaxC= 1.00D-01 BMatC= 2.49D-11 BMatP= 3.27D-10
 IDIUse=1 WtCom= 1.00D+00 WtEn= 0.00D+00
 Coeff-Com: -0.131D-03 0.332D-02 0.355D-02 0.606D-03-0.262D-01-0.554D-01
 Coeff-Com:  0.904D-01 0.984D+00
 Coeff:     -0.131D-03 0.332D-02 0.355D-02 0.606D-03-0.262D-01-0.554D-01
 Coeff:      0.904D-01 0.984D+00
 Gap=     0.317 Goal=   None    Shift=    0.000
 Gap=     0.317 Goal=   None    Shift=    0.000
 RMSDP=1.15D-08 MaxDP=5.08D-07 DE=-1.51D-10 OVMax= 2.28D-06

 Cycle  17  Pass 1  IDiag  1:
 RMSU=  6.54D-09    CP:  1.00D+00  1.05D+00  1.09D+00  1.37D+00  1.91D+00
                    CP:  1.32D+00  1.19D+00  1.26D+00
 E= -3037.59673080505     Delta-E=       -0.000000000136 Rises=F Damp=F
 DIIS: error= 4.06D-08 at cycle   9 NSaved=   9.
 NSaved= 9 IEnMin= 9 EnMin= -3037.59673080505     IErMin= 9 ErrMin= 4.06D-08
 ErrMax= 4.06D-08  0.00D+00 EMaxC= 1.00D-01 BMatC= 8.18D-12 BMatP= 2.49D-11
 IDIUse=1 WtCom= 1.00D+00 WtEn= 0.00D+00
 Coeff-Com:  0.120D-03-0.429D-02-0.368D-03 0.477D-01-0.474D-02-0.170D+00
 Coeff-Com: -0.163D+00 0.379D+00 0.915D+00
 Coeff:      0.120D-03-0.429D-02-0.368D-03 0.477D-01-0.474D-02-0.170D+00
 Coeff:     -0.163D+00 0.379D+00 0.915D+00
 Gap=     0.317 Goal=   None    Shift=    0.000
 Gap=     0.317 Goal=   None    Shift=    0.000
 RMSDP=6.83D-09 MaxDP=3.80D-07 DE=-1.36D-10 OVMax= 1.50D-06

 SCF Done:  E(ULC-wPBE) =  -3037.59673081     A.U. after   17 cycles
            NFock= 17  Conv=0.68D-08     -V/T= 2.0046
 <Sx>= 0.0000 <Sy>= 0.0000 <Sz>= 0.0000 <S**2>=-0.0000 S=-0.0000
 <L.S>= 0.000000000000E+00
 KE= 3.023690223025D+03 PE=-1.685050455444D+04 EE= 5.937510132051D+03
 Annihilation of the first spin contaminant:
 S**2 before annihilation    -0.0000,   after     0.0000
 Leave Link  502 at Sat Jul 25 03:43:29 2020, MaxMem=  4026531840 cpu:            3328.5 elap:             424.4
 (Enter /opt/ohpc/pub/libs/gaussian/g16-A.03/sandybridge/g16/l601.exe)
 Copying SCF densities to generalized density rwf, IOpCl= 1 IROHF=0.

 **********************************************************************

            Population analysis using the SCF density.

 **********************************************************************

 Orbital symmetries:
 Alpha Orbitals:
       Occupied  (A) (A) (A) (A) (A) (A) (A) (A) (A) (A) (A) (A)
                 (A) (A) (A) (A) (A) (A) (A) (A) (A) (A) (A) (A)
                 (A) (A) (A) (A) (A) (A) (A) (A) (A) (A) (A) (A)
                 (A) (A) (A) (A) (A) (A) (A) (A) (A) (A) (A) (A)
                 (A) (A) (A) (A) (A) (A) (A) (A) (A) (A) (A) (A)
                 (A) (A) (A) (A) (A) (A) (A) (A) (A) (A) (A) (A)
                 (A) (A) (A) (A) (A) (A) (A) (A) (A) (A) (A) (A)
                 (A) (A) (A) (A) (A) (A) (A) (A) (A) (A) (A) (A)
                 (A) (A) (A) (A) (A) (A) (A) (A) (A) (A) (A) (A)
                 (A) (A) (A) (A) (A) (A) (A) (A) (A) (A) (A) (A)
                 (A) (A) (A) (A) (A) (A) (A) (A) (A) (A) (A) (A)
                 (A) (A) (A) (A) (A) (A) (A) (A) (A) (A) (A) (A)
                 (A) (A) (A) (A) (A) (A) (A) (A) (A) (A) (A) (A)
                 (A) (A) (A) (A)
       Virtual   (A) (A) (A) (A) (A) (A) (A) (A) (A) (A) (A) (A)
                 (A) (A) (A) (A) (A) (A) (A) (A) (A) (A) (A) (A)
                 (A) (A) (A) (A) (A) (A) (A) (A) (A) (A) (A) (A)
                 (A) (A) (A) (A) (A) (A) (A) (A) (A) (A) (A) (A)
                 (A) (A) (A) (A) (A) (A) (A) (A) (A) (A) (A) (A)
                 (A) (A) (A) (A) (A) (A) (A) (A) (A) (A) (A) (A)
                 (A) (A) (A) (A) (A) (A) (A) (A) (A) (A) (A) (A)
                 (A) (A) (A) (A) (A) (A) (A) (A) (A) (A) (A) (A)
                 (A) (A) (A) (A) (A) (A) (A) (A) (A) (A) (A) (A)
                 (A) (A) (A) (A) (A) (A) (A) (A) (A) (A) (A) (A)
                 (A) (A) (A) (A) (A) (A) (A) (A) (A) (A) (A) (A)
                 (A) (A) (A) (A) (A) (A) (A) (A) (A) (A) (A) (A)
                 (A) (A) (A) (A) (A) (A) (A) (A) (A) (A) (A) (A)
                 (A) (A) (A) (A) (A) (A) (A) (A) (A) (A) (A) (A)
                 (A) (A) (A) (A) (A) (A) (A) (A) (A) (A) (A) (A)
                 (A) (A) (A) (A) (A) (A) (A) (A) (A) (A) (A) (A)
                 (A) (A) (A) (A) (A) (A) (A) (A) (A) (A) (A) (A)
                 (A) (A) (A) (A) (A) (A) (A) (A) (A) (A) (A) (A)
                 (A) (A) (A) (A) (A) (A) (A) (A) (A) (A) (A) (A)
                 (A) (A) (A) (A) (A) (A) (A) (A) (A) (A) (A) (A)
                 (A) (A) (A) (A) (A) (A) (A) (A) (A) (A) (A) (A)
                 (A) (A) (A) (A) (A) (A) (A) (A) (A) (A) (A) (A)
                 (A) (A) (A) (A) (A) (A) (A) (A) (A) (A) (A) (A)
                 (A) (A) (A) (A) (A) (A) (A) (A) (A) (A) (A) (A)
                 (A) (A) (A) (A) (A) (A) (A) (A) (A) (A) (A) (A)
                 (A) (A) (A) (A) (A) (A) (A) (A) (A) (A) (A) (A)
                 (A) (A) (A) (A) (A) (A) (A) (A) (A) (A) (A) (A)
                 (A) (A) (A) (A) (A) (A) (A) (A) (A) (A) (A) (A)
                 (A) (A) (A) (A) (A) (A) (A) (A) (A) (A) (A) (A)
                 (A) (A) (A) (A) (A) (A) (A) (A) (A) (A) (A) (A)
                 (A) (A) (A) (A) (A) (A) (A) (A) (A) (A) (A) (A)
                 (A) (A) (A) (A) (A) (A) (A) (A) (A) (A) (A) (A)
                 (A) (A) (A) (A) (A) (A) (A) (A) (A) (A) (A) (A)
                 (A) (A) (A) (A) (A) (A) (A) (A) (A) (A) (A) (A)
                 (A) (A) (A) (A) (A) (A) (A) (A) (A) (A) (A) (A)
                 (A) (A) (A) (A) (A) (A) (A) (A) (A) (A) (A) (A)
                 (A) (A) (A) (A) (A) (A) (A) (A) (A) (A) (A) (A)
                 (A) (A) (A) (A) (A) (A) (A) (A) (A) (A) (A) (A)
                 (A) (A) (A) (A) (A) (A) (A) (A) (A) (A) (A) (A)
                 (A) (A) (A) (A) (A) (A) (A) (A) (A) (A) (A) (A)
                 (A) (A) (A) (A) (A) (A) (A) (A) (A) (A) (A) (A)
                 (A) (A) (A) (A) (A) (A) (A) (A) (A) (A) (A) (A)
                 (A) (A) (A) (A) (A) (A) (A) (A) (A) (A) (A) (A)
                 (A) (A) (A) (A) (A) (A) (A) (A) (A) (A) (A) (A)
                 (A) (A) (A) (A) (A) (A) (A) (A) (A) (A) (A) (A)
 Beta  Orbitals:
       Occupied  (A) (A) (A) (A) (A) (A) (A) (A) (A) (A) (A) (A)
                 (A) (A) (A) (A) (A) (A) (A) (A) (A) (A) (A) (A)
                 (A) (A) (A) (A) (A) (A) (A) (A) (A) (A) (A) (A)
                 (A) (A) (A) (A) (A) (A) (A) (A) (A) (A) (A) (A)
                 (A) (A) (A) (A) (A) (A) (A) (A) (A) (A) (A) (A)
                 (A) (A) (A) (A) (A) (A) (A) (A) (A) (A) (A) (A)
                 (A) (A) (A) (A) (A) (A) (A) (A) (A) (A) (A) (A)
                 (A) (A) (A) (A) (A) (A) (A) (A) (A) (A) (A) (A)
                 (A) (A) (A) (A) (A) (A) (A) (A) (A) (A) (A) (A)
                 (A) (A) (A) (A) (A) (A) (A) (A) (A) (A) (A) (A)
                 (A) (A) (A) (A) (A) (A) (A) (A) (A) (A) (A) (A)
                 (A) (A) (A) (A) (A) (A) (A) (A) (A) (A) (A) (A)
                 (A) (A) (A) (A) (A) (A) (A) (A) (A) (A) (A) (A)
                 (A) (A) (A) (A)
       Virtual   (A) (A) (A) (A) (A) (A) (A) (A) (A) (A) (A) (A)
                 (A) (A) (A) (A) (A) (A) (A) (A) (A) (A) (A) (A)
                 (A) (A) (A) (A) (A) (A) (A) (A) (A) (A) (A) (A)
                 (A) (A) (A) (A) (A) (A) (A) (A) (A) (A) (A) (A)
                 (A) (A) (A) (A) (A) (A) (A) (A) (A) (A) (A) (A)
                 (A) (A) (A) (A) (A) (A) (A) (A) (A) (A) (A) (A)
                 (A) (A) (A) (A) (A) (A) (A) (A) (A) (A) (A) (A)
                 (A) (A) (A) (A) (A) (A) (A) (A) (A) (A) (A) (A)
                 (A) (A) (A) (A) (A) (A) (A) (A) (A) (A) (A) (A)
                 (A) (A) (A) (A) (A) (A) (A) (A) (A) (A) (A) (A)
                 (A) (A) (A) (A) (A) (A) (A) (A) (A) (A) (A) (A)
                 (A) (A) (A) (A) (A) (A) (A) (A) (A) (A) (A) (A)
                 (A) (A) (A) (A) (A) (A) (A) (A) (A) (A) (A) (A)
                 (A) (A) (A) (A) (A) (A) (A) (A) (A) (A) (A) (A)
                 (A) (A) (A) (A) (A) (A) (A) (A) (A) (A) (A) (A)
                 (A) (A) (A) (A) (A) (A) (A) (A) (A) (A) (A) (A)
                 (A) (A) (A) (A) (A) (A) (A) (A) (A) (A) (A) (A)
                 (A) (A) (A) (A) (A) (A) (A) (A) (A) (A) (A) (A)
                 (A) (A) (A) (A) (A) (A) (A) (A) (A) (A) (A) (A)
                 (A) (A) (A) (A) (A) (A) (A) (A) (A) (A) (A) (A)
                 (A) (A) (A) (A) (A) (A) (A) (A) (A) (A) (A) (A)
                 (A) (A) (A) (A) (A) (A) (A) (A) (A) (A) (A) (A)
                 (A) (A) (A) (A) (A) (A) (A) (A) (A) (A) (A) (A)
                 (A) (A) (A) (A) (A) (A) (A) (A) (A) (A) (A) (A)
                 (A) (A) (A) (A) (A) (A) (A) (A) (A) (A) (A) (A)
                 (A) (A) (A) (A) (A) (A) (A) (A) (A) (A) (A) (A)
                 (A) (A) (A) (A) (A) (A) (A) (A) (A) (A) (A) (A)
                 (A) (A) (A) (A) (A) (A) (A) (A) (A) (A) (A) (A)
                 (A) (A) (A) (A) (A) (A) (A) (A) (A) (A) (A) (A)
                 (A) (A) (A) (A) (A) (A) (A) (A) (A) (A) (A) (A)
                 (A) (A) (A) (A) (A) (A) (A) (A) (A) (A) (A) (A)
                 (A) (A) (A) (A) (A) (A) (A) (A) (A) (A) (A) (A)
                 (A) (A) (A) (A) (A) (A) (A) (A) (A) (A) (A) (A)
                 (A) (A) (A) (A) (A) (A) (A) (A) (A) (A) (A) (A)
                 (A) (A) (A) (A) (A) (A) (A) (A) (A) (A) (A) (A)
                 (A) (A) (A) (A) (A) (A) (A) (A) (A) (A) (A) (A)
                 (A) (A) (A) (A) (A) (A) (A) (A) (A) (A) (A) (A)
                 (A) (A) (A) (A) (A) (A) (A) (A) (A) (A) (A) (A)
                 (A) (A) (A) (A) (A) (A) (A) (A) (A) (A) (A) (A)
                 (A) (A) (A) (A) (A) (A) (A) (A) (A) (A) (A) (A)
                 (A) (A) (A) (A) (A) (A) (A) (A) (A) (A) (A) (A)
                 (A) (A) (A) (A) (A) (A) (A) (A) (A) (A) (A) (A)
                 (A) (A) (A) (A) (A) (A) (A) (A) (A) (A) (A) (A)
                 (A) (A) (A) (A) (A) (A) (A) (A) (A) (A) (A) (A)
                 (A) (A) (A) (A) (A) (A) (A) (A) (A) (A) (A) (A)
 The electronic state is 1-A.
 Alpha  occ. eigenvalues --  -88.35073 -88.34750 -88.33644 -24.52370 -24.51793
 Alpha  occ. eigenvalues --  -24.50641 -19.04763 -19.04139 -19.04028 -14.25169
 Alpha  occ. eigenvalues --  -14.25038 -14.24595 -10.23421 -10.23230 -10.22700
 Alpha  occ. eigenvalues --  -10.22530 -10.22373 -10.22264 -10.21533 -10.20570
 Alpha  occ. eigenvalues --  -10.20323 -10.19713 -10.19695 -10.19628 -10.19151
 Alpha  occ. eigenvalues --  -10.18751 -10.18207 -10.18154 -10.18133 -10.17950
 Alpha  occ. eigenvalues --  -10.17570 -10.17534 -10.17525 -10.17521 -10.17479
 Alpha  occ. eigenvalues --  -10.17098 -10.17024 -10.16580 -10.16479 -10.15684
 Alpha  occ. eigenvalues --  -10.15590 -10.15562  -7.95773  -7.95462  -7.94522
 Alpha  occ. eigenvalues --   -5.97116  -5.96860  -5.96593  -5.96336  -5.96184
 Alpha  occ. eigenvalues --   -5.95899  -5.95759  -5.95344  -5.94842  -1.38100
 Alpha  occ. eigenvalues --   -1.36418  -1.32381  -1.24491  -1.24388  -1.23447
 Alpha  occ. eigenvalues --   -1.12512  -1.11851  -1.10512  -1.07422  -1.06900
 Alpha  occ. eigenvalues --   -1.06104  -0.99895  -0.98599  -0.97946  -0.96103
 Alpha  occ. eigenvalues --   -0.95996  -0.95702  -0.92157  -0.91394  -0.90643
 Alpha  occ. eigenvalues --   -0.89047  -0.88851  -0.88584  -0.88012  -0.86805
 Alpha  occ. eigenvalues --   -0.86190  -0.81845  -0.80493  -0.79276  -0.77910
 Alpha  occ. eigenvalues --   -0.77333  -0.76972  -0.73018  -0.72817  -0.72420
 Alpha  occ. eigenvalues --   -0.72037  -0.71626  -0.71294  -0.69957  -0.69498
 Alpha  occ. eigenvalues --   -0.68337  -0.67160  -0.66337  -0.65659  -0.65342
 Alpha  occ. eigenvalues --   -0.65142  -0.64370  -0.63223  -0.63067  -0.62990
 Alpha  occ. eigenvalues --   -0.62887  -0.62705  -0.61365  -0.61309  -0.60672
 Alpha  occ. eigenvalues --   -0.59252  -0.59124  -0.58931  -0.58480  -0.58407
 Alpha  occ. eigenvalues --   -0.57947  -0.57552  -0.57473  -0.57278  -0.56915
 Alpha  occ. eigenvalues --   -0.56749  -0.55835  -0.55618  -0.55241  -0.54262
 Alpha  occ. eigenvalues --   -0.54143  -0.53582  -0.52633  -0.51685  -0.51411
 Alpha  occ. eigenvalues --   -0.50980  -0.50894  -0.50297  -0.50022  -0.49582
 Alpha  occ. eigenvalues --   -0.48961  -0.48516  -0.47815  -0.47305  -0.46938
 Alpha  occ. eigenvalues --   -0.46711  -0.46396  -0.45851  -0.45732  -0.44910
 Alpha  occ. eigenvalues --   -0.42228  -0.41293  -0.40333  -0.40145  -0.39579
 Alpha  occ. eigenvalues --   -0.38650  -0.37132  -0.36970  -0.36444  -0.35967
 Alpha  occ. eigenvalues --   -0.35478  -0.34528  -0.33425  -0.32267  -0.30698
 Alpha virt. eigenvalues --    0.01043   0.02256   0.04076   0.05545   0.06196
 Alpha virt. eigenvalues --    0.07513   0.08629   0.09639   0.10727   0.12586
 Alpha virt. eigenvalues --    0.13744   0.14352   0.14662   0.15086   0.16141
 Alpha virt. eigenvalues --    0.16618   0.17044   0.17211   0.17491   0.17706
 Alpha virt. eigenvalues --    0.18120   0.18573   0.18807   0.19798   0.19833
 Alpha virt. eigenvalues --    0.20232   0.20331   0.21076   0.21622   0.21647
 Alpha virt. eigenvalues --    0.21788   0.22065   0.22383   0.22606   0.22664
 Alpha virt. eigenvalues --    0.23265   0.23818   0.24072   0.24891   0.25296
 Alpha virt. eigenvalues --    0.25958   0.26195   0.27063   0.27334   0.28049
 Alpha virt. eigenvalues --    0.28983   0.29940   0.32066   0.33312   0.34020
 Alpha virt. eigenvalues --    0.34656   0.34968   0.35191   0.35693   0.36672
 Alpha virt. eigenvalues --    0.37024   0.37179   0.37887   0.38480   0.39279
 Alpha virt. eigenvalues --    0.40083   0.40506   0.41263   0.42369   0.43697
 Alpha virt. eigenvalues --    0.44086   0.44849   0.45430   0.45756   0.47004
 Alpha virt. eigenvalues --    0.47185   0.47606   0.48657   0.49302   0.49633
 Alpha virt. eigenvalues --    0.50105   0.50473   0.51071   0.51916   0.52787
 Alpha virt. eigenvalues --    0.53413   0.53610   0.54167   0.54512   0.54769
 Alpha virt. eigenvalues --    0.55214   0.55622   0.55796   0.56297   0.56507
 Alpha virt. eigenvalues --    0.56814   0.57233   0.57250   0.57444   0.57790
 Alpha virt. eigenvalues --    0.57807   0.57984   0.58262   0.58518   0.58783
 Alpha virt. eigenvalues --    0.58866   0.59106   0.59321   0.59527   0.59605
 Alpha virt. eigenvalues --    0.60025   0.60288   0.60810   0.60887   0.61106
 Alpha virt. eigenvalues --    0.61365   0.61716   0.62202   0.62289   0.62539
 Alpha virt. eigenvalues --    0.62794   0.63005   0.63332   0.63517   0.63879
 Alpha virt. eigenvalues --    0.64295   0.64491   0.64624   0.64878   0.65215
 Alpha virt. eigenvalues --    0.65839   0.66170   0.66487   0.66806   0.67243
 Alpha virt. eigenvalues --    0.67404   0.67730   0.67934   0.68375   0.68872
 Alpha virt. eigenvalues --    0.69324   0.69559   0.69714   0.70457   0.70715
 Alpha virt. eigenvalues --    0.71211   0.71586   0.71965   0.72325   0.72954
 Alpha virt. eigenvalues --    0.73420   0.73773   0.74080   0.74186   0.74793
 Alpha virt. eigenvalues --    0.75692   0.75872   0.76080   0.76319   0.76388
 Alpha virt. eigenvalues --    0.76734   0.76984   0.77579   0.77849   0.78303
 Alpha virt. eigenvalues --    0.78517   0.78870   0.79265   0.79493   0.79684
 Alpha virt. eigenvalues --    0.79906   0.80356   0.80635   0.80976   0.81477
 Alpha virt. eigenvalues --    0.81843   0.81983   0.82325   0.82633   0.83312
 Alpha virt. eigenvalues --    0.84538   0.84625   0.85205   0.85741   0.85908
 Alpha virt. eigenvalues --    0.86487   0.87092   0.87649   0.88149   0.88993
 Alpha virt. eigenvalues --    0.89661   0.90194   0.90293   0.90741   0.92047
 Alpha virt. eigenvalues --    0.92433   0.93528   0.94093   0.95026   0.96037
 Alpha virt. eigenvalues --    0.96206   0.96425   0.96889   0.97542   0.97997
 Alpha virt. eigenvalues --    0.98642   0.99223   0.99478   0.99770   1.00979
 Alpha virt. eigenvalues --    1.01173   1.01380   1.02167   1.02518   1.02622
 Alpha virt. eigenvalues --    1.02788   1.03129   1.04057   1.04308   1.04377
 Alpha virt. eigenvalues --    1.04536   1.05008   1.05887   1.06156   1.07191
 Alpha virt. eigenvalues --    1.07388   1.08172   1.08400   1.08722   1.09137
 Alpha virt. eigenvalues --    1.09851   1.10263   1.10529   1.10876   1.11090
 Alpha virt. eigenvalues --    1.11526   1.11741   1.12669   1.12842   1.13285
 Alpha virt. eigenvalues --    1.13461   1.14268   1.14687   1.15046   1.16367
 Alpha virt. eigenvalues --    1.16957   1.17615   1.17902   1.18065   1.18290
 Alpha virt. eigenvalues --    1.19227   1.19871   1.19993   1.20426   1.21356
 Alpha virt. eigenvalues --    1.21977   1.22104   1.22709   1.23480   1.23666
 Alpha virt. eigenvalues --    1.23941   1.24299   1.24970   1.25870   1.26175
[...]
    62   Atom        0.000000     -0.000000      0.000000
 --------------------------------------------------------


 ---------------------------------------------------------------------------------
              Anisotropic Spin Dipole Couplings in Principal Axis System
 ---------------------------------------------------------------------------------

       Atom             a.u.   MegaHertz   Gauss  10(-4) cm-1        Axes

              Baa    -0.0000    -0.000    -0.000    -0.000  0.5158  0.8173 -0.2569
     1 C(13)  Bbb    -0.0000    -0.000    -0.000    -0.000  0.4753 -0.0235  0.8795
              Bcc     0.0000     0.000     0.000     0.000  0.7127 -0.5758 -0.4006
 
              Baa    -0.0000    -0.000    -0.000    -0.000 -0.6105  0.6296 -0.4806
     2 C(13)  Bbb    -0.0000    -0.000    -0.000    -0.000 -0.4139  0.2637  0.8713
              Bcc     0.0000     0.000     0.000     0.000  0.6753  0.7308  0.0996
 
              Baa    -0.0000    -0.000    -0.000    -0.000 -0.0495  0.9954 -0.0816
     3 N(14)  Bbb    -0.0000    -0.000    -0.000    -0.000  0.5618  0.0953  0.8218
              Bcc     0.0000     0.000     0.000     0.000  0.8258 -0.0052 -0.5640
 
              Baa    -0.0000    -0.000    -0.000    -0.000 -0.6416  0.7090  0.2926
     4 C(13)  Bbb     0.0000     0.000     0.000     0.000  0.5669  0.1815  0.8035
              Bcc     0.0000     0.000     0.000     0.000  0.5166  0.6814 -0.5184
 
              Baa    -0.0000    -0.000    -0.000    -0.000  0.4698 -0.5622  0.6805
     5 C(13)  Bbb    -0.0000    -0.000    -0.000    -0.000 -0.3850  0.5632  0.7311
              Bcc     0.0000     0.000     0.000     0.000  0.7944  0.6055 -0.0482
 
              Baa    -0.0000     0.000     0.000     0.000 -0.5990  0.4414  0.6681
     6 O(17)  Bbb     0.0000    -0.000    -0.000    -0.000  0.7725  0.0989  0.6272
              Bcc     0.0000    -0.000    -0.000    -0.000  0.2108  0.8918 -0.4002
 
              Baa    -0.0000    -0.000    -0.000    -0.000  0.9629 -0.0302 -0.2683
     7 C(13)  Bbb     0.0000     0.000     0.000     0.000  0.2499  0.4751  0.8437
              Bcc     0.0000     0.000     0.000     0.000 -0.1020  0.8794 -0.4650
 
              Baa    -0.0000    -0.000    -0.000    -0.000  0.5066 -0.2200  0.8337
     8 C(13)  Bbb    -0.0000    -0.000    -0.000    -0.000  0.8235 -0.1630 -0.5434
              Bcc     0.0000     0.000     0.000     0.000  0.2554  0.9618  0.0986
 
              Baa    -0.0000    -0.000    -0.000    -0.000 -0.0198  0.1697  0.9853
     9 C(13)  Bbb    -0.0000    -0.000    -0.000    -0.000  0.9166 -0.3904  0.0857
              Bcc     0.0000     0.000     0.000     0.000  0.3992  0.9048 -0.1479
 
              Baa    -0.0000    -0.000    -0.000    -0.000 -0.0634  0.2492  0.9664
    10 C(13)  Bbb     0.0000     0.000     0.000     0.000  0.5748  0.8007 -0.1687
              Bcc     0.0000     0.000     0.000     0.000  0.8158 -0.5448  0.1940
 
              Baa    -0.0000    -0.000    -0.000    -0.000 -0.6081  0.7194 -0.3357
    11 F(19)  Bbb     0.0000     0.000     0.000     0.000  0.7341  0.6705  0.1072
              Bcc     0.0000     0.000     0.000     0.000 -0.3023  0.1813  0.9358
 
              Baa    -0.0000    -0.000    -0.000    -0.000  0.0036  0.0609  0.9981
    12 C(13)  Bbb    -0.0000    -0.000    -0.000    -0.000  0.7798 -0.6251  0.0353
              Bcc     0.0000     0.000     0.000     0.000  0.6261  0.7782 -0.0498
 
              Baa    -0.0000    -0.000    -0.000    -0.000 -0.4003  0.1038  0.9105
    13 C(13)  Bbb     0.0000     0.000     0.000     0.000  0.6709 -0.6436  0.3683
              Bcc     0.0000     0.000     0.000     0.000  0.6242  0.7583  0.1880
 
              Baa    -0.0000    -0.000    -0.000    -0.000  0.5229  0.8054 -0.2792
    14 S(33)  Bbb     0.0000     0.000     0.000     0.000  0.0994  0.2676  0.9584
              Bcc     0.0000     0.000     0.000     0.000  0.8465 -0.5289  0.0599
 
              Baa    -0.0000    -0.000    -0.000    -0.000  0.9409  0.2960  0.1648
    15 C(13)  Bbb     0.0000     0.000     0.000     0.000 -0.3388  0.8261  0.4503
              Bcc     0.0000     0.000     0.000     0.000 -0.0029 -0.4795  0.8775
 
              Baa    -0.0000    -0.000    -0.000    -0.000 -0.4588  0.8796 -0.1255
    16 C(13)  Bbb    -0.0000    -0.000    -0.000    -0.000  0.0350  0.1590  0.9867
              Bcc     0.0000     0.000     0.000     0.000  0.8878  0.4483 -0.1038
 
              Baa    -0.0000    -0.000    -0.000    -0.000  0.2324  0.7428  0.6278
    17 N(14)  Bbb     0.0000     0.000     0.000     0.000  0.1906 -0.6678  0.7196
              Bcc     0.0000     0.000     0.000     0.000  0.9538 -0.0476 -0.2968
 
              Baa    -0.0000    -0.000    -0.000    -0.000  0.1418 -0.2216  0.9648
    18 C(13)  Bbb     0.0000     0.000     0.000     0.000  0.8748 -0.4281 -0.2269
              Bcc     0.0000     0.000     0.000     0.000  0.4633  0.8762  0.1332
 
              Baa    -0.0000    -0.000    -0.000    -0.000 -0.1981  0.3684  0.9083
    19 C(13)  Bbb    -0.0000    -0.000    -0.000    -0.000 -0.3412  0.8428 -0.4163
              Bcc     0.0000     0.000     0.000     0.000  0.9189  0.3924  0.0413
 
              Baa    -0.0000     0.000     0.000     0.000  0.8538  0.5082  0.1127
    20 O(17)  Bbb     0.0000    -0.000    -0.000    -0.000 -0.2408  0.1936  0.9511
              Bcc     0.0000    -0.000    -0.000    -0.000 -0.4615  0.8392 -0.2877
 
              Baa    -0.0000    -0.000    -0.000    -0.000  0.9304  0.3587 -0.0750
    21 C(13)  Bbb     0.0000     0.000     0.000     0.000 -0.3550  0.8315 -0.4272
              Bcc     0.0000     0.000     0.000     0.000 -0.0908  0.4241  0.9010
 
              Baa    -0.0000    -0.000    -0.000    -0.000  0.1275 -0.5222  0.8433
    22 C(13)  Bbb    -0.0000    -0.000    -0.000    -0.000 -0.0698  0.8434  0.5328
              Bcc     0.0000     0.000     0.000     0.000  0.9894  0.1268 -0.0711
 
              Baa    -0.0000    -0.000    -0.000    -0.000  0.9544  0.2943 -0.0496
    23 C(13)  Bbb    -0.0000    -0.000    -0.000    -0.000 -0.2983  0.9358 -0.1880
              Bcc     0.0000     0.000     0.000     0.000 -0.0089  0.1942  0.9809
 
              Baa    -0.0000    -0.000    -0.000    -0.000  0.7124 -0.6601  0.2382
    24 C(13)  Bbb    -0.0000    -0.000    -0.000    -0.000  0.1539  0.4781  0.8647
              Bcc     0.0000     0.000     0.000     0.000  0.6847  0.5794 -0.4421
 
              Baa    -0.0000    -0.000    -0.000    -0.000  0.7839  0.0086 -0.6209
    25 F(19)  Bbb    -0.0000    -0.000    -0.000    -0.000  0.5518  0.4490  0.7028
              Bcc     0.0000     0.000     0.000     0.000 -0.2848  0.8935 -0.3472
 
              Baa    -0.0000    -0.000    -0.000    -0.000  0.2739  0.9556  0.1083
    26 C(13)  Bbb     0.0000     0.000     0.000     0.000 -0.6548  0.1028  0.7488
              Bcc     0.0000     0.000     0.000     0.000  0.7044 -0.2761  0.6539
 
              Baa    -0.0000    -0.000    -0.000    -0.000  0.9979 -0.0062 -0.0645
    27 C(13)  Bbb     0.0000     0.000     0.000     0.000  0.0094  0.9987  0.0497
              Bcc     0.0000     0.000     0.000     0.000  0.0641 -0.0502  0.9967
 
              Baa    -0.0000    -0.000    -0.000    -0.000  0.8920 -0.3473 -0.2894
    28 S(33)  Bbb     0.0000     0.000     0.000     0.000  0.2092 -0.2504  0.9453
              Bcc     0.0000     0.000     0.000     0.000  0.4007  0.9037  0.1507
 
              Baa    -0.0000    -0.000    -0.000    -0.000 -0.0975 -0.2368  0.9667
    29 C(13)  Bbb    -0.0000    -0.000    -0.000    -0.000 -0.3244  0.9258  0.1941
              Bcc     0.0000     0.000     0.000     0.000  0.9409  0.2947  0.1671
 
              Baa    -0.0000    -0.000    -0.000    -0.000 -0.4886  0.8679 -0.0894
    30 C(13)  Bbb     0.0000     0.000     0.000     0.000 -0.4666 -0.1734  0.8673
              Bcc     0.0000     0.000     0.000     0.000  0.7372  0.4655  0.4897
 
              Baa    -0.0000    -0.000    -0.000    -0.000  0.0348  0.9945  0.0989
    31 N(14)  Bbb     0.0000     0.000     0.000     0.000  0.9740 -0.0116 -0.2262
              Bcc     0.0000     0.000     0.000     0.000  0.2238 -0.1042  0.9691
 
              Baa    -0.0000    -0.000    -0.000    -0.000 -0.4546  0.7693 -0.4489
    32 C(13)  Bbb     0.0000     0.000     0.000     0.000 -0.4077  0.2684  0.8728
              Bcc     0.0000     0.000     0.000     0.000  0.7919  0.5798  0.1916
 
              Baa    -0.0000    -0.000    -0.000    -0.000  0.6820  0.5068  0.5274
    33 C(13)  Bbb     0.0000     0.000     0.000     0.000 -0.2330 -0.5330  0.8134
              Bcc     0.0000     0.000     0.000     0.000  0.6933 -0.6776 -0.2454
 
              Baa    -0.0000     0.000     0.000     0.000 -0.5336  0.8269 -0.1776
    34 O(17)  Bbb     0.0000    -0.000    -0.000    -0.000  0.7764  0.5622  0.2847
              Bcc     0.0000    -0.000    -0.000    -0.000 -0.3352 -0.0140  0.9420
 
              Baa    -0.0000    -0.000    -0.000    -0.000 -0.5212 -0.1051  0.8469
    35 C(13)  Bbb    -0.0000    -0.000    -0.000    -0.000  0.8522 -0.0111  0.5231
              Bcc     0.0000     0.000     0.000     0.000 -0.0456  0.9944  0.0953
 
              Baa    -0.0000    -0.000    -0.000    -0.000 -0.3577 -0.2410  0.9022
    36 C(13)  Bbb     0.0000     0.000     0.000     0.000  0.7723  0.4668  0.4308
              Bcc     0.0000     0.000     0.000     0.000 -0.5250  0.8509  0.0191
 
              Baa    -0.0000    -0.000    -0.000    -0.000  0.1489  0.9282  0.3410
    37 C(13)  Bbb     0.0000     0.000     0.000     0.000 -0.1207 -0.3252  0.9379
              Bcc     0.0000     0.000     0.000     0.000  0.9815 -0.1808  0.0636
 
              Baa    -0.0000    -0.000    -0.000    -0.000  0.0253  0.8587 -0.5119
    38 C(13)  Bbb     0.0000     0.000     0.000     0.000  0.0617  0.5098  0.8581
              Bcc     0.0000     0.000     0.000     0.000  0.9978 -0.0533 -0.0401
 
              Baa    -0.0000    -0.000    -0.000    -0.000  0.9869 -0.1614 -0.0072
    39 F(19)  Bbb     0.0000     0.000     0.000     0.000  0.0646  0.3533  0.9333
              Bcc     0.0000     0.000     0.000     0.000  0.1481  0.9215 -0.3591
 
              Baa    -0.0000    -0.000    -0.000    -0.000 -0.4192  0.8493 -0.3209
    40 C(13)  Bbb     0.0000     0.000     0.000     0.000 -0.0480  0.3322  0.9420
              Bcc     0.0000     0.000     0.000     0.000  0.9066  0.4103 -0.0985
 
              Baa    -0.0000    -0.000    -0.000    -0.000  0.9389  0.3248 -0.1138
    41 C(13)  Bbb    -0.0000    -0.000    -0.000    -0.000 -0.2979  0.9326  0.2038
              Bcc     0.0000     0.000     0.000     0.000  0.1723 -0.1574  0.9724
 
              Baa    -0.0000    -0.000    -0.000    -0.000  0.3636  0.7912  0.4918
    42 S(33)  Bbb    -0.0000    -0.000    -0.000    -0.000 -0.2633 -0.4191  0.8689
              Bcc     0.0000     0.000     0.000     0.000  0.8936 -0.4454  0.0560
 
              Baa    -0.0000    -0.000    -0.000    -0.000  0.2558 -0.2698  0.9283
    43 H(1)   Bbb    -0.0000    -0.000    -0.000    -0.000 -0.6530  0.6598  0.3718
              Bcc     0.0000     0.000     0.000     0.000  0.7128  0.7013  0.0074
 
              Baa    -0.0000    -0.000    -0.000    -0.000  0.5703  0.7954  0.2052
    44 H(1)   Bbb    -0.0000    -0.000    -0.000    -0.000  0.1296 -0.3339  0.9337
              Bcc     0.0000     0.000     0.000     0.000  0.8111 -0.5059 -0.2935
 
              Baa    -0.0000    -0.000    -0.000    -0.000  0.9543  0.2984  0.0150
    45 H(1)   Bbb     0.0000     0.000     0.000     0.000 -0.2801  0.9112 -0.3021
              Bcc     0.0000     0.000     0.000     0.000 -0.1038  0.2841  0.9532
 
              Baa    -0.0000    -0.000    -0.000    -0.000 -0.5220  0.7807  0.3436
    46 H(1)   Bbb     0.0000     0.000     0.000     0.000 -0.0348 -0.4219  0.9060
              Bcc     0.0000     0.000     0.000     0.000  0.8523  0.4609  0.2474
 
              Baa    -0.0000    -0.000    -0.000    -0.000  0.5283  0.6318 -0.5672
    47 H(1)   Bbb     0.0000     0.000     0.000     0.000  0.6295  0.1568  0.7610
              Bcc     0.0000     0.000     0.000     0.000 -0.5697  0.7591  0.3149
 
              Baa    -0.0000    -0.000    -0.000    -0.000 -0.1361 -0.4701  0.8721
    48 H(1)   Bbb    -0.0000    -0.000    -0.000    -0.000  0.9277  0.2485  0.2787
              Bcc     0.0000     0.000     0.000     0.000 -0.3477  0.8469  0.4022
 
              Baa    -0.0000    -0.000    -0.000    -0.000 -0.3876  0.2583  0.8849
    49 H(1)   Bbb    -0.0000    -0.000    -0.000    -0.000  0.9121 -0.0316  0.4087
              Bcc     0.0000     0.000     0.000     0.000  0.1335  0.9656 -0.2233
 
              Baa    -0.0000    -0.000    -0.000    -0.000  0.1374 -0.1816  0.9737
    50 H(1)   Bbb     0.0000     0.000     0.000     0.000  0.6527  0.7560  0.0489
              Bcc     0.0000     0.000     0.000     0.000  0.7450 -0.6289 -0.2224
 
              Baa    -0.0000    -0.000    -0.000    -0.000 -0.1332  0.0533  0.9897
    51 H(1)   Bbb     0.0000     0.000     0.000     0.000 -0.4624  0.8799 -0.1096
              Bcc     0.0000     0.000     0.000     0.000  0.8766  0.4722  0.0925
 
              Baa    -0.0000    -0.000    -0.000    -0.000  0.7991  0.5514  0.2395
    52 H(1)   Bbb     0.0000     0.000     0.000     0.000 -0.6009  0.7447  0.2905
              Bcc     0.0000     0.000     0.000     0.000 -0.0182 -0.3761  0.9264
 
              Baa    -0.0000    -0.000    -0.000    -0.000  0.1296 -0.5822  0.8026
    53 H(1)   Bbb     0.0000     0.000     0.000     0.000 -0.0686  0.8022  0.5930
              Bcc     0.0000     0.000     0.000     0.000  0.9892  0.1320 -0.0640
 
              Baa    -0.0000    -0.000    -0.000    -0.000  0.7217 -0.6115 -0.3242
    54 H(1)   Bbb     0.0000     0.000     0.000     0.000  0.6866  0.5730  0.4476
              Bcc     0.0000     0.000     0.000     0.000 -0.0879 -0.5456  0.8334
 
              Baa    -0.0000    -0.000    -0.000    -0.000 -0.0439  0.3241  0.9450
    55 H(1)   Bbb    -0.0000    -0.000    -0.000    -0.000  0.7963 -0.5599  0.2290
              Bcc     0.0000     0.000     0.000     0.000  0.6033  0.7626 -0.2335
 
              Baa    -0.0000    -0.000    -0.000    -0.000 -0.6322 -0.2576  0.7308
    56 H(1)   Bbb    -0.0000    -0.000    -0.000    -0.000  0.7706 -0.1109  0.6276
              Bcc     0.0000     0.000     0.000     0.000 -0.0806  0.9599  0.2686
 
              Baa    -0.0000    -0.000    -0.000    -0.000  0.8226 -0.4976  0.2751
    57 H(1)   Bbb    -0.0000    -0.000    -0.000    -0.000  0.4855  0.8666  0.1157
              Bcc     0.0000     0.000     0.000     0.000 -0.2959  0.0384  0.9544
 
              Baa    -0.0000    -0.000    -0.000    -0.000  0.9170 -0.3789  0.1242
    58 H(1)   Bbb     0.0000     0.000     0.000     0.000  0.3914  0.9149 -0.0987
              Bcc     0.0000     0.000     0.000     0.000 -0.0762  0.1391  0.9873
 
              Baa    -0.0000    -0.000    -0.000    -0.000  0.0186  0.9719 -0.2345
    59 H(1)   Bbb    -0.0000    -0.000    -0.000    -0.000  0.2187  0.2249  0.9495
              Bcc     0.0000     0.000     0.000     0.000  0.9756 -0.0689 -0.2084
 
              Baa    -0.0000    -0.000    -0.000    -0.000  0.5509 -0.5550  0.6233
    60 H(1)   Bbb    -0.0000    -0.000    -0.000    -0.000  0.7421 -0.0161 -0.6701
              Bcc     0.0000     0.000     0.000     0.000  0.3819  0.8317  0.4030
 
              Baa    -0.0000    -0.000    -0.000    -0.000 -0.4824  0.8370 -0.2582
    61 H(1)   Bbb     0.0000     0.000     0.000     0.000 -0.2752  0.1350  0.9519
              Bcc     0.0000     0.000     0.000     0.000  0.8316  0.5303  0.1652
 
              Baa    -0.0000    -0.000    -0.000    -0.000  0.0720 -0.1537  0.9855
    62 H(1)   Bbb    -0.0000    -0.000    -0.000    -0.000 -0.2969  0.9400  0.1683
              Bcc     0.0000     0.000     0.000     0.000  0.9522  0.3047 -0.0220
 

 ---------------------------------------------------------------------------------

 No NMR shielding tensors so no spin-rotation constants.
 Leave Link  601 at Sat Jul 25 05:55:08 2020, MaxMem=  4026531840 cpu:               6.4 elap:               0.9
 (Enter /opt/ohpc/pub/libs/gaussian/g16-A.03/sandybridge/g16/l9999.exe)

 Test job not archived.
 1\1\GINC-SKYLAKE034\FOpt\ULC-wPBE\CC-pVDZ\C30H20F3N3O3S3\RDU230\25-Jul
 -2020\0\\#P uLC-wPBE/cc-pVDZ iop(3/107=0442400000, 3/108=0442400000) o
 pt\\H20 C30 S3 N3 O3 F3\\0,1\C,-9.7002912342,-3.6529743614,0.083453851
 \C,-8.4215021636,-3.8244842123,-0.4095750703\N,-7.5433311325,-2.831226
 7868,-0.4829443852\C,-7.893242359,-1.6222659084,-0.0658710794\C,-9.153
 3726561,-1.3657998772,0.5052512946\O,-9.3641279241,-0.1297586522,0.989
 938916\C,-10.6347402444,0.1774897412,1.5038333098\C,-10.0719965137,-2.
 4027434311,0.5566553744\C,-6.8597556302,-0.5815074437,-0.1783293378\C,
 -6.9302544039,0.7474243715,-0.471641998\F,-8.0561352458,1.4014220764,-
 0.7511187185\C,-5.6819120843,1.411839566,-0.5230196109\C,-4.646789944,
 0.5593008559,-0.2774196801\S,-5.2087464205,-1.0388278316,0.0083842477\
 C,-3.2139832408,0.8802970097,-0.2508909242\C,-2.2506647606,-0.03833877
 2,-0.6459167538\N,-0.9535120887,0.2316672294,-0.6567665468\C,-0.528196
 7271,1.4296686112,-0.2813439159\C,-1.4192685553,2.4139865095,0.1866158
 965\O,-0.8803715103,3.5551909785,0.6458572919\C,-1.7428870036,4.578977
 3889,1.0727071474\C,-2.7732537448,2.1297380728,0.1835352037\C,0.925424
 9291,1.6388563568,-0.3183347623\C,1.6848877101,2.731363945,-0.61503646
 45\F,1.1950920736,3.9150346657,-0.9768659373\C,3.0828448554,2.51403773
 95,-0.5762915218\C,3.3824998203,1.2236072829,-0.2560649633\S,1.9583660
 076,0.293450964,-0.0103815979\C,4.7140469308,0.6187594418,-0.123112688
 \C,5.7913342025,1.3629123428,0.3389567625\N,7.0093055594,0.8619894093,
 0.4832950778\C,7.2359940839,-0.4101367581,0.1870374362\C,6.2218185505,
 -1.2376601948,-0.3304076299\O,6.5744482859,-2.481186624,-0.6942364245\
 C,5.5714949446,-3.3540497908,-1.1504749991\C,4.9494169705,-0.711248342
 4,-0.46804613\C,8.6154082306,-0.8835863458,0.3711829346\C,9.1135877318
 ,-2.0776209752,0.8001801567\F,8.3673552184,-3.1163123824,1.1722981913\
 C,10.5281967769,-2.1368633778,0.8804708164\C,11.0857494225,-0.95515102
 12,0.5138021962\S,9.9162389985,0.2131406009,0.0924388794\H,-10.4000414
 164,-4.4865230274,0.1139716841\H,-8.0810013665,-4.797763454,-0.7666458
 479\H,-11.4189671847,0.0485685853,0.7434650157\H,-10.5967511505,1.2287
 49212,1.8018861851\H,-10.8754889759,-0.4370099419,2.3840818702\H,-11.0
 644091679,-2.2510389739,0.9750956438\H,-5.5797128404,2.4636466006,-0.7
 765242735\H,-2.5398787993,-1.0347559846,-0.9858125952\H,-2.3430314941,
 4.2671429928,1.9402569247\H,-1.1014920806,5.4152052658,1.3633847067\H,
 -2.4123684581,4.9046455125,0.263127773\H,-3.4964505644,2.853812693,0.5
 511519296\H,3.8108653099,3.2830174478,-0.8194893161\H,5.660480515,2.40
 78513359,0.624595657\H,4.7896270781,-3.5003032423,-0.3911100637\H,5.11
 23216785,-2.9915362765,-2.0819778581\H,6.0656319227,-4.3099267871,-1.3
 435142786\H,4.1386769965,-1.3124944928,-0.8745211742\H,11.0728027013,-
 3.0181524101,1.2075384339\H,12.1428065814,-0.7073581255,0.4795507386\\
 Version=EM64L-G16RevA.03\State=1-A\HF=-3037.7195118\S2=0.\S2-1=0.\S2A=
 0.\RMSD=9.899e-09\RMSF=4.310e-06\Dipole=-2.4172655,0.1580131,0.5164564
 \Quadrupole=28.6578991,-2.5989064,-26.0589927,-6.9630647,-17.9361884,5
 .1949447\PG=C01 [X(C30H20F3N3O3S3)]\\@


     SCHOPENHAUER'S LAW OF ENTROPY
 IF YOU PUT A SPOONFUL OF WINE IN A BARREL FULL
 OF SEWAGE, YOU GET SEWAGE.
 IF YOU PUT A SPOONFUL OF SEWAGE IN A BARREL FULL
 OF WINE, YOU GET SEWAGE.
 Job cpu time:       0 days 18 hours 11 minutes 10.1 seconds.
 Elapsed time:       0 days  2 hours 18 minutes 52.1 seconds.
 File lengths (MBytes):  RWF=    596 Int=      0 D2E=      0 Chk=     56 Scr=      8
 Normal termination of Gaussian 16 at Sat Jul 25 05:55:08 2020.
