 Entering Gaussian System, Link 0=g16
 Input=mols_65_1_20_n-cF-C_opt_0.gjf
 Output=mols_65_1_20_n-cF-C_opt_0.log
 Initial command:
 /opt/ohpc/pub/libs/gaussian/g16-A.03/sandybridge/g16/l1.exe "/mnt/gpfs2_4m/scratch/rdu230/ondemand/projects/dihedral_energies/7trial/wtuning/mols_65_1_20_n-cF-C/Gau-412037.inp" -scrdir="/mnt/gpfs2_4m/scratch/rdu230/ondemand/projects/dihedral_energies/7trial/wtuning/mols_65_1_20_n-cF-C/"
 Entering Link 1 = /opt/ohpc/pub/libs/gaussian/g16-A.03/sandybridge/g16/l1.exe PID=    412038.
  
 Copyright (c) 1988,1990,1992,1993,1995,1998,2003,2009,2016,
            Gaussian, Inc.  All Rights Reserved.
  
 This is part of the Gaussian(R) 16 program.  It is based on
 the Gaussian(R) 09 system (copyright 2009, Gaussian, Inc.),
 the Gaussian(R) 03 system (copyright 2003, Gaussian, Inc.),
 the Gaussian(R) 98 system (copyright 1998, Gaussian, Inc.),
 the Gaussian(R) 94 system (copyright 1995, Gaussian, Inc.),
 the Gaussian 92(TM) system (copyright 1992, Gaussian, Inc.),
 the Gaussian 90(TM) system (copyright 1990, Gaussian, Inc.),
 the Gaussian 88(TM) system (copyright 1988, Gaussian, Inc.),
 the Gaussian 86(TM) system (copyright 1986, Carnegie Mellon
 University), and the Gaussian 82(TM) system (copyright 1983,
 Carnegie Mellon University). Gaussian is a federally registered
 trademark of Gaussian, Inc.
  
 This software contains proprietary and confidential information,
 including trade secrets, belonging to Gaussian, Inc.
  
 This software is provided under written license and may be
 used, copied, transmitted, or stored only in accord with that
 written license.
  
 The following legend is applicable only to US Government
 contracts under FAR:
  
                    RESTRICTED RIGHTS LEGEND
  
 Use, reproduction and disclosure by the US Government is
 subject to restrictions as set forth in subparagraphs (a)
 and (c) of the Commercial Computer Software - Restricted
 Rights clause in FAR 52.227-19.
  
 Gaussian, Inc.
 340 Quinnipiac St., Bldg. 40, Wallingford CT 06492
  
  
 ---------------------------------------------------------------
 Warning -- This program may not be used in any manner that
 competes with the business of Gaussian, Inc. or will provide
 assistance to any competitor of Gaussian, Inc.  The licensee
 of this program is prohibited from giving any competitor of
 Gaussian, Inc. access to this program.  By using this program,
 the user acknowledges that Gaussian, Inc. is engaged in the
 business of creating and licensing software in the field of
 computational chemistry and represents and warrants to the
 licensee that it is not a competitor of Gaussian, Inc. and that
 it will not use this program in any manner prohibited above.
 ---------------------------------------------------------------
  

 Cite this work as:
 Gaussian 16, Revision A.03,
 M. J. Frisch, G. W. Trucks, H. B. Schlegel, G. E. Scuseria, 
 M. A. Robb, J. R. Cheeseman, G. Scalmani, V. Barone, 
 G. A. Petersson, H. Nakatsuji, X. Li, M. Caricato, A. V. Marenich, 
 J. Bloino, B. G. Janesko, R. Gomperts, B. Mennucci, H. P. Hratchian, 
 J. V. Ortiz, A. F. Izmaylov, J. L. Sonnenberg, D. Williams-Young, 
 F. Ding, F. Lipparini, F. Egidi, J. Goings, B. Peng, A. Petrone, 
 T. Henderson, D. Ranasinghe, V. G. Zakrzewski, J. Gao, N. Rega, 
 G. Zheng, W. Liang, M. Hada, M. Ehara, K. Toyota, R. Fukuda, 
 J. Hasegawa, M. Ishida, T. Nakajima, Y. Honda, O. Kitao, H. Nakai, 
 T. Vreven, K. Throssell, J. A. Montgomery, Jr., J. E. Peralta, 
 F. Ogliaro, M. J. Bearpark, J. J. Heyd, E. N. Brothers, K. N. Kudin, 
 V. N. Staroverov, T. A. Keith, R. Kobayashi, J. Normand, 
 K. Raghavachari, A. P. Rendell, J. C. Burant, S. S. Iyengar, 
 J. Tomasi, M. Cossi, J. M. Millam, M. Klene, C. Adamo, R. Cammi, 
 J. W. Ochterski, R. L. Martin, K. Morokuma, O. Farkas, 
 J. B. Foresman, and D. J. Fox, Gaussian, Inc., Wallingford CT, 2016.
 
 ******************************************
 Gaussian 16:  EM64L-G16RevA.03 25-Dec-2016
                25-Jul-2020 
 ******************************************
 %mem=30GB
 %nproc=8
 Will use up to    8 processors via shared memory.
 ---------------------------------------------------------------
 #P uLC-wPBE/cc-pVDZ iop(3/107=0286800000, 3/108=0286800000) opt
 ---------------------------------------------------------------
 1/18=20,19=15,26=3,38=1/1,3;
 2/9=110,12=2,17=6,18=5,40=1/2;
 3/5=16,11=2,25=1,30=1,71=1,74=-41,107=286800000,108=286800000,116=2/1,2,3;
 4//1;
 5/5=2,38=5/2;
 6/7=2,8=2,9=2,10=2,28=1/1;
 7//1,2,3,16;
 1/18=20,19=15,26=3/3(2);
 2/9=110/2;
 99//99;
 2/9=110/2;
 3/5=16,11=2,25=1,30=1,71=1,74=-41,107=286800000,108=286800000,116=2/1,2,3;
 4/5=5,16=3,69=1/1;
 5/5=2,38=5/2;
 7//1,2,3,16;
 1/18=20,19=15,26=3/3(-5);
 2/9=110/2;
 6/7=2,8=2,9=2,10=2,19=2,28=1/1;
 99/9=1/99;
 Leave Link    1 at Sat Jul 25 03:28:27 2020, MaxMem=  4026531840 cpu:               1.9 elap:               0.3
 (Enter /opt/ohpc/pub/libs/gaussian/g16-A.03/sandybridge/g16/l101.exe)
 --------------
 H6 C9 S1 N1 F1
 --------------
 Symbolic Z-matrix:
 Charge =  0 Multiplicity = 1
 C                    -3.3987   -0.45932  -0.01777 
 C                    -2.57153  -1.49298  -0.02183 
 N                    -1.27826  -1.4763   -0.01107 
 C                    -0.67084  -0.25809  -0.03069 
 C                    -1.36837   0.88803  -0.04159 
 F                    -0.84651   2.14136  -0.04598 
 C                    -2.80642   0.80309   0.02643 
 C                     0.87817  -0.33651   0.03529 
 C                     1.66668  -1.51313   0.02116 
 C                     3.01331  -1.22499   0.04819 
 C                     3.29574   0.16597   0.02977 
 S                     1.84516   1.03239  -0.04635 
 H                    -4.51311  -0.52955  -0.01328 
 H                    -2.97347  -2.51065  -0.02059 
 H                    -3.40417   1.76244   0.02212 
 H                     1.15372  -2.47853  -0.00233 
 H                     3.79324  -2.0036    0.04441 
 H                     4.24648   0.63412  -0.04742 
 
 ITRead=  0  0  0  0  0  0  0  0  0  0  0  0  0  0  0  0  0  0
 MicOpt= -1 -1 -1 -1 -1 -1 -1 -1 -1 -1 -1 -1 -1 -1 -1 -1 -1 -1
 NAtoms=     18 NQM=       18 NQMF=       0 NMMI=      0 NMMIF=      0
                NMic=       0 NMicF=      0.
                    Isotopes and Nuclear Properties:
 (Nuclear quadrupole moments (NQMom) in fm**2, nuclear magnetic moments (NMagM)
  in nuclear magnetons)

  Atom         1           2           3           4           5           6           7           8           9          10
 IAtWgt=          12          12          14          12          12          19          12          12          12          12
 AtmWgt=  12.0000000  12.0000000  14.0030740  12.0000000  12.0000000  18.9984033  12.0000000  12.0000000  12.0000000  12.0000000
 NucSpn=           0           0           2           0           0           1           0           0           0           0
 AtZEff=  -0.0000000  -0.0000000  -0.0000000  -0.0000000  -0.0000000  -0.0000000  -0.0000000  -0.0000000  -0.0000000  -0.0000000
 NQMom=    0.0000000   0.0000000   2.0440000   0.0000000   0.0000000   0.0000000   0.0000000   0.0000000   0.0000000   0.0000000
 NMagM=    0.0000000   0.0000000   0.4037610   0.0000000   0.0000000   2.6288670   0.0000000   0.0000000   0.0000000   0.0000000
 AtZNuc=   6.0000000   6.0000000   7.0000000   6.0000000   6.0000000   9.0000000   6.0000000   6.0000000   6.0000000   6.0000000

  Atom        11          12          13          14          15          16          17          18
 IAtWgt=          12          32           1           1           1           1           1           1
 AtmWgt=  12.0000000  31.9720718   1.0078250   1.0078250   1.0078250   1.0078250   1.0078250   1.0078250
 NucSpn=           0           0           1           1           1           1           1           1
 AtZEff=  -0.0000000  -0.0000000  -0.0000000  -0.0000000  -0.0000000  -0.0000000  -0.0000000  -0.0000000
 NQMom=    0.0000000   0.0000000   0.0000000   0.0000000   0.0000000   0.0000000   0.0000000   0.0000000
 NMagM=    0.0000000   0.0000000   2.7928460   2.7928460   2.7928460   2.7928460   2.7928460   2.7928460
 AtZNuc=   6.0000000  16.0000000   1.0000000   1.0000000   1.0000000   1.0000000   1.0000000   1.0000000
 Leave Link  101 at Sat Jul 25 03:28:28 2020, MaxMem=  4026531840 cpu:               2.8 elap:               0.4
 (Enter /opt/ohpc/pub/libs/gaussian/g16-A.03/sandybridge/g16/l103.exe)

 GradGradGradGradGradGradGradGradGradGradGradGradGradGradGradGradGradGrad
 Berny optimization.
 Initialization pass.
                           ----------------------------
                           !    Initial Parameters    !
                           ! (Angstroms and Degrees)  !
 --------------------------                            --------------------------
 ! Name  Definition              Value          Derivative Info.                !
 --------------------------------------------------------------------------------
 ! R1    R(1,2)                  1.3239         estimate D2E/DX2                !
 ! R2    R(1,7)                  1.3951         estimate D2E/DX2                !
 ! R3    R(1,13)                 1.1166         estimate D2E/DX2                !
 ! R4    R(2,3)                  1.2934         estimate D2E/DX2                !
 ! R5    R(2,14)                 1.0942         estimate D2E/DX2                !
 ! R6    R(3,4)                  1.3614         estimate D2E/DX2                !
 ! R7    R(4,5)                  1.3417         estimate D2E/DX2                !
 ! R8    R(4,8)                  1.5524         estimate D2E/DX2                !
 ! R9    R(5,6)                  1.3576         estimate D2E/DX2                !
 ! R10   R(5,7)                  1.4422         estimate D2E/DX2                !
 ! R11   R(7,15)                 1.1303         estimate D2E/DX2                !
 ! R12   R(8,9)                  1.4165         estimate D2E/DX2                !
 ! R13   R(8,12)                 1.678          estimate D2E/DX2                !
 ! R14   R(9,10)                 1.3774         estimate D2E/DX2                !
 ! R15   R(9,16)                 1.0935         estimate D2E/DX2                !
 ! R16   R(10,11)                1.4195         estimate D2E/DX2                !
 ! R17   R(10,17)                1.1021         estimate D2E/DX2                !
 ! R18   R(11,12)                1.6913         estimate D2E/DX2                !
 ! R19   R(11,18)                1.0626         estimate D2E/DX2                !
 ! A1    A(2,1,7)              116.1897         estimate D2E/DX2                !
 ! A2    A(2,1,13)             125.0624         estimate D2E/DX2                !
 ! A3    A(7,1,13)             118.7159         estimate D2E/DX2                !
 ! A4    A(1,2,3)              127.9254         estimate D2E/DX2                !
 ! A5    A(1,2,14)             119.7793         estimate D2E/DX2                !
 ! A6    A(3,2,14)             112.2899         estimate D2E/DX2                !
 ! A7    A(2,3,4)              117.2289         estimate D2E/DX2                !
 ! A8    A(3,4,5)              122.1761         estimate D2E/DX2                !
 ! A9    A(3,4,8)              113.5404         estimate D2E/DX2                !
 ! A10   A(5,4,8)              124.2104         estimate D2E/DX2                !
 ! A11   A(4,5,6)              126.0691         estimate D2E/DX2                !
 ! A12   A(4,5,7)              117.8853         estimate D2E/DX2                !
 ! A13   A(6,5,7)              115.9646         estimate D2E/DX2                !
 ! A14   A(1,7,5)              118.3668         estimate D2E/DX2                !
 ! A15   A(1,7,15)             122.9121         estimate D2E/DX2                !
 ! A16   A(5,7,15)             118.4998         estimate D2E/DX2                !
 ! A17   A(4,8,9)              126.6549         estimate D2E/DX2                !
 ! A18   A(4,8,12)             122.1238         estimate D2E/DX2                !
 ! A19   A(9,8,12)             110.8777         estimate D2E/DX2                !
 ! A20   A(8,9,10)             111.7333         estimate D2E/DX2                !
 ! A21   A(8,9,16)             118.1935         estimate D2E/DX2                !
 ! A22   A(10,9,16)            130.0721         estimate D2E/DX2                !
 ! A23   A(9,10,11)            113.5317         estimate D2E/DX2                !
 ! A24   A(9,10,17)            122.9593         estimate D2E/DX2                !
 ! A25   A(11,10,17)           123.4678         estimate D2E/DX2                !
 ! A26   A(10,11,12)           109.3858         estimate D2E/DX2                !
 ! A27   A(10,11,18)           127.6408         estimate D2E/DX2                !
 ! A28   A(12,11,18)           122.5764         estimate D2E/DX2                !
 ! A29   A(8,12,11)             94.2522         estimate D2E/DX2                !
 ! D1    D(7,1,2,3)             -1.1956         estimate D2E/DX2                !
 ! D2    D(7,1,2,14)           177.8881         estimate D2E/DX2                !
 ! D3    D(13,1,2,3)          -179.1005         estimate D2E/DX2                !
 ! D4    D(13,1,2,14)           -0.0169         estimate D2E/DX2                !
 ! D5    D(2,1,7,5)              4.7541         estimate D2E/DX2                !
 ! D6    D(2,1,7,15)           179.2618         estimate D2E/DX2                !
 ! D7    D(13,1,7,5)          -177.2011         estimate D2E/DX2                !
 ! D8    D(13,1,7,15)           -2.6934         estimate D2E/DX2                !
 ! D9    D(1,2,3,4)             -1.7683         estimate D2E/DX2                !
 ! D10   D(14,2,3,4)           179.0912         estimate D2E/DX2                !
 ! D11   D(2,3,4,5)              0.9306         estimate D2E/DX2                !
 ! D12   D(2,3,4,8)            177.9435         estimate D2E/DX2                !
 ! D13   D(3,4,5,6)            179.2072         estimate D2E/DX2                !
 ! D14   D(3,4,5,7)              2.6232         estimate D2E/DX2                !
 ! D15   D(8,4,5,6)              2.519          estimate D2E/DX2                !
 ! D16   D(8,4,5,7)           -174.0651         estimate D2E/DX2                !
 ! D17   D(3,4,8,9)              4.4916         estimate D2E/DX2                !
 ! D18   D(3,4,8,12)           177.133          estimate D2E/DX2                !
 ! D19   D(5,4,8,9)           -178.5658         estimate D2E/DX2                !
 ! D20   D(5,4,8,12)            -5.9243         estimate D2E/DX2                !
 ! D21   D(4,5,7,1)             -5.4876         estimate D2E/DX2                !
 ! D22   D(4,5,7,15)           179.7583         estimate D2E/DX2                !
 ! D23   D(6,5,7,1)            177.5832         estimate D2E/DX2                !
 ! D24   D(6,5,7,15)             2.8291         estimate D2E/DX2                !
 ! D25   D(4,8,9,10)           177.9753         estimate D2E/DX2                !
 ! D26   D(4,8,9,16)            -2.3727         estimate D2E/DX2                !
 ! D27   D(12,8,9,10)            4.6419         estimate D2E/DX2                !
 ! D28   D(12,8,9,16)         -175.7061         estimate D2E/DX2                !
 ! D29   D(4,8,12,11)         -178.1613         estimate D2E/DX2                !
 ! D30   D(9,8,12,11)           -4.4749         estimate D2E/DX2                !
 ! D31   D(8,9,10,11)           -2.3646         estimate D2E/DX2                !
 ! D32   D(8,9,10,17)          179.8997         estimate D2E/DX2                !
 ! D33   D(16,9,10,11)         178.0363         estimate D2E/DX2                !
 ! D34   D(16,9,10,17)           0.3006         estimate D2E/DX2                !
 ! D35   D(9,10,11,12)          -0.9228         estimate D2E/DX2                !
 ! D36   D(9,10,11,18)        -173.7612         estimate D2E/DX2                !
 ! D37   D(17,10,11,12)        176.7997         estimate D2E/DX2                !
 ! D38   D(17,10,11,18)          3.9613         estimate D2E/DX2                !
 ! D39   D(10,11,12,8)           3.1111         estimate D2E/DX2                !
 ! D40   D(18,11,12,8)         176.3834         estimate D2E/DX2                !
 --------------------------------------------------------------------------------
 Trust Radius=3.00D-01 FncErr=1.00D-07 GrdErr=1.00D-06 EigMax=2.50D+02 EigMin=1.00D-04
 Number of steps in this run=     98 maximum allowed number of steps=    108.
 GradGradGradGradGradGradGradGradGradGradGradGradGradGradGradGradGradGrad

 Leave Link  103 at Sat Jul 25 03:28:28 2020, MaxMem=  4026531840 cpu:               0.1 elap:               0.0
 (Enter /opt/ohpc/pub/libs/gaussian/g16-A.03/sandybridge/g16/l202.exe)
                          Input orientation:                          
 ---------------------------------------------------------------------
 Center     Atomic      Atomic             Coordinates (Angstroms)
 Number     Number       Type             X           Y           Z
 ---------------------------------------------------------------------
      1          6           0       -3.398699   -0.459318   -0.017768
      2          6           0       -2.571529   -1.492981   -0.021826
      3          7           0       -1.278259   -1.476301   -0.011065
      4          6           0       -0.670835   -0.258093   -0.030688
      5          6           0       -1.368374    0.888027   -0.041594
      6          9           0       -0.846508    2.141356   -0.045983
      7          6           0       -2.806419    0.803094    0.026429
      8          6           0        0.878171   -0.336506    0.035291
      9          6           0        1.666682   -1.513125    0.021160
     10          6           0        3.013315   -1.224994    0.048188
     11          6           0        3.295737    0.165969    0.029771
     12         16           0        1.845163    1.032393   -0.046353
     13          1           0       -4.513114   -0.529546   -0.013277
     14          1           0       -2.973473   -2.510645   -0.020589
     15          1           0       -3.404173    1.762438    0.022124
     16          1           0        1.153715   -2.478532   -0.002333
     17          1           0        3.793237   -2.003599    0.044407
     18          1           0        4.246480    0.634119   -0.047417
 ---------------------------------------------------------------------
                    Distance matrix (angstroms):
                    1          2          3          4          5
     1  C    0.000000
     2  C    1.323890   0.000000
     3  N    2.351715   1.293422   0.000000
     4  C    2.735306   2.266642   1.361389   0.000000
     5  C    2.436827   2.667803   2.366242   1.341742   0.000000
     6  F    3.643896   4.023020   3.643497   2.405920   1.357644
     7  C    1.395146   2.308563   2.744507   2.385393   1.442156
     8  C    4.278962   3.638836   2.439564   1.552392   2.559757
     9  C    5.173984   4.238477   2.945348   2.653635   3.870534
    10  C    6.457905   5.591708   4.299334   3.809735   4.865400
    11  C    6.723743   6.097507   4.860057   3.989634   4.720211
    12  S    5.451982   5.087758   4.006314   2.827693   3.216782
    13  H    1.116635   2.167494   3.370554   3.851895   3.449595
    14  H    2.094939   1.094167   1.985877   3.221216   3.758691
    15  H    2.222121   3.360503   3.874280   3.399481   2.216559
    16  H    4.980154   3.853457   2.630407   2.874045   4.206684
    17  H    7.356128   6.385559   5.099136   4.793784   5.917020
    18  H    7.723033   7.142160   5.914215   4.997630   5.620595
                    6          7          8          9         10
     6  F    0.000000
     7  C    2.374329   0.000000
     8  C    3.020087   3.856808   0.000000
     9  C    4.435748   5.037215   1.416468   0.000000
    10  C    5.122442   6.163028   2.312665   1.377378   0.000000
    11  C    4.589781   6.135328   2.469238   2.339498   1.419464
    12  S    2.911167   4.657799   1.677982   2.552660   2.543484
    13  H    4.536385   2.165713   5.394959   6.257675   7.558741
    14  H    5.115246   3.318280   4.423253   4.746349   6.123664
    15  H    2.586478   1.130340   4.769089   6.036794   7.078812
    16  H    5.034497   5.143205   2.160004   1.093480   2.243217
    17  H    6.222223   7.171702   3.358108   2.182508   1.102052
    18  H    5.311336   7.055309   3.506346   3.357189   2.232966
                   11         12         13         14         15
    11  C    0.000000
    12  S    1.691346   0.000000
    13  H    7.839882   6.547399   0.000000
    14  H    6.816876   5.981056   2.509044   0.000000
    15  H    6.887493   5.300300   2.546408   4.294946   0.000000
    16  H    3.403333   3.578636   5.992630   4.127353   6.225815
    17  H    2.225926   3.608390   8.436328   6.785992   8.123192
    18  H    1.062560   2.434121   8.836615   7.875150   7.733720
                   16         17         18
    16  H    0.000000
    17  H    2.682317   0.000000
    18  H    4.388146   2.677950   0.000000
 Stoichiometry    C9H6FNS
 Framework group  C1[X(C9H6FNS)]
 Deg. of freedom    48
 Full point group                 C1      NOp   1
 Largest Abelian subgroup         C1      NOp   1
 Largest concise Abelian subgroup C1      NOp   1
                         Standard orientation:                         
 ---------------------------------------------------------------------
 Center     Atomic      Atomic             Coordinates (Angstroms)
 Number     Number       Type             X           Y           Z
 ---------------------------------------------------------------------
      1          6           0       -3.393577   -0.453432   -0.001332
      2          6           0       -2.567443   -1.487711   -0.022672
      3          7           0       -1.274127   -1.472388   -0.016388
      4          6           0       -0.665581   -0.254592   -0.021399
      5          6           0       -1.362028    0.892219   -0.013940
      6          9           0       -0.838950    2.145002   -0.002922
      7          6           0       -2.799900    0.807696    0.058136
      8          6           0        0.883576   -0.335354    0.037854
      9          6           0        1.670874   -1.512400    0.004608
     10          6           0        3.017879   -1.225926    0.030711
     11          6           0        3.301599    0.164894    0.030474
     12         16           0        1.851611    1.033640   -0.028400
     13          1           0       -4.508037   -0.522676    0.006245
     14          1           0       -2.970380   -2.504920   -0.034024
     15          1           0       -3.396722    1.767565    0.069254
     16          1           0        1.156876   -2.476912   -0.030346
     17          1           0        3.797016   -2.005132    0.013342
     18          1           0        4.252516    0.633179   -0.043702
 ---------------------------------------------------------------------
 Rotational constants (GHZ):           1.8963676           0.5995866           0.4556611
 Leave Link  202 at Sat Jul 25 03:28:28 2020, MaxMem=  4026531840 cpu:               0.1 elap:               0.0
 (Enter /opt/ohpc/pub/libs/gaussian/g16-A.03/sandybridge/g16/l301.exe)
 Standard basis: CC-pVDZ (5D, 7F)
 Ernie: Thresh=  0.10000D-02 Tol=  0.10000D-05 Strict=F.
 Ernie:  32 primitive shells out of 322 were deleted.
 There are   214 symmetry adapted cartesian basis functions of A   symmetry.
 There are   202 symmetry adapted basis functions of A   symmetry.
   202 basis functions,   476 primitive gaussians,   214 cartesian basis functions
    46 alpha electrons       46 beta electrons
       nuclear repulsion energy       734.9280705855 Hartrees.
 IExCor=32609 DFT=T Ex+Corr=LC-wPBE ExCW=0 ScaHFX=  1.000000
 ScaDFX=  1.000000  0.000000  1.000000  1.000000 ScalE2=  1.000000  1.000000
 IRadAn=      5 IRanWt=     -1 IRanGd=            0 ICorTp=0 IEmpDi=  4
 HFx  wShort=  0.000000 wLong=  0.286800 cFull=  0.000000 cShort=  0.000000 cLong=  1.000000
 DFx  wShort=  0.000000 wLong=  0.286800 cFull=  0.000000 cShort=  0.000000 cLong=  1.000000
 NAtoms=   18 NActive=   18 NUniq=   18 SFac= 1.00D+00 NAtFMM=   60 NAOKFM=F Big=F
 Integral buffers will be    131072 words long.
 Raffenetti 2 integral format.
 Two-electron integral symmetry is turned on.
 Leave Link  301 at Sat Jul 25 03:28:28 2020, MaxMem=  4026531840 cpu:               0.4 elap:               0.1
 (Enter /opt/ohpc/pub/libs/gaussian/g16-A.03/sandybridge/g16/l302.exe)
 NPDir=0 NMtPBC=     1 NCelOv=     1 NCel=       1 NClECP=     1 NCelD=      1
         NCelK=      1 NCelE2=     1 NClLst=     1 CellRange=     0.0.
 One-electron integrals computed using PRISM.
 One-electron integral symmetry used in STVInt
 NBasis=   202 RedAO= T EigKep=  5.16D-04  NBF=   202
 NBsUse=   202 1.00D-06 EigRej= -1.00D+00 NBFU=   202
 Precomputing XC quadrature grid using
 IXCGrd= 4 IRadAn=           5 IRanWt=          -1 IRanGd=           0 AccXCQ= 0.00D+00.
 Generated NRdTot=       0 NPtTot=           0 NUsed=           0 NTot=          32
 NSgBfM=   214   214   214   214   214 MxSgAt=    18 MxSgA2=    18.
 Leave Link  302 at Sat Jul 25 03:28:28 2020, MaxMem=  4026531840 cpu:               1.7 elap:               0.2
 (Enter /opt/ohpc/pub/libs/gaussian/g16-A.03/sandybridge/g16/l303.exe)
 DipDrv:  MaxL=1.
 Leave Link  303 at Sat Jul 25 03:28:28 2020, MaxMem=  4026531840 cpu:               0.3 elap:               0.1
 (Enter /opt/ohpc/pub/libs/gaussian/g16-A.03/sandybridge/g16/l401.exe)
 ExpMin= 1.22D-01 ExpMax= 1.11D+05 ExpMxC= 1.07D+03 IAcc=3 IRadAn=         5 AccDes= 0.00D+00
 Harris functional with IExCor=32609 and IRadAn=       5 diagonalized for initial guess.
 HarFok:  IExCor=32609 AccDes= 0.00D+00 IRadAn=         5 IDoV= 1 UseB2=F ITyADJ=14
 ICtDFT=  3500011 ScaDFX=  1.000000  1.000000  1.000000  1.000000
 FoFCou: FMM=F IPFlag=           0 FMFlag=      100000 FMFlg1=           0
         NFxFlg=           0 DoJE=T BraDBF=F KetDBF=T FulRan=T
         wScrn=  0.000000 ICntrl=       500 IOpCl=  0 I1Cent=   200000004 NGrid=           0
         NMat0=    1 NMatS0=      1 NMatT0=    0 NMatD0=    1 NMtDS0=    0 NMtDT0=    0
 Petite list used in FoFCou.
 Harris En= -898.753498567279    
 JPrj=0 DoOrth=F DoCkMO=F.
 Initial guess <Sx>= 0.0000 <Sy>= 0.0000 <Sz>= 0.0000 <S**2>=-0.0000 S=-0.0000
 Leave Link  401 at Sat Jul 25 03:28:29 2020, MaxMem=  4026531840 cpu:               8.7 elap:               1.1
 (Enter /opt/ohpc/pub/libs/gaussian/g16-A.03/sandybridge/g16/l502.exe)
 Integral symmetry usage will be decided dynamically.
 UHF open shell SCF:
 Using DIIS extrapolation, IDIIS=  1040.
 NGot=  4026531840 LenX=  4026436264 LenY=  4026390027
 Requested convergence on RMS density matrix=1.00D-08 within 128 cycles.
 Requested convergence on MAX density matrix=1.00D-06.
 Requested convergence on             energy=1.00D-06.
 No special actions if energy rises.
 Fock matrices will be formed incrementally for  20 cycles.
 Integral accuracy reduced to 1.0D-05 until final iterations.

 Cycle   1  Pass 0  IDiag  1:
 FoFJK:  IHMeth= 1 ICntrl=       0 DoSepK=T KAlg= 0 I1Cent=           0 FoldK=F
 IRaf=         1 NMat=       1 IRICut=       1 DoRegI=T DoRafI=F ISym2E= 0 IDoP0=0 IntGTp=1.
 FoFCou: FMM=F IPFlag=           0 FMFlag=      100000 FMFlg1=           0
         NFxFlg=           0 DoJE=T BraDBF=F KetDBF=F FulRan=T
         wScrn=  0.000000 ICntrl=       500 IOpCl=  0 I1Cent=           0 NGrid=           0
         NMat0=    1 NMatS0=      1 NMatT0=    0 NMatD0=    1 NMtDS0=    0 NMtDT0=    0
 Symmetry not used in FoFCou.
 E= -898.555286495817    
 DIIS: error= 2.53D-02 at cycle   1 NSaved=   1.
 NSaved= 1 IEnMin= 1 EnMin= -898.555286495817     IErMin= 1 ErrMin= 2.53D-02
 ErrMax= 2.53D-02  0.00D+00 EMaxC= 1.00D-01 BMatC= 9.40D-01 BMatP= 9.40D-01
 IDIUse=3 WtCom= 7.47D-01 WtEn= 2.53D-01
 Coeff-Com:  0.100D+01
 Coeff-En:   0.100D+01
 Coeff:      0.100D+01
 Gap=     0.333 Goal=   None    Shift=    0.000
 Gap=     0.333 Goal=   None    Shift=    0.000
 GapD=    0.333 DampG=1.000 DampE=0.500 DampFc=0.5000 IDamp=-1.
 Damping current iteration by 5.00D-01
 RMSDP=4.95D-03 MaxDP=1.56D-01              OVMax= 2.58D-01

 Cycle   2  Pass 0  IDiag  1:
 RMSU=  2.46D-03    CP:  9.90D-01
 E= -898.681447477058     Delta-E=       -0.126160981241 Rises=F Damp=T
 DIIS: error= 5.31D-03 at cycle   2 NSaved=   2.
 NSaved= 2 IEnMin= 2 EnMin= -898.681447477058     IErMin= 2 ErrMin= 5.31D-03
 ErrMax= 5.31D-03  0.00D+00 EMaxC= 1.00D-01 BMatC= 4.45D-02 BMatP= 9.40D-01
 IDIUse=3 WtCom= 9.47D-01 WtEn= 5.31D-02
 Coeff-Com:  0.310D-01 0.969D+00
 Coeff-En:   0.312D-01 0.969D+00
 Coeff:      0.310D-01 0.969D+00
 Gap=     0.317 Goal=   None    Shift=    0.000
 Gap=     0.317 Goal=   None    Shift=    0.000
 RMSDP=1.35D-03 MaxDP=2.37D-02 DE=-1.26D-01 OVMax= 1.68D-01

 Cycle   3  Pass 0  IDiag  1:
 RMSU=  1.34D-03    CP:  9.85D-01  1.02D+00
 E= -898.821455260332     Delta-E=       -0.140007783274 Rises=F Damp=F
 DIIS: error= 3.24D-03 at cycle   3 NSaved=   3.
 NSaved= 3 IEnMin= 3 EnMin= -898.821455260332     IErMin= 3 ErrMin= 3.24D-03
 ErrMax= 3.24D-03  0.00D+00 EMaxC= 1.00D-01 BMatC= 1.70D-02 BMatP= 4.45D-02
 IDIUse=3 WtCom= 9.68D-01 WtEn= 3.24D-02
 Coeff-Com: -0.171D-01 0.358D+00 0.659D+00
 Coeff-En:   0.000D+00 0.000D+00 0.100D+01
 Coeff:     -0.166D-01 0.346D+00 0.670D+00
 Gap=     0.316 Goal=   None    Shift=    0.000
 Gap=     0.316 Goal=   None    Shift=    0.000
 RMSDP=4.02D-04 MaxDP=1.14D-02 DE=-1.40D-01 OVMax= 2.44D-02

 Cycle   4  Pass 0  IDiag  1:
 RMSU=  3.42D-04    CP:  9.85D-01  1.07D+00  8.69D-01
 E= -898.825530555255     Delta-E=       -0.004075294923 Rises=F Damp=F
 DIIS: error= 1.20D-03 at cycle   4 NSaved=   4.
 NSaved= 4 IEnMin= 4 EnMin= -898.825530555255     IErMin= 4 ErrMin= 1.20D-03
 ErrMax= 1.20D-03  0.00D+00 EMaxC= 1.00D-01 BMatC= 2.37D-03 BMatP= 1.70D-02
 IDIUse=3 WtCom= 9.88D-01 WtEn= 1.20D-02
 Coeff-Com: -0.214D-02 0.318D-01 0.268D+00 0.702D+00
 Coeff-En:   0.000D+00 0.000D+00 0.000D+00 0.100D+01
 Coeff:     -0.212D-02 0.314D-01 0.265D+00 0.706D+00
 Gap=     0.315 Goal=   None    Shift=    0.000
 Gap=     0.315 Goal=   None    Shift=    0.000
 RMSDP=1.47D-04 MaxDP=4.46D-03 DE=-4.08D-03 OVMax= 6.46D-03

 Cycle   5  Pass 0  IDiag  1:
 RMSU=  1.21D-04    CP:  9.85D-01  1.06D+00  9.16D-01  8.49D-01
 E= -898.826147910633     Delta-E=       -0.000617355378 Rises=F Damp=F
 DIIS: error= 5.32D-04 at cycle   5 NSaved=   5.
 NSaved= 5 IEnMin= 5 EnMin= -898.826147910633     IErMin= 5 ErrMin= 5.32D-04
 ErrMax= 5.32D-04  0.00D+00 EMaxC= 1.00D-01 BMatC= 2.67D-04 BMatP= 2.37D-03
 IDIUse=3 WtCom= 9.95D-01 WtEn= 5.32D-03
 Coeff-Com:  0.347D-02-0.273D-01 0.423D-01 0.282D+00 0.700D+00
 Coeff-En:   0.000D+00 0.000D+00 0.000D+00 0.000D+00 0.100D+01
 Coeff:      0.345D-02-0.272D-01 0.420D-01 0.280D+00 0.702D+00
 Gap=     0.316 Goal=   None    Shift=    0.000
 Gap=     0.316 Goal=   None    Shift=    0.000
 RMSDP=5.75D-05 MaxDP=1.42D-03 DE=-6.17D-04 OVMax= 3.49D-03

 Cycle   6  Pass 0  IDiag  1:
 RMSU=  4.25D-05    CP:  9.85D-01  1.06D+00  9.36D-01  9.26D-01  9.52D-01
 E= -898.826231837559     Delta-E=       -0.000083926926 Rises=F Damp=F
 DIIS: error= 1.41D-04 at cycle   6 NSaved=   6.
 NSaved= 6 IEnMin= 6 EnMin= -898.826231837559     IErMin= 6 ErrMin= 1.41D-04
 ErrMax= 1.41D-04  0.00D+00 EMaxC= 1.00D-01 BMatC= 3.22D-05 BMatP= 2.67D-04
 IDIUse=3 WtCom= 9.99D-01 WtEn= 1.41D-03
 Coeff-Com:  0.295D-02-0.175D-01-0.243D-01-0.594D-02 0.225D+00 0.820D+00
 Coeff-En:   0.000D+00 0.000D+00 0.000D+00 0.000D+00 0.000D+00 0.100D+01
 Coeff:      0.294D-02-0.175D-01-0.243D-01-0.593D-02 0.224D+00 0.820D+00
 Gap=     0.316 Goal=   None    Shift=    0.000
 Gap=     0.316 Goal=   None    Shift=    0.000
 RMSDP=2.62D-05 MaxDP=1.05D-03 DE=-8.39D-05 OVMax= 2.46D-03

 Cycle   7  Pass 0  IDiag  1:
 RMSU=  1.65D-05    CP:  9.85D-01  1.06D+00  9.43D-01  9.47D-01  1.08D+00
                    CP:  1.14D+00
 E= -898.826248283423     Delta-E=       -0.000016445864 Rises=F Damp=F
 DIIS: error= 7.61D-05 at cycle   7 NSaved=   7.
 NSaved= 7 IEnMin= 7 EnMin= -898.826248283423     IErMin= 7 ErrMin= 7.61D-05
 ErrMax= 7.61D-05  0.00D+00 EMaxC= 1.00D-01 BMatC= 4.72D-06 BMatP= 3.22D-05
 IDIUse=1 WtCom= 1.00D+00 WtEn= 0.00D+00
 Coeff-Com:  0.685D-03-0.186D-02-0.922D-02-0.357D-01-0.487D-01 0.212D+00
 Coeff-Com:  0.883D+00
 Coeff:      0.685D-03-0.186D-02-0.922D-02-0.357D-01-0.487D-01 0.212D+00
 Coeff:      0.883D+00
 Gap=     0.316 Goal=   None    Shift=    0.000
 Gap=     0.316 Goal=   None    Shift=    0.000
 RMSDP=1.30D-05 MaxDP=4.60D-04 DE=-1.64D-05 OVMax= 1.13D-03

 Cycle   8  Pass 0  IDiag  1:
 RMSU=  6.91D-06    CP:  9.85D-01  1.06D+00  9.46D-01  9.59D-01  1.12D+00
                    CP:  1.32D+00  1.16D+00
 E= -898.826251350122     Delta-E=       -0.000003066699 Rises=F Damp=F
 DIIS: error= 3.40D-05 at cycle   8 NSaved=   8.
 NSaved= 8 IEnMin= 8 EnMin= -898.826251350122     IErMin= 8 ErrMin= 3.40D-05
 ErrMax= 3.40D-05  0.00D+00 EMaxC= 1.00D-01 BMatC= 1.24D-06 BMatP= 4.72D-06
 IDIUse=1 WtCom= 1.00D+00 WtEn= 0.00D+00
 Coeff-Com: -0.863D-04 0.189D-02 0.419D-03-0.143D-01-0.625D-01-0.612D-01
 Coeff-Com:  0.385D+00 0.751D+00
 Coeff:     -0.863D-04 0.189D-02 0.419D-03-0.143D-01-0.625D-01-0.612D-01
 Coeff:      0.385D+00 0.751D+00
 Gap=     0.316 Goal=   None    Shift=    0.000
 Gap=     0.316 Goal=   None    Shift=    0.000
 RMSDP=5.73D-06 MaxDP=2.03D-04 DE=-3.07D-06 OVMax= 5.59D-04

 Initial convergence to 1.0D-05 achieved.  Increase integral accuracy.
 Cycle   9  Pass 1  IDiag  1:
 E= -898.826092433894     Delta-E=        0.000158916228 Rises=F Damp=F
 DIIS: error= 4.27D-05 at cycle   1 NSaved=   1.
 NSaved= 1 IEnMin= 1 EnMin= -898.826092433894     IErMin= 1 ErrMin= 4.27D-05
 ErrMax= 4.27D-05  0.00D+00 EMaxC= 1.00D-01 BMatC= 1.06D-06 BMatP= 1.06D-06
 IDIUse=1 WtCom= 1.00D+00 WtEn= 0.00D+00
 Coeff-Com:  0.100D+01
 Coeff:      0.100D+01
 Gap=     0.316 Goal=   None    Shift=    0.000
 Gap=     0.316 Goal=   None    Shift=    0.000
 RMSDP=5.73D-06 MaxDP=2.03D-04 DE= 1.59D-04 OVMax= 1.77D-04

 Cycle  10  Pass 1  IDiag  1:
 RMSU=  2.81D-05    CP:  1.00D+00
 E= -898.826092688704     Delta-E=       -0.000000254810 Rises=F Damp=F
 DIIS: error= 1.35D-05 at cycle   2 NSaved=   2.
 NSaved= 2 IEnMin= 2 EnMin= -898.826092688704     IErMin= 2 ErrMin= 1.35D-05
 ErrMax= 1.35D-05  0.00D+00 EMaxC= 1.00D-01 BMatC= 1.17D-07 BMatP= 1.06D-06
 IDIUse=1 WtCom= 1.00D+00 WtEn= 0.00D+00
 Coeff-Com:  0.110D+00 0.890D+00
 Coeff:      0.110D+00 0.890D+00
 Gap=     0.316 Goal=   None    Shift=    0.000
 Gap=     0.316 Goal=   None    Shift=    0.000
 RMSDP=2.33D-06 MaxDP=5.94D-05 DE=-2.55D-07 OVMax= 1.13D-04

 Cycle  11  Pass 1  IDiag  1:
 RMSU=  1.80D-06    CP:  1.00D+00  1.05D+00
 E= -898.826092709908     Delta-E=       -0.000000021204 Rises=F Damp=F
 DIIS: error= 1.41D-05 at cycle   3 NSaved=   3.
 NSaved= 3 IEnMin= 3 EnMin= -898.826092709908     IErMin= 2 ErrMin= 1.35D-05
 ErrMax= 1.41D-05  0.00D+00 EMaxC= 1.00D-01 BMatC= 1.36D-07 BMatP= 1.17D-07
 IDIUse=1 WtCom= 1.00D+00 WtEn= 0.00D+00
 Coeff-Com: -0.353D-01 0.529D+00 0.506D+00
 Coeff:     -0.353D-01 0.529D+00 0.506D+00
 Gap=     0.316 Goal=   None    Shift=    0.000
 Gap=     0.316 Goal=   None    Shift=    0.000
 RMSDP=9.47D-07 MaxDP=3.00D-05 DE=-2.12D-08 OVMax= 6.14D-05

 Cycle  12  Pass 1  IDiag  1:
 RMSU=  6.73D-07    CP:  1.00D+00  1.06D+00  6.69D-01
 E= -898.826092754901     Delta-E=       -0.000000044993 Rises=F Damp=F
 DIIS: error= 1.97D-06 at cycle   4 NSaved=   4.
 NSaved= 4 IEnMin= 4 EnMin= -898.826092754901     IErMin= 4 ErrMin= 1.97D-06
 ErrMax= 1.97D-06  0.00D+00 EMaxC= 1.00D-01 BMatC= 3.02D-09 BMatP= 1.17D-07
 IDIUse=1 WtCom= 1.00D+00 WtEn= 0.00D+00
 Coeff-Com: -0.521D-02-0.110D+00-0.603D-01 0.118D+01
 Coeff:     -0.521D-02-0.110D+00-0.603D-01 0.118D+01
 Gap=     0.316 Goal=   None    Shift=    0.000
 Gap=     0.316 Goal=   None    Shift=    0.000
 RMSDP=4.57D-07 MaxDP=1.50D-05 DE=-4.50D-08 OVMax= 4.22D-05

 Cycle  13  Pass 1  IDiag  1:
 RMSU=  2.33D-07    CP:  1.00D+00  1.07D+00  7.75D-01  1.50D+00
 E= -898.826092759165     Delta-E=       -0.000000004264 Rises=F Damp=F
 DIIS: error= 1.19D-06 at cycle   5 NSaved=   5.
 NSaved= 5 IEnMin= 5 EnMin= -898.826092759165     IErMin= 5 ErrMin= 1.19D-06
 ErrMax= 1.19D-06  0.00D+00 EMaxC= 1.00D-01 BMatC= 1.01D-09 BMatP= 3.02D-09
 IDIUse=1 WtCom= 1.00D+00 WtEn= 0.00D+00
 Coeff-Com:  0.926D-02-0.220D+00-0.197D+00 0.492D+00 0.916D+00
 Coeff:      0.926D-02-0.220D+00-0.197D+00 0.492D+00 0.916D+00
 Gap=     0.316 Goal=   None    Shift=    0.000
 Gap=     0.316 Goal=   None    Shift=    0.000
 RMSDP=2.84D-07 MaxDP=7.98D-06 DE=-4.26D-09 OVMax= 2.74D-05

 Cycle  14  Pass 1  IDiag  1:
 RMSU=  1.01D-07    CP:  1.00D+00  1.07D+00  8.30D-01  1.86D+00  1.21D+00
 E= -898.826092760255     Delta-E=       -0.000000001090 Rises=F Damp=F
 DIIS: error= 3.25D-07 at cycle   6 NSaved=   6.
 NSaved= 6 IEnMin= 6 EnMin= -898.826092760255     IErMin= 6 ErrMin= 3.25D-07
 ErrMax= 3.25D-07  0.00D+00 EMaxC= 1.00D-01 BMatC= 1.09D-10 BMatP= 1.01D-09
 IDIUse=1 WtCom= 1.00D+00 WtEn= 0.00D+00
 Coeff-Com:  0.426D-02-0.888D-01-0.822D-01 0.143D+00 0.407D+00 0.616D+00
 Coeff:      0.426D-02-0.888D-01-0.822D-01 0.143D+00 0.407D+00 0.616D+00
 Gap=     0.316 Goal=   None    Shift=    0.000
 Gap=     0.316 Goal=   None    Shift=    0.000
 RMSDP=4.03D-08 MaxDP=1.24D-06 DE=-1.09D-09 OVMax= 3.19D-06

 Cycle  15  Pass 1  IDiag  1:
 RMSU=  2.83D-08    CP:  1.00D+00  1.07D+00  8.33D-01  1.89D+00  1.30D+00
                    CP:  1.03D+00
 E= -898.826092760279     Delta-E=       -0.000000000024 Rises=F Damp=F
 DIIS: error= 1.13D-07 at cycle   7 NSaved=   7.
 NSaved= 7 IEnMin= 7 EnMin= -898.826092760279     IErMin= 7 ErrMin= 1.13D-07
 ErrMax= 1.13D-07  0.00D+00 EMaxC= 1.00D-01 BMatC= 1.09D-11 BMatP= 1.09D-10
 IDIUse=1 WtCom= 1.00D+00 WtEn= 0.00D+00
 Coeff-Com: -0.343D-03 0.128D-01 0.972D-02-0.509D-01-0.313D-01 0.208D+00
 Coeff-Com:  0.852D+00
 Coeff:     -0.343D-03 0.128D-01 0.972D-02-0.509D-01-0.313D-01 0.208D+00
 Coeff:      0.852D+00
 Gap=     0.316 Goal=   None    Shift=    0.000
 Gap=     0.316 Goal=   None    Shift=    0.000
 RMSDP=1.91D-08 MaxDP=3.81D-07 DE=-2.39D-11 OVMax= 1.29D-06

 Cycle  16  Pass 1  IDiag  1:
 RMSU=  1.06D-08    CP:  1.00D+00  1.07D+00  8.33D-01  1.89D+00  1.33D+00
                    CP:  1.13D+00  9.80D-01
 E= -898.826092760279     Delta-E=       -0.000000000000 Rises=F Damp=F
 DIIS: error= 4.26D-08 at cycle   8 NSaved=   8.
 NSaved= 8 IEnMin= 8 EnMin= -898.826092760279     IErMin= 8 ErrMin= 4.26D-08
 ErrMax= 4.26D-08  0.00D+00 EMaxC= 1.00D-01 BMatC= 1.27D-12 BMatP= 1.09D-11
 IDIUse=1 WtCom= 1.00D+00 WtEn= 0.00D+00
 Coeff-Com: -0.476D-03 0.118D-01 0.101D-01-0.298D-01-0.431D-01 0.774D-02
 Coeff-Com:  0.268D+00 0.776D+00
 Coeff:     -0.476D-03 0.118D-01 0.101D-01-0.298D-01-0.431D-01 0.774D-02
 Coeff:      0.268D+00 0.776D+00
 Gap=     0.316 Goal=   None    Shift=    0.000
 Gap=     0.316 Goal=   None    Shift=    0.000
 RMSDP=5.66D-09 MaxDP=1.37D-07 DE=-4.55D-13 OVMax= 4.67D-07

 SCF Done:  E(ULC-wPBE) =  -898.826092760     A.U. after   16 cycles
            NFock= 16  Conv=0.57D-08     -V/T= 2.0044
 <Sx>= 0.0000 <Sy>= 0.0000 <Sz>= 0.0000 <S**2>=-0.0000 S=-0.0000
 <L.S>= 0.000000000000E+00
 KE= 8.949080894874D+02 PE=-3.585301169731D+03 EE= 1.056638916897D+03
 Annihilation of the first spin contaminant:
 S**2 before annihilation    -0.0000,   after     0.0000
 Leave Link  502 at Sat Jul 25 03:29:17 2020, MaxMem=  4026531840 cpu:             376.9 elap:              47.4
 (Enter /opt/ohpc/pub/libs/gaussian/g16-A.03/sandybridge/g16/l601.exe)
 Copying SCF densities to generalized density rwf, IOpCl= 1 IROHF=0.

 **********************************************************************

            Population analysis using the SCF density.

 **********************************************************************

 Orbital symmetries:
 Alpha Orbitals:
       Occupied  (A) (A) (A) (A) (A) (A) (A) (A) (A) (A) (A) (A)
                 (A) (A) (A) (A) (A) (A) (A) (A) (A) (A) (A) (A)
                 (A) (A) (A) (A) (A) (A) (A) (A) (A) (A) (A) (A)
                 (A) (A) (A) (A) (A) (A) (A) (A) (A) (A)
       Virtual   (A) (A) (A) (A) (A) (A) (A) (A) (A) (A) (A) (A)
                 (A) (A) (A) (A) (A) (A) (A) (A) (A) (A) (A) (A)
                 (A) (A) (A) (A) (A) (A) (A) (A) (A) (A) (A) (A)
                 (A) (A) (A) (A) (A) (A) (A) (A) (A) (A) (A) (A)
                 (A) (A) (A) (A) (A) (A) (A) (A) (A) (A) (A) (A)
                 (A) (A) (A) (A) (A) (A) (A) (A) (A) (A) (A) (A)
                 (A) (A) (A) (A) (A) (A) (A) (A) (A) (A) (A) (A)
                 (A) (A) (A) (A) (A) (A) (A) (A) (A) (A) (A) (A)
                 (A) (A) (A) (A) (A) (A) (A) (A) (A) (A) (A) (A)
                 (A) (A) (A) (A) (A) (A) (A) (A) (A) (A) (A) (A)
                 (A) (A) (A) (A) (A) (A) (A) (A) (A) (A) (A) (A)
                 (A) (A) (A) (A) (A) (A) (A) (A) (A) (A) (A) (A)
                 (A) (A) (A) (A) (A) (A) (A) (A) (A) (A) (A) (A)
 Beta  Orbitals:
       Occupied  (A) (A) (A) (A) (A) (A) (A) (A) (A) (A) (A) (A)
                 (A) (A) (A) (A) (A) (A) (A) (A) (A) (A) (A) (A)
                 (A) (A) (A) (A) (A) (A) (A) (A) (A) (A) (A) (A)
                 (A) (A) (A) (A) (A) (A) (A) (A) (A) (A)
       Virtual   (A) (A) (A) (A) (A) (A) (A) (A) (A) (A) (A) (A)
                 (A) (A) (A) (A) (A) (A) (A) (A) (A) (A) (A) (A)
                 (A) (A) (A) (A) (A) (A) (A) (A) (A) (A) (A) (A)
                 (A) (A) (A) (A) (A) (A) (A) (A) (A) (A) (A) (A)
                 (A) (A) (A) (A) (A) (A) (A) (A) (A) (A) (A) (A)
                 (A) (A) (A) (A) (A) (A) (A) (A) (A) (A) (A) (A)
                 (A) (A) (A) (A) (A) (A) (A) (A) (A) (A) (A) (A)
                 (A) (A) (A) (A) (A) (A) (A) (A) (A) (A) (A) (A)
                 (A) (A) (A) (A) (A) (A) (A) (A) (A) (A) (A) (A)
                 (A) (A) (A) (A) (A) (A) (A) (A) (A) (A) (A) (A)
                 (A) (A) (A) (A) (A) (A) (A) (A) (A) (A) (A) (A)
                 (A) (A) (A) (A) (A) (A) (A) (A) (A) (A) (A) (A)
                 (A) (A) (A) (A) (A) (A) (A) (A) (A) (A) (A) (A)
 The electronic state is 1-A.
 Alpha  occ. eigenvalues --  -88.26017 -24.46072 -14.16630 -10.15736 -10.12179
 Alpha  occ. eigenvalues --  -10.10135 -10.09312 -10.09214 -10.08230 -10.07990
 Alpha  occ. eigenvalues --  -10.06302 -10.05870  -7.86656  -5.88460  -5.87948
 Alpha  occ. eigenvalues --   -5.87725  -1.29747  -1.05625  -0.98142  -0.90674
 Alpha  occ. eigenvalues --   -0.88803  -0.83410  -0.81021  -0.74784  -0.73258
 Alpha  occ. eigenvalues --   -0.66557  -0.64772  -0.62798  -0.61499  -0.60317
 Alpha  occ. eigenvalues --   -0.58245  -0.57179  -0.52801  -0.51212  -0.50299
 Alpha  occ. eigenvalues --   -0.49956  -0.48566  -0.48278  -0.46357  -0.44752
 Alpha  occ. eigenvalues --   -0.42458  -0.39346  -0.37107  -0.36099  -0.34164
 Alpha  occ. eigenvalues --   -0.30254
 Alpha virt. eigenvalues --    0.01383   0.04510   0.09469   0.13142   0.13710
 Alpha virt. eigenvalues --    0.14761   0.16344   0.17806   0.19422   0.20268
 Alpha virt. eigenvalues --    0.21187   0.22436   0.23040   0.24123   0.30534
 Alpha virt. eigenvalues --    0.31496   0.32541   0.36064   0.39189   0.40927
 Alpha virt. eigenvalues --    0.43110   0.45266   0.48009   0.49286   0.51309
 Alpha virt. eigenvalues --    0.51983   0.52514   0.53401   0.54849   0.55889
 Alpha virt. eigenvalues --    0.57205   0.57302   0.57849   0.58369   0.58827
 Alpha virt. eigenvalues --    0.58908   0.59851   0.60625   0.61631   0.63381
 Alpha virt. eigenvalues --    0.64085   0.65636   0.66248   0.66838   0.69766
 Alpha virt. eigenvalues --    0.70131   0.72558   0.72825   0.75007   0.75454
 Alpha virt. eigenvalues --    0.76742   0.77877   0.79670   0.80398   0.81772
 Alpha virt. eigenvalues --    0.84428   0.86865   0.88518   0.91626   0.92814
 Alpha virt. eigenvalues --    0.93985   0.95592   0.97002   0.99931   1.00578
 Alpha virt. eigenvalues --    1.02418   1.03523   1.05109   1.07441   1.07928
 Alpha virt. eigenvalues --    1.09262   1.09856   1.10828   1.11227   1.14941
 Alpha virt. eigenvalues --    1.16281   1.18198   1.18483   1.20311   1.24885
 Alpha virt. eigenvalues --    1.25913   1.26613   1.29960   1.31777   1.34143
 Alpha virt. eigenvalues --    1.37619   1.40492   1.42335   1.45379   1.48589
 Alpha virt. eigenvalues --    1.50104   1.50922   1.54270   1.55581   1.56574
 Alpha virt. eigenvalues --    1.58102   1.58483   1.61313   1.63259   1.66081
 Alpha virt. eigenvalues --    1.67382   1.68493   1.70232   1.70543   1.71457
 Alpha virt. eigenvalues --    1.72745   1.73463   1.75385   1.76663   1.78004
 Alpha virt. eigenvalues --    1.82526   1.83984   1.85123   1.87135   1.87423
 Alpha virt. eigenvalues --    1.88819   1.90819   1.94203   1.95776   1.96281
 Alpha virt. eigenvalues --    1.98015   2.01016   2.02556   2.03709   2.04400
 Alpha virt. eigenvalues --    2.08277   2.09477   2.11792   2.14411   2.21328
 Alpha virt. eigenvalues --    2.21481   2.31458   2.34622   2.36748   2.37667
 Alpha virt. eigenvalues --    2.43932   2.47209   2.48580   2.51671   2.54939
 Alpha virt. eigenvalues --    2.55020   2.58759   2.63222   2.65451   2.72459
 Alpha virt. eigenvalues --    2.76154   2.82758   3.00150   3.02377   3.23417
 Alpha virt. eigenvalues --    3.44083   3.60796   3.64431   3.79910   3.99883
 Alpha virt. eigenvalues --    4.22486
  Beta  occ. eigenvalues --  -88.26017 -24.46072 -14.16630 -10.15736 -10.12179
  Beta  occ. eigenvalues --  -10.10135 -10.09312 -10.09214 -10.08230 -10.07990
  Beta  occ. eigenvalues --  -10.06302 -10.05870  -7.86656  -5.88460  -5.87948
  Beta  occ. eigenvalues --   -5.87725  -1.29747  -1.05625  -0.98142  -0.90674
  Beta  occ. eigenvalues --   -0.88803  -0.83410  -0.81021  -0.74784  -0.73258
  Beta  occ. eigenvalues --   -0.66557  -0.64772  -0.62798  -0.61499  -0.60317
  Beta  occ. eigenvalues --   -0.58245  -0.57179  -0.52801  -0.51212  -0.50299
  Beta  occ. eigenvalues --   -0.49956  -0.48566  -0.48278  -0.46357  -0.44752
  Beta  occ. eigenvalues --   -0.42458  -0.39346  -0.37107  -0.36099  -0.34164
  Beta  occ. eigenvalues --   -0.30254
  Beta virt. eigenvalues --    0.01383   0.04510   0.09469   0.13142   0.13710
  Beta virt. eigenvalues --    0.14761   0.16344   0.17806   0.19422   0.20268
  Beta virt. eigenvalues --    0.21187   0.22436   0.23040   0.24123   0.30534
  Beta virt. eigenvalues --    0.31496   0.32541   0.36064   0.39189   0.40927
  Beta virt. eigenvalues --    0.43110   0.45266   0.48009   0.49286   0.51309
  Beta virt. eigenvalues --    0.51983   0.52514   0.53401   0.54849   0.55889
  Beta virt. eigenvalues --    0.57205   0.57302   0.57849   0.58369   0.58827
  Beta virt. eigenvalues --    0.58908   0.59851   0.60625   0.61631   0.63381
  Beta virt. eigenvalues --    0.64085   0.65636   0.66248   0.66838   0.69766
  Beta virt. eigenvalues --    0.70131   0.72558   0.72825   0.75007   0.75454
  Beta virt. eigenvalues --    0.76742   0.77877   0.79670   0.80398   0.81772
  Beta virt. eigenvalues --    0.84428   0.86865   0.88518   0.91626   0.92814
  Beta virt. eigenvalues --    0.93985   0.95592   0.97002   0.99931   1.00578
  Beta virt. eigenvalues --    1.02418   1.03523   1.05109   1.07441   1.07928
  Beta virt. eigenvalues --    1.09262   1.09856   1.10828   1.11227   1.14941
  Beta virt. eigenvalues --    1.16281   1.18198   1.18483   1.20311   1.24885
  Beta virt. eigenvalues --    1.25913   1.26613   1.29960   1.31777   1.34143
  Beta virt. eigenvalues --    1.37619   1.40492   1.42335   1.45379   1.48589
  Beta virt. eigenvalues --    1.50104   1.50922   1.54270   1.55581   1.56574
  Beta virt. eigenvalues --    1.58102   1.58483   1.61313   1.63259   1.66081
  Beta virt. eigenvalues --    1.67382   1.68493   1.70232   1.70543   1.71457
  Beta virt. eigenvalues --    1.72745   1.73463   1.75385   1.76663   1.78004
  Beta virt. eigenvalues --    1.82526   1.83984   1.85123   1.87135   1.87423
  Beta virt. eigenvalues --    1.88819   1.90819   1.94203   1.95776   1.96281
  Beta virt. eigenvalues --    1.98015   2.01016   2.02556   2.03709   2.04400
  Beta virt. eigenvalues --    2.08277   2.09477   2.11792   2.14411   2.21328
  Beta virt. eigenvalues --    2.21481   2.31458   2.34622   2.36748   2.37667
  Beta virt. eigenvalues --    2.43932   2.47209   2.48580   2.51671   2.54939
  Beta virt. eigenvalues --    2.55020   2.58759   2.63222   2.65451   2.72459
  Beta virt. eigenvalues --    2.76154   2.82758   3.00150   3.02377   3.23417
  Beta virt. eigenvalues --    3.44083   3.60796   3.64431   3.79910   3.99883
  Beta virt. eigenvalues --    4.22486
          Condensed to atoms (all electrons):
               1          2          3          4          5          6
     1  C    4.887424   0.459128  -0.039977  -0.051293   0.012978   0.003689
     2  C    0.459128   4.606681   0.614947  -0.081863  -0.061088   0.000064
     3  N   -0.039977   0.614947   6.192861   0.565986  -0.047080   0.001074
     4  C   -0.051293  -0.081863   0.565986   5.223205   0.150785  -0.060263
     5  C    0.012978  -0.061088  -0.047080   0.150785   5.087906   0.412931
     6  F    0.003689   0.000064   0.001074  -0.060263   0.412931   8.803844
     7  C    0.467400  -0.021364  -0.034536  -0.050954   0.461873  -0.046682
     8  C    0.000504   0.005804  -0.074329   0.309740  -0.101234  -0.003325
     9  C    0.000220   0.000417   0.006411  -0.044880   0.013006   0.000024
    10  C    0.000001  -0.000003   0.000326   0.007530  -0.000573  -0.000023
    11  C   -0.000001   0.000007  -0.000006   0.002842   0.000149   0.000296
    12  S   -0.000076  -0.000126   0.001951  -0.060729  -0.005743   0.011322
    13  H    0.396124  -0.038642   0.004643   0.000186   0.007221  -0.000034
    14  H   -0.070932   0.405609  -0.033941   0.003416   0.000883   0.000007
    15  H   -0.041650   0.007856  -0.000249   0.011228  -0.035119   0.001645
    16  H    0.000162   0.000695   0.022425  -0.015965   0.001422  -0.000004
    17  H   -0.000000  -0.000000  -0.000011  -0.000258   0.000000  -0.000000
    18  H    0.000000  -0.000000   0.000001  -0.000207   0.000012   0.000002
               7          8          9         10         11         12
     1  C    0.467400   0.000504   0.000220   0.000001  -0.000001  -0.000076
     2  C   -0.021364   0.005804   0.000417  -0.000003   0.000007  -0.000126
     3  N   -0.034536  -0.074329   0.006411   0.000326  -0.000006   0.001951
     4  C   -0.050954   0.309740  -0.044880   0.007530   0.002842  -0.060729
     5  C    0.461873  -0.101234   0.013006  -0.000573   0.000149  -0.005743
     6  F   -0.046682  -0.003325   0.000024  -0.000023   0.000296   0.011322
     7  C    4.857684   0.003850  -0.000304   0.000000   0.000009   0.000651
     8  C    0.003850   5.352448   0.485158  -0.037520  -0.103140   0.394283
     9  C   -0.000304   0.485158   4.758014   0.489260  -0.030391  -0.104468
    10  C    0.000000  -0.037520   0.489260   4.732431   0.516020  -0.084401
    11  C    0.000009  -0.103140  -0.030391   0.516020   5.018207   0.359901
    12  S    0.000651   0.394283  -0.104468  -0.084401   0.359901  15.323668
    13  H   -0.038184   0.000046  -0.000003  -0.000000   0.000000   0.000000
    14  H    0.007594  -0.000599  -0.000063  -0.000001  -0.000000   0.000010
    15  H    0.384998  -0.000245   0.000005   0.000000  -0.000000  -0.000008
    16  H   -0.000009  -0.044236   0.409110  -0.049140   0.007751   0.007379
    17  H   -0.000000   0.008052  -0.040945   0.408261  -0.052662   0.007548
    18  H    0.000000   0.001122   0.008425  -0.025127   0.407528  -0.039668
              13         14         15         16         17         18
     1  C    0.396124  -0.070932  -0.041650   0.000162  -0.000000   0.000000
     2  C   -0.038642   0.405609   0.007856   0.000695  -0.000000  -0.000000
     3  N    0.004643  -0.033941  -0.000249   0.022425  -0.000011   0.000001
     4  C    0.000186   0.003416   0.011228  -0.015965  -0.000258  -0.000207
     5  C    0.007221   0.000883  -0.035119   0.001422   0.000000   0.000012
     6  F   -0.000034   0.000007   0.001645  -0.000004  -0.000000   0.000002
     7  C   -0.038184   0.007594   0.384998  -0.000009  -0.000000   0.000000
     8  C    0.000046  -0.000599  -0.000245  -0.044236   0.008052   0.001122
     9  C   -0.000003  -0.000063   0.000005   0.409110  -0.040945   0.008425
    10  C   -0.000000  -0.000001   0.000000  -0.049140   0.408261  -0.025127
    11  C    0.000000  -0.000000  -0.000000   0.007751  -0.052662   0.407528
    12  S    0.000000   0.000010  -0.000008   0.007379   0.007548  -0.039668
    13  H    0.675103  -0.009870  -0.011490  -0.000003  -0.000000  -0.000000
    14  H   -0.009870   0.697611  -0.000222  -0.000308   0.000000  -0.000000
    15  H   -0.011490  -0.000222   0.647856   0.000000   0.000000  -0.000000
    16  H   -0.000003  -0.000308   0.000000   0.668921  -0.006769  -0.000058
    17  H   -0.000000   0.000000   0.000000  -0.006769   0.684492  -0.007262
    18  H   -0.000000  -0.000000  -0.000000  -0.000058  -0.007262   0.638340
          Atomic-Atomic Spin Densities.
               1          2          3          4          5          6
     1  C    0.000000  -0.000000   0.000000   0.000000   0.000000   0.000000
     2  C   -0.000000   0.000000  -0.000000  -0.000000  -0.000000   0.000000
     3  N    0.000000  -0.000000  -0.000000   0.000000   0.000000  -0.000000
     4  C    0.000000  -0.000000   0.000000  -0.000000   0.000000   0.000000
     5  C    0.000000  -0.000000   0.000000   0.000000  -0.000000  -0.000000
     6  F    0.000000   0.000000  -0.000000   0.000000  -0.000000   0.000000
     7  C    0.000000   0.000000  -0.000000  -0.000000  -0.000000   0.000000
     8  C   -0.000000   0.000000   0.000000   0.000000  -0.000000  -0.000000
     9  C    0.000000   0.000000   0.000000   0.000000  -0.000000  -0.000000
    10  C    0.000000  -0.000000  -0.000000  -0.000000   0.000000   0.000000
    11  C   -0.000000   0.000000   0.000000   0.000000  -0.000000  -0.000000
    12  S    0.000000  -0.000000  -0.000000  -0.000000   0.000000   0.000000
    13  H    0.000000  -0.000000   0.000000  -0.000000   0.000000   0.000000
    14  H   -0.000000   0.000000  -0.000000  -0.000000   0.000000  -0.000000
    15  H    0.000000   0.000000  -0.000000  -0.000000  -0.000000  -0.000000
    16  H    0.000000  -0.000000   0.000000   0.000000  -0.000000  -0.000000
    17  H   -0.000000   0.000000   0.000000   0.000000  -0.000000   0.000000
    18  H    0.000000  -0.000000  -0.000000   0.000000  -0.000000  -0.000000
               7          8          9         10         11         12
     1  C    0.000000  -0.000000   0.000000   0.000000  -0.000000   0.000000
     2  C    0.000000   0.000000   0.000000  -0.000000   0.000000  -0.000000
     3  N   -0.000000   0.000000   0.000000  -0.000000   0.000000  -0.000000
     4  C   -0.000000   0.000000   0.000000  -0.000000   0.000000  -0.000000
     5  C   -0.000000  -0.000000  -0.000000   0.000000  -0.000000   0.000000
     6  F    0.000000  -0.000000  -0.000000   0.000000  -0.000000   0.000000
     7  C    0.000000  -0.000000  -0.000000   0.000000   0.000000   0.000000
     8  C   -0.000000  -0.000000   0.000000  -0.000000   0.000000   0.000000
     9  C   -0.000000   0.000000  -0.000000   0.000000  -0.000000   0.000000
    10  C    0.000000  -0.000000   0.000000  -0.000000   0.000000   0.000000
    11  C    0.000000   0.000000  -0.000000   0.000000  -0.000000  -0.000000
    12  S    0.000000   0.000000   0.000000   0.000000  -0.000000  -0.000000
    13  H   -0.000000  -0.000000   0.000000   0.000000  -0.000000   0.000000
    14  H   -0.000000   0.000000  -0.000000  -0.000000   0.000000   0.000000
    15  H    0.000000   0.000000   0.000000  -0.000000   0.000000  -0.000000
    16  H    0.000000   0.000000  -0.000000   0.000000  -0.000000  -0.000000
    17  H   -0.000000  -0.000000   0.000000  -0.000000   0.000000   0.000000
    18  H   -0.000000   0.000000   0.000000  -0.000000   0.000000   0.000000
              13         14         15         16         17         18
     1  C    0.000000  -0.000000   0.000000   0.000000  -0.000000   0.000000
     2  C   -0.000000   0.000000   0.000000  -0.000000   0.000000  -0.000000
     3  N    0.000000  -0.000000  -0.000000   0.000000   0.000000  -0.000000
     4  C   -0.000000  -0.000000  -0.000000   0.000000   0.000000   0.000000
     5  C    0.000000   0.000000  -0.000000  -0.000000  -0.000000  -0.000000
     6  F    0.000000  -0.000000  -0.000000  -0.000000   0.000000  -0.000000
     7  C   -0.000000  -0.000000   0.000000   0.000000  -0.000000  -0.000000
     8  C   -0.000000   0.000000   0.000000   0.000000  -0.000000   0.000000
     9  C    0.000000  -0.000000   0.000000  -0.000000   0.000000   0.000000
    10  C    0.000000  -0.000000  -0.000000   0.000000  -0.000000  -0.000000
    11  C   -0.000000   0.000000   0.000000  -0.000000   0.000000   0.000000
    12  S    0.000000   0.000000  -0.000000  -0.000000   0.000000   0.000000
    13  H    0.000000  -0.000000  -0.000000  -0.000000  -0.000000   0.000000
    14  H   -0.000000   0.000000  -0.000000   0.000000   0.000000   0.000000
    15  H   -0.000000  -0.000000   0.000000   0.000000  -0.000000   0.000000
    16  H   -0.000000   0.000000   0.000000  -0.000000   0.000000  -0.000000
    17  H   -0.000000   0.000000  -0.000000   0.000000  -0.000000  -0.000000
    18  H    0.000000   0.000000   0.000000  -0.000000  -0.000000  -0.000000
 Mulliken charges and spin densities:
               1          2
     1  C   -0.023703  -0.000000
     2  C    0.101880   0.000000
     3  N   -0.180497  -0.000000
     4  C    0.091494  -0.000000
     5  C    0.101670   0.000000
     6  F   -0.124566   0.000000
     7  C    0.007971   0.000000
     8  C   -0.196381  -0.000000
     9  C    0.051003   0.000000
    10  C    0.042958   0.000000
    11  C   -0.126511   0.000000
    12  S    0.188505  -0.000000
    13  H    0.014903   0.000000
    14  H    0.000806   0.000000
    15  H    0.035393   0.000000
    16  H   -0.001373  -0.000000
    17  H   -0.000445  -0.000000
    18  H    0.016893  -0.000000
 Sum of Mulliken charges =  -0.00000   0.00000
 Mulliken charges and spin densities with hydrogens summed into heavy atoms:
               1          2
     1  C   -0.008800  -0.000000
     2  C    0.102686   0.000000
     3  N   -0.180497  -0.000000
     4  C    0.091494  -0.000000
     5  C    0.101670   0.000000
     6  F   -0.124566   0.000000
     7  C    0.043364   0.000000
     8  C   -0.196381  -0.000000
     9  C    0.049630  -0.000000
    10  C    0.042513   0.000000
    11  C   -0.109618  -0.000000
    12  S    0.188505  -0.000000
 Electronic spatial extent (au):  <R**2>=           2294.8205
 Charge=             -0.0000 electrons
 Dipole moment (field-independent basis, Debye):
    X=             -1.5815    Y=              0.2008    Z=             -0.1446  Tot=              1.6008
 Quadrupole moment (field-independent basis, Debye-Ang):
   XX=            -57.3450   YY=            -73.3888   ZZ=            -77.8651
   XY=             -0.4956   XZ=             -0.4894   YZ=              0.0709
 Traceless Quadrupole moment (field-independent basis, Debye-Ang):
   XX=             12.1880   YY=             -3.8558   ZZ=             -8.3321
   XY=             -0.4956   XZ=             -0.4894   YZ=              0.0709
 Octapole moment (field-independent basis, Debye-Ang**2):
  XXX=            -20.4426  YYY=              9.9672  ZZZ=             -0.6012  XYY=             -1.7416
  XXY=              6.6685  XXZ=             -1.3579  XZZ=             -4.3511  YZZ=              8.0621
  YYZ=             -0.4465  XYZ=             -0.5154
 Hexadecapole moment (field-independent basis, Debye-Ang**3):
 XXXX=          -1977.2024 YYYY=           -673.1787 ZZZZ=            -82.9383 XXXY=              7.0576
 XXXZ=             -7.4875 YYYX=            -13.5303 YYYZ=              0.7162 ZZZX=             -0.9324
 ZZZY=              0.0268 XXYY=           -443.9137 XXZZ=           -435.9144 YYZZ=           -133.0241
 XXYZ=              0.2169 YYXZ=             -1.2453 ZZXY=              1.0346
 N-N= 7.349280705855D+02 E-N=-3.585301165336D+03  KE= 8.949080894874D+02
                          Isotropic Fermi Contact Couplings
        Atom                 a.u.       MegaHertz       Gauss      10(-4) cm-1
     1  C(13)             -0.00000      -0.00000      -0.00000      -0.00000
     2  C(13)              0.00000       0.00000       0.00000       0.00000
     3  N(14)              0.00000       0.00000       0.00000       0.00000
     4  C(13)              0.00000       0.00000       0.00000       0.00000
     5  C(13)              0.00000       0.00000       0.00000       0.00000
     6  F(19)             -0.00000      -0.00000      -0.00000      -0.00000
     7  C(13)              0.00000       0.00000       0.00000       0.00000
     8  C(13)             -0.00000      -0.00000      -0.00000      -0.00000
     9  C(13)             -0.00000      -0.00000      -0.00000      -0.00000
    10  C(13)              0.00000       0.00000       0.00000       0.00000
    11  C(13)              0.00000       0.00000       0.00000       0.00000
    12  S(33)              0.00000       0.00000       0.00000       0.00000
    13  H(1)               0.00000       0.00000       0.00000       0.00000
    14  H(1)              -0.00000      -0.00000      -0.00000      -0.00000
    15  H(1)              -0.00000      -0.00000      -0.00000      -0.00000
    16  H(1)              -0.00000      -0.00000      -0.00000      -0.00000
    17  H(1)              -0.00000      -0.00000      -0.00000      -0.00000
    18  H(1)              -0.00000      -0.00000      -0.00000      -0.00000
 --------------------------------------------------------
       Center         ----  Spin Dipole Couplings  ----
                      3XX-RR        3YY-RR        3ZZ-RR
 --------------------------------------------------------
     1   Atom       -0.000000     -0.000000      0.000000
     2   Atom        0.000000     -0.000000     -0.000000
     3   Atom        0.000000     -0.000000     -0.000000
     4   Atom        0.000000     -0.000000      0.000000
     5   Atom       -0.000000     -0.000000      0.000000
     6   Atom        0.000000     -0.000000      0.000000
     7   Atom        0.000000     -0.000000      0.000000
     8   Atom       -0.000000      0.000000      0.000000
     9   Atom        0.000000     -0.000000      0.000000
    10   Atom        0.000000      0.000000     -0.000000
    11   Atom        0.000000      0.000000     -0.000000
    12   Atom       -0.000000      0.000000      0.000000
    13   Atom        0.000000     -0.000000     -0.000000
    14   Atom       -0.000000      0.000000     -0.000000
    15   Atom        0.000000     -0.000000      0.000000
    16   Atom       -0.000000     -0.000000      0.000000
    17   Atom       -0.000000      0.000000      0.000000
    18   Atom        0.000000      0.000000     -0.000000
 --------------------------------------------------------
                        XY            XZ            YZ
 --------------------------------------------------------
     1   Atom        0.000000      0.000000     -0.000000
     2   Atom        0.000000      0.000000      0.000000
     3   Atom        0.000000      0.000000      0.000000
     4   Atom        0.000000     -0.000000     -0.000000
     5   Atom       -0.000000     -0.000000      0.000000
     6   Atom        0.000000     -0.000000      0.000000
     7   Atom       -0.000000     -0.000000     -0.000000
     8   Atom       -0.000000      0.000000     -0.000000
     9   Atom       -0.000000     -0.000000     -0.000000
    10   Atom        0.000000      0.000000     -0.000000
    11   Atom        0.000000      0.000000      0.000000
    12   Atom       -0.000000      0.000000      0.000000
    13   Atom       -0.000000      0.000000      0.000000
    14   Atom        0.000000     -0.000000     -0.000000
    15   Atom        0.000000      0.000000      0.000000
    16   Atom       -0.000000     -0.000000     -0.000000
    17   Atom        0.000000      0.000000     -0.000000
    18   Atom        0.000000     -0.000000     -0.000000
 --------------------------------------------------------


 ---------------------------------------------------------------------------------
              Anisotropic Spin Dipole Couplings in Principal Axis System
 ---------------------------------------------------------------------------------

       Atom             a.u.   MegaHertz   Gauss  10(-4) cm-1        Axes

              Baa    -0.0000    -0.000    -0.000    -0.000 -0.6450  0.7641  0.0102
     1 C(13)  Bbb     0.0000     0.000     0.000     0.000  0.7638  0.6451 -0.0215
              Bcc     0.0000     0.000     0.000     0.000  0.0230  0.0061  0.9997
 
              Baa    -0.0000    -0.000    -0.000    -0.000 -0.3730  0.9035  0.2112
     2 C(13)  Bbb    -0.0000    -0.000    -0.000    -0.000  0.0400 -0.2118  0.9765
              Bcc     0.0000     0.000     0.000     0.000  0.9270  0.3727  0.0428
 
              Baa    -0.0000    -0.000    -0.000    -0.000 -0.3127  0.9400 -0.1363
     3 N(14)  Bbb    -0.0000    -0.000    -0.000    -0.000 -0.1033  0.1090  0.9887
              Bcc     0.0000     0.000     0.000     0.000  0.9442  0.3233  0.0630
 
              Baa    -0.0000    -0.000    -0.000    -0.000 -0.0717  0.9973  0.0138
     4 C(13)  Bbb     0.0000     0.000     0.000     0.000  0.3915  0.0155  0.9201
              Bcc     0.0000     0.000     0.000     0.000  0.9174  0.0714 -0.3915
 
              Baa    -0.0000    -0.000    -0.000    -0.000  0.5861  0.8100 -0.0224
     5 C(13)  Bbb     0.0000     0.000     0.000     0.000  0.8020 -0.5760  0.1581
              Bcc     0.0000     0.000     0.000     0.000 -0.1152  0.1106  0.9872
 
              Baa    -0.0000    -0.000    -0.000    -0.000 -0.1903  0.9674 -0.1669
     6 F(19)  Bbb     0.0000     0.000     0.000     0.000  0.0384  0.1772  0.9834
              Bcc     0.0000     0.000     0.000     0.000  0.9810  0.1808 -0.0708
 
              Baa    -0.0000    -0.000    -0.000    -0.000  0.1105  0.9899  0.0893
     7 C(13)  Bbb     0.0000     0.000     0.000     0.000  0.8994 -0.1378  0.4149
              Bcc     0.0000     0.000     0.000     0.000 -0.4230 -0.0344  0.9055
 
              Baa    -0.0000    -0.000    -0.000    -0.000  0.9757  0.1778 -0.1279
     8 C(13)  Bbb     0.0000     0.000     0.000     0.000 -0.1632  0.9796  0.1172
              Bcc     0.0000     0.000     0.000     0.000  0.1462 -0.0935  0.9848
 
              Baa    -0.0000    -0.000    -0.000    -0.000  0.4189  0.9073  0.0371
     9 C(13)  Bbb     0.0000     0.000     0.000     0.000  0.8686 -0.4123  0.2748
              Bcc     0.0000     0.000     0.000     0.000 -0.2646  0.0829  0.9608
 
              Baa    -0.0000    -0.000    -0.000    -0.000 -0.0767  0.0538  0.9956
    10 C(13)  Bbb    -0.0000    -0.000    -0.000    -0.000 -0.6333  0.7686 -0.0903
              Bcc     0.0000     0.000     0.000     0.000  0.7701  0.6374  0.0248
 
              Baa    -0.0000    -0.000    -0.000    -0.000  0.7617 -0.6467  0.0406
    11 C(13)  Bbb    -0.0000    -0.000    -0.000    -0.000 -0.0802 -0.0319  0.9963
              Bcc     0.0000     0.000     0.000     0.000  0.6429  0.7621  0.0762
 
              Baa    -0.0000    -0.000    -0.000    -0.000  0.9569  0.2851 -0.0558
    12 S(33)  Bbb     0.0000     0.000     0.000     0.000 -0.2861  0.9581 -0.0109
              Bcc     0.0000     0.000     0.000     0.000  0.0504  0.0264  0.9984
 
              Baa    -0.0000    -0.000    -0.000    -0.000 -0.1711 -0.3631  0.9159
    13 H(1)   Bbb    -0.0000    -0.000    -0.000    -0.000  0.3906  0.8284  0.4014
              Bcc     0.0000     0.000     0.000     0.000  0.9045 -0.4265 -0.0000
 
              Baa    -0.0000    -0.000    -0.000    -0.000  0.9924 -0.1063  0.0619
    14 H(1)   Bbb    -0.0000    -0.000    -0.000    -0.000 -0.0564  0.0534  0.9970
              Bcc     0.0000     0.000     0.000     0.000  0.1093  0.9929 -0.0470
 
              Baa    -0.0000    -0.000    -0.000    -0.000 -0.3198  0.9474  0.0130
    15 H(1)   Bbb     0.0000     0.000     0.000     0.000  0.8143  0.2818 -0.5074
              Bcc     0.0000     0.000     0.000     0.000  0.4844  0.1517  0.8616
 
              Baa    -0.0000    -0.000    -0.000    -0.000  0.6615  0.7493  0.0297
    16 H(1)   Bbb     0.0000     0.000     0.000     0.000  0.7493 -0.6621  0.0151
              Bcc     0.0000     0.000     0.000     0.000 -0.0310 -0.0122  0.9994
 
              Baa    -0.0000    -0.000    -0.000    -0.000  0.9705 -0.2374 -0.0417
    17 H(1)   Bbb     0.0000     0.000     0.000     0.000  0.0530  0.0414  0.9977
              Bcc     0.0000     0.000     0.000     0.000  0.2351  0.9705 -0.0528
 
              Baa    -0.0000    -0.000    -0.000    -0.000  0.0596  0.0998  0.9932
    18 H(1)   Bbb    -0.0000    -0.000    -0.000    -0.000 -0.6069  0.7936 -0.0433
              Bcc     0.0000     0.000     0.000     0.000  0.7926  0.6002 -0.1078
 

 ---------------------------------------------------------------------------------

 No NMR shielding tensors so no spin-rotation constants.
 Leave Link  601 at Sat Jul 25 03:29:17 2020, MaxMem=  4026531840 cpu:               1.7 elap:               0.2
 (Enter /opt/ohpc/pub/libs/gaussian/g16-A.03/sandybridge/g16/l701.exe)
 ... and contract with generalized density number  0.
 Compute integral first derivatives.
 Leave Link  701 at Sat Jul 25 03:29:17 2020, MaxMem=  4026531840 cpu:               1.2 elap:               0.2
 (Enter /opt/ohpc/pub/libs/gaussian/g16-A.03/sandybridge/g16/l702.exe)
 L702 exits ... SP integral derivatives will be done elsewhere.
 Leave Link  702 at Sat Jul 25 03:29:17 2020, MaxMem=  4026531840 cpu:               0.2 elap:               0.0
 (Enter /opt/ohpc/pub/libs/gaussian/g16-A.03/sandybridge/g16/l703.exe)
 Integral derivatives from FoFJK, PRISM(SPDF).
 Compute integral first derivatives, UseDBF=F ICtDFT=           0.
 Calling FoFJK, ICntrl=      2127 FMM=F ISym2X=0 I1Cent= 0 IOpClX= 1 NMat=1 NMatS=1 NMatT=0.
 FoFJK:  IHMeth= 1 ICntrl=    2127 DoSepK=T KAlg= 0 I1Cent=           0 FoldK=F
 IRaf=         1 NMat=       1 IRICut=       1 DoRegI=T DoRafI=F ISym2E= 0 IDoP0=0 IntGTp=1.
 FoFCou: FMM=F IPFlag=           0 FMFlag=      100000 FMFlg1=         800
         NFxFlg=           0 DoJE=F BraDBF=F KetDBF=F FulRan=T
         wScrn=  0.000000 ICntrl=      2527 IOpCl=  0 I1Cent=           0 NGrid=           0
         NMat0=    1 NMatS0=      1 NMatT0=    0 NMatD0=    1 NMtDS0=    0 NMtDT0=    0
 Symmetry not used in FoFCou.
 Leave Link  703 at Sat Jul 25 03:29:28 2020, MaxMem=  4026531840 cpu:              82.8 elap:              10.4
 (Enter /opt/ohpc/pub/libs/gaussian/g16-A.03/sandybridge/g16/l716.exe)
 Dipole        =-6.22213068D-01 7.89969864D-02-5.69082512D-02
 ***** Axes restored to original set *****
 -------------------------------------------------------------------
 Center     Atomic                   Forces (Hartrees/Bohr)
 Number     Number              X              Y              Z
 -------------------------------------------------------------------
      1        6          -0.051605447    0.082383627    0.005044673
      2        6           0.002800389   -0.084480780   -0.001147329
      3        7           0.042440806    0.023540900   -0.001429038
      4        6           0.077262965   -0.051842525    0.006831792
      5        6          -0.076599627    0.040286854    0.007622801
      6        9           0.005630349   -0.012529945   -0.000652843
      7        6           0.016763880    0.019572568   -0.012183390
      8        6          -0.035162970   -0.028907803   -0.012284573
      9        6          -0.050449910    0.020826771    0.004874199
     10        6           0.039645451    0.023628985   -0.002166531
     11        6          -0.022888298   -0.050369045   -0.003597264
     12       16           0.008705198    0.029389846    0.004525357
     13        1           0.015287367   -0.003794046    0.000138916
     14        1          -0.005792158   -0.004313472   -0.000500456
     15        1           0.012010874   -0.018338062    0.001628834
     16        1           0.005275324   -0.001653059    0.001462289
     17        1          -0.001984731    0.005724644    0.000798893
     18        1           0.018660539    0.010874542    0.001033670
 -------------------------------------------------------------------
 Cartesian Forces:  Max     0.084480780 RMS     0.030107560
 Leave Link  716 at Sat Jul 25 03:29:28 2020, MaxMem=  4026531840 cpu:               0.3 elap:               0.1
 (Enter /opt/ohpc/pub/libs/gaussian/g16-A.03/sandybridge/g16/l103.exe)

 GradGradGradGradGradGradGradGradGradGradGradGradGradGradGradGradGradGrad
 Berny optimization.
 FormGI is forming the generalized inverse of G from B-inverse, IUseBI=4.
 Internal  Forces:  Max     0.081488493 RMS     0.015042228
 Search for a local minimum.
 Step number   1 out of a maximum of   98
 All quantities printed in internal units (Hartrees-Bohrs-Radians)
 RMS Force = .15042D-01 SwitMx=.10000D-02 MixMth= 1
 Mixed Optimization -- RFO/linear search
 Second derivative matrix not updated -- first step.
 ITU=  0
     Eigenvalues ---    0.00230   0.01252   0.01726   0.01847   0.01872
     Eigenvalues ---    0.01907   0.02057   0.02098   0.02110   0.02215
     Eigenvalues ---    0.02261   0.02586   0.02660   0.02930   0.03098
     Eigenvalues ---    0.15875   0.15925   0.15985   0.15990   0.15999
     Eigenvalues ---    0.16000   0.22061   0.22116   0.23278   0.23826
     Eigenvalues ---    0.24827   0.24879   0.24953   0.24980   0.27449
     Eigenvalues ---    0.30538   0.31908   0.33456   0.34336   0.34414
     Eigenvalues ---    0.35479   0.36944   0.38184   0.38186   0.40788
     Eigenvalues ---    0.42391   0.44558   0.48084   0.51041   0.53427
     Eigenvalues ---    0.54136   0.59544   0.66957
 RFO step:  Lambda=-4.20589717D-02 EMin= 2.30000000D-03
 Linear search not attempted -- first point.
 Maximum step size (   0.300) exceeded in Quadratic search.
    -- Step size scaled by   0.985
 Iteration  1 RMS(Cart)=  0.03757536 RMS(Int)=  0.00095173
 Iteration  2 RMS(Cart)=  0.00113881 RMS(Int)=  0.00035267
 Iteration  3 RMS(Cart)=  0.00000145 RMS(Int)=  0.00035267
 Iteration  4 RMS(Cart)=  0.00000000 RMS(Int)=  0.00035267
 ITry= 1 IFail=0 DXMaxC= 1.08D-01 DCOld= 1.00D+10 DXMaxT= 3.00D-01 DXLimC= 3.00D+00 Rises=F
 Variable       Old X    -DE/DX   Delta X   Delta X   Delta X     New X
                                 (Linear)    (Quad)   (Total)
    R1        2.50179   0.08149   0.00000   0.12769   0.12773   2.62952
    R2        2.63644  -0.00539   0.00000  -0.01123  -0.01153   2.62491
    R3        2.11013  -0.01502   0.00000  -0.04098  -0.04098   2.06916
    R4        2.44421   0.04150   0.00000   0.06028   0.06060   2.50481
    R5        2.06768   0.00614   0.00000   0.01569   0.01569   2.08337
    R6        2.57265  -0.00810   0.00000  -0.01322  -0.01292   2.55974
    R7        2.53552   0.04983   0.00000   0.07610   0.07609   2.61161
    R8        2.93360  -0.03882   0.00000  -0.12085  -0.12085   2.81274
    R9        2.56558  -0.00940   0.00000  -0.01607  -0.01607   2.54950
   R10        2.72528  -0.03135   0.00000  -0.07841  -0.07874   2.64654
   R11        2.13603  -0.02192   0.00000  -0.06217  -0.06217   2.07386
   R12        2.67674  -0.02562   0.00000  -0.05261  -0.05278   2.62396
   R13        3.17093   0.02335   0.00000   0.05485   0.05478   3.22571
   R14        2.60287   0.02764   0.00000   0.05024   0.05018   2.65304
   R15        2.06638  -0.00105   0.00000  -0.00267  -0.00267   2.06371
   R16        2.68240  -0.03035   0.00000  -0.06520  -0.06508   2.61732
   R17        2.08258  -0.00545   0.00000  -0.01426  -0.01426   2.06831
   R18        3.19618   0.00970   0.00000   0.02272   0.02287   3.21905
   R19        2.00795   0.02141   0.00000   0.04977   0.04977   2.05772
    A1        2.02789   0.00463   0.00000   0.02675   0.02634   2.05423
    A2        2.18275  -0.00729   0.00000  -0.03752  -0.03736   2.14539
    A3        2.07198   0.00270   0.00000   0.01122   0.01139   2.08337
    A4        2.23272  -0.02166   0.00000  -0.06033  -0.06008   2.17264
    A5        2.09054   0.00691   0.00000   0.01105   0.01092   2.10146
    A6        1.95983   0.01476   0.00000   0.04934   0.04921   2.00904
    A7        2.04603  -0.00086   0.00000   0.01582   0.01665   2.06268
    A8        2.13238  -0.00321   0.00000  -0.01824  -0.01811   2.11426
    A9        1.98165   0.00489   0.00000   0.02061   0.02042   2.00207
   A10        2.16788  -0.00161   0.00000  -0.00125  -0.00143   2.16645
   A11        2.20032  -0.02228   0.00000  -0.06455  -0.06449   2.13583
   A12        2.05749   0.01894   0.00000   0.04375   0.04320   2.10068
   A13        2.02396   0.00344   0.00000   0.02229   0.02239   2.04635
   A14        2.06589   0.00241   0.00000  -0.00430  -0.00530   2.06059
   A15        2.14522  -0.00060   0.00000   0.00631   0.00644   2.15166
   A16        2.06821  -0.00159   0.00000   0.00131   0.00145   2.06966
   A17        2.21055  -0.00738   0.00000  -0.02501  -0.02525   2.18530
   A18        2.13146   0.00822   0.00000   0.02788   0.02775   2.15921
   A19        1.93518  -0.00056   0.00000   0.00230   0.00157   1.93675
   A20        1.95011   0.00253   0.00000   0.00993   0.00958   1.95970
   A21        2.06287   0.00435   0.00000   0.02245   0.02261   2.08547
   A22        2.27019  -0.00688   0.00000  -0.03233  -0.03217   2.23801
   A23        1.98150  -0.00166   0.00000  -0.00921  -0.00936   1.97214
   A24        2.14604   0.00361   0.00000   0.01841   0.01838   2.16442
   A25        2.15492  -0.00191   0.00000  -0.00845  -0.00847   2.14645
   A26        1.90914   0.00738   0.00000   0.02561   0.02529   1.93443
   A27        2.22775  -0.00193   0.00000  -0.00209  -0.00260   2.22515
   A28        2.13936  -0.00508   0.00000  -0.01738  -0.01790   2.12147
   A29        1.64501  -0.00741   0.00000  -0.02368  -0.02373   1.62128
    D1       -0.02087   0.00077   0.00000   0.01203   0.01217  -0.00870
    D2        3.10473   0.00130   0.00000   0.01711   0.01703   3.12176
    D3       -3.12589  -0.00041   0.00000  -0.00321  -0.00290  -3.12880
    D4       -0.00029   0.00012   0.00000   0.00187   0.00196   0.00166
    D5        0.08298  -0.00259   0.00000  -0.03800  -0.03803   0.04495
    D6        3.12871   0.00007   0.00000   0.00311   0.00294   3.13165
    D7       -3.09274  -0.00171   0.00000  -0.02489  -0.02460  -3.11735
    D8       -0.04701   0.00095   0.00000   0.01623   0.01636  -0.03065
    D9       -0.03086   0.00117   0.00000   0.01298   0.01283  -0.01803
   D10        3.12573   0.00070   0.00000   0.00843   0.00843   3.13417
   D11        0.01624  -0.00016   0.00000  -0.00884  -0.00932   0.00693
   D12        3.10570   0.00121   0.00000   0.01415   0.01361   3.11931
   D13        3.12776   0.00133   0.00000   0.01717   0.01636  -3.13907
   D14        0.04578  -0.00102   0.00000  -0.01519  -0.01531   0.03047
   D15        0.04396  -0.00037   0.00000  -0.00890  -0.00939   0.03457
   D16       -3.03801  -0.00272   0.00000  -0.04126  -0.04106  -3.07907
   D17        0.07839  -0.00228   0.00000  -0.04164  -0.04175   0.03664
   D18        3.09155   0.00071   0.00000   0.01389   0.01381   3.10537
   D19       -3.11656  -0.00093   0.00000  -0.01867  -0.01859  -3.13515
   D20       -0.10340   0.00206   0.00000   0.03686   0.03697  -0.06642
   D21       -0.09578   0.00219   0.00000   0.03935   0.03959  -0.05619
   D22        3.13737  -0.00039   0.00000  -0.00022   0.00029   3.13766
   D23        3.09941   0.00104   0.00000   0.01337   0.01254   3.11195
   D24        0.04938  -0.00155   0.00000  -0.02620  -0.02676   0.02262
   D25        3.10626   0.00028   0.00000   0.00186   0.00097   3.10723
   D26       -0.04141   0.00056   0.00000   0.00925   0.00886  -0.03255
[...]
     8  C    0.000046  -0.000599  -0.000331  -0.046985   0.008847   0.000970
     9  C   -0.000004  -0.000050   0.000009   0.411068  -0.042401   0.008182
    10  C   -0.000000  -0.000001   0.000000  -0.047654   0.411582  -0.023250
    11  C    0.000000  -0.000000  -0.000000   0.008748  -0.054622   0.400417
    12  S    0.000001   0.000007  -0.000011   0.006925   0.007486  -0.038754
    13  H    0.683558  -0.008193  -0.012542  -0.000004   0.000000  -0.000000
    14  H   -0.008193   0.669895  -0.000164  -0.000264   0.000000  -0.000000
    15  H   -0.012542  -0.000164   0.667290   0.000001   0.000000  -0.000000
    16  H   -0.000004  -0.000264   0.000001   0.667589  -0.006913  -0.000076
    17  H    0.000000   0.000000   0.000000  -0.006913   0.688722  -0.007921
    18  H   -0.000000  -0.000000  -0.000000  -0.000076  -0.007921   0.630933
          Atomic-Atomic Spin Densities.
               1          2          3          4          5          6
     1  C    0.000000  -0.000000   0.000000  -0.000000   0.000000   0.000000
     2  C   -0.000000  -0.000000  -0.000000   0.000000   0.000000  -0.000000
     3  N    0.000000  -0.000000  -0.000000   0.000000  -0.000000  -0.000000
     4  C   -0.000000   0.000000   0.000000   0.000000  -0.000000  -0.000000
     5  C    0.000000   0.000000  -0.000000  -0.000000  -0.000000   0.000000
     6  F    0.000000  -0.000000  -0.000000  -0.000000   0.000000  -0.000000
     7  C   -0.000000  -0.000000   0.000000   0.000000   0.000000  -0.000000
     8  C   -0.000000   0.000000  -0.000000  -0.000000  -0.000000   0.000000
     9  C    0.000000  -0.000000   0.000000  -0.000000   0.000000   0.000000
    10  C   -0.000000  -0.000000  -0.000000  -0.000000  -0.000000  -0.000000
    11  C   -0.000000   0.000000  -0.000000   0.000000   0.000000   0.000000
    12  S   -0.000000  -0.000000  -0.000000  -0.000000  -0.000000  -0.000000
    13  H    0.000000   0.000000  -0.000000   0.000000  -0.000000   0.000000
    14  H   -0.000000   0.000000  -0.000000   0.000000  -0.000000  -0.000000
    15  H   -0.000000   0.000000   0.000000   0.000000  -0.000000  -0.000000
    16  H    0.000000  -0.000000  -0.000000   0.000000   0.000000   0.000000
    17  H   -0.000000  -0.000000   0.000000  -0.000000  -0.000000  -0.000000
    18  H    0.000000  -0.000000  -0.000000  -0.000000   0.000000   0.000000
               7          8          9         10         11         12
     1  C   -0.000000  -0.000000   0.000000  -0.000000  -0.000000  -0.000000
     2  C   -0.000000   0.000000  -0.000000  -0.000000   0.000000  -0.000000
     3  N    0.000000  -0.000000   0.000000  -0.000000  -0.000000  -0.000000
     4  C    0.000000  -0.000000  -0.000000  -0.000000   0.000000  -0.000000
     5  C    0.000000  -0.000000   0.000000  -0.000000   0.000000  -0.000000
     6  F   -0.000000   0.000000   0.000000  -0.000000   0.000000  -0.000000
     7  C    0.000000  -0.000000   0.000000  -0.000000   0.000000  -0.000000
     8  C   -0.000000  -0.000000  -0.000000  -0.000000   0.000000   0.000000
     9  C    0.000000  -0.000000   0.000000   0.000000  -0.000000  -0.000000
    10  C   -0.000000  -0.000000   0.000000  -0.000000   0.000000   0.000000
    11  C    0.000000   0.000000  -0.000000   0.000000   0.000000  -0.000000
    12  S   -0.000000   0.000000  -0.000000   0.000000  -0.000000   0.000000
    13  H    0.000000   0.000000   0.000000   0.000000  -0.000000   0.000000
    14  H    0.000000   0.000000  -0.000000  -0.000000   0.000000   0.000000
    15  H    0.000000  -0.000000  -0.000000   0.000000  -0.000000   0.000000
    16  H   -0.000000  -0.000000  -0.000000   0.000000  -0.000000  -0.000000
    17  H   -0.000000   0.000000  -0.000000   0.000000  -0.000000   0.000000
    18  H   -0.000000  -0.000000   0.000000   0.000000  -0.000000  -0.000000
              13         14         15         16         17         18
     1  C    0.000000  -0.000000  -0.000000   0.000000  -0.000000   0.000000
     2  C    0.000000   0.000000   0.000000  -0.000000  -0.000000  -0.000000
     3  N   -0.000000  -0.000000   0.000000  -0.000000   0.000000  -0.000000
     4  C    0.000000   0.000000   0.000000   0.000000  -0.000000  -0.000000
     5  C   -0.000000  -0.000000  -0.000000   0.000000  -0.000000   0.000000
     6  F    0.000000  -0.000000  -0.000000   0.000000  -0.000000   0.000000
     7  C    0.000000   0.000000   0.000000  -0.000000  -0.000000  -0.000000
     8  C    0.000000   0.000000  -0.000000  -0.000000   0.000000  -0.000000
     9  C    0.000000  -0.000000  -0.000000  -0.000000  -0.000000   0.000000
    10  C    0.000000  -0.000000   0.000000   0.000000   0.000000   0.000000
    11  C   -0.000000   0.000000  -0.000000  -0.000000  -0.000000  -0.000000
    12  S    0.000000   0.000000   0.000000  -0.000000   0.000000  -0.000000
    13  H   -0.000000  -0.000000  -0.000000   0.000000  -0.000000   0.000000
    14  H   -0.000000   0.000000   0.000000  -0.000000   0.000000  -0.000000
    15  H   -0.000000   0.000000   0.000000  -0.000000   0.000000  -0.000000
    16  H    0.000000  -0.000000  -0.000000  -0.000000  -0.000000   0.000000
    17  H   -0.000000   0.000000   0.000000  -0.000000   0.000000  -0.000000
    18  H    0.000000  -0.000000  -0.000000   0.000000  -0.000000   0.000000
 Mulliken charges and spin densities:
               1          2
     1  C   -0.033307   0.000000
     2  C    0.082890  -0.000000
     3  N   -0.193633  -0.000000
     4  C    0.080044   0.000000
     5  C    0.097694  -0.000000
     6  F   -0.123817  -0.000000
     7  C    0.063117   0.000000
     8  C   -0.170665  -0.000000
     9  C    0.047929   0.000000
    10  C    0.060617  -0.000000
    11  C   -0.133437   0.000000
    12  S    0.161340  -0.000000
    13  H    0.005549  -0.000000
    14  H    0.013094   0.000000
    15  H    0.017704   0.000000
    16  H   -0.000399  -0.000000
    17  H   -0.004440   0.000000
    18  H    0.029720  -0.000000
 Sum of Mulliken charges =  -0.00000   0.00000
 Mulliken charges and spin densities with hydrogens summed into heavy atoms:
               1          2
     1  C   -0.027758   0.000000
     2  C    0.095984  -0.000000
     3  N   -0.193633  -0.000000
     4  C    0.080044   0.000000
     5  C    0.097694  -0.000000
     6  F   -0.123817  -0.000000
     7  C    0.080821   0.000000
     8  C   -0.170665  -0.000000
     9  C    0.047531   0.000000
    10  C    0.056177  -0.000000
    11  C   -0.103717   0.000000
    12  S    0.161340  -0.000000
 Electronic spatial extent (au):  <R**2>=           2274.6595
 Charge=             -0.0000 electrons
 Dipole moment (field-independent basis, Debye):
    X=             -1.3472    Y=              0.1018    Z=             -0.0005  Tot=              1.3511
 Quadrupole moment (field-independent basis, Debye-Ang):
   XX=            -57.0747   YY=            -72.9302   ZZ=            -78.0488
   XY=             -1.0800   XZ=             -0.0001   YZ=              0.0009
 Traceless Quadrupole moment (field-independent basis, Debye-Ang):
   XX=             12.2765   YY=             -3.5790   ZZ=             -8.6975
   XY=             -1.0800   XZ=             -0.0001   YZ=              0.0009
 Octapole moment (field-independent basis, Debye-Ang**2):
  XXX=            -14.7091  YYY=              9.3451  ZZZ=             -0.0008  XYY=             -2.8181
  XXY=              4.9782  XXZ=             -0.0050  XZZ=             -3.4831  YZZ=              7.8726
  YYZ=             -0.0025  XYZ=              0.0033
 Hexadecapole moment (field-independent basis, Debye-Ang**3):
 XXXX=          -1954.8294 YYYY=           -670.0491 ZZZZ=            -83.0204 XXXY=              7.8093
 XXXZ=              0.0012 YYYX=            -13.2817 YYYZ=              0.0030 ZZZX=              0.0020
 ZZZY=             -0.0027 XXYY=           -434.9076 XXZZ=           -432.4496 YYZZ=           -133.7487
 XXYZ=              0.0045 YYXZ=             -0.0038 ZZXY=              0.1722
 N-N= 7.357872125058D+02 E-N=-3.587039113959D+03  KE= 8.947706533426D+02
                          Isotropic Fermi Contact Couplings
        Atom                 a.u.       MegaHertz       Gauss      10(-4) cm-1
     1  C(13)              0.00000       0.00000       0.00000       0.00000
     2  C(13)             -0.00000      -0.00000      -0.00000      -0.00000
     3  N(14)              0.00000       0.00000       0.00000       0.00000
     4  C(13)              0.00000       0.00000       0.00000       0.00000
     5  C(13)             -0.00000      -0.00000      -0.00000      -0.00000
     6  F(19)             -0.00000      -0.00000      -0.00000      -0.00000
     7  C(13)              0.00000       0.00000       0.00000       0.00000
     8  C(13)             -0.00000      -0.00000      -0.00000      -0.00000
     9  C(13)              0.00000       0.00000       0.00000       0.00000
    10  C(13)             -0.00000      -0.00000      -0.00000      -0.00000
    11  C(13)              0.00000       0.00000       0.00000       0.00000
    12  S(33)             -0.00000      -0.00000      -0.00000      -0.00000
    13  H(1)              -0.00000      -0.00000      -0.00000      -0.00000
    14  H(1)               0.00000       0.00000       0.00000       0.00000
    15  H(1)               0.00000       0.00000       0.00000       0.00000
    16  H(1)              -0.00000      -0.00000      -0.00000      -0.00000
    17  H(1)               0.00000       0.00000       0.00000       0.00000
    18  H(1)               0.00000       0.00000       0.00000       0.00000
 --------------------------------------------------------
       Center         ----  Spin Dipole Couplings  ----
                      3XX-RR        3YY-RR        3ZZ-RR
 --------------------------------------------------------
     1   Atom        0.000000      0.000000     -0.000000
     2   Atom       -0.000000      0.000000      0.000000
     3   Atom        0.000000     -0.000000     -0.000000
     4   Atom       -0.000000      0.000000     -0.000000
     5   Atom       -0.000000      0.000000     -0.000000
     6   Atom        0.000000     -0.000000      0.000000
     7   Atom        0.000000      0.000000     -0.000000
     8   Atom       -0.000000      0.000000      0.000000
     9   Atom       -0.000000      0.000000      0.000000
    10   Atom        0.000000     -0.000000     -0.000000
    11   Atom        0.000000     -0.000000      0.000000
    12   Atom       -0.000000     -0.000000      0.000000
    13   Atom       -0.000000      0.000000     -0.000000
    14   Atom       -0.000000      0.000000     -0.000000
    15   Atom        0.000000      0.000000     -0.000000
    16   Atom       -0.000000      0.000000      0.000000
    17   Atom       -0.000000      0.000000     -0.000000
    18   Atom       -0.000000      0.000000      0.000000
 --------------------------------------------------------
                        XY            XZ            YZ
 --------------------------------------------------------
     1   Atom        0.000000     -0.000000      0.000000
     2   Atom       -0.000000      0.000000     -0.000000
     3   Atom        0.000000     -0.000000      0.000000
     4   Atom       -0.000000     -0.000000      0.000000
     5   Atom       -0.000000      0.000000     -0.000000
     6   Atom        0.000000     -0.000000      0.000000
     7   Atom        0.000000      0.000000     -0.000000
     8   Atom        0.000000      0.000000      0.000000
     9   Atom        0.000000     -0.000000      0.000000
    10   Atom        0.000000      0.000000      0.000000
    11   Atom        0.000000     -0.000000     -0.000000
    12   Atom        0.000000      0.000000     -0.000000
    13   Atom        0.000000     -0.000000     -0.000000
    14   Atom        0.000000      0.000000      0.000000
    15   Atom       -0.000000     -0.000000      0.000000
    16   Atom        0.000000     -0.000000     -0.000000
    17   Atom       -0.000000      0.000000     -0.000000
    18   Atom       -0.000000      0.000000      0.000000
 --------------------------------------------------------


 ---------------------------------------------------------------------------------
              Anisotropic Spin Dipole Couplings in Principal Axis System
 ---------------------------------------------------------------------------------

       Atom             a.u.   MegaHertz   Gauss  10(-4) cm-1        Axes

              Baa    -0.0000    -0.000    -0.000    -0.000  0.0009 -0.0010  1.0000
     1 C(13)  Bbb     0.0000     0.000     0.000     0.000 -0.3583  0.9336  0.0012
              Bcc     0.0000     0.000     0.000     0.000  0.9336  0.3583 -0.0005
 
              Baa    -0.0000    -0.000    -0.000    -0.000  0.9834  0.1809 -0.0094
     2 C(13)  Bbb     0.0000     0.000     0.000     0.000 -0.1808  0.9834  0.0137
              Bcc     0.0000     0.000     0.000     0.000  0.0118 -0.0118  0.9999
 
              Baa    -0.0000    -0.000    -0.000    -0.000 -0.0068  0.9999 -0.0138
     3 N(14)  Bbb    -0.0000    -0.000    -0.000    -0.000  0.0214  0.0139  0.9997
              Bcc     0.0000     0.000     0.000     0.000  0.9997  0.0065 -0.0215
 
              Baa    -0.0000    -0.000    -0.000    -0.000  0.0151  0.0019  0.9999
     4 C(13)  Bbb    -0.0000    -0.000    -0.000    -0.000  0.9585  0.2846 -0.0150
              Bcc     0.0000     0.000     0.000     0.000 -0.2846  0.9586  0.0025
 
              Baa    -0.0000    -0.000    -0.000    -0.000  0.9297  0.3683 -0.0002
     5 C(13)  Bbb    -0.0000    -0.000    -0.000    -0.000 -0.0020  0.0056  1.0000
              Bcc     0.0000     0.000     0.000     0.000 -0.3683  0.9297 -0.0060
 
              Baa    -0.0000    -0.000    -0.000    -0.000 -0.5336  0.8457 -0.0114
     6 F(19)  Bbb     0.0000     0.000     0.000     0.000 -0.0158  0.0035  0.9999
              Bcc     0.0000     0.000     0.000     0.000  0.8456  0.5337  0.0115
 
              Baa    -0.0000    -0.000    -0.000    -0.000 -0.0015  0.0044  1.0000
     7 C(13)  Bbb     0.0000     0.000     0.000     0.000  0.9819 -0.1895  0.0023
              Bcc     0.0000     0.000     0.000     0.000  0.1895  0.9819 -0.0041
 
              Baa    -0.0000    -0.000    -0.000    -0.000  0.9921 -0.1248 -0.0103
     8 C(13)  Bbb     0.0000     0.000     0.000     0.000  0.0088 -0.0126  0.9999
              Bcc     0.0000     0.000     0.000     0.000  0.1249  0.9921  0.0114
 
              Baa    -0.0000    -0.000    -0.000    -0.000  0.8280 -0.5599  0.0315
     9 C(13)  Bbb     0.0000     0.000     0.000     0.000 -0.0047  0.0493  0.9988
              Bcc     0.0000     0.000     0.000     0.000  0.5608  0.8271 -0.0382
 
              Baa    -0.0000    -0.000    -0.000    -0.000 -0.4325  0.7712 -0.4671
    10 C(13)  Bbb    -0.0000    -0.000    -0.000    -0.000 -0.2325  0.4052  0.8842
              Bcc     0.0000     0.000     0.000     0.000  0.8711  0.4910  0.0040
 
              Baa    -0.0000    -0.000    -0.000    -0.000 -0.0571  0.9983  0.0138
    11 C(13)  Bbb     0.0000     0.000     0.000     0.000  0.0336 -0.0119  0.9994
              Bcc     0.0000     0.000     0.000     0.000  0.9978  0.0575 -0.0328
 
              Baa    -0.0000    -0.000    -0.000    -0.000 -0.3255  0.9455  0.0073
    12 S(33)  Bbb     0.0000     0.000     0.000     0.000  0.9455  0.3255 -0.0054
              Bcc     0.0000     0.000     0.000     0.000  0.0075 -0.0051  1.0000
 
              Baa    -0.0000    -0.000    -0.000    -0.000  0.9509 -0.2766  0.1390
    13 H(1)   Bbb    -0.0000    -0.000    -0.000    -0.000 -0.1261  0.0641  0.9899
              Bcc     0.0000     0.000     0.000     0.000  0.2827  0.9588 -0.0260
 
              Baa    -0.0000    -0.000    -0.000    -0.000 -0.1824  0.1113  0.9769
    14 H(1)   Bbb    -0.0000    -0.000    -0.000    -0.000  0.8148 -0.5390  0.2135
              Bcc     0.0000     0.000     0.000     0.000  0.5503  0.8349  0.0076
 
              Baa    -0.0000    -0.000    -0.000    -0.000  0.0001 -0.0100  1.0000
    15 H(1)   Bbb    -0.0000    -0.000    -0.000    -0.000  0.6990  0.7151  0.0071
              Bcc     0.0000     0.000     0.000     0.000  0.7151 -0.6989 -0.0071
 
              Baa    -0.0000    -0.000    -0.000    -0.000  0.8232 -0.5678  0.0017
    16 H(1)   Bbb     0.0000     0.000     0.000     0.000  0.0188  0.0303  0.9994
              Bcc     0.0000     0.000     0.000     0.000  0.5675  0.8226 -0.0356
 
              Baa    -0.0000    -0.000    -0.000    -0.000  0.9971  0.0432 -0.0633
    17 H(1)   Bbb    -0.0000    -0.000    -0.000    -0.000  0.0630  0.0084  0.9980
              Bcc     0.0000     0.000     0.000     0.000 -0.0437  0.9990 -0.0056
 
              Baa    -0.0000    -0.000    -0.000    -0.000  0.9902  0.1397 -0.0036
    18 H(1)   Bbb     0.0000     0.000     0.000     0.000  0.0042 -0.0038  1.0000
              Bcc     0.0000     0.000     0.000     0.000 -0.1397  0.9902  0.0043
 

 ---------------------------------------------------------------------------------

 No NMR shielding tensors so no spin-rotation constants.
 Leave Link  601 at Sat Jul 25 03:36:33 2020, MaxMem=  4026531840 cpu:               1.7 elap:               0.2
 (Enter /opt/ohpc/pub/libs/gaussian/g16-A.03/sandybridge/g16/l9999.exe)

 Test job not archived.
 1\1\GINC-SKYLAKE017\FOpt\ULC-wPBE\CC-pVDZ\C9H6F1N1S1\RDU230\25-Jul-202
 0\0\\#P uLC-wPBE/cc-pVDZ iop(3/107=0286800000, 3/108=0286800000) opt\\
 H6 C9 S1 N1 F1\\0,1\C,-3.3963239956,-0.4203018239,-0.0120778347\C,-2.5
 768551007,-1.5492102583,-0.0028061543\N,-1.2451207982,-1.4985135862,0.
 0003937539\C,-0.6352413566,-0.3018769008,-0.0055170981\C,-1.4004249418
 ,0.8720109477,-0.0149049732\F,-0.7843595947,2.0731842443,-0.0207410742
 \C,-2.7846597224,0.8297046623,-0.018251259\C,0.839173496,-0.3215996487
 ,-0.0014648518\C,1.6048422962,-1.4655951018,0.0075033606\C,3.001227241
 3,-1.201230824,0.0094502027\C,3.2754915092,0.1415164534,0.0021314572\S
 ,1.8465009744,1.0933003417,-0.0074142512\H,-4.4862932985,-0.5171674177
 ,-0.0144546488\H,-3.016733496,-2.5553372593,0.0022842593\H,-3.35052420
 21,1.7665276729,-0.0256691137\H,1.1452350116,-2.4561034398,0.012271566
 4\H,3.7728968182,-1.9753647185,0.0160699928\H,4.2522861596,0.629812656
 4,0.0016736662\\Version=EM64L-G16RevA.03\State=1-A\HF=-898.8538121\S2=
 0.\S2-1=0.\S2A=0.\RMSD=6.859e-09\RMSF=1.447e-05\Dipole=-0.5306261,0.03
 1295,-0.0017735\Quadrupole=9.1504036,-2.6842575,-6.4661461,-0.6082443,
 0.0449435,-0.0243373\PG=C01 [X(C9H6F1N1S1)]\\@


 NOBODY LOSES ALL THE TIME
 I HAD AN UNCLE NAMED
 SOL WHO WAS A BORN FAILURE AND
 NEARLY EVERYBODY SAID HE SHOULD HAVE GONE
 INTO VAUDEVILLE PERHAPS BECAUSE MY UNCLE SOL COULD
 SING MCCANN HE WAS A DIVER ON XMAS EVE LIKE HELL ITSELF WHICH
 MAY OR MAY NOT ACCOUNT FOR THE FACT THAT MY UNCLE
 SOL INDULGED IN THAT POSSIBLY MOST INEXCUSABLE
 OF ALL TO USE A HIGHFALOOTIN PHRASE
 LUXURIES THAT IS OR TO
 WIT FARMING AND BE
 IT NEEDLESSLY
 ADDED
 MY UNCLE SOL'S FARM     
 FAILED BECAUSE THE CHICKENS
 ATE THE VEGETABLES SO
 MY UNCLE SOL HAD A
 CHICKEN FARM TILL THE
 SKUNKS ATE THE CHICKENS WHEN 
 MY UNCLE SOL
 HAD A SKUNK FARM BUT
 THE SKUNKS CAUGHT COLD AND
 DIED AND SO
 MY UNCLE SOL IMITATED THE
 SKUNKS IN A SUBTLE MANNER
 OR BY DROWNING HIMSELF IN THE WATERTANK
 BUT SOMEBODY WHO'D GIVEN MY UNCLE SOL A VICTOR     
 VICTROLA AND RECORDS WHILE HE LIVED PRESENTED TO
 HIM UPON THE AUSPICIOUS OCCASION OF HIS DECEASE A
 SCRUMPTIOUS NOT TO MENTION SPLENDIFEROUS FUNERAL WITH
 TALL BOYS IN BLACK GLOVES AND FLOWERS AND EVERYTHING AND
 I REMEMBER WE ALL CRIED LIKE THE MISSOURI
 WHEN MY UNCLE SOL'S COFFIN LURCHED BECAUSE     
 SOMEBODY PRESSED A BUTTON
 (AND DOWN WENT
 MY UNCLE
 SOL
 AND STARTED A WORM FARM)
           E. E. CUMMINGS
 Job cpu time:       0 days  1 hours  4 minutes  0.4 seconds.
 Elapsed time:       0 days  0 hours  8 minutes  5.1 seconds.
 File lengths (MBytes):  RWF=    100 Int=      0 D2E=      0 Chk=     12 Scr=      8
 Normal termination of Gaussian 16 at Sat Jul 25 03:36:33 2020.
