 Entering Gaussian System, Link 0=g16
 Input=mols_65_3_25_n-cOC-N_opt_0.gjf
 Output=mols_65_3_25_n-cOC-N_opt_0.log
 Initial command:
 /opt/ohpc/pub/libs/gaussian/g16-A.03/sandybridge/g16/l1.exe "/mnt/gpfs2_4m/scratch/rdu230/ondemand/projects/dihedral_energies/7trial/wtuning/mols_65_3_25_n-cOC-N/Gau-66551.inp" -scrdir="/mnt/gpfs2_4m/scratch/rdu230/ondemand/projects/dihedral_energies/7trial/wtuning/mols_65_3_25_n-cOC-N/"
 Entering Link 1 = /opt/ohpc/pub/libs/gaussian/g16-A.03/sandybridge/g16/l1.exe PID=     66552.
  
 Copyright (c) 1988,1990,1992,1993,1995,1998,2003,2009,2016,
            Gaussian, Inc.  All Rights Reserved.
  
 This is part of the Gaussian(R) 16 program.  It is based on
 the Gaussian(R) 09 system (copyright 2009, Gaussian, Inc.),
 the Gaussian(R) 03 system (copyright 2003, Gaussian, Inc.),
 the Gaussian(R) 98 system (copyright 1998, Gaussian, Inc.),
 the Gaussian(R) 94 system (copyright 1995, Gaussian, Inc.),
 the Gaussian 92(TM) system (copyright 1992, Gaussian, Inc.),
 the Gaussian 90(TM) system (copyright 1990, Gaussian, Inc.),
 the Gaussian 88(TM) system (copyright 1988, Gaussian, Inc.),
 the Gaussian 86(TM) system (copyright 1986, Carnegie Mellon
 University), and the Gaussian 82(TM) system (copyright 1983,
 Carnegie Mellon University). Gaussian is a federally registered
 trademark of Gaussian, Inc.
  
 This software contains proprietary and confidential information,
 including trade secrets, belonging to Gaussian, Inc.
  
 This software is provided under written license and may be
 used, copied, transmitted, or stored only in accord with that
 written license.
  
 The following legend is applicable only to US Government
 contracts under FAR:
  
                    RESTRICTED RIGHTS LEGEND
  
 Use, reproduction and disclosure by the US Government is
 subject to restrictions as set forth in subparagraphs (a)
 and (c) of the Commercial Computer Software - Restricted
 Rights clause in FAR 52.227-19.
  
 Gaussian, Inc.
 340 Quinnipiac St., Bldg. 40, Wallingford CT 06492
  
  
 ---------------------------------------------------------------
 Warning -- This program may not be used in any manner that
 competes with the business of Gaussian, Inc. or will provide
 assistance to any competitor of Gaussian, Inc.  The licensee
 of this program is prohibited from giving any competitor of
 Gaussian, Inc. access to this program.  By using this program,
 the user acknowledges that Gaussian, Inc. is engaged in the
 business of creating and licensing software in the field of
 computational chemistry and represents and warrants to the
 licensee that it is not a competitor of Gaussian, Inc. and that
 it will not use this program in any manner prohibited above.
 ---------------------------------------------------------------
  

 Cite this work as:
 Gaussian 16, Revision A.03,
 M. J. Frisch, G. W. Trucks, H. B. Schlegel, G. E. Scuseria, 
 M. A. Robb, J. R. Cheeseman, G. Scalmani, V. Barone, 
 G. A. Petersson, H. Nakatsuji, X. Li, M. Caricato, A. V. Marenich, 
 J. Bloino, B. G. Janesko, R. Gomperts, B. Mennucci, H. P. Hratchian, 
 J. V. Ortiz, A. F. Izmaylov, J. L. Sonnenberg, D. Williams-Young, 
 F. Ding, F. Lipparini, F. Egidi, J. Goings, B. Peng, A. Petrone, 
 T. Henderson, D. Ranasinghe, V. G. Zakrzewski, J. Gao, N. Rega, 
 G. Zheng, W. Liang, M. Hada, M. Ehara, K. Toyota, R. Fukuda, 
 J. Hasegawa, M. Ishida, T. Nakajima, Y. Honda, O. Kitao, H. Nakai, 
 T. Vreven, K. Throssell, J. A. Montgomery, Jr., J. E. Peralta, 
 F. Ogliaro, M. J. Bearpark, J. J. Heyd, E. N. Brothers, K. N. Kudin, 
 V. N. Staroverov, T. A. Keith, R. Kobayashi, J. Normand, 
 K. Raghavachari, A. P. Rendell, J. C. Burant, S. S. Iyengar, 
 J. Tomasi, M. Cossi, J. M. Millam, M. Klene, C. Adamo, R. Cammi, 
 J. W. Ochterski, R. L. Martin, K. Morokuma, O. Farkas, 
 J. B. Foresman, and D. J. Fox, Gaussian, Inc., Wallingford CT, 2016.
 
 ******************************************
 Gaussian 16:  EM64L-G16RevA.03 25-Dec-2016
                24-Jul-2020 
 ******************************************
 %mem=30GB
 %nproc=8
 Will use up to    8 processors via shared memory.
 ---------------------------------------------------------------
 #P uLC-wPBE/cc-pVDZ iop(3/107=0450200000, 3/108=0450200000) opt
 ---------------------------------------------------------------
 1/18=20,19=15,26=3,38=1/1,3;
 2/9=110,12=2,17=6,18=5,40=1/2;
 3/5=16,11=2,25=1,30=1,71=1,74=-41,107=450200000,108=450200000,116=2/1,2,3;
 4//1;
 5/5=2,38=5/2;
 6/7=2,8=2,9=2,10=2,28=1/1;
 7//1,2,3,16;
 1/18=20,19=15,26=3/3(2);
 2/9=110/2;
 99//99;
 2/9=110/2;
 3/5=16,11=2,25=1,30=1,71=1,74=-41,107=450200000,108=450200000,116=2/1,2,3;
 4/5=5,16=3,69=1/1;
 5/5=2,38=5/2;
 7//1,2,3,16;
 1/18=20,19=15,26=3/3(-5);
 2/9=110/2;
 6/7=2,8=2,9=2,10=2,19=2,28=1/1;
 99/9=1/99;
 Leave Link    1 at Fri Jul 24 19:46:35 2020, MaxMem=  4026531840 cpu:               0.7 elap:               0.2
 (Enter /opt/ohpc/pub/libs/gaussian/g16-A.03/sandybridge/g16/l101.exe)
 ----------------
 H20 C27 S3 N6 O3
 ----------------
 Symbolic Z-matrix:
 Charge =  0 Multiplicity = 1
 C                     10.86206   1.64541  -0.55081 
 C                     9.76783   2.38403  -0.69451 
 N                     8.4809    1.90809  -0.7493 
 C                     8.39556   0.5064   -0.54968 
 C                     9.53442  -0.28646  -0.28824 
 O                     9.28887  -1.64134  -0.03295 
 C                     10.36391  -2.47039  -0.03045 
 C                     10.7675   0.25856  -0.26507 
 C                     7.02548   0.03679  -0.604 
 N                     6.63402  -1.10875  -1.12233 
 C                     5.22152  -1.26957  -0.97183 
 C                     4.58485  -0.15656  -0.28301 
 S                     5.75346   1.04473   0.12408 
 C                     3.21009  -0.07239   0.04878 
 C                     2.48629   1.16255  -0.2178 
 N                     1.15228   1.34052   0.04641 
 C                     0.4637    0.28834   0.61017 
 C                     1.10567  -1.02015   0.92582 
 O                     0.34976  -1.97877   1.45267 
 C                     0.92154  -3.1658    1.85833 
 C                     2.48706  -1.07717   0.5944 
 C                    -0.9729    0.52241   0.81311 
 N                    -1.36853   1.39074   1.72786 
 C                    -2.82505   1.39011   1.65901 
 C                    -3.32385   0.5627    0.73509 
 S                    -2.0932   -0.34616  -0.04881 
 C                    -4.78987   0.37287   0.38893 
 C                    -5.31195  -0.91649   0.29183 
 N                    -6.62322  -1.13017  -0.02386 
 C                    -7.45659  -0.096    -0.21941 
 C                    -6.99958   1.24505   0.02465 
 O                    -7.92062   2.24737  -0.25616 
 C                    -7.53207   3.57915   0.12732 
 C                    -5.64788   1.37585   0.30003 
 C                    -8.90983  -0.4638   -0.44756 
 N                    -9.91974   0.26649   0.01748 
 C                    -11.09987  -0.4043   -0.42731 
 C                    -10.89367  -1.49955  -1.27984 
 S                    -9.20613  -1.80518  -1.44783 
 H                     11.93378   2.10966  -0.57154 
 H                     9.84507   3.46303  -0.96463 
 H                     10.92151  -2.43014  -1.03673 
 H                     9.98818  -3.52323   0.08395 
 H                     10.99189  -2.2819    0.78242 
 H                     11.66272  -0.36004  -0.11682 
 H                     4.78792  -2.12477  -1.27822 
 H                     2.92637   1.98154  -0.64898 
 H                     1.417    -3.69111   1.03781 
 H                     0.20118  -3.74424   2.34547 
 H                     1.76342  -2.98201   2.66313 
 H                     2.98177  -1.9951    0.85106 
 H                    -3.327     2.07382   2.33213 
 H                    -4.76217  -1.85452   0.33581 
 H                    -8.35415   4.25086   0.00465 
 H                    -7.13752   3.64038   1.09246 
 H                    -6.72823   3.89809  -0.64975 
 H                    -5.20157   2.43054   0.38216 
 H                    -11.99765   0.06241  -0.15601 
 H                    -11.72002  -2.12665  -1.66962 
 
 ITRead=  0  0  0  0  0  0  0  0  0  0  0  0  0  0  0  0  0  0  0  0
 ITRead=  0  0  0  0  0  0  0  0  0  0  0  0  0  0  0  0  0  0  0  0
 ITRead=  0  0  0  0  0  0  0  0  0  0  0  0  0  0  0  0  0  0  0
 MicOpt= -1 -1 -1 -1 -1 -1 -1 -1 -1 -1 -1 -1 -1 -1 -1 -1 -1 -1 -1 -1
 MicOpt= -1 -1 -1 -1 -1 -1 -1 -1 -1 -1 -1 -1 -1 -1 -1 -1 -1 -1 -1 -1
 MicOpt= -1 -1 -1 -1 -1 -1 -1 -1 -1 -1 -1 -1 -1 -1 -1 -1 -1 -1 -1
 NAtoms=     59 NQM=       59 NQMF=       0 NMMI=      0 NMMIF=      0
                NMic=       0 NMicF=      0.
                    Isotopes and Nuclear Properties:
 (Nuclear quadrupole moments (NQMom) in fm**2, nuclear magnetic moments (NMagM)
  in nuclear magnetons)

  Atom         1           2           3           4           5           6           7           8           9          10
 IAtWgt=          12          12          14          12          12          16          12          12          12          14
 AtmWgt=  12.0000000  12.0000000  14.0030740  12.0000000  12.0000000  15.9949146  12.0000000  12.0000000  12.0000000  14.0030740
 NucSpn=           0           0           2           0           0           0           0           0           0           2
 AtZEff=  -0.0000000  -0.0000000  -0.0000000  -0.0000000  -0.0000000  -0.0000000  -0.0000000  -0.0000000  -0.0000000  -0.0000000
 NQMom=    0.0000000   0.0000000   2.0440000   0.0000000   0.0000000   0.0000000   0.0000000   0.0000000   0.0000000   2.0440000
 NMagM=    0.0000000   0.0000000   0.4037610   0.0000000   0.0000000   0.0000000   0.0000000   0.0000000   0.0000000   0.4037610
 AtZNuc=   6.0000000   6.0000000   7.0000000   6.0000000   6.0000000   8.0000000   6.0000000   6.0000000   6.0000000   7.0000000

  Atom        11          12          13          14          15          16          17          18          19          20
 IAtWgt=          12          12          32          12          12          14          12          12          16          12
 AtmWgt=  12.0000000  12.0000000  31.9720718  12.0000000  12.0000000  14.0030740  12.0000000  12.0000000  15.9949146  12.0000000
 NucSpn=           0           0           0           0           0           2           0           0           0           0
 AtZEff=  -0.0000000  -0.0000000  -0.0000000  -0.0000000  -0.0000000  -0.0000000  -0.0000000  -0.0000000  -0.0000000  -0.0000000
 NQMom=    0.0000000   0.0000000   0.0000000   0.0000000   0.0000000   2.0440000   0.0000000   0.0000000   0.0000000   0.0000000
 NMagM=    0.0000000   0.0000000   0.0000000   0.0000000   0.0000000   0.4037610   0.0000000   0.0000000   0.0000000   0.0000000
 AtZNuc=   6.0000000   6.0000000  16.0000000   6.0000000   6.0000000   7.0000000   6.0000000   6.0000000   8.0000000   6.0000000

  Atom        21          22          23          24          25          26          27          28          29          30
 IAtWgt=          12          12          14          12          12          32          12          12          14          12
 AtmWgt=  12.0000000  12.0000000  14.0030740  12.0000000  12.0000000  31.9720718  12.0000000  12.0000000  14.0030740  12.0000000
 NucSpn=           0           0           2           0           0           0           0           0           2           0
 AtZEff=  -0.0000000  -0.0000000  -0.0000000  -0.0000000  -0.0000000  -0.0000000  -0.0000000  -0.0000000  -0.0000000  -0.0000000
 NQMom=    0.0000000   0.0000000   2.0440000   0.0000000   0.0000000   0.0000000   0.0000000   0.0000000   2.0440000   0.0000000
 NMagM=    0.0000000   0.0000000   0.4037610   0.0000000   0.0000000   0.0000000   0.0000000   0.0000000   0.4037610   0.0000000
 AtZNuc=   6.0000000   6.0000000   7.0000000   6.0000000   6.0000000  16.0000000   6.0000000   6.0000000   7.0000000   6.0000000

  Atom        31          32          33          34          35          36          37          38          39          40
 IAtWgt=          12          16          12          12          12          14          12          12          32           1
 AtmWgt=  12.0000000  15.9949146  12.0000000  12.0000000  12.0000000  14.0030740  12.0000000  12.0000000  31.9720718   1.0078250
 NucSpn=           0           0           0           0           0           2           0           0           0           1
 AtZEff=  -0.0000000  -0.0000000  -0.0000000  -0.0000000  -0.0000000  -0.0000000  -0.0000000  -0.0000000  -0.0000000  -0.0000000
 NQMom=    0.0000000   0.0000000   0.0000000   0.0000000   0.0000000   2.0440000   0.0000000   0.0000000   0.0000000   0.0000000
 NMagM=    0.0000000   0.0000000   0.0000000   0.0000000   0.0000000   0.4037610   0.0000000   0.0000000   0.0000000   2.7928460
 AtZNuc=   6.0000000   8.0000000   6.0000000   6.0000000   6.0000000   7.0000000   6.0000000   6.0000000  16.0000000   1.0000000

  Atom        41          42          43          44          45          46          47          48          49          50
 IAtWgt=           1           1           1           1           1           1           1           1           1           1
 AtmWgt=   1.0078250   1.0078250   1.0078250   1.0078250   1.0078250   1.0078250   1.0078250   1.0078250   1.0078250   1.0078250
 NucSpn=           1           1           1           1           1           1           1           1           1           1
 AtZEff=  -0.0000000  -0.0000000  -0.0000000  -0.0000000  -0.0000000  -0.0000000  -0.0000000  -0.0000000  -0.0000000  -0.0000000
 NQMom=    0.0000000   0.0000000   0.0000000   0.0000000   0.0000000   0.0000000   0.0000000   0.0000000   0.0000000   0.0000000
 NMagM=    2.7928460   2.7928460   2.7928460   2.7928460   2.7928460   2.7928460   2.7928460   2.7928460   2.7928460   2.7928460
 AtZNuc=   1.0000000   1.0000000   1.0000000   1.0000000   1.0000000   1.0000000   1.0000000   1.0000000   1.0000000   1.0000000

  Atom        51          52          53          54          55          56          57          58          59
 IAtWgt=           1           1           1           1           1           1           1           1           1
 AtmWgt=   1.0078250   1.0078250   1.0078250   1.0078250   1.0078250   1.0078250   1.0078250   1.0078250   1.0078250
 NucSpn=           1           1           1           1           1           1           1           1           1
 AtZEff=  -0.0000000  -0.0000000  -0.0000000  -0.0000000  -0.0000000  -0.0000000  -0.0000000  -0.0000000  -0.0000000
 NQMom=    0.0000000   0.0000000   0.0000000   0.0000000   0.0000000   0.0000000   0.0000000   0.0000000   0.0000000
 NMagM=    2.7928460   2.7928460   2.7928460   2.7928460   2.7928460   2.7928460   2.7928460   2.7928460   2.7928460
 AtZNuc=   1.0000000   1.0000000   1.0000000   1.0000000   1.0000000   1.0000000   1.0000000   1.0000000   1.0000000
 Leave Link  101 at Fri Jul 24 19:46:36 2020, MaxMem=  4026531840 cpu:               3.1 elap:               0.8
 (Enter /opt/ohpc/pub/libs/gaussian/g16-A.03/sandybridge/g16/l103.exe)

 GradGradGradGradGradGradGradGradGradGradGradGradGradGradGradGradGradGrad
 Berny optimization.
 Initialization pass.
                           ----------------------------
                           !    Initial Parameters    !
                           ! (Angstroms and Degrees)  !
 --------------------------                            --------------------------
 ! Name  Definition              Value          Derivative Info.                !
 --------------------------------------------------------------------------------
 ! R1    R(1,2)                  1.328          estimate D2E/DX2                !
 ! R2    R(1,8)                  1.4191         estimate D2E/DX2                !
 ! R3    R(1,40)                 1.1681         estimate D2E/DX2                !
 ! R4    R(2,3)                  1.3732         estimate D2E/DX2                !
 ! R5    R(2,41)                 1.115          estimate D2E/DX2                !
 ! R6    R(3,4)                  1.4184         estimate D2E/DX2                !
 ! R7    R(4,5)                  1.4121         estimate D2E/DX2                !
 ! R8    R(4,9)                  1.4493         estimate D2E/DX2                !
 ! R9    R(5,6)                  1.4004         estimate D2E/DX2                !
 ! R10   R(5,8)                  1.3484         estimate D2E/DX2                !
 ! R11   R(6,7)                  1.3576         estimate D2E/DX2                !
 ! R12   R(7,42)                 1.1512         estimate D2E/DX2                !
 ! R13   R(7,43)                 1.1237         estimate D2E/DX2                !
 ! R14   R(7,44)                 1.0443         estimate D2E/DX2                !
 ! R15   R(8,45)                 1.0982         estimate D2E/DX2                !
 ! R16   R(9,10)                 1.3169         estimate D2E/DX2                !
 ! R17   R(9,13)                 1.7788         estimate D2E/DX2                !
 ! R18   R(10,11)                1.4296         estimate D2E/DX2                !
 ! R19   R(11,12)                1.4555         estimate D2E/DX2                !
 ! R20   R(11,46)                1.0066         estimate D2E/DX2                !
 ! R21   R(12,13)                1.7247         estimate D2E/DX2                !
 ! R22   R(12,14)                1.4167         estimate D2E/DX2                !
 ! R23   R(14,15)                1.456          estimate D2E/DX2                !
 ! R24   R(14,21)                1.3528         estimate D2E/DX2                !
 ! R25   R(15,16)                1.3715         estimate D2E/DX2                !
 ! R26   R(15,47)                1.0249         estimate D2E/DX2                !
 ! R27   R(16,17)                1.3781         estimate D2E/DX2                !
 ! R28   R(17,18)                1.4913         estimate D2E/DX2                !
 ! R29   R(17,22)                1.4696         estimate D2E/DX2                !
 ! R30   R(18,19)                1.3296         estimate D2E/DX2                !
 ! R31   R(18,21)                1.4217         estimate D2E/DX2                !
 ! R32   R(19,20)                1.3786         estimate D2E/DX2                !
 ! R33   R(20,48)                1.093          estimate D2E/DX2                !
 ! R34   R(20,49)                1.0444         estimate D2E/DX2                !
 ! R35   R(20,50)                1.1791         estimate D2E/DX2                !
 ! R36   R(21,51)                1.0739         estimate D2E/DX2                !
 ! R37   R(22,23)                1.3219         estimate D2E/DX2                !
 ! R38   R(22,26)                1.659          estimate D2E/DX2                !
 ! R39   R(23,24)                1.4581         estimate D2E/DX2                !
 ! R40   R(24,25)                1.3368         estimate D2E/DX2                !
 ! R41   R(24,52)                1.0828         estimate D2E/DX2                !
 ! R42   R(25,26)                1.719          estimate D2E/DX2                !
 ! R43   R(25,27)                1.5182         estimate D2E/DX2                !
 ! R44   R(27,28)                1.3944         estimate D2E/DX2                !
 ! R45   R(27,34)                1.3229         estimate D2E/DX2                !
 ! R46   R(28,29)                1.3656         estimate D2E/DX2                !
 ! R47   R(28,53)                1.0882         estimate D2E/DX2                !
 ! R48   R(29,30)                1.3425         estimate D2E/DX2                !
 ! R49   R(30,31)                1.4377         estimate D2E/DX2                !
 ! R50   R(30,35)                1.5163         estimate D2E/DX2                !
 ! R51   R(31,32)                1.3899         estimate D2E/DX2                !
 ! R52   R(31,34)                1.3856         estimate D2E/DX2                !
 ! R53   R(32,33)                1.4393         estimate D2E/DX2                !
 ! R54   R(33,54)                1.0687         estimate D2E/DX2                !
 ! R55   R(33,55)                1.0445         estimate D2E/DX2                !
 ! R56   R(33,56)                1.1626         estimate D2E/DX2                !
 ! R57   R(34,57)                1.1482         estimate D2E/DX2                !
 ! R58   R(35,36)                1.3302         estimate D2E/DX2                !
 ! R59   R(35,39)                1.6993         estimate D2E/DX2                !
 ! R60   R(36,37)                1.4285         estimate D2E/DX2                !
 ! R61   R(37,38)                1.4032         estimate D2E/DX2                !
 ! R62   R(37,58)                1.0476         estimate D2E/DX2                !
 ! R63   R(38,39)                1.7232         estimate D2E/DX2                !
 ! R64   R(38,59)                1.1082         estimate D2E/DX2                !
 ! A1    A(2,1,8)              120.6925         estimate D2E/DX2                !
 ! A2    A(2,1,40)             122.208          estimate D2E/DX2                !
 ! A3    A(8,1,40)             116.9424         estimate D2E/DX2                !
 ! A4    A(1,2,3)              125.715          estimate D2E/DX2                !
 ! A5    A(1,2,41)             120.49           estimate D2E/DX2                !
 ! A6    A(3,2,41)             112.9952         estimate D2E/DX2                !
 ! A7    A(2,3,4)              113.1579         estimate D2E/DX2                !
 ! A8    A(3,4,5)              122.1678         estimate D2E/DX2                !
 ! A9    A(3,4,9)              111.8261         estimate D2E/DX2                !
 ! A10   A(5,4,9)              125.9739         estimate D2E/DX2                !
 ! A11   A(4,5,6)              115.8209         estimate D2E/DX2                !
 ! A12   A(4,5,8)              120.9163         estimate D2E/DX2                !
 ! A13   A(6,5,8)              123.2493         estimate D2E/DX2                !
 ! A14   A(5,6,7)              116.892          estimate D2E/DX2                !
 ! A15   A(6,7,42)             111.138          estimate D2E/DX2                !
 ! A16   A(6,7,43)             107.913          estimate D2E/DX2                !
 ! A17   A(6,7,44)             111.5543         estimate D2E/DX2                !
 ! A18   A(42,7,43)            106.4819         estimate D2E/DX2                !
 ! A19   A(42,7,44)            112.5084         estimate D2E/DX2                !
 ! A20   A(43,7,44)            106.9136         estimate D2E/DX2                !
 ! A21   A(1,8,5)              116.9033         estimate D2E/DX2                !
 ! A22   A(1,8,45)             121.5564         estimate D2E/DX2                !
 ! A23   A(5,8,45)             121.3392         estimate D2E/DX2                !
 ! A24   A(4,9,10)             125.283          estimate D2E/DX2                !
 ! A25   A(4,9,13)             118.4936         estimate D2E/DX2                !
 ! A26   A(10,9,13)            116.1962         estimate D2E/DX2                !
 ! A27   A(9,10,11)            110.4955         estimate D2E/DX2                !
 ! A28   A(10,11,12)           113.328          estimate D2E/DX2                !
 ! A29   A(10,11,46)           119.2842         estimate D2E/DX2                !
 ! A30   A(12,11,46)           127.2488         estimate D2E/DX2                !
 ! A31   A(11,12,13)           110.3611         estimate D2E/DX2                !
 ! A32   A(11,12,14)           125.5008         estimate D2E/DX2                !
 ! A33   A(13,12,14)           124.1145         estimate D2E/DX2                !
 ! A34   A(9,13,12)             89.613          estimate D2E/DX2                !
 ! A35   A(12,14,15)           119.3335         estimate D2E/DX2                !
 ! A36   A(12,14,21)           124.6781         estimate D2E/DX2                !
 ! A37   A(15,14,21)           115.9836         estimate D2E/DX2                !
 ! A38   A(14,15,16)           123.9382         estimate D2E/DX2                !
 ! A39   A(14,15,47)           122.7759         estimate D2E/DX2                !
 ! A40   A(16,15,47)           113.2666         estimate D2E/DX2                !
 ! A41   A(15,16,17)           117.7583         estimate D2E/DX2                !
 ! A42   A(16,17,18)           122.7806         estimate D2E/DX2                !
 ! A43   A(16,17,22)           115.0449         estimate D2E/DX2                !
 ! A44   A(18,17,22)           122.0958         estimate D2E/DX2                !
 ! A45   A(17,18,19)           118.1467         estimate D2E/DX2                !
 ! A46   A(17,18,21)           113.836          estimate D2E/DX2                !
 ! A47   A(19,18,21)           128.012          estimate D2E/DX2                !
 ! A48   A(18,19,20)           120.105          estimate D2E/DX2                !
 ! A49   A(19,20,48)           112.3914         estimate D2E/DX2                !
 ! A50   A(19,20,49)           109.1509         estimate D2E/DX2                !
 ! A51   A(19,20,50)           111.2703         estimate D2E/DX2                !
 ! A52   A(48,20,49)           113.3666         estimate D2E/DX2                !
 ! A53   A(48,20,50)           105.2872         estimate D2E/DX2                !
 ! A54   A(49,20,50)           105.0959         estimate D2E/DX2                !
 ! A55   A(14,21,18)           125.6996         estimate D2E/DX2                !
 ! A56   A(14,21,51)           119.0162         estimate D2E/DX2                !
 ! A57   A(18,21,51)           115.2252         estimate D2E/DX2                !
 ! A58   A(17,22,23)           119.5227         estimate D2E/DX2                !
 ! A59   A(17,22,26)           120.3291         estimate D2E/DX2                !
 ! A60   A(23,22,26)           120.0883         estimate D2E/DX2                !
 ! A61   A(22,23,24)           105.4269         estimate D2E/DX2                !
 ! A62   A(23,24,25)           113.9293         estimate D2E/DX2                !
 ! A63   A(23,24,52)           115.6844         estimate D2E/DX2                !
 ! A64   A(25,24,52)           130.3527         estimate D2E/DX2                !
 ! A65   A(24,25,26)           112.0425         estimate D2E/DX2                !
 ! A66   A(24,25,27)           126.5309         estimate D2E/DX2                !
 ! A67   A(26,25,27)           121.4129         estimate D2E/DX2                !
 ! A68   A(22,26,25)            88.2646         estimate D2E/DX2                !
 ! A69   A(25,27,28)           119.5385         estimate D2E/DX2                !
 ! A70   A(25,27,34)           123.1481         estimate D2E/DX2                !
 ! A71   A(28,27,34)           116.9701         estimate D2E/DX2                !
 ! A72   A(27,28,29)           121.3526         estimate D2E/DX2                !
 ! A73   A(27,28,53)           127.2362         estimate D2E/DX2                !
 ! A74   A(29,28,53)           111.0759         estimate D2E/DX2                !
 ! A75   A(28,29,30)           120.6122         estimate D2E/DX2                !
 ! A76   A(29,30,31)           119.7694         estimate D2E/DX2                !
 ! A77   A(29,30,35)           115.4681         estimate D2E/DX2                !
 ! A78   A(31,30,35)           123.8121         estimate D2E/DX2                !
 ! A79   A(30,31,32)           115.3239         estimate D2E/DX2                !
 ! A80   A(30,31,34)           115.588          estimate D2E/DX2                !
 ! A81   A(32,31,34)           128.207          estimate D2E/DX2                !
 ! A82   A(31,32,33)           115.756          estimate D2E/DX2                !
 ! A83   A(32,33,54)           110.0801         estimate D2E/DX2                !
 ! A84   A(32,33,55)           113.7294         estimate D2E/DX2                !
 ! A85   A(32,33,56)           105.2123         estimate D2E/DX2                !
 ! A86   A(54,33,55)           111.0885         estimate D2E/DX2                !
 ! A87   A(54,33,56)           106.4216         estimate D2E/DX2                !
 ! A88   A(55,33,56)           109.8985         estimate D2E/DX2                !
 ! A89   A(27,34,31)           125.0632         estimate D2E/DX2                !
 ! A90   A(27,34,57)           116.0726         estimate D2E/DX2                !
 ! A91   A(31,34,57)           118.6933         estimate D2E/DX2                !
 ! A92   A(30,35,36)           122.8097         estimate D2E/DX2                !
 ! A93   A(30,35,39)           116.561          estimate D2E/DX2                !
 ! A94   A(36,35,39)           120.4486         estimate D2E/DX2                !
 ! A95   A(35,36,37)           105.1032         estimate D2E/DX2                !
 ! A96   A(36,37,38)           115.742          estimate D2E/DX2                !
 ! A97   A(36,37,58)           114.7191         estimate D2E/DX2                !
 ! A98   A(38,37,58)           129.1259         estimate D2E/DX2                !
 ! A99   A(37,38,39)           109.973          estimate D2E/DX2                !
 ! A100  A(37,38,59)           123.0814         estimate D2E/DX2                !
 ! A101  A(39,38,59)           126.5557         estimate D2E/DX2                !
 ! A102  A(35,39,38)            88.4742         estimate D2E/DX2                !
 ! D1    D(8,1,2,3)             -8.1895         estimate D2E/DX2                !
 ! D2    D(8,1,2,41)          -177.2079         estimate D2E/DX2                !
 ! D3    D(40,1,2,3)           176.5076         estimate D2E/DX2                !
 ! D4    D(40,1,2,41)            7.4892         estimate D2E/DX2                !
 ! D5    D(2,1,8,5)              6.7516         estimate D2E/DX2                !
 ! D6    D(2,1,8,45)          -178.3361         estimate D2E/DX2                !
 ! D7    D(40,1,8,5)          -177.7061         estimate D2E/DX2                !
 ! D8    D(40,1,8,45)           -2.7938         estimate D2E/DX2                !
 ! D9    D(1,2,3,4)              3.7953         estimate D2E/DX2                !
 ! D10   D(41,2,3,4)           173.5233         estimate D2E/DX2                !
 ! D11   D(2,3,4,5)              1.5512         estimate D2E/DX2                !
 ! D12   D(2,3,4,9)            179.6011         estimate D2E/DX2                !
 ! D13   D(3,4,5,6)            176.3066         estimate D2E/DX2                !
 ! D14   D(3,4,5,8)             -2.3995         estimate D2E/DX2                !
 ! D15   D(9,4,5,6)             -1.4562         estimate D2E/DX2                !
 ! D16   D(9,4,5,8)            179.8376         estimate D2E/DX2                !
 ! D17   D(3,4,9,10)           143.2742         estimate D2E/DX2                !
 ! D18   D(3,4,9,13)           -38.7025         estimate D2E/DX2                !
 ! D19   D(5,4,9,10)           -38.7657         estimate D2E/DX2                !
 ! D20   D(5,4,9,13)           139.2576         estimate D2E/DX2                !
 ! D21   D(4,5,6,7)            167.8634         estimate D2E/DX2                !
 ! D22   D(8,5,6,7)            -13.4639         estimate D2E/DX2                !
 ! D23   D(4,5,8,1)             -1.7025         estimate D2E/DX2                !
 ! D24   D(4,5,8,45)          -176.6267         estimate D2E/DX2                !
 ! D25   D(6,5,8,1)            179.6902         estimate D2E/DX2                !
 ! D26   D(6,5,8,45)             4.766          estimate D2E/DX2                !
 ! D27   D(5,6,7,42)           -57.9669         estimate D2E/DX2                !
 ! D28   D(5,6,7,43)          -174.3679         estimate D2E/DX2                !
 ! D29   D(5,6,7,44)            68.4756         estimate D2E/DX2                !
 ! D30   D(4,9,10,11)          178.2585         estimate D2E/DX2                !
 ! D31   D(13,9,10,11)           0.1946         estimate D2E/DX2                !
 ! D32   D(4,9,13,12)         -177.9412         estimate D2E/DX2                !
 ! D33   D(10,9,13,12)           0.2605         estimate D2E/DX2                !
 ! D34   D(9,10,11,12)          -0.6779         estimate D2E/DX2                !
 ! D35   D(9,10,11,46)        -176.6995         estimate D2E/DX2                !
 ! D36   D(10,11,12,13)          0.8677         estimate D2E/DX2                !
 ! D37   D(10,11,12,14)       -177.4206         estimate D2E/DX2                !
 ! D38   D(46,11,12,13)        176.5078         estimate D2E/DX2                !
 ! D39   D(46,11,12,14)         -1.7806         estimate D2E/DX2                !
 ! D40   D(11,12,13,9)          -0.6151         estimate D2E/DX2                !
 ! D41   D(14,12,13,9)         177.7018         estimate D2E/DX2                !
 ! D42   D(11,12,14,15)       -134.208          estimate D2E/DX2                !
 ! D43   D(11,12,14,21)         44.9635         estimate D2E/DX2                !
 ! D44   D(13,12,14,15)         47.7302         estimate D2E/DX2                !
 ! D45   D(13,12,14,21)       -133.0983         estimate D2E/DX2                !
 ! D46   D(12,14,15,16)        178.9889         estimate D2E/DX2                !
 ! D47   D(12,14,15,47)          0.6928         estimate D2E/DX2                !
 ! D48   D(21,14,15,16)         -0.2532         estimate D2E/DX2                !
 ! D49   D(21,14,15,47)       -178.5493         estimate D2E/DX2                !
 ! D50   D(12,14,21,18)       -179.4679         estimate D2E/DX2                !
 ! D51   D(12,14,21,51)          3.4657         estimate D2E/DX2                !
 ! D52   D(15,14,21,18)         -0.2714         estimate D2E/DX2                !
 ! D53   D(15,14,21,51)       -177.3378         estimate D2E/DX2                !
 ! D54   D(14,15,16,17)          0.6637         estimate D2E/DX2                !
 ! D55   D(47,15,16,17)        179.1043         estimate D2E/DX2                !
 ! D56   D(15,16,17,18)         -0.5847         estimate D2E/DX2                !
 ! D57   D(15,16,17,22)       -177.4179         estimate D2E/DX2                !
 ! D58   D(16,17,18,19)       -179.115          estimate D2E/DX2                !
 ! D59   D(16,17,18,21)          0.1203         estimate D2E/DX2                !
 ! D60   D(22,17,18,19)         -2.5018         estimate D2E/DX2                !
 ! D61   D(22,17,18,21)        176.7334         estimate D2E/DX2                !
 ! D62   D(16,17,22,23)        -69.3898         estimate D2E/DX2                !
 ! D63   D(16,17,22,26)        113.4225         estimate D2E/DX2                !
 ! D64   D(18,17,22,23)        113.753          estimate D2E/DX2                !
 ! D65   D(18,17,22,26)        -63.4348         estimate D2E/DX2                !
 ! D66   D(17,18,19,20)       -174.8458         estimate D2E/DX2                !
 ! D67   D(21,18,19,20)          6.0421         estimate D2E/DX2                !
 ! D68   D(17,18,21,14)          0.3285         estimate D2E/DX2                !
 ! D69   D(17,18,21,51)        177.4928         estimate D2E/DX2                !
 ! D70   D(19,18,21,14)        179.4726         estimate D2E/DX2                !
 ! D71   D(19,18,21,51)         -3.3631         estimate D2E/DX2                !
 ! D72   D(18,19,20,48)        -60.0178         estimate D2E/DX2                !
 ! D73   D(18,19,20,49)        173.3154         estimate D2E/DX2                !
 ! D74   D(18,19,20,50)         57.7822         estimate D2E/DX2                !
 ! D75   D(17,22,23,24)        179.4325         estimate D2E/DX2                !
 ! D76   D(26,22,23,24)         -3.3729         estimate D2E/DX2                !
 ! D77   D(17,22,26,25)       -178.1464         estimate D2E/DX2                !
 ! D78   D(23,22,26,25)          4.6817         estimate D2E/DX2                !
 ! D79   D(22,23,24,25)         -0.3603         estimate D2E/DX2                !
 ! D80   D(22,23,24,52)       -178.4715         estimate D2E/DX2                !
 ! D81   D(23,24,25,26)          3.5949         estimate D2E/DX2                !
 ! D82   D(23,24,25,27)       -177.7467         estimate D2E/DX2                !
 ! D83   D(52,24,25,26)       -178.639          estimate D2E/DX2                !
 ! D84   D(52,24,25,27)          0.0195         estimate D2E/DX2                !
 ! D85   D(24,25,26,22)         -4.4315         estimate D2E/DX2                !
 ! D86   D(27,25,26,22)        176.8316         estimate D2E/DX2                !
 ! D87   D(24,25,27,28)       -131.8764         estimate D2E/DX2                !
 ! D88   D(24,25,27,34)         41.1864         estimate D2E/DX2                !
 ! D89   D(26,25,27,28)         46.6666         estimate D2E/DX2                !
 ! D90   D(26,25,27,34)       -140.2706         estimate D2E/DX2                !
 ! D91   D(25,27,28,29)       -179.665          estimate D2E/DX2                !
 ! D92   D(25,27,28,53)         -6.9277         estimate D2E/DX2                !
 ! D93   D(34,27,28,29)          6.8501         estimate D2E/DX2                !
 ! D94   D(34,27,28,53)        179.5874         estimate D2E/DX2                !
 ! D95   D(25,27,34,31)       -178.0726         estimate D2E/DX2                !
 ! D96   D(25,27,34,57)          6.7598         estimate D2E/DX2                !
 ! D97   D(28,27,34,31)         -4.8439         estimate D2E/DX2                !
 ! D98   D(28,27,34,57)        179.9885         estimate D2E/DX2                !
 ! D99   D(27,28,29,30)         -1.5829         estimate D2E/DX2                !
 ! D100  D(53,28,29,30)       -175.3907         estimate D2E/DX2                !
 ! D101  D(28,29,30,31)         -5.7481         estimate D2E/DX2                !
 ! D102  D(28,29,30,35)       -175.017          estimate D2E/DX2                !
 ! D103  D(29,30,31,32)        177.6355         estimate D2E/DX2                !
 ! D104  D(29,30,31,34)          7.4827         estimate D2E/DX2                !
 ! D105  D(35,30,31,32)        -14.0375         estimate D2E/DX2                !
 ! D106  D(35,30,31,34)        175.8097         estimate D2E/DX2                !
 ! D107  D(29,30,35,36)        143.5393         estimate D2E/DX2                !
 ! D108  D(29,30,35,39)        -41.3322         estimate D2E/DX2                !
 ! D109  D(31,30,35,36)        -25.2435         estimate D2E/DX2                !
 ! D110  D(31,30,35,39)        149.8849         estimate D2E/DX2                !
 ! D111  D(30,31,32,33)        173.1442         estimate D2E/DX2                !
 ! D112  D(34,31,32,33)        -18.1764         estimate D2E/DX2                !
 ! D113  D(30,31,34,27)         -2.092          estimate D2E/DX2                !
 ! D114  D(30,31,34,57)        172.9594         estimate D2E/DX2                !
 ! D115  D(32,31,34,27)       -170.7462         estimate D2E/DX2                !
 ! D116  D(32,31,34,57)          4.3052         estimate D2E/DX2                !
 ! D117  D(31,32,33,54)       -171.6948         estimate D2E/DX2                !
 ! D118  D(31,32,33,55)        -46.3028         estimate D2E/DX2                !
 ! D119  D(31,32,33,56)         74.0167         estimate D2E/DX2                !
 ! D120  D(30,35,36,37)        179.1521         estimate D2E/DX2                !
 ! D121  D(39,35,36,37)          4.207          estimate D2E/DX2                !
 ! D122  D(30,35,39,38)       -176.8403         estimate D2E/DX2                !
 ! D123  D(36,35,39,38)         -1.5894         estimate D2E/DX2                !
 ! D124  D(35,36,37,38)         -5.4904         estimate D2E/DX2                !
 ! D125  D(35,36,37,58)       -178.798          estimate D2E/DX2                !
 ! D126  D(36,37,38,39)          4.6705         estimate D2E/DX2                !
 ! D127  D(36,37,38,59)        177.9244         estimate D2E/DX2                !
 ! D128  D(58,37,38,39)        176.8275         estimate D2E/DX2                !
 ! D129  D(58,37,38,59)         -9.9187         estimate D2E/DX2                !
 ! D130  D(37,38,39,35)         -1.7856         estimate D2E/DX2                !
 ! D131  D(59,38,39,35)       -174.7473         estimate D2E/DX2                !
 --------------------------------------------------------------------------------
 Trust Radius=3.00D-01 FncErr=1.00D-07 GrdErr=1.00D-06 EigMax=2.50D+02 EigMin=1.00D-04
 Number of steps in this run=    307 maximum allowed number of steps=    354.
 GradGradGradGradGradGradGradGradGradGradGradGradGradGradGradGradGradGrad

 Leave Link  103 at Fri Jul 24 19:46:36 2020, MaxMem=  4026531840 cpu:               0.1 elap:               0.1
 (Enter /opt/ohpc/pub/libs/gaussian/g16-A.03/sandybridge/g16/l202.exe)
 Stoichiometry    C27H20N6O3S3
 Framework group  C1[X(C27H20N6O3S3)]
 Deg. of freedom   171
 Full point group                 C1      NOp   1
 Largest Abelian subgroup         C1      NOp   1
 Largest concise Abelian subgroup C1      NOp   1
                         Standard orientation:                         
 ---------------------------------------------------------------------
 Center     Atomic      Atomic             Coordinates (Angstroms)
 Number     Number       Type             X           Y           Z
 ---------------------------------------------------------------------
      1          6           0       10.853789    1.641914   -0.559763
      2          6           0        9.759346    2.379778   -0.705705
      3          7           0        8.472532    1.903326   -0.758823
      4          6           0        8.387599    0.502252   -0.554702
      5          6           0        9.526699   -0.289454   -0.290848
      6          8           0        9.281541   -1.643578   -0.031190
      7          6           0       10.356802   -2.472327   -0.026157
      8          6           0       10.759637    0.255966   -0.269569
      9          6           0        7.017639    0.032108   -0.607357
     10          7           0        6.626420   -1.115197   -1.121975
     11          6           0        5.213988   -1.275907   -0.970793
     12          6           0        4.577094   -0.160867   -0.285477
     13         16           0        5.745428    1.042032    0.117632
     14          6           0        3.202351   -0.076000    0.046198
     15          6           0        2.478191    1.157880   -0.224255
     16          7           0        1.144157    1.336338    0.039535
     17          6           0        0.455921    0.285787    0.606743
     18          6           0        1.098283   -1.021509    0.926515
     19          8           0        0.342692   -1.978640    1.456527
     20          6           0        0.914835   -3.164211    1.865921
     21          6           0        2.479648   -1.079223    0.595122
     22          6           0       -0.980713    0.520127    0.809100
     23          7           0       -1.376474    1.391277    1.721110
     24          6           0       -2.833004    1.390038    1.652428
     25          6           0       -3.331680    0.559537    0.731215
     26         16           0       -2.100874   -0.351501   -0.049904
     27          6           0       -4.797689    0.368209    0.385833
     28          6           0       -5.319437   -0.921604    0.292932
     29          7           0       -6.630682   -1.136647   -0.021921
     30          6           0       -7.464359   -0.103328   -0.220696
     31          6           0       -7.007676    1.238617    0.019017
     32          8           0       -7.929017    2.239790   -0.264905
     33          6           0       -7.540777    3.572892    0.114267
     34          6           0       -5.655984    1.370666    0.293819
     35          6           0       -8.917519   -0.472244   -0.447500
     36          7           0       -9.927577    0.259262    0.015319
     37          6           0      -11.107574   -0.413263   -0.427185
     38          6           0      -10.901179   -1.511191   -1.276227
     39         16           0       -9.213574   -1.816900   -1.443431
     40          1           0       11.925378    2.106388   -0.582103
     41          1           0        9.836262    3.457932   -0.979293
     42          1           0       10.914280   -2.435156   -1.032628
     43          1           0        9.981363   -3.524896    0.091657
     44          1           0       10.984829   -2.281061    0.786032
     45          1           0       11.655032   -0.361918   -0.119440
     46          1           0        4.780580   -2.132196   -1.274395
     47          1           0        2.917997    1.975603   -0.658102
     48          1           0        1.410337   -3.692016    1.047030
     49          1           0        0.194688   -3.741273    2.354998
     50          1           0        1.756753   -2.977614    2.670027
     51          1           0        2.974638   -1.996191    0.854668
     52          1           0       -3.335053    2.075763    2.323403
     53          1           0       -4.769405   -1.859339    0.339858
     54          1           0       -8.363051    4.243988   -0.010463
     55          1           0       -7.146135    3.637321    1.079157
     56          1           0       -6.737117    3.889559   -0.663921
     57          1           0       -5.209940    2.425736    0.372522
     58          1           0      -12.005446    0.054071   -0.157283
     59          1           0      -11.727408   -2.139760   -1.663902
 ---------------------------------------------------------------------
 Rotational constants (GHZ):           0.3114483           0.0185273           0.0179442
 Leave Link  202 at Fri Jul 24 19:46:36 2020, MaxMem=  4026531840 cpu:               0.3 elap:               0.1
 (Enter /opt/ohpc/pub/libs/gaussian/g16-A.03/sandybridge/g16/l301.exe)
 Standard basis: CC-pVDZ (5D, 7F)
 Ernie: Thresh=  0.10000D-02 Tol=  0.10000D-05 Strict=F.
 Ernie:  102 primitive shells out of 1042 were deleted.
 There are   697 symmetry adapted cartesian basis functions of A   symmetry.
 There are   658 symmetry adapted basis functions of A   symmetry.
   658 basis functions,  1541 primitive gaussians,   697 cartesian basis functions
   148 alpha electrons      148 beta electrons
       nuclear repulsion energy      4211.0854428107 Hartrees.
 IExCor=32609 DFT=T Ex+Corr=LC-wPBE ExCW=0 ScaHFX=  1.000000
 ScaDFX=  1.000000  0.000000  1.000000  1.000000 ScalE2=  1.000000  1.000000
 IRadAn=      5 IRanWt=     -1 IRanGd=            0 ICorTp=0 IEmpDi=  4
 HFx  wShort=  0.000000 wLong=  0.450200 cFull=  0.000000 cShort=  0.000000 cLong=  1.000000
 DFx  wShort=  0.000000 wLong=  0.450200 cFull=  0.000000 cShort=  0.000000 cLong=  1.000000
 NAtoms=   59 NActive=   59 NUniq=   59 SFac= 1.00D+00 NAtFMM=   60 NAOKFM=F Big=F
 Integral buffers will be    131072 words long.
 Raffenetti 2 integral format.
 Two-electron integral symmetry is turned on.
 Leave Link  301 at Fri Jul 24 19:46:36 2020, MaxMem=  4026531840 cpu:               0.5 elap:               0.1
 (Enter /opt/ohpc/pub/libs/gaussian/g16-A.03/sandybridge/g16/l302.exe)
 NPDir=0 NMtPBC=     1 NCelOv=     1 NCel=       1 NClECP=     1 NCelD=      1
         NCelK=      1 NCelE2=     1 NClLst=     1 CellRange=     0.0.
 One-electron integrals computed using PRISM.
 One-electron integral symmetry used in STVInt
 NBasis=   658 RedAO= T EigKep=  4.11D-04  NBF=   658
 NBsUse=   658 1.00D-06 EigRej= -1.00D+00 NBFU=   658
 Precomputing XC quadrature grid using
 IXCGrd= 4 IRadAn=           5 IRanWt=          -1 IRanGd=           0 AccXCQ= 0.00D+00.
 Generated NRdTot=       0 NPtTot=           0 NUsed=           0 NTot=          32
 NSgBfM=   600   597   597   600   600 MxSgAt=    59 MxSgA2=    59.
 Leave Link  302 at Fri Jul 24 19:46:38 2020, MaxMem=  4026531840 cpu:              11.2 elap:               1.5
 (Enter /opt/ohpc/pub/libs/gaussian/g16-A.03/sandybridge/g16/l303.exe)
 DipDrv:  MaxL=1.
 Leave Link  303 at Fri Jul 24 19:46:38 2020, MaxMem=  4026531840 cpu:               1.0 elap:               0.2
 (Enter /opt/ohpc/pub/libs/gaussian/g16-A.03/sandybridge/g16/l401.exe)
 ExpMin= 1.22D-01 ExpMax= 1.11D+05 ExpMxC= 1.07D+03 IAcc=3 IRadAn=         5 AccDes= 0.00D+00
 Harris functional with IExCor=32609 and IRadAn=       5 diagonalized for initial guess.
 HarFok:  IExCor=32609 AccDes= 0.00D+00 IRadAn=         5 IDoV= 1 UseB2=F ITyADJ=14
 ICtDFT=  3500011 ScaDFX=  1.000000  1.000000  1.000000  1.000000
 FoFCou: FMM=F IPFlag=           0 FMFlag=      100000 FMFlg1=           0
         NFxFlg=           0 DoJE=T BraDBF=F KetDBF=T FulRan=T
         wScrn=  0.000000 ICntrl=       500 IOpCl=  0 I1Cent=   200000004 NGrid=           0
         NMat0=    1 NMatS0=      1 NMatT0=    0 NMatD0=    1 NMtDS0=    0 NMtDT0=    0
 Petite list used in FoFCou.
 Harris En= -2787.65880020465    
 JPrj=0 DoOrth=F DoCkMO=F.
 Initial guess <Sx>= 0.0000 <Sy>= 0.0000 <Sz>= 0.0000 <S**2>=-0.0000 S=-0.0000
 Leave Link  401 at Fri Jul 24 19:46:45 2020, MaxMem=  4026531840 cpu:              49.9 elap:               6.5
 (Enter /opt/ohpc/pub/libs/gaussian/g16-A.03/sandybridge/g16/l502.exe)
 Integral symmetry usage will be decided dynamically.
 UHF open shell SCF:
 Using DIIS extrapolation, IDIIS=  1040.
 NGot=  4026531840 LenX=  4025547505 LenY=  4025060999
 Requested convergence on RMS density matrix=1.00D-08 within 128 cycles.
 Requested convergence on MAX density matrix=1.00D-06.
 Requested convergence on             energy=1.00D-06.
 No special actions if energy rises.
 Fock matrices will be formed incrementally for  20 cycles.
 Integral accuracy reduced to 1.0D-05 until final iterations.

 Cycle   1  Pass 0  IDiag  1:
 FoFJK:  IHMeth= 1 ICntrl=       0 DoSepK=T KAlg= 0 I1Cent=           0 FoldK=F
 IRaf=         1 NMat=       1 IRICut=       1 DoRegI=T DoRafI=F ISym2E= 0 IDoP0=0 IntGTp=1.
 FoFCou: FMM=F IPFlag=           0 FMFlag=      100000 FMFlg1=           0
         NFxFlg=           0 DoJE=T BraDBF=F KetDBF=F FulRan=T
         wScrn=  0.000000 ICntrl=       500 IOpCl=  0 I1Cent=           0 NGrid=           0
         NMat0=    1 NMatS0=      1 NMatT0=    0 NMatD0=    1 NMtDS0=    0 NMtDT0=    0
 Symmetry not used in FoFCou.
 E= -2787.43382936110    
 DIIS: error= 1.30D-02 at cycle   1 NSaved=   1.
 NSaved= 1 IEnMin= 1 EnMin= -2787.43382936110     IErMin= 1 ErrMin= 1.30D-02
 ErrMax= 1.30D-02  0.00D+00 EMaxC= 1.00D-01 BMatC= 2.42D+00 BMatP= 2.42D+00
 IDIUse=3 WtCom= 8.70D-01 WtEn= 1.30D-01
 Coeff-Com:  0.100D+01
 Coeff-En:   0.100D+01
 Coeff:      0.100D+01
 Gap=     0.321 Goal=   None    Shift=    0.000
 Gap=     0.321 Goal=   None    Shift=    0.000
 GapD=    0.321 DampG=1.000 DampE=0.500 DampFc=0.5000 IDamp=-1.
 Damping current iteration by 5.00D-01
 RMSDP=2.36D-03 MaxDP=1.28D-01              OVMax= 1.96D-01

 Cycle   2  Pass 0  IDiag  1:
 RMSU=  1.17D-03    CP:  9.90D-01
 E= -2787.78415061744     Delta-E=       -0.350321256345 Rises=F Damp=T
 DIIS: error= 4.59D-03 at cycle   2 NSaved=   2.
 NSaved= 2 IEnMin= 2 EnMin= -2787.78415061744     IErMin= 2 ErrMin= 4.59D-03
 ErrMax= 4.59D-03  0.00D+00 EMaxC= 1.00D-01 BMatC= 1.84D-01 BMatP= 2.42D+00
 IDIUse=3 WtCom= 9.54D-01 WtEn= 4.59D-02
 Coeff-Com: -0.108D+00 0.111D+01
 Coeff-En:   0.000D+00 0.100D+01
 Coeff:     -0.103D+00 0.110D+01
 Gap=     0.310 Goal=   None    Shift=    0.000
 Gap=     0.310 Goal=   None    Shift=    0.000
 RMSDP=8.16D-04 MaxDP=2.51D-02 DE=-3.50D-01 OVMax= 1.19D-01

 Cycle   3  Pass 0  IDiag  1:
 RMSU=  7.53D-04    CP:  9.80D-01  1.24D+00
 E= -2788.11129514887     Delta-E=       -0.327144531425 Rises=F Damp=F
 DIIS: error= 2.98D-03 at cycle   3 NSaved=   3.
 NSaved= 3 IEnMin= 3 EnMin= -2788.11129514887     IErMin= 3 ErrMin= 2.98D-03
 ErrMax= 2.98D-03  0.00D+00 EMaxC= 1.00D-01 BMatC= 6.88D-02 BMatP= 1.84D-01
 IDIUse=3 WtCom= 9.70D-01 WtEn= 2.98D-02
 Coeff-Com: -0.852D-01 0.426D+00 0.659D+00
 Coeff-En:   0.000D+00 0.000D+00 0.100D+01
 Coeff:     -0.827D-01 0.413D+00 0.669D+00
 Gap=     0.307 Goal=   None    Shift=    0.000
 Gap=     0.307 Goal=   None    Shift=    0.000
 RMSDP=2.28D-04 MaxDP=1.60D-02 DE=-3.27D-01 OVMax= 2.64D-02

 Cycle   4  Pass 0  IDiag  1:
 RMSU=  1.98D-04    CP:  9.80D-01  1.30D+00  8.81D-01
 E= -2788.12734620147     Delta-E=       -0.016051052605 Rises=F Damp=F
 DIIS: error= 1.06D-03 at cycle   4 NSaved=   4.
 NSaved= 4 IEnMin= 4 EnMin= -2788.12734620147     IErMin= 4 ErrMin= 1.06D-03
 ErrMax= 1.06D-03  0.00D+00 EMaxC= 1.00D-01 BMatC= 7.90D-03 BMatP= 6.88D-02
 IDIUse=3 WtCom= 9.89D-01 WtEn= 1.06D-02
 Coeff-Com: -0.807D-02 0.540D-02 0.238D+00 0.765D+00
 Coeff-En:   0.000D+00 0.000D+00 0.000D+00 0.100D+01
 Coeff:     -0.799D-02 0.535D-02 0.235D+00 0.767D+00
 Gap=     0.309 Goal=   None    Shift=    0.000
 Gap=     0.309 Goal=   None    Shift=    0.000
 RMSDP=8.83D-05 MaxDP=4.47D-03 DE=-1.61D-02 OVMax= 9.80D-03

 Cycle   5  Pass 0  IDiag  1:
 RMSU=  6.75D-05    CP:  9.79D-01  1.30D+00  9.55D-01  9.70D-01
 E= -2788.12982539317     Delta-E=       -0.002479191694 Rises=F Damp=F
 DIIS: error= 3.05D-04 at cycle   5 NSaved=   5.
 NSaved= 5 IEnMin= 5 EnMin= -2788.12982539317     IErMin= 5 ErrMin= 3.05D-04
 ErrMax= 3.05D-04  0.00D+00 EMaxC= 1.00D-01 BMatC= 7.20D-04 BMatP= 7.90D-03
 IDIUse=3 WtCom= 9.97D-01 WtEn= 3.05D-03
 Coeff-Com:  0.923D-02-0.437D-01-0.371D-02 0.200D+00 0.838D+00
 Coeff-En:   0.000D+00 0.000D+00 0.000D+00 0.000D+00 0.100D+01
 Coeff:      0.920D-02-0.436D-01-0.369D-02 0.200D+00 0.838D+00
 Gap=     0.310 Goal=   None    Shift=    0.000
 Gap=     0.310 Goal=   None    Shift=    0.000
 RMSDP=3.89D-05 MaxDP=1.65D-03 DE=-2.48D-03 OVMax= 5.16D-03

 Cycle   6  Pass 0  IDiag  1:
 RMSU=  2.72D-05    CP:  9.79D-01  1.30D+00  9.78D-01  1.06D+00  1.16D+00
 E= -2788.13022033226     Delta-E=       -0.000394939095 Rises=F Damp=F
 DIIS: error= 1.69D-04 at cycle   6 NSaved=   6.
 NSaved= 6 IEnMin= 6 EnMin= -2788.13022033226     IErMin= 6 ErrMin= 1.69D-04
 ErrMax= 1.69D-04  0.00D+00 EMaxC= 1.00D-01 BMatC= 1.21D-04 BMatP= 7.20D-04
 IDIUse=3 WtCom= 9.98D-01 WtEn= 1.69D-03
 Coeff-Com:  0.480D-02-0.152D-01-0.354D-01-0.567D-01 0.194D+00 0.908D+00
 Coeff-En:   0.000D+00 0.000D+00 0.000D+00 0.000D+00 0.000D+00 0.100D+01
 Coeff:      0.480D-02-0.152D-01-0.353D-01-0.566D-01 0.194D+00 0.909D+00
 Gap=     0.311 Goal=   None    Shift=    0.000
 Gap=     0.311 Goal=   None    Shift=    0.000
 RMSDP=2.19D-05 MaxDP=1.23D-03 DE=-3.95D-04 OVMax= 3.76D-03

 Cycle   7  Pass 0  IDiag  1:
 RMSU=  1.30D-05    CP:  9.79D-01  1.30D+00  9.87D-01  1.10D+00  1.34D+00
                    CP:  1.24D+00
 E= -2788.13033002860     Delta-E=       -0.000109696339 Rises=F Damp=F
 DIIS: error= 6.30D-05 at cycle   7 NSaved=   7.
 NSaved= 7 IEnMin= 7 EnMin= -2788.13033002860     IErMin= 7 ErrMin= 6.30D-05
 ErrMax= 6.30D-05  0.00D+00 EMaxC= 1.00D-01 BMatC= 2.94D-05 BMatP= 1.21D-04
 IDIUse=1 WtCom= 1.00D+00 WtEn= 0.00D+00
 Coeff-Com: -0.136D-03 0.364D-02-0.624D-02-0.476D-01-0.132D+00 0.243D+00
 Coeff-Com:  0.939D+00
 Coeff:     -0.136D-03 0.364D-02-0.624D-02-0.476D-01-0.132D+00 0.243D+00
 Coeff:      0.939D+00
 Gap=     0.311 Goal=   None    Shift=    0.000
 Gap=     0.311 Goal=   None    Shift=    0.000
 RMSDP=1.20D-05 MaxDP=5.66D-04 DE=-1.10D-04 OVMax= 2.08D-03

 Cycle   8  Pass 0  IDiag  1:
 RMSU=  5.10D-06    CP:  9.79D-01  1.30D+00  9.89D-01  1.12D+00  1.43D+00
                    CP:  1.53D+00  1.23D+00
 E= -2788.13035617310     Delta-E=       -0.000026144496 Rises=F Damp=F
 DIIS: error= 3.40D-05 at cycle   8 NSaved=   8.
 NSaved= 8 IEnMin= 8 EnMin= -2788.13035617310     IErMin= 8 ErrMin= 3.40D-05
 ErrMax= 3.40D-05  0.00D+00 EMaxC= 1.00D-01 BMatC= 7.38D-06 BMatP= 2.94D-05
 IDIUse=1 WtCom= 1.00D+00 WtEn= 0.00D+00
 Coeff-Com: -0.822D-03 0.402D-02 0.438D-02-0.758D-02-0.951D-01-0.745D-01
 Coeff-Com:  0.385D+00 0.785D+00
 Coeff:     -0.822D-03 0.402D-02 0.438D-02-0.758D-02-0.951D-01-0.745D-01
 Coeff:      0.385D+00 0.785D+00
 Gap=     0.311 Goal=   None    Shift=    0.000
 Gap=     0.311 Goal=   None    Shift=    0.000
 RMSDP=5.22D-06 MaxDP=2.50D-04 DE=-2.61D-05 OVMax= 9.55D-04

 Initial convergence to 1.0D-05 achieved.  Increase integral accuracy.
 Cycle   9  Pass 1  IDiag  1:
 E= -2788.12991551229     Delta-E=        0.000440660810 Rises=F Damp=F
 DIIS: error= 1.44D-04 at cycle   1 NSaved=   1.
 NSaved= 1 IEnMin= 1 EnMin= -2788.12991551229     IErMin= 1 ErrMin= 1.44D-04
 ErrMax= 1.44D-04  0.00D+00 EMaxC= 1.00D-01 BMatC= 3.83D-05 BMatP= 3.83D-05
 IDIUse=3 WtCom= 9.99D-01 WtEn= 1.44D-03
 Coeff-Com:  0.100D+01
 Coeff-En:   0.100D+01
 Coeff:      0.100D+01
 Gap=     0.311 Goal=   None    Shift=    0.000
 Gap=     0.311 Goal=   None    Shift=    0.000
 RMSDP=5.22D-06 MaxDP=2.50D-04 DE= 4.41D-04 OVMax= 3.57D-04

 Cycle  10  Pass 1  IDiag  1:
 RMSU=  7.78D-05    CP:  1.00D+00
 E= -2788.12992325948     Delta-E=       -0.000007747198 Rises=F Damp=F
 DIIS: error= 1.07D-05 at cycle   2 NSaved=   2.
 NSaved= 2 IEnMin= 2 EnMin= -2788.12992325948     IErMin= 2 ErrMin= 1.07D-05
 ErrMax= 1.07D-05  0.00D+00 EMaxC= 1.00D-01 BMatC= 7.10D-07 BMatP= 3.83D-05
 IDIUse=1 WtCom= 1.00D+00 WtEn= 0.00D+00
 Coeff-Com: -0.102D-01 0.101D+01
 Coeff:     -0.102D-01 0.101D+01
 Gap=     0.311 Goal=   None    Shift=    0.000
 Gap=     0.311 Goal=   None    Shift=    0.000
 RMSDP=4.33D-06 MaxDP=2.59D-04 DE=-7.75D-06 OVMax= 2.15D-04

 Cycle  11  Pass 1  IDiag  1:
 RMSU=  1.84D-06    CP:  1.00D+00  1.05D+00
 E= -2788.12992336543     Delta-E=       -0.000000105943 Rises=F Damp=F
 DIIS: error= 1.62D-05 at cycle   3 NSaved=   3.
 NSaved= 3 IEnMin= 3 EnMin= -2788.12992336543     IErMin= 2 ErrMin= 1.07D-05
 ErrMax= 1.62D-05  0.00D+00 EMaxC= 1.00D-01 BMatC= 8.81D-07 BMatP= 7.10D-07
 IDIUse=1 WtCom= 1.00D+00 WtEn= 0.00D+00
 Coeff-Com: -0.222D-01 0.546D+00 0.476D+00
 Coeff:     -0.222D-01 0.546D+00 0.476D+00
 Gap=     0.311 Goal=   None    Shift=    0.000
 Gap=     0.311 Goal=   None    Shift=    0.000
 RMSDP=7.65D-07 MaxDP=5.82D-05 DE=-1.06D-07 OVMax= 1.09D-04

 Cycle  12  Pass 1  IDiag  1:
 RMSU=  6.57D-07    CP:  1.00D+00  1.05D+00  8.09D-01
 E= -2788.12992361179     Delta-E=       -0.000000246365 Rises=F Damp=F
 DIIS: error= 3.29D-06 at cycle   4 NSaved=   4.
 NSaved= 4 IEnMin= 4 EnMin= -2788.12992361179     IErMin= 4 ErrMin= 3.29D-06
 ErrMax= 3.29D-06  0.00D+00 EMaxC= 1.00D-01 BMatC= 3.05D-08 BMatP= 7.10D-07
 IDIUse=1 WtCom= 1.00D+00 WtEn= 0.00D+00
 Coeff-Com:  0.401D-02-0.175D+00-0.691D-01 0.124D+01
 Coeff:      0.401D-02-0.175D+00-0.691D-01 0.124D+01
 Gap=     0.311 Goal=   None    Shift=    0.000
 Gap=     0.311 Goal=   None    Shift=    0.000
 RMSDP=4.78D-07 MaxDP=2.78D-05 DE=-2.46D-07 OVMax= 9.95D-05

 Cycle  13  Pass 1  IDiag  1:
 RMSU=  3.08D-07    CP:  1.00D+00  1.05D+00  9.49D-01  1.36D+00
 E= -2788.12992366634     Delta-E=       -0.000000054548 Rises=F Damp=F
 DIIS: error= 1.35D-06 at cycle   5 NSaved=   5.
 NSaved= 5 IEnMin= 5 EnMin= -2788.12992366634     IErMin= 5 ErrMin= 1.35D-06
 ErrMax= 1.35D-06  0.00D+00 EMaxC= 1.00D-01 BMatC= 1.17D-08 BMatP= 3.05D-08
 IDIUse=1 WtCom= 1.00D+00 WtEn= 0.00D+00
 Coeff-Com:  0.915D-02-0.258D+00-0.189D+00 0.521D+00 0.917D+00
 Coeff:      0.915D-02-0.258D+00-0.189D+00 0.521D+00 0.917D+00
 Gap=     0.311 Goal=   None    Shift=    0.000
 Gap=     0.311 Goal=   None    Shift=    0.000
 RMSDP=3.00D-07 MaxDP=1.56D-05 DE=-5.45D-08 OVMax= 7.00D-05

 Cycle  14  Pass 1  IDiag  1:
 RMSU=  1.22D-07    CP:  1.00D+00  1.05D+00  1.01D+00  1.63D+00  1.56D+00
 E= -2788.12992367982     Delta-E=       -0.000000013476 Rises=F Damp=F
 DIIS: error= 4.82D-07 at cycle   6 NSaved=   6.
 NSaved= 6 IEnMin= 6 EnMin= -2788.12992367982     IErMin= 6 ErrMin= 4.82D-07
 ErrMax= 4.82D-07  0.00D+00 EMaxC= 1.00D-01 BMatC= 1.14D-09 BMatP= 1.17D-08
 IDIUse=1 WtCom= 1.00D+00 WtEn= 0.00D+00
 Coeff-Com:  0.169D-02-0.395D-01-0.357D-01-0.396D-01 0.244D+00 0.869D+00
 Coeff:      0.169D-02-0.395D-01-0.357D-01-0.396D-01 0.244D+00 0.869D+00
 Gap=     0.311 Goal=   None    Shift=    0.000
 Gap=     0.311 Goal=   None    Shift=    0.000
 RMSDP=8.14D-08 MaxDP=4.02D-06 DE=-1.35D-08 OVMax= 1.84D-05

 Cycle  15  Pass 1  IDiag  1:
 RMSU=  3.59D-08    CP:  1.00D+00  1.05D+00  1.02D+00  1.66D+00  1.76D+00
                    CP:  1.15D+00
 E= -2788.12992368064     Delta-E=       -0.000000000829 Rises=F Damp=F
 DIIS: error= 2.71D-07 at cycle   7 NSaved=   7.
 NSaved= 7 IEnMin= 7 EnMin= -2788.12992368064     IErMin= 7 ErrMin= 2.71D-07
 ErrMax= 2.71D-07  0.00D+00 EMaxC= 1.00D-01 BMatC= 2.51D-10 BMatP= 1.14D-09
 IDIUse=1 WtCom= 1.00D+00 WtEn= 0.00D+00
 Coeff-Com: -0.761D-03 0.247D-01 0.155D-01-0.104D+00-0.457D-01 0.341D+00
 Coeff-Com:  0.769D+00
 Coeff:     -0.761D-03 0.247D-01 0.155D-01-0.104D+00-0.457D-01 0.341D+00
 Coeff:      0.769D+00
 Gap=     0.311 Goal=   None    Shift=    0.000
 Gap=     0.311 Goal=   None    Shift=    0.000
 RMSDP=3.10D-08 MaxDP=1.52D-06 DE=-8.29D-10 OVMax= 7.49D-06

 Cycle  16  Pass 1  IDiag  1:
 RMSU=  1.70D-08    CP:  1.00D+00  1.05D+00  1.02D+00  1.67D+00  1.83D+00
                    CP:  1.24D+00  1.10D+00
 E= -2788.12992368088     Delta-E=       -0.000000000237 Rises=F Damp=F
 DIIS: error= 1.12D-07 at cycle   8 NSaved=   8.
 NSaved= 8 IEnMin= 8 EnMin= -2788.12992368088     IErMin= 8 ErrMin= 1.12D-07
 ErrMax= 1.12D-07  0.00D+00 EMaxC= 1.00D-01 BMatC= 3.54D-11 BMatP= 2.51D-10
 IDIUse=1 WtCom= 1.00D+00 WtEn= 0.00D+00
 Coeff-Com: -0.325D-03 0.859D-02 0.710D-02-0.108D-01-0.368D-01-0.788D-01
 Coeff-Com:  0.144D+00 0.967D+00
 Coeff:     -0.325D-03 0.859D-02 0.710D-02-0.108D-01-0.368D-01-0.788D-01
 Coeff:      0.144D+00 0.967D+00
 Gap=     0.311 Goal=   None    Shift=    0.000
 Gap=     0.311 Goal=   None    Shift=    0.000
 RMSDP=1.28D-08 MaxDP=6.36D-07 DE=-2.37D-10 OVMax= 3.20D-06

 Cycle  17  Pass 1  IDiag  1:
 RMSU=  7.03D-09    CP:  1.00D+00  1.05D+00  1.02D+00  1.67D+00  1.84D+00
                    CP:  1.26D+00  1.30D+00  1.34D+00
 E= -2788.12992368077     Delta-E=        0.000000000110 Rises=F Damp=F
 DIIS: error= 5.03D-08 at cycle   9 NSaved=   9.
 NSaved= 9 IEnMin= 8 EnMin= -2788.12992368088     IErMin= 9 ErrMin= 5.03D-08
 ErrMax= 5.03D-08  0.00D+00 EMaxC= 1.00D-01 BMatC= 9.06D-12 BMatP= 3.54D-11
 IDIUse=1 WtCom= 1.00D+00 WtEn= 0.00D+00
 Coeff-Com:  0.174D-03-0.628D-02-0.309D-02 0.341D-01 0.686D-02-0.151D+00
 Coeff-Com: -0.203D+00 0.301D+00 0.102D+01
 Coeff:      0.174D-03-0.628D-02-0.309D-02 0.341D-01 0.686D-02-0.151D+00
 Coeff:     -0.203D+00 0.301D+00 0.102D+01
 Gap=     0.311 Goal=   None    Shift=    0.000
 Gap=     0.311 Goal=   None    Shift=    0.000
 RMSDP=8.58D-09 MaxDP=4.25D-07 DE= 1.10D-10 OVMax= 2.24D-06

 SCF Done:  E(ULC-wPBE) =  -2788.12992368     A.U. after   17 cycles
            NFock= 17  Conv=0.86D-08     -V/T= 2.0051
 <Sx>= 0.0000 <Sy>= 0.0000 <Sz>= 0.0000 <S**2>=-0.0000 S=-0.0000
 <L.S>= 0.000000000000E+00
 KE= 2.773852877177D+03 PE=-1.497131640721D+04 EE= 5.198248163544D+03
 Annihilation of the first spin contaminant:
 S**2 before annihilation    -0.0000,   after    -0.0000
 Leave Link  502 at Fri Jul 24 19:54:44 2020, MaxMem=  4026531840 cpu:            3772.4 elap:             479.7
 (Enter /opt/ohpc/pub/libs/gaussian/g16-A.03/sandybridge/g16/l601.exe)
 Copying SCF densities to generalized density rwf, IOpCl= 1 IROHF=0.

 **********************************************************************

            Population analysis using the SCF density.

 **********************************************************************

 Orbital symmetries:
 Alpha Orbitals:
       Occupied  (A) (A) (A) (A) (A) (A) (A) (A) (A) (A) (A) (A)
                 (A) (A) (A) (A) (A) (A) (A) (A) (A) (A) (A) (A)
                 (A) (A) (A) (A) (A) (A) (A) (A) (A) (A) (A) (A)
                 (A) (A) (A) (A) (A) (A) (A) (A) (A) (A) (A) (A)
                 (A) (A) (A) (A) (A) (A) (A) (A) (A) (A) (A) (A)
                 (A) (A) (A) (A) (A) (A) (A) (A) (A) (A) (A) (A)
                 (A) (A) (A) (A) (A) (A) (A) (A) (A) (A) (A) (A)
                 (A) (A) (A) (A) (A) (A) (A) (A) (A) (A) (A) (A)
                 (A) (A) (A) (A) (A) (A) (A) (A) (A) (A) (A) (A)
                 (A) (A) (A) (A) (A) (A) (A) (A) (A) (A) (A) (A)
                 (A) (A) (A) (A) (A) (A) (A) (A) (A) (A) (A) (A)
                 (A) (A) (A) (A) (A) (A) (A) (A) (A) (A) (A) (A)
                 (A) (A) (A) (A)
       Virtual   (A) (A) (A) (A) (A) (A) (A) (A) (A) (A) (A) (A)
                 (A) (A) (A) (A) (A) (A) (A) (A) (A) (A) (A) (A)
                 (A) (A) (A) (A) (A) (A) (A) (A) (A) (A) (A) (A)
                 (A) (A) (A) (A) (A) (A) (A) (A) (A) (A) (A) (A)
                 (A) (A) (A) (A) (A) (A) (A) (A) (A) (A) (A) (A)
                 (A) (A) (A) (A) (A) (A) (A) (A) (A) (A) (A) (A)
                 (A) (A) (A) (A) (A) (A) (A) (A) (A) (A) (A) (A)
                 (A) (A) (A) (A) (A) (A) (A) (A) (A) (A) (A) (A)
                 (A) (A) (A) (A) (A) (A) (A) (A) (A) (A) (A) (A)
                 (A) (A) (A) (A) (A) (A) (A) (A) (A) (A) (A) (A)
                 (A) (A) (A) (A) (A) (A) (A) (A) (A) (A) (A) (A)
                 (A) (A) (A) (A) (A) (A) (A) (A) (A) (A) (A) (A)
                 (A) (A) (A) (A) (A) (A) (A) (A) (A) (A) (A) (A)
                 (A) (A) (A) (A) (A) (A) (A) (A) (A) (A) (A) (A)
                 (A) (A) (A) (A) (A) (A) (A) (A) (A) (A) (A) (A)
                 (A) (A) (A) (A) (A) (A) (A) (A) (A) (A) (A) (A)
                 (A) (A) (A) (A) (A) (A) (A) (A) (A) (A) (A) (A)
                 (A) (A) (A) (A) (A) (A) (A) (A) (A) (A) (A) (A)
                 (A) (A) (A) (A) (A) (A) (A) (A) (A) (A) (A) (A)
                 (A) (A) (A) (A) (A) (A) (A) (A) (A) (A) (A) (A)
                 (A) (A) (A) (A) (A) (A) (A) (A) (A) (A) (A) (A)
                 (A) (A) (A) (A) (A) (A) (A) (A) (A) (A) (A) (A)
                 (A) (A) (A) (A) (A) (A) (A) (A) (A) (A) (A) (A)
                 (A) (A) (A) (A) (A) (A) (A) (A) (A) (A) (A) (A)
                 (A) (A) (A) (A) (A) (A) (A) (A) (A) (A) (A) (A)
                 (A) (A) (A) (A) (A) (A) (A) (A) (A) (A) (A) (A)
                 (A) (A) (A) (A) (A) (A) (A) (A) (A) (A) (A) (A)
                 (A) (A) (A) (A) (A) (A) (A) (A) (A) (A) (A) (A)
                 (A) (A) (A) (A) (A) (A) (A) (A) (A) (A) (A) (A)
                 (A) (A) (A) (A) (A) (A) (A) (A) (A) (A) (A) (A)
                 (A) (A) (A) (A) (A) (A) (A) (A) (A) (A) (A) (A)
                 (A) (A) (A) (A) (A) (A) (A) (A) (A) (A) (A) (A)
                 (A) (A) (A) (A) (A) (A) (A) (A) (A) (A) (A) (A)
                 (A) (A) (A) (A) (A) (A) (A) (A) (A) (A) (A) (A)
                 (A) (A) (A) (A) (A) (A) (A) (A) (A) (A) (A) (A)
                 (A) (A) (A) (A) (A) (A) (A) (A) (A) (A) (A) (A)
                 (A) (A) (A) (A) (A) (A) (A) (A) (A) (A) (A) (A)
                 (A) (A) (A) (A) (A) (A) (A) (A) (A) (A) (A) (A)
                 (A) (A) (A) (A) (A) (A) (A) (A) (A) (A) (A) (A)
                 (A) (A) (A) (A) (A) (A) (A) (A) (A) (A) (A) (A)
                 (A) (A) (A) (A) (A) (A) (A) (A) (A) (A) (A) (A)
                 (A) (A) (A) (A) (A) (A) (A) (A) (A) (A) (A) (A)
                 (A) (A) (A) (A) (A) (A)
 Beta  Orbitals:
       Occupied  (A) (A) (A) (A) (A) (A) (A) (A) (A) (A) (A) (A)
                 (A) (A) (A) (A) (A) (A) (A) (A) (A) (A) (A) (A)
                 (A) (A) (A) (A) (A) (A) (A) (A) (A) (A) (A) (A)
                 (A) (A) (A) (A) (A) (A) (A) (A) (A) (A) (A) (A)
                 (A) (A) (A) (A) (A) (A) (A) (A) (A) (A) (A) (A)
                 (A) (A) (A) (A) (A) (A) (A) (A) (A) (A) (A) (A)
                 (A) (A) (A) (A) (A) (A) (A) (A) (A) (A) (A) (A)
                 (A) (A) (A) (A) (A) (A) (A) (A) (A) (A) (A) (A)
                 (A) (A) (A) (A) (A) (A) (A) (A) (A) (A) (A) (A)
                 (A) (A) (A) (A) (A) (A) (A) (A) (A) (A) (A) (A)
                 (A) (A) (A) (A) (A) (A) (A) (A) (A) (A) (A) (A)
                 (A) (A) (A) (A) (A) (A) (A) (A) (A) (A) (A) (A)
                 (A) (A) (A) (A)
       Virtual   (A) (A) (A) (A) (A) (A) (A) (A) (A) (A) (A) (A)
                 (A) (A) (A) (A) (A) (A) (A) (A) (A) (A) (A) (A)
                 (A) (A) (A) (A) (A) (A) (A) (A) (A) (A) (A) (A)
                 (A) (A) (A) (A) (A) (A) (A) (A) (A) (A) (A) (A)
                 (A) (A) (A) (A) (A) (A) (A) (A) (A) (A) (A) (A)
                 (A) (A) (A) (A) (A) (A) (A) (A) (A) (A) (A) (A)
                 (A) (A) (A) (A) (A) (A) (A) (A) (A) (A) (A) (A)
                 (A) (A) (A) (A) (A) (A) (A) (A) (A) (A) (A) (A)
                 (A) (A) (A) (A) (A) (A) (A) (A) (A) (A) (A) (A)
                 (A) (A) (A) (A) (A) (A) (A) (A) (A) (A) (A) (A)
                 (A) (A) (A) (A) (A) (A) (A) (A) (A) (A) (A) (A)
                 (A) (A) (A) (A) (A) (A) (A) (A) (A) (A) (A) (A)
                 (A) (A) (A) (A) (A) (A) (A) (A) (A) (A) (A) (A)
                 (A) (A) (A) (A) (A) (A) (A) (A) (A) (A) (A) (A)
                 (A) (A) (A) (A) (A) (A) (A) (A) (A) (A) (A) (A)
                 (A) (A) (A) (A) (A) (A) (A) (A) (A) (A) (A) (A)
                 (A) (A) (A) (A) (A) (A) (A) (A) (A) (A) (A) (A)
                 (A) (A) (A) (A) (A) (A) (A) (A) (A) (A) (A) (A)
                 (A) (A) (A) (A) (A) (A) (A) (A) (A) (A) (A) (A)
                 (A) (A) (A) (A) (A) (A) (A) (A) (A) (A) (A) (A)
                 (A) (A) (A) (A) (A) (A) (A) (A) (A) (A) (A) (A)
                 (A) (A) (A) (A) (A) (A) (A) (A) (A) (A) (A) (A)
                 (A) (A) (A) (A) (A) (A) (A) (A) (A) (A) (A) (A)
                 (A) (A) (A) (A) (A) (A) (A) (A) (A) (A) (A) (A)
                 (A) (A) (A) (A) (A) (A) (A) (A) (A) (A) (A) (A)
                 (A) (A) (A) (A) (A) (A) (A) (A) (A) (A) (A) (A)
                 (A) (A) (A) (A) (A) (A) (A) (A) (A) (A) (A) (A)
                 (A) (A) (A) (A) (A) (A) (A) (A) (A) (A) (A) (A)
                 (A) (A) (A) (A) (A) (A) (A) (A) (A) (A) (A) (A)
                 (A) (A) (A) (A) (A) (A) (A) (A) (A) (A) (A) (A)
                 (A) (A) (A) (A) (A) (A) (A) (A) (A) (A) (A) (A)
                 (A) (A) (A) (A) (A) (A) (A) (A) (A) (A) (A) (A)
                 (A) (A) (A) (A) (A) (A) (A) (A) (A) (A) (A) (A)
                 (A) (A) (A) (A) (A) (A) (A) (A) (A) (A) (A) (A)
                 (A) (A) (A) (A) (A) (A) (A) (A) (A) (A) (A) (A)
                 (A) (A) (A) (A) (A) (A) (A) (A) (A) (A) (A) (A)
                 (A) (A) (A) (A) (A) (A) (A) (A) (A) (A) (A) (A)
                 (A) (A) (A) (A) (A) (A) (A) (A) (A) (A) (A) (A)
                 (A) (A) (A) (A) (A) (A) (A) (A) (A) (A) (A) (A)
                 (A) (A) (A) (A) (A) (A) (A) (A) (A) (A) (A) (A)
                 (A) (A) (A) (A) (A) (A) (A) (A) (A) (A) (A) (A)
                 (A) (A) (A) (A) (A) (A) (A) (A) (A) (A) (A) (A)
                 (A) (A) (A) (A) (A) (A)
 The electronic state is 1-A.
 Alpha  occ. eigenvalues --  -88.36291 -88.36073 -88.35583 -19.06819 -19.04482
 Alpha  occ. eigenvalues --  -19.04268 -14.27075 -14.26059 -14.25710 -14.25442
 Alpha  occ. eigenvalues --  -14.24877 -14.24568 -10.24835 -10.23428 -10.23409
 Alpha  occ. eigenvalues --  -10.22721 -10.22001 -10.21706 -10.21690 -10.21637
 Alpha  occ. eigenvalues --  -10.20994 -10.20634 -10.20475 -10.20464 -10.20454
 Alpha  occ. eigenvalues --  -10.19566 -10.19034 -10.18932 -10.18873 -10.18830
 Alpha  occ. eigenvalues --  -10.18804 -10.18506 -10.18382 -10.18377 -10.18280
 Alpha  occ. eigenvalues --  -10.17925 -10.17745 -10.17667 -10.17462  -7.97187
 Alpha  occ. eigenvalues --   -7.97029  -7.96481  -5.98465  -5.98330  -5.97927
 Alpha  occ. eigenvalues --   -5.97807  -5.97757  -5.97528  -5.97412  -5.97231
 Alpha  occ. eigenvalues --   -5.96874  -1.27322  -1.24408  -1.22334  -1.13995
 Alpha  occ. eigenvalues --   -1.13295  -1.12960  -1.11015  -1.10844  -1.10026
 Alpha  occ. eigenvalues --   -1.01872  -1.01031  -0.99016  -0.97362  -0.96956
 Alpha  occ. eigenvalues --   -0.96581  -0.96543  -0.95538  -0.94791  -0.92092
 Alpha  occ. eigenvalues --   -0.89867  -0.89324  -0.87602  -0.86890  -0.86793
 Alpha  occ. eigenvalues --   -0.82982  -0.80931  -0.79905  -0.77960  -0.77800
 Alpha  occ. eigenvalues --   -0.77162  -0.73557  -0.73002  -0.72565  -0.72404
 Alpha  occ. eigenvalues --   -0.71950  -0.71237  -0.68086  -0.68001  -0.67147
 Alpha  occ. eigenvalues --   -0.66864  -0.66367  -0.65656  -0.64552  -0.64349
 Alpha  occ. eigenvalues --   -0.63858  -0.63485  -0.63206  -0.62129  -0.61275
 Alpha  occ. eigenvalues --   -0.60972  -0.59507  -0.59011  -0.58107  -0.57671
 Alpha  occ. eigenvalues --   -0.57334  -0.57084  -0.56849  -0.56426  -0.55813
 Alpha  occ. eigenvalues --   -0.55456  -0.54858  -0.54582  -0.53876  -0.53833
 Alpha  occ. eigenvalues --   -0.53325  -0.52664  -0.52428  -0.52297  -0.51499
 Alpha  occ. eigenvalues --   -0.50562  -0.50480  -0.49759  -0.49173  -0.48654
 Alpha  occ. eigenvalues --   -0.48415  -0.47474  -0.46747  -0.46180  -0.45882
 Alpha  occ. eigenvalues --   -0.43400  -0.42961  -0.41870  -0.41060  -0.40742
 Alpha  occ. eigenvalues --   -0.40439  -0.40157  -0.39343  -0.39068  -0.38993
 Alpha  occ. eigenvalues --   -0.38866  -0.38378  -0.37082  -0.36911  -0.36243
 Alpha  occ. eigenvalues --   -0.34389  -0.32272  -0.31252
 Alpha virt. eigenvalues --   -0.00110   0.02112   0.03328   0.05592   0.05939
 Alpha virt. eigenvalues --    0.06414   0.07518   0.09162   0.09774   0.12533
 Alpha virt. eigenvalues --    0.12845   0.13421   0.13938   0.14229   0.14346
 Alpha virt. eigenvalues --    0.14717   0.15007   0.15777   0.16787   0.18277
 Alpha virt. eigenvalues --    0.18975   0.19039   0.19728   0.20141   0.20632
 Alpha virt. eigenvalues --    0.20721   0.20947   0.21232   0.21604   0.22205
 Alpha virt. eigenvalues --    0.22354   0.22540   0.22735   0.23097   0.23594
 Alpha virt. eigenvalues --    0.23816   0.24077   0.24506   0.24560   0.25135
 Alpha virt. eigenvalues --    0.25579   0.26377   0.26928   0.28245   0.30624
 Alpha virt. eigenvalues --    0.31102   0.32279   0.32516   0.33178   0.33570
 Alpha virt. eigenvalues --    0.33680   0.34023   0.34517   0.34931   0.36469
 Alpha virt. eigenvalues --    0.37058   0.37752   0.38409   0.38679   0.39587
 Alpha virt. eigenvalues --    0.40123   0.41354   0.41682   0.42824   0.43392
 Alpha virt. eigenvalues --    0.43782   0.43847   0.45054   0.46162   0.47024
 Alpha virt. eigenvalues --    0.47622   0.47930   0.49527   0.49677   0.50069
 Alpha virt. eigenvalues --    0.50481   0.50939   0.52180   0.52352   0.53497
 Alpha virt. eigenvalues --    0.54038   0.55150   0.55377   0.55795   0.56008
 Alpha virt. eigenvalues --    0.56349   0.56871   0.57043   0.57217   0.57358
 Alpha virt. eigenvalues --    0.57431   0.57637   0.57879   0.57903   0.58014
 Alpha virt. eigenvalues --    0.58523   0.58762   0.58998   0.59399   0.59663
 Alpha virt. eigenvalues --    0.60188   0.60333   0.60456   0.60914   0.60933
 Alpha virt. eigenvalues --    0.61179   0.61331   0.61825   0.62086   0.62289
 Alpha virt. eigenvalues --    0.62303   0.62612   0.62803   0.63211   0.63446
 Alpha virt. eigenvalues --    0.63764   0.63969   0.64324   0.64630   0.65027
 Alpha virt. eigenvalues --    0.65180   0.65695   0.65778   0.66373   0.66724
 Alpha virt. eigenvalues --    0.67361   0.68061   0.68217   0.68698   0.68934
 Alpha virt. eigenvalues --    0.69434   0.69807   0.70001   0.70233   0.70824
 Alpha virt. eigenvalues --    0.70907   0.71363   0.71906   0.72029   0.72707
 Alpha virt. eigenvalues --    0.72852   0.73041   0.73533   0.73769   0.73998
 Alpha virt. eigenvalues --    0.74277   0.75043   0.75788   0.76194   0.76426
 Alpha virt. eigenvalues --    0.76730   0.77209   0.77391   0.77807   0.78078
 Alpha virt. eigenvalues --    0.78546   0.78646   0.78986   0.79476   0.79819
 Alpha virt. eigenvalues --    0.80279   0.80399   0.80559   0.80647   0.81122
 Alpha virt. eigenvalues --    0.81898   0.82170   0.83268   0.83652   0.83995
 Alpha virt. eigenvalues --    0.84290   0.84600   0.85051   0.85698   0.86280
 Alpha virt. eigenvalues --    0.86524   0.87383   0.87743   0.88963   0.89152
 Alpha virt. eigenvalues --    0.89933   0.90284   0.90859   0.92515   0.93417
 Alpha virt. eigenvalues --    0.94052   0.94457   0.95085   0.95673   0.96182
 Alpha virt. eigenvalues --    0.96375   0.96578   0.97891   0.98606   0.99089
 Alpha virt. eigenvalues --    0.99543   1.00024   1.00313   1.00553   1.00923
 Alpha virt. eigenvalues --    1.01234   1.01658   1.01934   1.02317   1.02690
 Alpha virt. eigenvalues --    1.03114   1.03771   1.04041   1.04453   1.04892
 Alpha virt. eigenvalues --    1.05046   1.05929   1.06312   1.06719   1.07055
 Alpha virt. eigenvalues --    1.07532   1.07679   1.08574   1.09370   1.09517
 Alpha virt. eigenvalues --    1.09896   1.10545   1.10632   1.10896   1.11482
 Alpha virt. eigenvalues --    1.12187   1.12767   1.13230   1.13822   1.14095
 Alpha virt. eigenvalues --    1.14549   1.15273   1.15460   1.15725   1.16618
 Alpha virt. eigenvalues --    1.17659   1.17903   1.18077   1.18586   1.18929
 Alpha virt. eigenvalues --    1.19313   1.20247   1.20873   1.21411   1.21783
 Alpha virt. eigenvalues --    1.22111   1.23035   1.23433   1.23588   1.24749
 Alpha virt. eigenvalues --    1.25524   1.25917   1.26299   1.26326   1.26866
 Alpha virt. eigenvalues --    1.28133   1.28755   1.28896   1.29717   1.30176
 Alpha virt. eigenvalues --    1.30567   1.32656   1.33030   1.33346   1.33982
 Alpha virt. eigenvalues --    1.34806   1.35262   1.36187   1.36708   1.38264
 Alpha virt. eigenvalues --    1.38771   1.39390   1.40340   1.40563   1.41492
 Alpha virt. eigenvalues --    1.41764   1.42439   1.43674   1.44285   1.44423
 Alpha virt. eigenvalues --    1.45149   1.46511   1.46915   1.47619   1.47865
 Alpha virt. eigenvalues --    1.48247   1.49472   1.49745   1.50639   1.51508
 Alpha virt. eigenvalues --    1.51535   1.51653   1.52721   1.53335   1.53763
 Alpha virt. eigenvalues --    1.55208   1.55848   1.56139   1.57145   1.57509
 Alpha virt. eigenvalues --    1.58170   1.58865   1.59230   1.59718   1.59922
 Alpha virt. eigenvalues --    1.60312   1.60743   1.61890   1.62748   1.62845
 Alpha virt. eigenvalues --    1.63541   1.64077   1.65073   1.65610   1.66876
 Alpha virt. eigenvalues --    1.67391   1.67571   1.68147   1.68579   1.68849
 Alpha virt. eigenvalues --    1.69371   1.69552   1.70047   1.70188   1.70740
 Alpha virt. eigenvalues --    1.71257   1.71693   1.72020   1.72863   1.73253
 Alpha virt. eigenvalues --    1.73469   1.74174   1.74387   1.74625   1.74818
 Alpha virt. eigenvalues --    1.74919   1.75209   1.75503   1.75658   1.76893
 Alpha virt. eigenvalues --    1.77450   1.77799   1.78128   1.79128   1.79399
 Alpha virt. eigenvalues --    1.79941   1.80583   1.81057   1.81794   1.82263
 Alpha virt. eigenvalues --    1.82716   1.82875   1.83244   1.83752   1.83835
 Alpha virt. eigenvalues --    1.83938   1.85290   1.85609   1.86105   1.86548
 Alpha virt. eigenvalues --    1.87226   1.88364   1.88501   1.89528   1.90488
 Alpha virt. eigenvalues --    1.92017   1.92762   1.93001   1.93402   1.93603
 Alpha virt. eigenvalues --    1.94204   1.94624   1.95288   1.96560   1.97037
 Alpha virt. eigenvalues --    1.97588   1.98672   1.99209   1.99564   1.99879
 Alpha virt. eigenvalues --    2.00329   2.00991   2.01894   2.02041   2.02716
 Alpha virt. eigenvalues --    2.03030   2.04306   2.04902   2.05198   2.05566
 Alpha virt. eigenvalues --    2.06093   2.07863   2.08249   2.09459   2.09677
 Alpha virt. eigenvalues --    2.10588   2.11029   2.12216   2.12611   2.12855
 Alpha virt. eigenvalues --    2.13145   2.13445   2.13824   2.14128   2.14642
 Alpha virt. eigenvalues --    2.15415   2.15816   2.17057   2.17863   2.18639
 Alpha virt. eigenvalues --    2.18836   2.20023   2.20673   2.22357   2.23129
 Alpha virt. eigenvalues --    2.23772   2.24162   2.25200   2.26294   2.27153
 Alpha virt. eigenvalues --    2.27609   2.28239   2.28936   2.30598   2.31268
 Alpha virt. eigenvalues --    2.33034   2.33758   2.34320   2.34372   2.35867
 Alpha virt. eigenvalues --    2.36568   2.36835   2.37347   2.38863   2.39357
 Alpha virt. eigenvalues --    2.40265   2.41712   2.42435   2.42623   2.44043
 Alpha virt. eigenvalues --    2.44392   2.45766   2.46402   2.47731   2.48444
 Alpha virt. eigenvalues --    2.49361   2.49918   2.50787   2.51028   2.52780
 Alpha virt. eigenvalues --    2.53261   2.53944   2.55198   2.56652   2.56855
 Alpha virt. eigenvalues --    2.57309   2.58064   2.58358   2.58922   2.59208
[...]
    42   Atom        0.000000      0.000000      0.000000
    43   Atom       -0.000000     -0.000000     -0.000000
    44   Atom        0.000000     -0.000000      0.000000
    45   Atom        0.000000      0.000000     -0.000000
    46   Atom        0.000000     -0.000000      0.000000
    47   Atom       -0.000000      0.000000      0.000000
    48   Atom        0.000000     -0.000000     -0.000000
    49   Atom        0.000000     -0.000000     -0.000000
    50   Atom        0.000000     -0.000000      0.000000
    51   Atom        0.000000     -0.000000      0.000000
    52   Atom        0.000000      0.000000      0.000000
    53   Atom        0.000000     -0.000000      0.000000
    54   Atom        0.000000      0.000000      0.000000
    55   Atom       -0.000000      0.000000      0.000000
    56   Atom       -0.000000     -0.000000      0.000000
    57   Atom        0.000000     -0.000000     -0.000000
    58   Atom       -0.000000      0.000000      0.000000
    59   Atom        0.000000     -0.000000     -0.000000
 --------------------------------------------------------


 ---------------------------------------------------------------------------------
              Anisotropic Spin Dipole Couplings in Principal Axis System
 ---------------------------------------------------------------------------------

       Atom             a.u.   MegaHertz   Gauss  10(-4) cm-1        Axes

              Baa    -0.0000    -0.000    -0.000    -0.000  0.1379  0.5643  0.8140
     1 C(13)  Bbb    -0.0000    -0.000    -0.000    -0.000  0.1671  0.7968 -0.5807
              Bcc     0.0000     0.000     0.000     0.000  0.9762 -0.2161 -0.0156
 
              Baa    -0.0000    -0.000    -0.000    -0.000 -0.4160  0.7608  0.4980
     2 C(13)  Bbb     0.0000     0.000     0.000     0.000  0.8799  0.1987  0.4316
              Bcc     0.0000     0.000     0.000     0.000 -0.2294 -0.6178  0.7521
 
              Baa    -0.0000    -0.000    -0.000    -0.000 -0.0506 -0.5735  0.8176
     3 N(14)  Bbb     0.0000     0.000     0.000     0.000  0.7382 -0.5729 -0.3562
              Bcc     0.0000     0.000     0.000     0.000  0.6727  0.5855  0.4524
 
              Baa    -0.0000    -0.000    -0.000    -0.000  0.1486  0.7271 -0.6703
     4 C(13)  Bbb    -0.0000    -0.000    -0.000    -0.000  0.4956  0.5318  0.6867
              Bcc     0.0000     0.000     0.000     0.000  0.8558 -0.4342 -0.2813
 
              Baa    -0.0000    -0.000    -0.000    -0.000 -0.0340  0.6470  0.7617
     5 C(13)  Bbb    -0.0000    -0.000    -0.000    -0.000  0.0356  0.7625 -0.6460
              Bcc     0.0000     0.000     0.000     0.000  0.9988 -0.0052  0.0490
 
              Baa    -0.0000     0.000     0.000     0.000 -0.0855  0.9886 -0.1242
     6 O(17)  Bbb     0.0000    -0.000    -0.000    -0.000  0.8441  0.1381  0.5181
              Bcc     0.0000    -0.000    -0.000    -0.000 -0.5294  0.0605  0.8462
 
              Baa    -0.0000    -0.000    -0.000    -0.000  0.7916  0.4077 -0.4550
     7 C(13)  Bbb     0.0000     0.000     0.000     0.000  0.1219  0.6243  0.7716
              Bcc     0.0000     0.000     0.000     0.000 -0.5987  0.6663 -0.4445
 
              Baa    -0.0000    -0.000    -0.000    -0.000 -0.5797  0.6287  0.5184
     8 C(13)  Bbb     0.0000     0.000     0.000     0.000  0.7906  0.5879  0.1710
              Bcc     0.0000     0.000     0.000     0.000  0.1973 -0.5090  0.8379
 
              Baa    -0.0000    -0.000    -0.000    -0.000  0.8674  0.3656  0.3377
     9 C(13)  Bbb     0.0000     0.000     0.000     0.000 -0.2172 -0.3324  0.9178
              Bcc     0.0000     0.000     0.000     0.000 -0.4478  0.8694  0.2088
 
              Baa    -0.0000    -0.000    -0.000    -0.000 -0.2823  0.9503  0.1315
    10 N(14)  Bbb     0.0000     0.000     0.000     0.000  0.6872  0.1046  0.7189
              Bcc     0.0000     0.000     0.000     0.000 -0.6694 -0.2933  0.6825
 
              Baa    -0.0000    -0.000    -0.000    -0.000  0.9733 -0.2241 -0.0501
    11 C(13)  Bbb    -0.0000    -0.000    -0.000    -0.000  0.1730  0.8593 -0.4813
              Bcc     0.0000     0.000     0.000     0.000  0.1510  0.4598  0.8751
 
              Baa    -0.0000    -0.000    -0.000    -0.000  0.9856 -0.1667  0.0293
    12 C(13)  Bbb     0.0000     0.000     0.000     0.000  0.1289  0.8517  0.5079
              Bcc     0.0000     0.000     0.000     0.000 -0.1096 -0.4968  0.8609
 
              Baa    -0.0000    -0.000    -0.000    -0.000  0.1308  0.9756  0.1765
    13 S(33)  Bbb    -0.0000    -0.000    -0.000    -0.000  0.9903 -0.1202 -0.0696
              Bcc     0.0000     0.000     0.000     0.000  0.0467 -0.1839  0.9818
 
              Baa    -0.0000    -0.000    -0.000    -0.000 -0.6634  0.7470  0.0427
    14 C(13)  Bbb     0.0000     0.000     0.000     0.000  0.7463  0.6647 -0.0350
              Bcc     0.0000     0.000     0.000     0.000  0.0545 -0.0086  0.9985
 
              Baa    -0.0000    -0.000    -0.000    -0.000  0.5946  0.7616  0.2578
    15 C(13)  Bbb    -0.0000    -0.000    -0.000    -0.000 -0.1875 -0.1805  0.9655
              Bcc     0.0000     0.000     0.000     0.000  0.7819 -0.6224  0.0354
 
              Baa    -0.0000    -0.000    -0.000    -0.000  0.9971  0.0761  0.0052
    16 N(14)  Bbb     0.0000     0.000     0.000     0.000 -0.0010 -0.0553  0.9985
              Bcc     0.0000     0.000     0.000     0.000 -0.0763  0.9956  0.0551
 
              Baa    -0.0000    -0.000    -0.000    -0.000  0.0102  0.0001  0.9999
    17 C(13)  Bbb     0.0000     0.000     0.000     0.000 -0.4681  0.8837  0.0047
              Bcc     0.0000     0.000     0.000     0.000  0.8836  0.4681 -0.0091
 
              Baa    -0.0000    -0.000    -0.000    -0.000 -0.1441  0.9896  0.0037
    18 C(13)  Bbb     0.0000     0.000     0.000     0.000  0.9730  0.1410  0.1827
              Bcc     0.0000     0.000     0.000     0.000 -0.1803 -0.0299  0.9832
 
              Baa    -0.0000     0.000     0.000     0.000  0.8896  0.3121  0.3336
    19 O(17)  Bbb    -0.0000     0.000     0.000     0.000 -0.2373 -0.3082  0.9213
              Bcc     0.0000    -0.000    -0.000    -0.000 -0.3903  0.8987  0.2000
 
              Baa    -0.0000    -0.000    -0.000    -0.000 -0.5160  0.7070 -0.4837
    20 C(13)  Bbb    -0.0000    -0.000    -0.000    -0.000 -0.2033  0.4475  0.8709
              Bcc     0.0000     0.000     0.000     0.000  0.8321  0.5477 -0.0872
 
              Baa    -0.0000    -0.000    -0.000    -0.000 -0.0007  0.9830  0.1836
    21 C(13)  Bbb     0.0000     0.000     0.000     0.000  0.0311 -0.1835  0.9825
              Bcc     0.0000     0.000     0.000     0.000  0.9995  0.0064 -0.0304
 
              Baa    -0.0000    -0.000    -0.000    -0.000  0.9664  0.2367  0.1002
    22 C(13)  Bbb    -0.0000    -0.000    -0.000    -0.000 -0.0749 -0.1135  0.9907
              Bcc     0.0000     0.000     0.000     0.000 -0.2459  0.9649  0.0920
 
              Baa    -0.0000    -0.000    -0.000    -0.000 -0.2019  0.9779  0.0543
    23 N(14)  Bbb    -0.0000    -0.000    -0.000    -0.000  0.9794  0.2016  0.0104
              Bcc     0.0000     0.000     0.000     0.000  0.0007 -0.0553  0.9985
 
              Baa    -0.0000    -0.000    -0.000    -0.000 -0.1367 -0.1814  0.9739
    24 C(13)  Bbb    -0.0000    -0.000    -0.000    -0.000  0.3649  0.9047  0.2197
              Bcc     0.0000     0.000     0.000     0.000  0.9209 -0.3854  0.0574
 
              Baa    -0.0000    -0.000    -0.000    -0.000  0.0143  0.0441  0.9989
    25 C(13)  Bbb     0.0000     0.000     0.000     0.000 -0.6572  0.7533 -0.0238
              Bcc     0.0000     0.000     0.000     0.000  0.7536  0.6562 -0.0398
 
              Baa    -0.0000    -0.000    -0.000    -0.000 -0.1819  0.9710 -0.1548
    26 S(33)  Bbb    -0.0000    -0.000    -0.000    -0.000 -0.0058  0.1564  0.9877
              Bcc     0.0000     0.000     0.000     0.000  0.9833  0.1806 -0.0228
 
              Baa    -0.0000    -0.000    -0.000    -0.000 -0.0842  0.2379  0.9676
    27 C(13)  Bbb     0.0000     0.000     0.000     0.000  0.9735  0.2268  0.0289
              Bcc     0.0000     0.000     0.000     0.000 -0.2125  0.9445 -0.2507
 
              Baa    -0.0000    -0.000    -0.000    -0.000  0.9285 -0.3413  0.1464
    28 C(13)  Bbb    -0.0000    -0.000    -0.000    -0.000 -0.0138  0.3623  0.9320
              Bcc     0.0000     0.000     0.000     0.000  0.3711  0.8673 -0.3317
 
              Baa    -0.0000    -0.000    -0.000    -0.000  0.0414 -0.5257  0.8497
    29 N(14)  Bbb     0.0000     0.000     0.000     0.000  0.9592 -0.2171 -0.1810
              Bcc     0.0000     0.000     0.000     0.000  0.2797  0.8225  0.4952
 
              Baa    -0.0000    -0.000    -0.000    -0.000 -0.0298  0.2763  0.9606
    30 C(13)  Bbb     0.0000     0.000     0.000     0.000 -0.0874  0.9566 -0.2778
              Bcc     0.0000     0.000     0.000     0.000  0.9957  0.0923  0.0044
 
              Baa    -0.0000    -0.000    -0.000    -0.000 -0.1862  0.9605 -0.2069
    31 C(13)  Bbb     0.0000     0.000     0.000     0.000  0.6845  0.2779  0.6740
              Bcc     0.0000     0.000     0.000     0.000 -0.7049  0.0161  0.7092
 
              Baa    -0.0000     0.000     0.000     0.000 -0.4319 -0.4964  0.7530
    32 O(17)  Bbb    -0.0000     0.000     0.000     0.000  0.6474  0.4107  0.6421
              Bcc     0.0000    -0.000    -0.000    -0.000 -0.6280  0.7648  0.1440
 
              Baa    -0.0000    -0.000    -0.000    -0.000  0.8360 -0.1206  0.5353
    33 C(13)  Bbb    -0.0000    -0.000    -0.000    -0.000 -0.4527  0.3997  0.7971
              Bcc     0.0000     0.000     0.000     0.000  0.3101  0.9087 -0.2796
 
              Baa    -0.0000    -0.000    -0.000    -0.000  0.3319  0.2517  0.9091
    34 C(13)  Bbb    -0.0000    -0.000    -0.000    -0.000  0.5432  0.7369 -0.4023
              Bcc     0.0000     0.000     0.000     0.000  0.7712 -0.6274 -0.1079
 
              Baa    -0.0000    -0.000    -0.000    -0.000 -0.3142  0.9493 -0.0110
    35 C(13)  Bbb     0.0000     0.000     0.000     0.000  0.8685  0.2921  0.4005
              Bcc     0.0000     0.000     0.000     0.000 -0.3834 -0.1163  0.9163
 
              Baa    -0.0000    -0.000    -0.000    -0.000 -0.1842  0.4570  0.8702
    36 N(14)  Bbb    -0.0000    -0.000    -0.000    -0.000  0.9550 -0.1260  0.2684
              Bcc     0.0000     0.000     0.000     0.000  0.2323  0.8805 -0.4133
 
              Baa    -0.0000    -0.000    -0.000    -0.000 -0.0262  0.8824 -0.4698
    37 C(13)  Bbb    -0.0000    -0.000    -0.000    -0.000 -0.1104  0.4646  0.8786
              Bcc     0.0000     0.000     0.000     0.000  0.9935  0.0749  0.0853
 
              Baa    -0.0000    -0.000    -0.000    -0.000 -0.3431  0.4568  0.8208
    38 C(13)  Bbb     0.0000     0.000     0.000     0.000 -0.3764  0.7337 -0.5657
              Bcc     0.0000     0.000     0.000     0.000  0.8606  0.5030  0.0798
 
              Baa    -0.0000    -0.000    -0.000    -0.000  0.0267  0.9970 -0.0733
    39 S(33)  Bbb     0.0000     0.000     0.000     0.000  0.9541 -0.0473 -0.2956
              Bcc     0.0000     0.000     0.000     0.000  0.2982  0.0621  0.9525
 
              Baa    -0.0000    -0.000    -0.000    -0.000  0.7546 -0.6393 -0.1479
    40 H(1)   Bbb    -0.0000    -0.000    -0.000    -0.000  0.6240  0.7688 -0.1396
              Bcc     0.0000     0.000     0.000     0.000  0.2030  0.0131  0.9791
 
              Baa    -0.0000    -0.000    -0.000    -0.000  0.1454  0.8558  0.4965
    41 H(1)   Bbb     0.0000     0.000     0.000     0.000  0.9893 -0.1182 -0.0859
              Bcc     0.0000     0.000     0.000     0.000  0.0148 -0.5037  0.8638
 
              Baa    -0.0000    -0.000    -0.000    -0.000 -0.0961 -0.3956  0.9134
    42 H(1)   Bbb    -0.0000    -0.000    -0.000    -0.000 -0.1435  0.9135  0.3806
              Bcc     0.0000     0.000     0.000     0.000  0.9850  0.0945  0.1445
 
              Baa    -0.0000    -0.000    -0.000    -0.000  0.3040  0.4183  0.8559
    43 H(1)   Bbb     0.0000     0.000     0.000     0.000  0.8809  0.2187 -0.4197
              Bcc     0.0000     0.000     0.000     0.000 -0.3628  0.8816 -0.3020
 
              Baa    -0.0000    -0.000    -0.000    -0.000 -0.3321  0.8735 -0.3559
    44 H(1)   Bbb     0.0000     0.000     0.000     0.000  0.0636  0.3972  0.9155
              Bcc     0.0000     0.000     0.000     0.000  0.9411  0.2814 -0.1875
 
              Baa    -0.0000    -0.000    -0.000    -0.000  0.8727 -0.4678 -0.1396
    45 H(1)   Bbb     0.0000     0.000     0.000     0.000  0.3957  0.5103  0.7635
              Bcc     0.0000     0.000     0.000     0.000  0.2859  0.7216 -0.6305
 
              Baa    -0.0000    -0.000    -0.000    -0.000  0.0680 -0.1159  0.9909
    46 H(1)   Bbb    -0.0000    -0.000    -0.000    -0.000  0.9166 -0.3851 -0.1079
              Bcc     0.0000     0.000     0.000     0.000  0.3941  0.9156  0.0800
 
              Baa    -0.0000    -0.000    -0.000    -0.000  0.2865  0.9574 -0.0366
    47 H(1)   Bbb     0.0000     0.000     0.000     0.000 -0.2299  0.1058  0.9674
              Bcc     0.0000     0.000     0.000     0.000  0.9301 -0.2687  0.2504
 
              Baa    -0.0000    -0.000    -0.000    -0.000  0.1619  0.3941  0.9047
    48 H(1)   Bbb    -0.0000    -0.000    -0.000    -0.000 -0.3388  0.8833 -0.3241
              Bcc     0.0000     0.000     0.000     0.000  0.9268  0.2540 -0.2765
 
              Baa    -0.0000    -0.000    -0.000    -0.000  0.5682 -0.5016  0.6523
    49 H(1)   Bbb    -0.0000    -0.000    -0.000    -0.000 -0.2861  0.6229  0.7281
              Bcc     0.0000     0.000     0.000     0.000  0.7715  0.6004 -0.2104
 
              Baa    -0.0000    -0.000    -0.000    -0.000  0.2852 -0.6079  0.7410
    50 H(1)   Bbb     0.0000     0.000     0.000     0.000 -0.6061  0.4845  0.6308
              Bcc     0.0000     0.000     0.000     0.000  0.7425  0.6290  0.2302
 
              Baa    -0.0000    -0.000    -0.000    -0.000 -0.3456  0.9212 -0.1786
    51 H(1)   Bbb     0.0000     0.000     0.000     0.000 -0.1316  0.1409  0.9812
              Bcc     0.0000     0.000     0.000     0.000  0.9291  0.3627  0.0725
 
              Baa    -0.0000    -0.000    -0.000    -0.000  0.7675 -0.6398  0.0401
    52 H(1)   Bbb     0.0000     0.000     0.000     0.000 -0.1149 -0.0757  0.9905
              Bcc     0.0000     0.000     0.000     0.000  0.6307  0.7648  0.1316
 
              Baa    -0.0000    -0.000    -0.000    -0.000 -0.6502  0.6586 -0.3788
    53 H(1)   Bbb     0.0000     0.000     0.000     0.000 -0.1866  0.3449  0.9199
              Bcc     0.0000     0.000     0.000     0.000  0.7365  0.6688 -0.1014
 
              Baa    -0.0000    -0.000    -0.000    -0.000 -0.3498  0.8907 -0.2903
    54 H(1)   Bbb     0.0000     0.000     0.000     0.000 -0.4321  0.1215  0.8936
              Bcc     0.0000     0.000     0.000     0.000  0.8312  0.4380  0.3423
 
              Baa    -0.0000    -0.000    -0.000    -0.000  0.5990  0.6931 -0.4009
    55 H(1)   Bbb     0.0000     0.000     0.000     0.000  0.7728 -0.3695  0.5159
              Bcc     0.0000     0.000     0.000     0.000 -0.2095  0.6189  0.7570
 
              Baa    -0.0000    -0.000    -0.000    -0.000  0.9992  0.0395  0.0093
    56 H(1)   Bbb    -0.0000    -0.000    -0.000    -0.000 -0.0391  0.9985 -0.0389
              Bcc     0.0000     0.000     0.000     0.000 -0.0108  0.0385  0.9992
 
              Baa    -0.0000    -0.000    -0.000    -0.000 -0.3100  0.5581  0.7697
    57 H(1)   Bbb    -0.0000    -0.000    -0.000    -0.000  0.9242 -0.0131  0.3817
              Bcc     0.0000     0.000     0.000     0.000  0.2231  0.8297 -0.5117
 
              Baa    -0.0000    -0.000    -0.000    -0.000  0.5048  0.8427 -0.1872
    58 H(1)   Bbb    -0.0000    -0.000    -0.000    -0.000  0.0895  0.1647  0.9823
              Bcc     0.0000     0.000     0.000     0.000  0.8586 -0.5126  0.0077
 
              Baa    -0.0000    -0.000    -0.000    -0.000  0.1010  0.0607  0.9930
    59 H(1)   Bbb    -0.0000    -0.000    -0.000    -0.000 -0.6333  0.7737  0.0172
              Bcc     0.0000     0.000     0.000     0.000  0.7673  0.6307 -0.1165
 

 ---------------------------------------------------------------------------------

 No NMR shielding tensors so no spin-rotation constants.
 Leave Link  601 at Fri Jul 24 23:24:39 2020, MaxMem=  4026531840 cpu:               9.2 elap:               1.6
 (Enter /opt/ohpc/pub/libs/gaussian/g16-A.03/sandybridge/g16/l9999.exe)

 Test job not archived.
 1\1\GINC-SKYLAKE046\FOpt\ULC-wPBE\CC-pVDZ\C27H20N6O3S3\RDU230\24-Jul-2
 020\0\\#P uLC-wPBE/cc-pVDZ iop(3/107=0450200000, 3/108=0450200000) opt
 \\H20 C27 S3 N6 O3\\0,1\C,10.9030367683,1.4258321827,0.9517349524\C,9.
 7133051668,2.0459769009,1.286365795\N,8.5370776936,1.5235131914,0.9775
 753682\C,8.4736360276,0.3696751225,0.3274034211\C,9.6287540071,-0.3364
 694566,-0.0552961475\O,9.4755896032,-1.4949307272,-0.7081697448\C,10.6
 261748214,-2.2006392316,-1.0964063131\C,10.8597186022,0.2200441521,0.2
 726344382\C,7.0993506038,-0.0894214719,0.0518176883\N,6.7329924564,-1.
 1686606699,-0.5628875002\C,5.3744193789,-1.2461419699,-0.6220403006\C,
 4.6837875505,-0.2216107425,-0.047929459\S,5.8007713762,0.9095221487,0.
 6064053392\C,3.2299857155,-0.0454767474,0.0276864152\C,2.6410838494,1.
 2160531766,0.0198696094\N,1.3370316199,1.4107197874,0.0745932947\C,0.5
 186565155,0.370733031,0.1350563402\C,1.0122553263,-0.9438385312,0.1447
 583677\O,0.1054241848,-1.9373805019,0.2123038284\C,0.5537376214,-3.271
 1567229,0.2313506072\C,2.3809995612,-1.1448592165,0.0979390628\C,-0.92
 62560748,0.6908449254,0.1950831036\N,-1.349072791,1.918300742,0.199138
 8181\C,-2.7043227283,1.9692648956,0.2535246391\C,-3.3556629638,0.77316
 64122,0.291199245\S,-2.1916689997,-0.4883594119,0.2560462856\C,-4.7994
 07291,0.5249511177,0.3571182636\C,-5.3233158354,-0.5831745247,1.012579
 7752\N,-6.6204375351,-0.8204993321,1.0895652457\C,-7.4888151017,0.0149
 74536,0.5382164348\C,-7.065204368,1.1707534364,-0.144727397\O,-7.99791
 32372,1.9668420641,-0.679860399\C,-7.5819556718,3.1206880626,-1.364346
 3333\C,-5.7009250778,1.4066398676,-0.2321181918\C,-8.9007241804,-0.376
 3297864,0.7030029633\N,-9.947474585,0.248996284,0.2687026826\C,-11.085
 455504,-0.4216381351,0.6179912869\C,-10.9011285369,-1.5649259317,1.322
 8852703\S,-9.2340102641,-1.8355297541,1.5733673018\H,11.8575867475,1.8
 767568239,1.216788177\H,9.6995874976,2.996407341,1.8210168974\H,11.246
 2794919,-1.6146870164,-1.7903313649\H,10.2708332912,-3.0989114437,-1.6
 075859241\H,11.2319685313,-2.4978852942,-0.2280052849\H,11.7849594095,
 -0.281898319,0.0012241574\H,4.9161896509,-2.0892921363,-1.1354333621\H
 ,3.2609816787,2.1127513847,-0.0437152117\H,1.1127679438,-3.5177490704,
 -0.6821083052\H,-0.3437580248,-3.8927689927,0.2815539688\H,1.180201119
 2,-3.4698634786,1.112056292\H,2.7995260701,-2.1471873167,0.1352917229\
 H,-3.1942816012,2.9404344889,0.2884146619\H,-4.66650874,-1.3027583942,
 1.5043359662\H,-8.4955657067,3.615260617,-1.7035554194\H,-7.0266474976
 ,3.8043684613,-0.7058675151\H,-6.9622919246,2.872648174,-2.2382924893\
 H,-5.3232424232,2.2683139791,-0.7760393852\H,-12.0511079863,-0.0174156
 37,0.3226193466\H,-11.6567402312,-2.2472373421,1.6994650147\\Version=E
 M64L-G16RevA.03\State=1-A\HF=-2788.2756039\S2=0.\S2-1=0.\S2A=0.\RMSD=5
 .464e-09\RMSF=2.177e-06\Dipole=2.51976,-1.2106308,-0.5464169\Quadrupol
 e=33.2468072,-8.3927944,-24.8540128,-14.1061249,1.6471536,-1.7791332\P
 G=C01 [X(C27H20N6O3S3)]\\@


 HICKORY, DICKORY, DOCK
 TWO MICE RAN UP THE CLOCK
 THE CLOCK STRUCK ONE...
 THE OTHER ESCAPED WITH MINOR INJURIES.
 Job cpu time:       1 days  4 hours 23 minutes 16.3 seconds.
 Elapsed time:       0 days  3 hours 37 minutes 58.1 seconds.
 File lengths (MBytes):  RWF=    532 Int=      0 D2E=      0 Chk=     48 Scr=      8
 Normal termination of Gaussian 16 at Fri Jul 24 23:24:40 2020.
