 Entering Gaussian System, Link 0=g16
 Input=mols_65_7_25_n-cOC-N_opt_0.gjf
 Output=mols_65_7_25_n-cOC-N_opt_0.log
 Initial command:
 /opt/ohpc/pub/libs/gaussian/g16-A.03/sandybridge/g16/l1.exe "/mnt/gpfs2_4m/scratch/rdu230/ondemand/projects/dihedral_energies/7trial/wtuning/mols_65_7_25_n-cOC-N/Gau-337818.inp" -scrdir="/mnt/gpfs2_4m/scratch/rdu230/ondemand/projects/dihedral_energies/7trial/wtuning/mols_65_7_25_n-cOC-N/"
 Entering Link 1 = /opt/ohpc/pub/libs/gaussian/g16-A.03/sandybridge/g16/l1.exe PID=    337827.
  
 Copyright (c) 1988,1990,1992,1993,1995,1998,2003,2009,2016,
            Gaussian, Inc.  All Rights Reserved.
  
 This is part of the Gaussian(R) 16 program.  It is based on
 the Gaussian(R) 09 system (copyright 2009, Gaussian, Inc.),
 the Gaussian(R) 03 system (copyright 2003, Gaussian, Inc.),
 the Gaussian(R) 98 system (copyright 1998, Gaussian, Inc.),
 the Gaussian(R) 94 system (copyright 1995, Gaussian, Inc.),
 the Gaussian 92(TM) system (copyright 1992, Gaussian, Inc.),
 the Gaussian 90(TM) system (copyright 1990, Gaussian, Inc.),
 the Gaussian 88(TM) system (copyright 1988, Gaussian, Inc.),
 the Gaussian 86(TM) system (copyright 1986, Carnegie Mellon
 University), and the Gaussian 82(TM) system (copyright 1983,
 Carnegie Mellon University). Gaussian is a federally registered
 trademark of Gaussian, Inc.
  
 This software contains proprietary and confidential information,
 including trade secrets, belonging to Gaussian, Inc.
  
 This software is provided under written license and may be
 used, copied, transmitted, or stored only in accord with that
 written license.
  
 The following legend is applicable only to US Government
 contracts under FAR:
  
                    RESTRICTED RIGHTS LEGEND
  
 Use, reproduction and disclosure by the US Government is
 subject to restrictions as set forth in subparagraphs (a)
 and (c) of the Commercial Computer Software - Restricted
 Rights clause in FAR 52.227-19.
  
 Gaussian, Inc.
 340 Quinnipiac St., Bldg. 40, Wallingford CT 06492
  
  
 ---------------------------------------------------------------
 Warning -- This program may not be used in any manner that
 competes with the business of Gaussian, Inc. or will provide
 assistance to any competitor of Gaussian, Inc.  The licensee
 of this program is prohibited from giving any competitor of
 Gaussian, Inc. access to this program.  By using this program,
 the user acknowledges that Gaussian, Inc. is engaged in the
 business of creating and licensing software in the field of
 computational chemistry and represents and warrants to the
 licensee that it is not a competitor of Gaussian, Inc. and that
 it will not use this program in any manner prohibited above.
 ---------------------------------------------------------------
  

 Cite this work as:
 Gaussian 16, Revision A.03,
 M. J. Frisch, G. W. Trucks, H. B. Schlegel, G. E. Scuseria, 
 M. A. Robb, J. R. Cheeseman, G. Scalmani, V. Barone, 
 G. A. Petersson, H. Nakatsuji, X. Li, M. Caricato, A. V. Marenich, 
 J. Bloino, B. G. Janesko, R. Gomperts, B. Mennucci, H. P. Hratchian, 
 J. V. Ortiz, A. F. Izmaylov, J. L. Sonnenberg, D. Williams-Young, 
 F. Ding, F. Lipparini, F. Egidi, J. Goings, B. Peng, A. Petrone, 
 T. Henderson, D. Ranasinghe, V. G. Zakrzewski, J. Gao, N. Rega, 
 G. Zheng, W. Liang, M. Hada, M. Ehara, K. Toyota, R. Fukuda, 
 J. Hasegawa, M. Ishida, T. Nakajima, Y. Honda, O. Kitao, H. Nakai, 
 T. Vreven, K. Throssell, J. A. Montgomery, Jr., J. E. Peralta, 
 F. Ogliaro, M. J. Bearpark, J. J. Heyd, E. N. Brothers, K. N. Kudin, 
 V. N. Staroverov, T. A. Keith, R. Kobayashi, J. Normand, 
 K. Raghavachari, A. P. Rendell, J. C. Burant, S. S. Iyengar, 
 J. Tomasi, M. Cossi, J. M. Millam, M. Klene, C. Adamo, R. Cammi, 
 J. W. Ochterski, R. L. Martin, K. Morokuma, O. Farkas, 
 J. B. Foresman, and D. J. Fox, Gaussian, Inc., Wallingford CT, 2016.
 
 ******************************************
 Gaussian 16:  EM64L-G16RevA.03 25-Dec-2016
                24-Jul-2020 
 ******************************************
 %mem=30GB
 %nproc=8
 Will use up to    8 processors via shared memory.
 ---------------------------------------------------------------
 #P uLC-wPBE/cc-pVDZ iop(3/107=0172800000, 3/108=0172800000) opt
 ---------------------------------------------------------------
 1/18=20,19=15,26=3,38=1/1,3;
 2/9=110,12=2,17=6,18=5,40=1/2;
 3/5=16,11=2,25=1,30=1,71=1,74=-41,107=172800000,108=172800000,116=2/1,2,3;
 4//1;
 5/5=2,38=5/2;
 6/7=2,8=2,9=2,10=2,28=1/1;
 7//1,2,3,16;
 1/18=20,19=15,26=3/3(2);
 2/9=110/2;
 99//99;
 2/9=110/2;
 3/5=16,11=2,25=1,30=1,71=1,74=-41,107=172800000,108=172800000,116=2/1,2,3;
 4/5=5,16=3,69=1/1;
 5/5=2,38=5/2;
 7//1,2,3,16;
 1/18=20,19=15,26=3/3(-5);
 2/9=110/2;
 6/7=2,8=2,9=2,10=2,19=2,28=1/1;
 99/9=1/99;
 Leave Link    1 at Fri Jul 24 14:42:20 2020, MaxMem=  4026531840 cpu:               1.2 elap:               0.2
 (Enter /opt/ohpc/pub/libs/gaussian/g16-A.03/sandybridge/g16/l101.exe)
 -----------------
 H44 C63 S7 N14 O7
 -----------------
 Symbolic Z-matrix:
 Charge =  0 Multiplicity = 1
 C                     25.99846   2.98649   1.78415 
 C                     25.0571   4.07455   1.93774 
 N                     23.79587   4.00746   1.33687 
 C                     23.53079   2.79794   0.62486 
 C                     24.40204   1.73812   0.49631 
 O                     23.98175   0.70326  -0.26738 
 C                     24.8899  -0.43617  -0.28217 
 C                     25.64454   1.90737   1.11278 
 C                     22.20522   2.82666   0.00612 
 N                     21.74087   3.7908   -0.81543 
 C                     20.37504   3.43852  -1.16185 
 C                     19.86657   2.29749  -0.61703 
 S                     21.01947   1.60511   0.49805 
 C                     18.59145   1.69229  -0.69961 
 C                     17.41709   2.4783   -0.63911 
 N                     16.15471   1.95176  -0.78487 
 C                     16.08816   0.61904  -1.06148 
 C                     17.12193  -0.20056  -1.17363 
 O                     16.95417  -1.59342  -1.35047 
 C                     18.01107  -2.38427  -1.7165 
 C                     18.41951   0.28127  -0.96926 
 C                     14.70064   0.12083  -1.20729 
 N                     14.26346  -0.75028  -2.04283 
 C                     12.9186  -1.05061  -1.95911 
 C                     12.3203  -0.31416  -0.92006 
 S                     13.42459   0.76259  -0.23275 
 C                     10.86144  -0.33882  -0.45817 
 C                     10.07334   0.72874  -0.23456 
 N                     8.81877   0.69048   0.15793 
 C                     8.22325  -0.53377   0.38245 
 C                     8.96596  -1.76037   0.16402 
 O                     8.31485  -2.94406   0.42698 
 C                     8.81975  -4.02409  -0.17712 
 C                     10.25644  -1.64013  -0.23379 
 C                     6.85773  -0.44889   0.82876 
 N                     6.48536   0.30345   1.85561 
 C                     5.08899   0.11056   2.00878 
 C                     4.50059  -0.81914   1.21309 
 S                     5.63241  -1.36604   0.12578 
 C                     3.12707  -1.23876   1.16258 
 C                     2.03925  -0.30277   0.98958 
 N                     0.71497  -0.67387   0.97899 
 C                     0.42659  -1.9958    1.11031 
 C                     1.41821  -2.9813    1.23479 
 O                     0.99514  -4.2993    1.27012 
 C                     1.91171  -5.19683   1.76714 
 C                     2.77307  -2.54343   1.1826 
 C                    -1.02481  -2.24669   1.02032 
 N                    -1.67352  -3.19492   1.76557 
 C                    -3.00475  -3.16445   1.58805 
 C                    -3.38464  -2.18701   0.65255 
 S                    -2.05181  -1.27144   0.07676 
 C                    -4.7901   -1.87236   0.17128 
 C                    -5.70469  -2.94134  -0.05693 
 N                    -6.95273  -2.71379  -0.4506 
 C                    -7.33434  -1.37135  -0.5961 
 C                    -6.50037  -0.26627  -0.34211 
 O                    -6.99529   0.9869   -0.41595 
 C                    -6.18755   1.95934  -0.96377 
 C                    -5.27359  -0.56542   0.12301 
 C                    -8.74369  -1.13247  -1.05735 
 N                    -9.13342  -0.48535  -2.14833 
 C                    -10.44601  -0.47522  -2.2062 
 C                    -11.14155  -0.98937  -1.17339 
 S                    -10.05837  -1.77735  -0.14628 
 C                    -12.67442  -1.00195  -0.93171 
 C                    -13.36866   0.17242  -1.21596 
 N                    -14.74246   0.2026   -0.98632 
 C                    -15.34882  -0.87544  -0.57426 
 C                    -14.72745  -2.05947  -0.19505 
 O                    -15.40159  -3.10539   0.32438 
 C                    -14.93504  -4.36994   0.06366 
 C                    -13.30256  -2.16954  -0.44377 
 C                    -16.82978  -0.75962  -0.41229 
 N                    -17.73757  -1.66942  -0.74666 
 C                    -18.97987  -1.13219  -0.59197 
 C                    -19.14174   0.1861   -0.19943 
 S                    -17.45867   0.77879   0.09957 
 C                    -20.32251   1.04117   0.02196 
 C                    -21.52778   0.4703    0.42551 
 N                    -22.62888   1.09289   0.62585 
 C                    -22.59106   2.43182   0.3495 
 C                    -21.4473   3.12679  -0.01724 
 O                    -21.49438   4.43538  -0.3516 
 C                    -20.415    5.28622   0.11956 
 C                    -20.24603   2.39931  -0.2246 
 C                    -23.8699   3.1437    0.51522 
 N                    -24.0417   4.31675   1.09584 
 C                    -25.37467   4.70441   1.18545 
 C                    -26.27207   3.80732   0.50057 
 S                    -25.39567   2.44254   0.01055 
 H                     26.9687   3.18344   2.29036 
 H                     25.26297   4.9767    2.49935 
 H                     25.78041  -0.22038  -0.80071 
 H                     24.29372  -1.24765  -0.78095 
 H                     25.03956  -0.79999   0.70397 
 H                     26.45783   1.12931   0.96611 
 H                     19.87939   4.14798  -1.86366 
 H                     17.46286   3.55238  -0.45916 
 H                     18.703   -2.47411  -0.96034 
 H                     18.47654  -1.97407  -2.62728 
 H                     17.58355  -3.37028  -2.03255 
 H                     19.26638  -0.26884  -1.04574 
 H                     12.39041  -1.75175  -2.56286 
 H                     10.47293   1.72302  -0.36362 
 H                     8.14306  -4.90165  -0.04481 
 H                     9.7389   -4.34806   0.28809 
 H                     8.95835  -3.89633  -1.30846 
 H                     10.87544  -2.56521  -0.40644 
 H                     4.63725   0.66837   2.85975 
 H                     2.20669   0.78515   0.94612 
 H                     1.38021  -6.15149   2.01372 
 H                     2.25049  -4.87374   2.7999 
 H                     2.65597  -5.4419    1.11594 
 H                     3.52214  -3.29178   1.23771 
 H                    -3.64499  -3.85167   2.09456 
 H                    -5.41676  -3.91219  -0.02353 
 H                    -6.715     2.77476  -1.27481 
 H                    -5.63837   1.50909  -1.90983 
 H                    -5.395     2.2826   -0.26252 
 H                    -4.53434   0.22703   0.35442 
 H                    -10.90728   0.03244  -3.05979 
 H                    -12.9449   1.08641  -1.54692 
 H                    -14.06125  -4.60449   0.66775 
 H                    -15.76599  -5.12653   0.31711 
 H                    -14.65514  -4.54277  -0.96987 
 H                    -12.80083  -3.02329  -0.17336 
 H                    -19.84109  -1.80277  -0.89772 
 H                    -21.58082  -0.57712   0.63423 
 H                    -20.07542   4.91542   1.14135 
 H                    -20.71167   6.27047   0.11845 
 H                    -19.56875   5.12042  -0.58812 
 H                    -19.38346   2.83896  -0.65007 
 H                    -25.70546   5.63395   1.62983 
 H                    -27.31188   3.91367   0.39086 
 
 ITRead=  0  0  0  0  0  0  0  0  0  0  0  0  0  0  0  0  0  0  0  0
 ITRead=  0  0  0  0  0  0  0  0  0  0  0  0  0  0  0  0  0  0  0  0
 ITRead=  0  0  0  0  0  0  0  0  0  0  0  0  0  0  0  0  0  0  0  0
 ITRead=  0  0  0  0  0  0  0  0  0  0  0  0  0  0  0  0  0  0  0  0
 ITRead=  0  0  0  0  0  0  0  0  0  0  0  0  0  0  0  0  0  0  0  0
 ITRead=  0  0  0  0  0  0  0  0  0  0  0  0  0  0  0  0  0  0  0  0
 ITRead=  0  0  0  0  0  0  0  0  0  0  0  0  0  0  0
 MicOpt= -1 -1 -1 -1 -1 -1 -1 -1 -1 -1 -1 -1 -1 -1 -1 -1 -1 -1 -1 -1
 MicOpt= -1 -1 -1 -1 -1 -1 -1 -1 -1 -1 -1 -1 -1 -1 -1 -1 -1 -1 -1 -1
 MicOpt= -1 -1 -1 -1 -1 -1 -1 -1 -1 -1 -1 -1 -1 -1 -1 -1 -1 -1 -1 -1
 MicOpt= -1 -1 -1 -1 -1 -1 -1 -1 -1 -1 -1 -1 -1 -1 -1 -1 -1 -1 -1 -1
 MicOpt= -1 -1 -1 -1 -1 -1 -1 -1 -1 -1 -1 -1 -1 -1 -1 -1 -1 -1 -1 -1
 MicOpt= -1 -1 -1 -1 -1 -1 -1 -1 -1 -1 -1 -1 -1 -1 -1 -1 -1 -1 -1 -1
 MicOpt= -1 -1 -1 -1 -1 -1 -1 -1 -1 -1 -1 -1 -1 -1 -1
 NAtoms=    135 NQM=      135 NQMF=       0 NMMI=      0 NMMIF=      0
                NMic=       0 NMicF=      0.
                    Isotopes and Nuclear Properties:
 (Nuclear quadrupole moments (NQMom) in fm**2, nuclear magnetic moments (NMagM)
  in nuclear magnetons)

  Atom         1           2           3           4           5           6           7           8           9          10
 IAtWgt=          12          12          14          12          12          16          12          12          12          14
 AtmWgt=  12.0000000  12.0000000  14.0030740  12.0000000  12.0000000  15.9949146  12.0000000  12.0000000  12.0000000  14.0030740
 NucSpn=           0           0           2           0           0           0           0           0           0           2
 AtZEff=  -0.0000000  -0.0000000  -0.0000000  -0.0000000  -0.0000000  -0.0000000  -0.0000000  -0.0000000  -0.0000000  -0.0000000
 NQMom=    0.0000000   0.0000000   2.0440000   0.0000000   0.0000000   0.0000000   0.0000000   0.0000000   0.0000000   2.0440000
 NMagM=    0.0000000   0.0000000   0.4037610   0.0000000   0.0000000   0.0000000   0.0000000   0.0000000   0.0000000   0.4037610
 AtZNuc=   6.0000000   6.0000000   7.0000000   6.0000000   6.0000000   8.0000000   6.0000000   6.0000000   6.0000000   7.0000000

  Atom        11          12          13          14          15          16          17          18          19          20
 IAtWgt=          12          12          32          12          12          14          12          12          16          12
 AtmWgt=  12.0000000  12.0000000  31.9720718  12.0000000  12.0000000  14.0030740  12.0000000  12.0000000  15.9949146  12.0000000
 NucSpn=           0           0           0           0           0           2           0           0           0           0
 AtZEff=  -0.0000000  -0.0000000  -0.0000000  -0.0000000  -0.0000000  -0.0000000  -0.0000000  -0.0000000  -0.0000000  -0.0000000
 NQMom=    0.0000000   0.0000000   0.0000000   0.0000000   0.0000000   2.0440000   0.0000000   0.0000000   0.0000000   0.0000000
 NMagM=    0.0000000   0.0000000   0.0000000   0.0000000   0.0000000   0.4037610   0.0000000   0.0000000   0.0000000   0.0000000
 AtZNuc=   6.0000000   6.0000000  16.0000000   6.0000000   6.0000000   7.0000000   6.0000000   6.0000000   8.0000000   6.0000000

  Atom        21          22          23          24          25          26          27          28          29          30
 IAtWgt=          12          12          14          12          12          32          12          12          14          12
 AtmWgt=  12.0000000  12.0000000  14.0030740  12.0000000  12.0000000  31.9720718  12.0000000  12.0000000  14.0030740  12.0000000
 NucSpn=           0           0           2           0           0           0           0           0           2           0
 AtZEff=  -0.0000000  -0.0000000  -0.0000000  -0.0000000  -0.0000000  -0.0000000  -0.0000000  -0.0000000  -0.0000000  -0.0000000
 NQMom=    0.0000000   0.0000000   2.0440000   0.0000000   0.0000000   0.0000000   0.0000000   0.0000000   2.0440000   0.0000000
 NMagM=    0.0000000   0.0000000   0.4037610   0.0000000   0.0000000   0.0000000   0.0000000   0.0000000   0.4037610   0.0000000
 AtZNuc=   6.0000000   6.0000000   7.0000000   6.0000000   6.0000000  16.0000000   6.0000000   6.0000000   7.0000000   6.0000000

  Atom        31          32          33          34          35          36          37          38          39          40
 IAtWgt=          12          16          12          12          12          14          12          12          32          12
 AtmWgt=  12.0000000  15.9949146  12.0000000  12.0000000  12.0000000  14.0030740  12.0000000  12.0000000  31.9720718  12.0000000
 NucSpn=           0           0           0           0           0           2           0           0           0           0
 AtZEff=  -0.0000000  -0.0000000  -0.0000000  -0.0000000  -0.0000000  -0.0000000  -0.0000000  -0.0000000  -0.0000000  -0.0000000
 NQMom=    0.0000000   0.0000000   0.0000000   0.0000000   0.0000000   2.0440000   0.0000000   0.0000000   0.0000000   0.0000000
 NMagM=    0.0000000   0.0000000   0.0000000   0.0000000   0.0000000   0.4037610   0.0000000   0.0000000   0.0000000   0.0000000
 AtZNuc=   6.0000000   8.0000000   6.0000000   6.0000000   6.0000000   7.0000000   6.0000000   6.0000000  16.0000000   6.0000000

  Atom        41          42          43          44          45          46          47          48          49          50
 IAtWgt=          12          14          12          12          16          12          12          12          14          12
 AtmWgt=  12.0000000  14.0030740  12.0000000  12.0000000  15.9949146  12.0000000  12.0000000  12.0000000  14.0030740  12.0000000
 NucSpn=           0           2           0           0           0           0           0           0           2           0
 AtZEff=  -0.0000000  -0.0000000  -0.0000000  -0.0000000  -0.0000000  -0.0000000  -0.0000000  -0.0000000  -0.0000000  -0.0000000
 NQMom=    0.0000000   2.0440000   0.0000000   0.0000000   0.0000000   0.0000000   0.0000000   0.0000000   2.0440000   0.0000000
 NMagM=    0.0000000   0.4037610   0.0000000   0.0000000   0.0000000   0.0000000   0.0000000   0.0000000   0.4037610   0.0000000
 AtZNuc=   6.0000000   7.0000000   6.0000000   6.0000000   8.0000000   6.0000000   6.0000000   6.0000000   7.0000000   6.0000000

  Atom        51          52          53          54          55          56          57          58          59          60
 IAtWgt=          12          32          12          12          14          12          12          16          12          12
 AtmWgt=  12.0000000  31.9720718  12.0000000  12.0000000  14.0030740  12.0000000  12.0000000  15.9949146  12.0000000  12.0000000
 NucSpn=           0           0           0           0           2           0           0           0           0           0
 AtZEff=  -0.0000000  -0.0000000  -0.0000000  -0.0000000  -0.0000000  -0.0000000  -0.0000000  -0.0000000  -0.0000000  -0.0000000
 NQMom=    0.0000000   0.0000000   0.0000000   0.0000000   2.0440000   0.0000000   0.0000000   0.0000000   0.0000000   0.0000000
 NMagM=    0.0000000   0.0000000   0.0000000   0.0000000   0.4037610   0.0000000   0.0000000   0.0000000   0.0000000   0.0000000
 AtZNuc=   6.0000000  16.0000000   6.0000000   6.0000000   7.0000000   6.0000000   6.0000000   8.0000000   6.0000000   6.0000000

  Atom        61          62          63          64          65          66          67          68          69          70
 IAtWgt=          12          14          12          12          32          12          12          14          12          12
 AtmWgt=  12.0000000  14.0030740  12.0000000  12.0000000  31.9720718  12.0000000  12.0000000  14.0030740  12.0000000  12.0000000
 NucSpn=           0           2           0           0           0           0           0           2           0           0
 AtZEff=  -0.0000000  -0.0000000  -0.0000000  -0.0000000  -0.0000000  -0.0000000  -0.0000000  -0.0000000  -0.0000000  -0.0000000
 NQMom=    0.0000000   2.0440000   0.0000000   0.0000000   0.0000000   0.0000000   0.0000000   2.0440000   0.0000000   0.0000000
 NMagM=    0.0000000   0.4037610   0.0000000   0.0000000   0.0000000   0.0000000   0.0000000   0.4037610   0.0000000   0.0000000
 AtZNuc=   6.0000000   7.0000000   6.0000000   6.0000000  16.0000000   6.0000000   6.0000000   7.0000000   6.0000000   6.0000000

  Atom        71          72          73          74          75          76          77          78          79          80
 IAtWgt=          16          12          12          12          14          12          12          32          12          12
 AtmWgt=  15.9949146  12.0000000  12.0000000  12.0000000  14.0030740  12.0000000  12.0000000  31.9720718  12.0000000  12.0000000
 NucSpn=           0           0           0           0           2           0           0           0           0           0
 AtZEff=  -0.0000000  -0.0000000  -0.0000000  -0.0000000  -0.0000000  -0.0000000  -0.0000000  -0.0000000  -0.0000000  -0.0000000
 NQMom=    0.0000000   0.0000000   0.0000000   0.0000000   2.0440000   0.0000000   0.0000000   0.0000000   0.0000000   0.0000000
 NMagM=    0.0000000   0.0000000   0.0000000   0.0000000   0.4037610   0.0000000   0.0000000   0.0000000   0.0000000   0.0000000
 AtZNuc=   8.0000000   6.0000000   6.0000000   6.0000000   7.0000000   6.0000000   6.0000000  16.0000000   6.0000000   6.0000000

  Atom        81          82          83          84          85          86          87          88          89          90
 IAtWgt=          14          12          12          16          12          12          12          14          12          12
 AtmWgt=  14.0030740  12.0000000  12.0000000  15.9949146  12.0000000  12.0000000  12.0000000  14.0030740  12.0000000  12.0000000
 NucSpn=           2           0           0           0           0           0           0           2           0           0
 AtZEff=  -0.0000000  -0.0000000  -0.0000000  -0.0000000  -0.0000000  -0.0000000  -0.0000000  -0.0000000  -0.0000000  -0.0000000
 NQMom=    2.0440000   0.0000000   0.0000000   0.0000000   0.0000000   0.0000000   0.0000000   2.0440000   0.0000000   0.0000000
 NMagM=    0.4037610   0.0000000   0.0000000   0.0000000   0.0000000   0.0000000   0.0000000   0.4037610   0.0000000   0.0000000
 AtZNuc=   7.0000000   6.0000000   6.0000000   8.0000000   6.0000000   6.0000000   6.0000000   7.0000000   6.0000000   6.0000000

  Atom        91          92          93          94          95          96          97          98          99         100
 IAtWgt=          32           1           1           1           1           1           1           1           1           1
 AtmWgt=  31.9720718   1.0078250   1.0078250   1.0078250   1.0078250   1.0078250   1.0078250   1.0078250   1.0078250   1.0078250
 NucSpn=           0           1           1           1           1           1           1           1           1           1
 AtZEff=  -0.0000000  -0.0000000  -0.0000000  -0.0000000  -0.0000000  -0.0000000  -0.0000000  -0.0000000  -0.0000000  -0.0000000
 NQMom=    0.0000000   0.0000000   0.0000000   0.0000000   0.0000000   0.0000000   0.0000000   0.0000000   0.0000000   0.0000000
 NMagM=    0.0000000   2.7928460   2.7928460   2.7928460   2.7928460   2.7928460   2.7928460   2.7928460   2.7928460   2.7928460
 AtZNuc=  16.0000000   1.0000000   1.0000000   1.0000000   1.0000000   1.0000000   1.0000000   1.0000000   1.0000000   1.0000000

  Atom       101         102         103         104         105         106         107         108         109         110
 IAtWgt=           1           1           1           1           1           1           1           1           1           1
 AtmWgt=   1.0078250   1.0078250   1.0078250   1.0078250   1.0078250   1.0078250   1.0078250   1.0078250   1.0078250   1.0078250
 NucSpn=           1           1           1           1           1           1           1           1           1           1
 AtZEff=  -0.0000000  -0.0000000  -0.0000000  -0.0000000  -0.0000000  -0.0000000  -0.0000000  -0.0000000  -0.0000000  -0.0000000
 NQMom=    0.0000000   0.0000000   0.0000000   0.0000000   0.0000000   0.0000000   0.0000000   0.0000000   0.0000000   0.0000000
 NMagM=    2.7928460   2.7928460   2.7928460   2.7928460   2.7928460   2.7928460   2.7928460   2.7928460   2.7928460   2.7928460
 AtZNuc=   1.0000000   1.0000000   1.0000000   1.0000000   1.0000000   1.0000000   1.0000000   1.0000000   1.0000000   1.0000000

  Atom       111         112         113         114         115         116         117         118         119         120
 IAtWgt=           1           1           1           1           1           1           1           1           1           1
 AtmWgt=   1.0078250   1.0078250   1.0078250   1.0078250   1.0078250   1.0078250   1.0078250   1.0078250   1.0078250   1.0078250
 NucSpn=           1           1           1           1           1           1           1           1           1           1
 AtZEff=  -0.0000000  -0.0000000  -0.0000000  -0.0000000  -0.0000000  -0.0000000  -0.0000000  -0.0000000  -0.0000000  -0.0000000
 NQMom=    0.0000000   0.0000000   0.0000000   0.0000000   0.0000000   0.0000000   0.0000000   0.0000000   0.0000000   0.0000000
 NMagM=    2.7928460   2.7928460   2.7928460   2.7928460   2.7928460   2.7928460   2.7928460   2.7928460   2.7928460   2.7928460
 AtZNuc=   1.0000000   1.0000000   1.0000000   1.0000000   1.0000000   1.0000000   1.0000000   1.0000000   1.0000000   1.0000000

  Atom       121         122         123         124         125         126         127         128         129         130
 IAtWgt=           1           1           1           1           1           1           1           1           1           1
 AtmWgt=   1.0078250   1.0078250   1.0078250   1.0078250   1.0078250   1.0078250   1.0078250   1.0078250   1.0078250   1.0078250
 NucSpn=           1           1           1           1           1           1           1           1           1           1
 AtZEff=  -0.0000000  -0.0000000  -0.0000000  -0.0000000  -0.0000000  -0.0000000  -0.0000000  -0.0000000  -0.0000000  -0.0000000
 NQMom=    0.0000000   0.0000000   0.0000000   0.0000000   0.0000000   0.0000000   0.0000000   0.0000000   0.0000000   0.0000000
 NMagM=    2.7928460   2.7928460   2.7928460   2.7928460   2.7928460   2.7928460   2.7928460   2.7928460   2.7928460   2.7928460
 AtZNuc=   1.0000000   1.0000000   1.0000000   1.0000000   1.0000000   1.0000000   1.0000000   1.0000000   1.0000000   1.0000000

  Atom       131         132         133         134         135
 IAtWgt=           1           1           1           1           1
 AtmWgt=   1.0078250   1.0078250   1.0078250   1.0078250   1.0078250
 NucSpn=           1           1           1           1           1
 AtZEff=  -0.0000000  -0.0000000  -0.0000000  -0.0000000  -0.0000000
 NQMom=    0.0000000   0.0000000   0.0000000   0.0000000   0.0000000
 NMagM=    2.7928460   2.7928460   2.7928460   2.7928460   2.7928460
 AtZNuc=   1.0000000   1.0000000   1.0000000   1.0000000   1.0000000
 Leave Link  101 at Fri Jul 24 14:42:20 2020, MaxMem=  4026531840 cpu:               3.2 elap:               0.4
 (Enter /opt/ohpc/pub/libs/gaussian/g16-A.03/sandybridge/g16/l103.exe)

 GradGradGradGradGradGradGradGradGradGradGradGradGradGradGradGradGradGrad
 Berny optimization.
 Initialization pass.
                           ----------------------------
                           !    Initial Parameters    !
                           ! (Angstroms and Degrees)  !
 --------------------------                            --------------------------
 ! Name  Definition              Value          Derivative Info.                !
 --------------------------------------------------------------------------------
 ! R1    R(1,2)                  1.4469         estimate D2E/DX2                !
 ! R2    R(1,8)                  1.3193         estimate D2E/DX2                !
 ! R3    R(1,92)                 1.1119         estimate D2E/DX2                !
 ! R4    R(2,3)                  1.3987         estimate D2E/DX2                !
 ! R5    R(2,93)                 1.0824         estimate D2E/DX2                !
 ! R6    R(3,4)                  1.4283         estimate D2E/DX2                !
 ! R7    R(4,5)                  1.378          estimate D2E/DX2                !
 ! R8    R(4,9)                  1.4631         estimate D2E/DX2                !
 ! R9    R(5,6)                  1.3531         estimate D2E/DX2                !
 ! R10   R(5,8)                  1.3973         estimate D2E/DX2                !
 ! R11   R(6,7)                  1.4571         estimate D2E/DX2                !
 ! R12   R(7,94)                 1.0528         estimate D2E/DX2                !
 ! R13   R(7,95)                 1.1237         estimate D2E/DX2                !
 ! R14   R(7,96)                 1.0617         estimate D2E/DX2                !
 ! R15   R(8,97)                 1.135          estimate D2E/DX2                !
 ! R16   R(9,10)                 1.3491         estimate D2E/DX2                !
 ! R17   R(9,13)                 1.7721         estimate D2E/DX2                !
 ! R18   R(10,11)                1.4525         estimate D2E/DX2                !
 ! R19   R(11,12)                1.3628         estimate D2E/DX2                !
 ! R20   R(11,98)                1.1142         estimate D2E/DX2                !
 ! R21   R(12,13)                1.747          estimate D2E/DX2                !
 ! R22   R(12,14)                1.4139         estimate D2E/DX2                !
 ! R23   R(14,15)                1.4144         estimate D2E/DX2                !
 ! R24   R(14,21)                1.4468         estimate D2E/DX2                !
 ! R25   R(15,16)                1.3755         estimate D2E/DX2                !
 ! R26   R(15,99)                1.09           estimate D2E/DX2                !
 ! R27   R(16,17)                1.3628         estimate D2E/DX2                !
 ! R28   R(17,18)                1.324          estimate D2E/DX2                !
 ! R29   R(17,22)                1.4814         estimate D2E/DX2                !
 ! R30   R(18,19)                1.414          estimate D2E/DX2                !
 ! R31   R(18,21)                1.3992         estimate D2E/DX2                !
 ! R32   R(19,20)                1.3698         estimate D2E/DX2                !
 ! R33   R(20,100)               1.0289         estimate D2E/DX2                !
 ! R34   R(20,101)               1.102          estimate D2E/DX2                !
 ! R35   R(20,102)               1.1202         estimate D2E/DX2                !
 ! R36   R(21,103)               1.0127         estimate D2E/DX2                !
 ! R37   R(22,23)                1.2838         estimate D2E/DX2                !
 ! R38   R(22,26)                1.7291         estimate D2E/DX2                !
 ! R39   R(23,24)                1.3805         estimate D2E/DX2                !
 ! R40   R(24,25)                1.4071         estimate D2E/DX2                !
 ! R41   R(24,104)               1.0654         estimate D2E/DX2                !
 ! R42   R(25,26)                1.6886         estimate D2E/DX2                !
 ! R43   R(25,27)                1.5304         estimate D2E/DX2                !
 ! R44   R(27,28)                1.3457         estimate D2E/DX2                !
 ! R45   R(27,34)                1.4525         estimate D2E/DX2                !
 ! R46   R(28,29)                1.3151         estimate D2E/DX2                !
 ! R47   R(28,105)               1.0793         estimate D2E/DX2                !
 ! R48   R(29,30)                1.3798         estimate D2E/DX2                !
 ! R49   R(30,31)                1.4505         estimate D2E/DX2                !
 ! R50   R(30,35)                1.4391         estimate D2E/DX2                !
 ! R51   R(31,32)                1.3763         estimate D2E/DX2                !
 ! R52   R(31,34)                1.3558         estimate D2E/DX2                !
 ! R53   R(32,33)                1.3365         estimate D2E/DX2                !
 ! R54   R(33,106)               1.116          estimate D2E/DX2                !
 ! R55   R(33,107)               1.0799         estimate D2E/DX2                !
 ! R56   R(33,108)               1.1469         estimate D2E/DX2                !
 ! R57   R(34,109)               1.1264         estimate D2E/DX2                !
 ! R58   R(35,36)                1.3263         estimate D2E/DX2                !
 ! R59   R(35,39)                1.6843         estimate D2E/DX2                !
 ! R60   R(36,37)                1.4179         estimate D2E/DX2                !
 ! R61   R(37,38)                1.3578         estimate D2E/DX2                !
 ! R62   R(37,110)               1.1133         estimate D2E/DX2                !
 ! R63   R(38,39)                1.662          estimate D2E/DX2                !
 ! R64   R(38,40)                1.4371         estimate D2E/DX2                !
 ! R65   R(40,41)                1.4455         estimate D2E/DX2                !
 ! R66   R(40,47)                1.352          estimate D2E/DX2                !
 ! R67   R(41,42)                1.3753         estimate D2E/DX2                !
 ! R68   R(41,111)               1.1016         estimate D2E/DX2                !
 ! R69   R(42,43)                1.3594         estimate D2E/DX2                !
 ! R70   R(43,44)                1.4036         estimate D2E/DX2                !
 ! R71   R(43,48)                1.4757         estimate D2E/DX2                !
 ! R72   R(44,45)                1.3847         estimate D2E/DX2                !
 ! R73   R(44,47)                1.4248         estimate D2E/DX2                !
 ! R74   R(45,46)                1.3757         estimate D2E/DX2                !
 ! R75   R(46,112)               1.1201         estimate D2E/DX2                !
 ! R76   R(46,113)               1.1339         estimate D2E/DX2                !
 ! R77   R(46,114)               1.0188         estimate D2E/DX2                !
 ! R78   R(47,115)               1.0603         estimate D2E/DX2                !
 ! R79   R(48,49)                1.3694         estimate D2E/DX2                !
 ! R80   R(48,52)                1.7018         estimate D2E/DX2                !
 ! R81   R(49,50)                1.3434         estimate D2E/DX2                !
 ! R82   R(50,51)                1.4053         estimate D2E/DX2                !
 ! R83   R(50,116)               1.0671         estimate D2E/DX2                !
 ! R84   R(51,52)                1.7165         estimate D2E/DX2                !
 ! R85   R(51,53)                1.5185         estimate D2E/DX2                !
 ! R86   R(53,54)                1.4252         estimate D2E/DX2                !
 ! R87   R(53,60)                1.3943         estimate D2E/DX2                !
 ! R88   R(54,55)                1.3283         estimate D2E/DX2                !
 ! R89   R(54,117)               1.0132         estimate D2E/DX2                !
 ! R90   R(55,56)                1.4032         estimate D2E/DX2                !
 ! R91   R(56,57)                1.4076         estimate D2E/DX2                !
 ! R92   R(56,61)                1.502          estimate D2E/DX2                !
 ! R93   R(57,58)                1.3494         estimate D2E/DX2                !
 ! R94   R(57,60)                1.3457         estimate D2E/DX2                !
 ! R95   R(58,59)                1.3778         estimate D2E/DX2                !
 ! R96   R(59,118)               1.0197         estimate D2E/DX2                !
 ! R97   R(59,119)               1.1829         estimate D2E/DX2                !
 ! R98   R(59,120)               1.1065         estimate D2E/DX2                !
 ! R99   R(60,121)               1.1082         estimate D2E/DX2                !
 ! R100  R(61,62)                1.327          estimate D2E/DX2                !
 ! R101  R(61,65)                1.7246         estimate D2E/DX2                !
 ! R102  R(62,63)                1.3139         estimate D2E/DX2                !
 ! R103  R(63,64)                1.3472         estimate D2E/DX2                !
 ! R104  R(63,122)               1.095          estimate D2E/DX2                !
 ! R105  R(64,65)                1.6879         estimate D2E/DX2                !
 ! R106  R(64,66)                1.5519         estimate D2E/DX2                !
 ! R107  R(66,67)                1.3935         estimate D2E/DX2                !
 ! R108  R(66,73)                1.4128         estimate D2E/DX2                !
 ! R109  R(67,68)                1.3932         estimate D2E/DX2                !
 ! R110  R(67,123)               1.0604         estimate D2E/DX2                !
 ! R111  R(68,69)                1.3037         estimate D2E/DX2                !
 ! R112  R(69,70)                1.3899         estimate D2E/DX2                !
 ! R113  R(69,74)                1.4943         estimate D2E/DX2                !
 ! R114  R(70,71)                1.3484         estimate D2E/DX2                !
 ! R115  R(70,73)                1.4506         estimate D2E/DX2                !
 ! R116  R(71,72)                1.3728         estimate D2E/DX2                !
 ! R117  R(72,124)               1.0879         estimate D2E/DX2                !
 ! R118  R(72,125)               1.152          estimate D2E/DX2                !
 ! R119  R(72,126)               1.0846         estimate D2E/DX2                !
 ! R120  R(73,127)               1.0265         estimate D2E/DX2                !
 ! R121  R(74,75)                1.328          estimate D2E/DX2                !
 ! R122  R(74,78)                1.739          estimate D2E/DX2                !
 ! R123  R(75,76)                1.3623         estimate D2E/DX2                !
 ! R124  R(76,77)                1.385          estimate D2E/DX2                !
 ! R125  R(76,128)               1.1335         estimate D2E/DX2                !
 ! R126  R(77,78)                1.8093         estimate D2E/DX2                !
 ! R127  R(77,79)                1.4746         estimate D2E/DX2                !
 ! R128  R(79,80)                1.3933         estimate D2E/DX2                !
 ! R129  R(79,86)                1.3825         estimate D2E/DX2                !
 ! R130  R(80,81)                1.2807         estimate D2E/DX2                !
 ! R131  R(80,129)               1.0693         estimate D2E/DX2                !
 ! R132  R(81,82)                1.3677         estimate D2E/DX2                !
 ! R133  R(82,83)                1.3877         estimate D2E/DX2                !
 ! R134  R(82,87)                1.473          estimate D2E/DX2                !
 ! R135  R(83,84)                1.3515         estimate D2E/DX2                !
 ! R136  R(83,86)                1.4196         estimate D2E/DX2                !
 ! R137  R(84,85)                1.4529         estimate D2E/DX2                !
 ! R138  R(85,130)               1.1388         estimate D2E/DX2                !
 ! R139  R(85,131)               1.028          estimate D2E/DX2                !
 ! R140  R(85,132)               1.1155         estimate D2E/DX2                !
 ! R141  R(86,133)               1.0575         estimate D2E/DX2                !
 ! R142  R(87,88)                1.3201         estimate D2E/DX2                !
 ! R143  R(87,91)                1.7534         estimate D2E/DX2                !
 ! R144  R(88,89)                1.3911         estimate D2E/DX2                !
 ! R145  R(89,90)                1.4419         estimate D2E/DX2                !
 ! R146  R(89,134)               1.0821         estimate D2E/DX2                !
 ! R147  R(90,91)                1.6943         estimate D2E/DX2                !
 ! R148  R(90,135)               1.051          estimate D2E/DX2                !
 ! A1    A(2,1,8)              119.6414         estimate D2E/DX2                !
 ! A2    A(2,1,92)             112.7163         estimate D2E/DX2                !
 ! A3    A(8,1,92)             127.6354         estimate D2E/DX2                !
 ! A4    A(1,2,3)              120.3308         estimate D2E/DX2                !
 ! A5    A(1,2,93)             123.9221         estimate D2E/DX2                !
 ! A6    A(3,2,93)             115.7459         estimate D2E/DX2                !
 ! A7    A(2,3,4)              114.9686         estimate D2E/DX2                !
 ! A8    A(3,4,5)              125.4822         estimate D2E/DX2                !
 ! A9    A(3,4,9)              111.2425         estimate D2E/DX2                !
 ! A10   A(5,4,9)              123.2614         estimate D2E/DX2                !
 ! A11   A(4,5,6)              116.3915         estimate D2E/DX2                !
 ! A12   A(4,5,8)              115.3346         estimate D2E/DX2                !
 ! A13   A(6,5,8)              128.1587         estimate D2E/DX2                !
 ! A14   A(5,6,7)              114.2182         estimate D2E/DX2                !
 ! A15   A(6,7,94)             111.8314         estimate D2E/DX2                !
 ! A16   A(6,7,95)             103.8002         estimate D2E/DX2                !
 ! A17   A(6,7,96)             110.266          estimate D2E/DX2                !
 ! A18   A(94,7,95)            112.2195         estimate D2E/DX2                !
 ! A19   A(94,7,96)            114.1086         estimate D2E/DX2                !
 ! A20   A(95,7,96)            103.863          estimate D2E/DX2                !
 ! A21   A(1,8,5)              124.2032         estimate D2E/DX2                !
 ! A22   A(1,8,97)             115.7366         estimate D2E/DX2                !
 ! A23   A(5,8,97)             119.809          estimate D2E/DX2                !
 ! A24   A(4,9,10)             125.6877         estimate D2E/DX2                !
 ! A25   A(4,9,13)             118.3787         estimate D2E/DX2                !
 ! A26   A(10,9,13)            115.5544         estimate D2E/DX2                !
 ! A27   A(9,10,11)            107.1919         estimate D2E/DX2                !
 ! A28   A(10,11,12)           117.2946         estimate D2E/DX2                !
 ! A29   A(10,11,98)           114.4622         estimate D2E/DX2                !
 ! A30   A(12,11,98)           128.2378         estimate D2E/DX2                !
 ! A31   A(11,12,13)           109.9238         estimate D2E/DX2                !
 ! A32   A(11,12,14)           132.1843         estimate D2E/DX2                !
 ! A33   A(13,12,14)           117.5683         estimate D2E/DX2                !
 ! A34   A(9,13,12)             89.4955         estimate D2E/DX2                !
 ! A35   A(12,14,15)           120.5592         estimate D2E/DX2                !
 ! A36   A(12,14,21)           122.3792         estimate D2E/DX2                !
 ! A37   A(15,14,21)           116.8251         estimate D2E/DX2                !
 ! A38   A(14,15,16)           123.0055         estimate D2E/DX2                !
 ! A39   A(14,15,99)           121.3182         estimate D2E/DX2                !
 ! A40   A(16,15,99)           115.6723         estimate D2E/DX2                !
 ! A41   A(15,16,17)           116.1471         estimate D2E/DX2                !
 ! A42   A(16,17,18)           125.7643         estimate D2E/DX2                !
 ! A43   A(16,17,22)           113.2408         estimate D2E/DX2                !
 ! A44   A(18,17,22)           120.9824         estimate D2E/DX2                !
 ! A45   A(17,18,19)           121.8513         estimate D2E/DX2                !
 ! A46   A(17,18,21)           119.9047         estimate D2E/DX2                !
 ! A47   A(19,18,21)           117.8729         estimate D2E/DX2                !
 ! A48   A(18,19,20)           120.7013         estimate D2E/DX2                !
 ! A49   A(19,20,100)          111.8946         estimate D2E/DX2                !
 ! A50   A(19,20,101)          109.3797         estimate D2E/DX2                !
 ! A51   A(19,20,102)          106.8036         estimate D2E/DX2                !
 ! A52   A(100,20,101)         110.8454         estimate D2E/DX2                !
 ! A53   A(100,20,102)         112.7774         estimate D2E/DX2                !
 ! A54   A(101,20,102)         104.8122         estimate D2E/DX2                !
 ! A55   A(14,21,18)           118.2479         estimate D2E/DX2                !
 ! A56   A(14,21,103)          116.388          estimate D2E/DX2                !
 ! A57   A(18,21,103)          125.269          estimate D2E/DX2                !
 ! A58   A(17,22,23)           127.6763         estimate D2E/DX2                !
 ! A59   A(17,22,26)           120.724          estimate D2E/DX2                !
 ! A60   A(23,22,26)           111.5521         estimate D2E/DX2                !
 ! A61   A(22,23,24)           116.0966         estimate D2E/DX2                !
 ! A62   A(23,24,25)           110.1902         estimate D2E/DX2                !
 ! A63   A(23,24,104)          126.2813         estimate D2E/DX2                !
 ! A64   A(25,24,104)          123.5109         estimate D2E/DX2                !
 ! A65   A(24,25,26)           110.8697         estimate D2E/DX2                !
 ! A66   A(24,25,27)           128.2973         estimate D2E/DX2                !
 ! A67   A(26,25,27)           120.7188         estimate D2E/DX2                !
 ! A68   A(22,26,25)            90.948          estimate D2E/DX2                !
 ! A69   A(25,27,28)           126.5586         estimate D2E/DX2                !
 ! A70   A(25,27,34)           117.2644         estimate D2E/DX2                !
 ! A71   A(28,27,34)           116.1769         estimate D2E/DX2                !
 ! A72   A(27,28,29)           125.8189         estimate D2E/DX2                !
 ! A73   A(27,28,105)          119.6123         estimate D2E/DX2                !
 ! A74   A(29,28,105)          114.5625         estimate D2E/DX2                !
 ! A75   A(28,29,30)           119.0853         estimate D2E/DX2                !
 ! A76   A(29,30,31)           120.3198         estimate D2E/DX2                !
 ! A77   A(29,30,35)           114.0575         estimate D2E/DX2                !
 ! A78   A(31,30,35)           125.6225         estimate D2E/DX2                !
 ! A79   A(30,31,32)           117.1484         estimate D2E/DX2                !
 ! A80   A(30,31,34)           117.167          estimate D2E/DX2                !
 ! A81   A(32,31,34)           125.6366         estimate D2E/DX2                !
 ! A82   A(31,32,33)           115.4628         estimate D2E/DX2                !
 ! A83   A(32,33,106)          110.6573         estimate D2E/DX2                !
 ! A84   A(32,33,107)          111.6689         estimate D2E/DX2                !
 ! A85   A(32,33,108)          113.6705         estimate D2E/DX2                !
 ! A86   A(106,33,107)         103.2451         estimate D2E/DX2                !
 ! A87   A(106,33,108)         106.1287         estimate D2E/DX2                !
 ! A88   A(107,33,108)         110.8233         estimate D2E/DX2                !
 ! A89   A(27,34,31)           121.4162         estimate D2E/DX2                !
 ! A90   A(27,34,109)          118.8959         estimate D2E/DX2                !
 ! A91   A(31,34,109)          119.6847         estimate D2E/DX2                !
 ! A92   A(30,35,36)           122.6816         estimate D2E/DX2                !
 ! A93   A(30,35,39)           121.9207         estimate D2E/DX2                !
 ! A94   A(36,35,39)           115.3262         estimate D2E/DX2                !
 ! A95   A(35,36,37)           106.437          estimate D2E/DX2                !
 ! A96   A(36,37,38)           117.1675         estimate D2E/DX2                !
 ! A97   A(36,37,110)          114.458          estimate D2E/DX2                !
 ! A98   A(38,37,110)          127.9637         estimate D2E/DX2                !
 ! A99   A(37,38,39)           108.2747         estimate D2E/DX2                !
 ! A100  A(37,38,40)           129.3976         estimate D2E/DX2                !
 ! A101  A(39,38,40)           122.1267         estimate D2E/DX2                !
 ! A102  A(35,39,38)            92.4752         estimate D2E/DX2                !
 ! A103  A(38,40,41)           122.3048         estimate D2E/DX2                !
 ! A104  A(38,40,47)           122.1071         estimate D2E/DX2                !
 ! A105  A(41,40,47)           115.442          estimate D2E/DX2                !
 ! A106  A(40,41,42)           123.4244         estimate D2E/DX2                !
 ! A107  A(40,41,111)          121.9941         estimate D2E/DX2                !
 ! A108  A(42,41,111)          114.3642         estimate D2E/DX2                !
 ! A109  A(41,42,43)           117.7698         estimate D2E/DX2                !
 ! A110  A(42,43,44)           122.7846         estimate D2E/DX2                !
 ! A111  A(42,43,48)           111.5985         estimate D2E/DX2                !
 ! A112  A(44,43,48)           125.5144         estimate D2E/DX2                !
 ! A113  A(43,44,45)           117.0474         estimate D2E/DX2                !
 ! A114  A(43,44,47)           116.9221         estimate D2E/DX2                !
 ! A115  A(45,44,47)           125.7314         estimate D2E/DX2                !
 ! A116  A(44,45,46)           115.2542         estimate D2E/DX2                !
 ! A117  A(45,46,112)          108.6279         estimate D2E/DX2                !
 ! A118  A(45,46,113)          110.0113         estimate D2E/DX2                !
 ! A119  A(45,46,114)          114.3745         estimate D2E/DX2                !
 ! A120  A(112,46,113)         100.6091         estimate D2E/DX2                !
 ! A121  A(112,46,114)         106.3992         estimate D2E/DX2                !
 ! A122  A(113,46,114)         115.6213         estimate D2E/DX2                !
 ! A123  A(40,47,44)           123.0986         estimate D2E/DX2                !
 ! A124  A(40,47,115)          119.795          estimate D2E/DX2                !
 ! A125  A(44,47,115)          116.9354         estimate D2E/DX2                !
 ! A126  A(43,48,49)           123.398          estimate D2E/DX2                !
 ! A127  A(43,48,52)           122.0008         estimate D2E/DX2                !
 ! A128  A(49,48,52)           114.3723         estimate D2E/DX2                !
 ! A129  A(48,49,50)           112.4459         estimate D2E/DX2                !
 ! A130  A(49,50,51)           111.8158         estimate D2E/DX2                !
 ! A131  A(49,50,116)          121.1466         estimate D2E/DX2                !
 ! A132  A(51,50,116)          126.9928         estimate D2E/DX2                !
 ! A133  A(50,51,52)           112.6069         estimate D2E/DX2                !
 ! A134  A(50,51,53)           127.2503         estimate D2E/DX2                !
 ! A135  A(52,51,53)           120.1215         estimate D2E/DX2                !
 ! A136  A(48,52,51)            88.6783         estimate D2E/DX2                !
 ! A137  A(51,53,54)           119.2922         estimate D2E/DX2                !
 ! A138  A(51,53,60)           121.7437         estimate D2E/DX2                !
 ! A139  A(54,53,60)           118.3575         estimate D2E/DX2                !
 ! A140  A(53,54,55)           121.4604         estimate D2E/DX2                !
 ! A141  A(53,54,117)          122.0764         estimate D2E/DX2                !
 ! A142  A(55,54,117)          116.1636         estimate D2E/DX2                !
 ! A143  A(54,55,56)           116.7539         estimate D2E/DX2                !
 ! A144  A(55,56,57)           124.8382         estimate D2E/DX2                !
 ! A145  A(55,56,61)           116.0513         estimate D2E/DX2                !
 ! A146  A(57,56,61)           119.1105         estimate D2E/DX2                !
 ! A147  A(56,57,58)           120.1281         estimate D2E/DX2                !
 ! A148  A(56,57,60)           115.3398         estimate D2E/DX2                !
 ! A149  A(58,57,60)           124.0382         estimate D2E/DX2                !
 ! A150  A(57,58,59)           117.5307         estimate D2E/DX2                !
 ! A151  A(58,59,118)          112.4848         estimate D2E/DX2                !
 ! A152  A(58,59,119)          108.7549         estimate D2E/DX2                !
 ! A153  A(58,59,120)          111.97           estimate D2E/DX2                !
 ! A154  A(118,59,119)         107.4906         estimate D2E/DX2                !
 ! A155  A(118,59,120)         109.2797         estimate D2E/DX2                !
 ! A156  A(119,59,120)         106.5899         estimate D2E/DX2                !
 ! A157  A(53,60,57)           122.4426         estimate D2E/DX2                !
 ! A158  A(53,60,121)          115.5781         estimate D2E/DX2                !
 ! A159  A(57,60,121)          121.4235         estimate D2E/DX2                !
 ! A160  A(56,61,62)           127.2721         estimate D2E/DX2                !
 ! A161  A(56,61,65)           119.576          estimate D2E/DX2                !
 ! A162  A(62,61,65)           113.1277         estimate D2E/DX2                !
 ! A163  A(61,62,63)           109.4736         estimate D2E/DX2                !
 ! A164  A(62,63,64)           118.625          estimate D2E/DX2                !
 ! A165  A(62,63,122)          117.305          estimate D2E/DX2                !
 ! A166  A(64,63,122)          123.8532         estimate D2E/DX2                !
 ! A167  A(63,64,65)           108.262          estimate D2E/DX2                !
 ! A168  A(63,64,66)           129.2328         estimate D2E/DX2                !
 ! A169  A(65,64,66)           122.3655         estimate D2E/DX2                !
 ! A170  A(61,65,64)            89.6087         estimate D2E/DX2                !
 ! A171  A(64,66,67)           116.9684         estimate D2E/DX2                !
 ! A172  A(64,66,73)           119.9776         estimate D2E/DX2                !
 ! A173  A(67,66,73)           123.0539         estimate D2E/DX2                !
 ! A174  A(66,67,68)           118.417          estimate D2E/DX2                !
 ! A175  A(66,67,123)          126.2237         estimate D2E/DX2                !
 ! A176  A(68,67,123)          115.2671         estimate D2E/DX2                !
 ! A177  A(67,68,69)           119.5265         estimate D2E/DX2                !
 ! A178  A(68,69,70)           125.6429         estimate D2E/DX2                !
 ! A179  A(68,69,74)           115.539          estimate D2E/DX2                !
 ! A180  A(70,69,74)           118.6544         estimate D2E/DX2                !
 ! A181  A(69,70,71)           122.8452         estimate D2E/DX2                !
 ! A182  A(69,70,73)           117.1925         estimate D2E/DX2                !
 ! A183  A(71,70,73)           119.8863         estimate D2E/DX2                !
 ! A184  A(70,71,72)           118.1263         estimate D2E/DX2                !
 ! A185  A(71,72,124)          111.4757         estimate D2E/DX2                !
 ! A186  A(71,72,125)          108.5444         estimate D2E/DX2                !
 ! A187  A(71,72,126)          114.5475         estimate D2E/DX2                !
 ! A188  A(124,72,125)         108.3958         estimate D2E/DX2                !
 ! A189  A(124,72,126)         106.7083         estimate D2E/DX2                !
 ! A190  A(125,72,126)         106.9259         estimate D2E/DX2                !
 ! A191  A(66,73,70)           115.6737         estimate D2E/DX2                !
 ! A192  A(66,73,127)          124.1268         estimate D2E/DX2                !
 ! A193  A(70,73,127)          119.87           estimate D2E/DX2                !
 ! A194  A(69,74,75)           126.6613         estimate D2E/DX2                !
 ! A195  A(69,74,78)           117.3148         estimate D2E/DX2                !
 ! A196  A(75,74,78)           115.6554         estimate D2E/DX2                !
 ! A197  A(74,75,76)           108.9415         estimate D2E/DX2                !
 ! A198  A(75,76,77)           120.9394         estimate D2E/DX2                !
 ! A199  A(75,76,128)          115.3996         estimate D2E/DX2                !
 ! A200  A(77,76,128)          123.4185         estimate D2E/DX2                !
 ! A201  A(76,77,78)           104.4731         estimate D2E/DX2                !
 ! A202  A(76,77,79)           133.4792         estimate D2E/DX2                !
 ! A203  A(78,77,79)           122.0146         estimate D2E/DX2                !
 ! A204  A(74,78,77)            89.8837         estimate D2E/DX2                !
 ! A205  A(77,79,80)           119.9054         estimate D2E/DX2                !
 ! A206  A(77,79,86)           119.9073         estimate D2E/DX2                !
 ! A207  A(80,79,86)           120.1331         estimate D2E/DX2                !
 ! A208  A(79,80,81)           126.146          estimate D2E/DX2                !
 ! A209  A(79,80,129)          120.0499         estimate D2E/DX2                !
 ! A210  A(81,80,129)          113.7656         estimate D2E/DX2                !
 ! A211  A(80,81,82)           114.8688         estimate D2E/DX2                !
 ! A212  A(81,82,83)           124.5046         estimate D2E/DX2                !
 ! A213  A(81,82,87)           115.2392         estimate D2E/DX2                !
 ! A214  A(83,82,87)           120.2178         estimate D2E/DX2                !
 ! A215  A(82,83,84)           121.4394         estimate D2E/DX2                !
 ! A216  A(82,83,86)           118.6476         estimate D2E/DX2                !
 ! A217  A(84,83,86)           119.3105         estimate D2E/DX2                !
 ! A218  A(83,84,85)           117.4467         estimate D2E/DX2                !
 ! A219  A(84,85,130)          108.7722         estimate D2E/DX2                !
 ! A220  A(84,85,131)          110.2392         estimate D2E/DX2                !
 ! A221  A(84,85,132)          105.7121         estimate D2E/DX2                !
 ! A222  A(130,85,131)         113.502          estimate D2E/DX2                !
 ! A223  A(130,85,132)         107.1334         estimate D2E/DX2                !
 ! A224  A(131,85,132)         111.1343         estimate D2E/DX2                !
 ! A225  A(79,86,83)           115.5041         estimate D2E/DX2                !
 ! A226  A(79,86,133)          121.6883         estimate D2E/DX2                !
 ! A227  A(83,86,133)          122.4072         estimate D2E/DX2                !
 ! A228  A(82,87,88)           126.2935         estimate D2E/DX2                !
 ! A229  A(82,87,91)           121.9961         estimate D2E/DX2                !
 ! A230  A(88,87,91)           111.635          estimate D2E/DX2                !
 ! A231  A(87,88,89)           113.6197         estimate D2E/DX2                !
 ! A232  A(88,89,90)           113.1033         estimate D2E/DX2                !
 ! A233  A(88,89,134)          123.9695         estimate D2E/DX2                !
 ! A234  A(90,89,134)          122.6322         estimate D2E/DX2                !
 ! A235  A(89,90,91)           108.4567         estimate D2E/DX2                !
 ! A236  A(89,90,135)          127.0403         estimate D2E/DX2                !
 ! A237  A(91,90,135)          124.2681         estimate D2E/DX2                !
 ! A238  A(87,91,90)            92.565          estimate D2E/DX2                !
 ! D1    D(8,1,2,3)             -2.388          estimate D2E/DX2                !
 ! D2    D(8,1,2,93)           178.0269         estimate D2E/DX2                !
 ! D3    D(92,1,2,3)           178.4892         estimate D2E/DX2                !
 ! D4    D(92,1,2,93)           -1.0959         estimate D2E/DX2                !
 ! D5    D(2,1,8,5)              1.3678         estimate D2E/DX2                !
 ! D6    D(2,1,8,97)           175.58           estimate D2E/DX2                !
 ! D7    D(92,1,8,5)          -179.654          estimate D2E/DX2                !
 ! D8    D(92,1,8,97)           -5.4419         estimate D2E/DX2                !
 ! D9    D(1,2,3,4)              1.6965         estimate D2E/DX2                !
 ! D10   D(93,2,3,4)          -178.6857         estimate D2E/DX2                !
 ! D11   D(2,3,4,5)             -0.0693         estimate D2E/DX2                !
 ! D12   D(2,3,4,9)           -178.7462         estimate D2E/DX2                !
 ! D13   D(3,4,5,6)           -177.3362         estimate D2E/DX2                !
 ! D14   D(3,4,5,8)             -0.9158         estimate D2E/DX2                !
 ! D15   D(9,4,5,6)              1.189          estimate D2E/DX2                !
 ! D16   D(9,4,5,8)            177.6093         estimate D2E/DX2                !
 ! D17   D(3,4,9,10)            53.6132         estimate D2E/DX2                !
 ! D18   D(3,4,9,13)          -118.9804         estimate D2E/DX2                !
 ! D19   D(5,4,9,10)          -125.0983         estimate D2E/DX2                !
 ! D20   D(5,4,9,13)            62.308          estimate D2E/DX2                !
 ! D21   D(4,5,6,7)           -175.2045         estimate D2E/DX2                !
 ! D22   D(8,5,6,7)              8.911          estimate D2E/DX2                !
 ! D23   D(4,5,8,1)              0.2291         estimate D2E/DX2                !
 ! D24   D(4,5,8,97)          -173.7614         estimate D2E/DX2                !
 ! D25   D(6,5,8,1)            176.1503         estimate D2E/DX2                !
 ! D26   D(6,5,8,97)             2.1598         estimate D2E/DX2                !
 ! D27   D(5,6,7,94)           -69.6753         estimate D2E/DX2                !
 ! D28   D(5,6,7,95)           169.1345         estimate D2E/DX2                !
 ! D29   D(5,6,7,96)            58.4207         estimate D2E/DX2                !
 ! D30   D(4,9,10,11)         -178.4021         estimate D2E/DX2                !
 ! D31   D(13,9,10,11)          -5.624          estimate D2E/DX2                !
 ! D32   D(4,9,13,12)         -179.5834         estimate D2E/DX2                !
 ! D33   D(10,9,13,12)           7.0808         estimate D2E/DX2                !
 ! D34   D(9,10,11,12)           0.6761         estimate D2E/DX2                !
 ! D35   D(9,10,11,98)        -178.5503         estimate D2E/DX2                !
 ! D36   D(10,11,12,13)          4.4448         estimate D2E/DX2                !
 ! D37   D(10,11,12,14)        177.5772         estimate D2E/DX2                !
 ! D38   D(98,11,12,13)       -176.4517         estimate D2E/DX2                !
 ! D39   D(98,11,12,14)         -3.3193         estimate D2E/DX2                !
 ! D40   D(11,12,13,9)          -6.1051         estimate D2E/DX2                !
 ! D41   D(14,12,13,9)         179.6314         estimate D2E/DX2                !
 ! D42   D(11,12,14,15)        -41.2375         estimate D2E/DX2                !
 ! D43   D(11,12,14,21)        132.9966         estimate D2E/DX2                !
 ! D44   D(13,12,14,15)        131.4768         estimate D2E/DX2                !
 ! D45   D(13,12,14,21)        -54.2891         estimate D2E/DX2                !
 ! D46   D(12,14,15,16)        176.4706         estimate D2E/DX2                !
 ! D47   D(12,14,15,99)         -4.2902         estimate D2E/DX2                !
 ! D48   D(21,14,15,16)          1.9263         estimate D2E/DX2                !
 ! D49   D(21,14,15,99)       -178.8345         estimate D2E/DX2                !
 ! D50   D(12,14,21,18)       -173.3065         estimate D2E/DX2                !
 ! D51   D(12,14,21,103)         3.3377         estimate D2E/DX2                !
 ! D52   D(15,14,21,18)          1.1303         estimate D2E/DX2                !
 ! D53   D(15,14,21,103)       177.7746         estimate D2E/DX2                !
 ! D54   D(14,15,16,17)         -3.1626         estimate D2E/DX2                !
 ! D55   D(99,15,16,17)        177.5586         estimate D2E/DX2                !
 ! D56   D(15,16,17,18)          1.3711         estimate D2E/DX2                !
 ! D57   D(15,16,17,22)       -179.9095         estimate D2E/DX2                !
 ! D58   D(16,17,18,19)        174.5056         estimate D2E/DX2                !
 ! D59   D(16,17,18,21)          1.6488         estimate D2E/DX2                !
 ! D60   D(22,17,18,19)         -4.1219         estimate D2E/DX2                !
 ! D61   D(22,17,18,21)       -176.9787         estimate D2E/DX2                !
 ! D62   D(16,17,22,23)        141.7549         estimate D2E/DX2                !
 ! D63   D(16,17,22,26)        -35.5153         estimate D2E/DX2                !
 ! D64   D(18,17,22,23)        -39.4571         estimate D2E/DX2                !
 ! D65   D(18,17,22,26)        143.2727         estimate D2E/DX2                !
 ! D66   D(17,18,19,20)        167.4814         estimate D2E/DX2                !
 ! D67   D(21,18,19,20)        -19.5227         estimate D2E/DX2                !
 ! D68   D(17,18,21,14)         -2.8524         estimate D2E/DX2                !
 ! D69   D(17,18,21,103)      -179.1701         estimate D2E/DX2                !
 ! D70   D(19,18,21,14)       -175.9899         estimate D2E/DX2                !
 ! D71   D(19,18,21,103)         7.6924         estimate D2E/DX2                !
 ! D72   D(18,19,20,100)        69.7548         estimate D2E/DX2                !
 ! D73   D(18,19,20,101)       -53.4691         estimate D2E/DX2                !
 ! D74   D(18,19,20,102)      -166.3812         estimate D2E/DX2                !
 ! D75   D(17,22,23,24)        179.2944         estimate D2E/DX2                !
 ! D76   D(26,22,23,24)         -3.2285         estimate D2E/DX2                !
 ! D77   D(17,22,26,25)       -177.3092         estimate D2E/DX2                !
 ! D78   D(23,22,26,25)          5.0135         estimate D2E/DX2                !
 ! D79   D(22,23,24,25)         -0.8884         estimate D2E/DX2                !
 ! D80   D(22,23,24,104)      -179.3953         estimate D2E/DX2                !
 ! D81   D(23,24,25,26)          4.662          estimate D2E/DX2                !
 ! D82   D(23,24,25,27)       -179.2549         estimate D2E/DX2                !
 ! D83   D(104,24,25,26)      -176.7816         estimate D2E/DX2                !
 ! D84   D(104,24,25,27)        -0.6984         estimate D2E/DX2                !
 ! D85   D(24,25,26,22)         -5.4068         estimate D2E/DX2                !
 ! D86   D(27,25,26,22)        178.1684         estimate D2E/DX2                !
 ! D87   D(24,25,27,28)       -131.5103         estimate D2E/DX2                !
 ! D88   D(24,25,27,34)         48.569          estimate D2E/DX2                !
 ! D89   D(26,25,27,28)         44.2319         estimate D2E/DX2                !
 ! D90   D(26,25,27,34)       -135.6888         estimate D2E/DX2                !
 ! D91   D(25,27,28,29)        179.7376         estimate D2E/DX2                !
 ! D92   D(25,27,28,105)        -1.23           estimate D2E/DX2                !
 ! D93   D(34,27,28,29)         -0.3409         estimate D2E/DX2                !
 ! D94   D(34,27,28,105)       178.6915         estimate D2E/DX2                !
 ! D95   D(25,27,34,31)       -179.3738         estimate D2E/DX2                !
 ! D96   D(25,27,34,109)        -0.0252         estimate D2E/DX2                !
 ! D97   D(28,27,34,31)          0.6972         estimate D2E/DX2                !
 ! D98   D(28,27,34,109)      -179.9543         estimate D2E/DX2                !
 ! D99   D(27,28,29,30)          0.5827         estimate D2E/DX2                !
 ! D100  D(105,28,29,30)      -178.4924         estimate D2E/DX2                !
 ! D101  D(28,29,30,31)         -1.1199         estimate D2E/DX2                !
 ! D102  D(28,29,30,35)        179.038          estimate D2E/DX2                !
 ! D103  D(29,30,31,32)        179.0697         estimate D2E/DX2                !
 ! D104  D(29,30,31,34)          1.4458         estimate D2E/DX2                !
 ! D105  D(35,30,31,32)         -1.1077         estimate D2E/DX2                !
 ! D106  D(35,30,31,34)       -178.7315         estimate D2E/DX2                !
 ! D107  D(29,30,35,36)        -51.7075         estimate D2E/DX2                !
 ! D108  D(29,30,35,39)        131.5115         estimate D2E/DX2                !
 ! D109  D(31,30,35,36)        128.4602         estimate D2E/DX2                !
 ! D110  D(31,30,35,39)        -48.3208         estimate D2E/DX2                !
 ! D111  D(30,31,32,33)        158.7334         estimate D2E/DX2                !
 ! D112  D(34,31,32,33)        -23.8679         estimate D2E/DX2                !
 ! D113  D(30,31,34,27)         -1.2265         estimate D2E/DX2                !
 ! D114  D(30,31,34,109)       179.43           estimate D2E/DX2                !
 ! D115  D(32,31,34,27)       -178.6248         estimate D2E/DX2                !
 ! D116  D(32,31,34,109)         2.0317         estimate D2E/DX2                !
 ! D117  D(31,32,33,106)      -170.8665         estimate D2E/DX2                !
 ! D118  D(31,32,33,107)        74.7228         estimate D2E/DX2                !
 ! D119  D(31,32,33,108)       -51.5638         estimate D2E/DX2                !
 ! D120  D(30,35,36,37)       -178.8524         estimate D2E/DX2                !
 ! D121  D(39,35,36,37)         -1.875          estimate D2E/DX2                !
 ! D122  D(30,35,39,38)        175.7194         estimate D2E/DX2                !
 ! D123  D(36,35,39,38)         -1.2833         estimate D2E/DX2                !
 ! D124  D(35,36,37,38)          5.3358         estimate D2E/DX2                !
 ! D125  D(35,36,37,110)       178.5718         estimate D2E/DX2                !
 ! D126  D(36,37,38,39)         -6.2934         estimate D2E/DX2                !
 ! D127  D(36,37,38,40)        178.8611         estimate D2E/DX2                !
 ! D128  D(110,37,38,39)      -178.4777         estimate D2E/DX2                !
 ! D129  D(110,37,38,40)         6.6768         estimate D2E/DX2                !
 ! D130  D(37,38,39,35)          4.1132         estimate D2E/DX2                !
 ! D131  D(40,38,39,35)        179.4108         estimate D2E/DX2                !
 ! D132  D(37,38,40,41)         53.7396         estimate D2E/DX2                !
 ! D133  D(37,38,40,47)       -130.8542         estimate D2E/DX2                !
 ! D134  D(39,38,40,41)       -120.4788         estimate D2E/DX2                !
 ! D135  D(39,38,40,47)         54.9273         estimate D2E/DX2                !
 ! D136  D(38,40,41,42)       -177.9388         estimate D2E/DX2                !
 ! D137  D(38,40,41,111)        -3.5986         estimate D2E/DX2                !
 ! D138  D(47,40,41,42)          6.3698         estimate D2E/DX2                !
 ! D139  D(47,40,41,111)      -179.2901         estimate D2E/DX2                !
 ! D140  D(38,40,47,44)        175.1361         estimate D2E/DX2                !
 ! D141  D(38,40,47,115)         0.0366         estimate D2E/DX2                !
 ! D142  D(41,40,47,44)         -9.1631         estimate D2E/DX2                !
 ! D143  D(41,40,47,115)       175.7374         estimate D2E/DX2                !
 ! D144  D(40,41,42,43)         -1.4487         estimate D2E/DX2                !
 ! D145  D(111,41,42,43)      -176.1805         estimate D2E/DX2                !
 ! D146  D(41,42,43,44)         -0.9398         estimate D2E/DX2                !
 ! D147  D(41,42,43,48)       -177.4435         estimate D2E/DX2                !
 ! D148  D(42,43,44,45)       -175.7176         estimate D2E/DX2                !
 ! D149  D(42,43,44,47)         -1.6341         estimate D2E/DX2                !
 ! D150  D(48,43,44,45)          0.2879         estimate D2E/DX2                !
 ! D151  D(48,43,44,47)        174.3714         estimate D2E/DX2                !
 ! D152  D(42,43,48,49)       -143.4751         estimate D2E/DX2                !
 ! D153  D(42,43,48,52)         30.7154         estimate D2E/DX2                !
 ! D154  D(44,43,48,49)         40.1362         estimate D2E/DX2                !
 ! D155  D(44,43,48,52)       -145.6733         estimate D2E/DX2                !
 ! D156  D(43,44,45,46)       -162.1655         estimate D2E/DX2                !
 ! D157  D(47,44,45,46)         24.3355         estimate D2E/DX2                !
 ! D158  D(43,44,47,40)          7.141          estimate D2E/DX2                !
 ! D159  D(43,44,47,115)      -177.6289         estimate D2E/DX2                !
 ! D160  D(45,44,47,40)       -179.3527         estimate D2E/DX2                !
 ! D161  D(45,44,47,115)        -4.1226         estimate D2E/DX2                !
 ! D162  D(44,45,46,112)       164.4199         estimate D2E/DX2                !
 ! D163  D(44,45,46,113)        55.1795         estimate D2E/DX2                !
 ! D164  D(44,45,46,114)       -76.9067         estimate D2E/DX2                !
 ! D165  D(43,48,49,50)        175.0205         estimate D2E/DX2                !
 ! D166  D(52,48,49,50)          0.428          estimate D2E/DX2                !
 ! D167  D(43,48,52,51)       -176.4444         estimate D2E/DX2                !
 ! D168  D(49,48,52,51)         -1.7677         estimate D2E/DX2                !
 ! D169  D(48,49,50,51)          1.5959         estimate D2E/DX2                !
 ! D170  D(48,49,50,116)       179.324          estimate D2E/DX2                !
 ! D171  D(49,50,51,52)         -2.944          estimate D2E/DX2                !
 ! D172  D(49,50,51,53)        178.7498         estimate D2E/DX2                !
 ! D173  D(116,50,51,52)       179.4905         estimate D2E/DX2                !
 ! D174  D(116,50,51,53)         1.1843         estimate D2E/DX2                !
 ! D175  D(50,51,52,48)          2.6254         estimate D2E/DX2                !
 ! D176  D(53,51,52,48)       -178.9333         estimate D2E/DX2                !
 ! D177  D(50,51,53,54)        -39.2272         estimate D2E/DX2                !
 ! D178  D(50,51,53,60)        131.6942         estimate D2E/DX2                !
 ! D179  D(52,51,53,54)        142.5806         estimate D2E/DX2                !
 ! D180  D(52,51,53,60)        -46.498          estimate D2E/DX2                !
 ! D181  D(51,53,54,55)        178.5492         estimate D2E/DX2                !
 ! D182  D(51,53,54,117)        -7.9803         estimate D2E/DX2                !
 ! D183  D(60,53,54,55)          7.3201         estimate D2E/DX2                !
 ! D184  D(60,53,54,117)      -179.2094         estimate D2E/DX2                !
 ! D185  D(51,53,60,57)        177.7608         estimate D2E/DX2                !
 ! D186  D(51,53,60,121)         6.2057         estimate D2E/DX2                !
 ! D187  D(54,53,60,57)        -11.236          estimate D2E/DX2                !
 ! D188  D(54,53,60,121)       177.2089         estimate D2E/DX2                !
 ! D189  D(53,54,55,56)         -1.6144         estimate D2E/DX2                !
 ! D190  D(117,54,55,56)      -175.4515         estimate D2E/DX2                !
 ! D191  D(54,55,56,57)         -0.7458         estimate D2E/DX2                !
 ! D192  D(54,55,56,61)        179.3086         estimate D2E/DX2                !
 ! D193  D(55,56,57,58)       -174.9933         estimate D2E/DX2                !
 ! D194  D(55,56,57,60)         -2.7334         estimate D2E/DX2                !
 ! D195  D(61,56,57,58)          4.9508         estimate D2E/DX2                !
 ! D196  D(61,56,57,60)        177.2108         estimate D2E/DX2                !
 ! D197  D(55,56,61,62)       -120.7667         estimate D2E/DX2                !
 ! D198  D(55,56,61,65)         57.313          estimate D2E/DX2                !
 ! D199  D(57,56,61,62)         59.2843         estimate D2E/DX2                !
 ! D200  D(57,56,61,65)       -122.636          estimate D2E/DX2                !
 ! D201  D(56,57,58,59)       -141.2029         estimate D2E/DX2                !
 ! D202  D(60,57,58,59)         47.2438         estimate D2E/DX2                !
 ! D203  D(56,57,60,53)          8.7806         estimate D2E/DX2                !
 ! D204  D(56,57,60,121)       179.8503         estimate D2E/DX2                !
 ! D205  D(58,57,60,53)       -179.3002         estimate D2E/DX2                !
 ! D206  D(58,57,60,121)        -8.2305         estimate D2E/DX2                !
 ! D207  D(57,58,59,118)       160.4791         estimate D2E/DX2                !
 ! D208  D(57,58,59,119)        41.5284         estimate D2E/DX2                !
 ! D209  D(57,58,59,120)       -75.9957         estimate D2E/DX2                !
 ! D210  D(56,61,62,63)       -179.5312         estimate D2E/DX2                !
 ! D211  D(65,61,62,63)          2.2848         estimate D2E/DX2                !
 ! D212  D(56,61,65,64)        175.1725         estimate D2E/DX2                !
 ! D213  D(62,61,65,64)         -6.489          estimate D2E/DX2                !
 ! D214  D(61,62,63,64)          4.9258         estimate D2E/DX2                !
 ! D215  D(61,62,63,122)       179.784          estimate D2E/DX2                !
 ! D216  D(62,63,64,65)         -9.7197         estimate D2E/DX2                !
 ! D217  D(62,63,64,66)        174.567          estimate D2E/DX2                !
 ! D218  D(122,63,64,65)       175.7828         estimate D2E/DX2                !
 ! D219  D(122,63,64,66)         0.0696         estimate D2E/DX2                !
 ! D220  D(63,64,65,61)          8.51           estimate D2E/DX2                !
 ! D221  D(66,64,65,61)       -175.4206         estimate D2E/DX2                !
 ! D222  D(63,64,66,67)        -42.6664         estimate D2E/DX2                !
 ! D223  D(63,64,66,73)        137.3817         estimate D2E/DX2                !
 ! D224  D(65,64,66,67)        142.1544         estimate D2E/DX2                !
 ! D225  D(65,64,66,73)        -37.7975         estimate D2E/DX2                !
 ! D226  D(64,66,67,68)       -178.8206         estimate D2E/DX2                !
 ! D227  D(64,66,67,123)        -2.4908         estimate D2E/DX2                !
 ! D228  D(73,66,67,68)          1.1297         estimate D2E/DX2                !
 ! D229  D(73,66,67,123)       177.4594         estimate D2E/DX2                !
 ! D230  D(64,66,73,70)        177.3342         estimate D2E/DX2                !
 ! D231  D(64,66,73,127)         3.9573         estimate D2E/DX2                !
 ! D232  D(67,66,73,70)         -2.6146         estimate D2E/DX2                !
 ! D233  D(67,66,73,127)      -175.9915         estimate D2E/DX2                !
 ! D234  D(66,67,68,69)         -3.1195         estimate D2E/DX2                !
 ! D235  D(123,67,68,69)      -179.8458         estimate D2E/DX2                !
 ! D236  D(67,68,69,70)          7.2323         estimate D2E/DX2                !
 ! D237  D(67,68,69,74)       -177.5048         estimate D2E/DX2                !
 ! D238  D(68,69,70,71)        174.5217         estimate D2E/DX2                !
 ! D239  D(68,69,70,73)         -8.6573         estimate D2E/DX2                !
 ! D240  D(74,69,70,71)         -0.6072         estimate D2E/DX2                !
 ! D241  D(74,69,70,73)        176.2138         estimate D2E/DX2                !
 ! D242  D(68,69,74,75)        139.1426         estimate D2E/DX2                !
 ! D243  D(68,69,74,78)        -33.5509         estimate D2E/DX2                !
 ! D244  D(70,69,74,75)        -45.2437         estimate D2E/DX2                !
 ! D245  D(70,69,74,78)        142.0629         estimate D2E/DX2                !
 ! D246  D(69,70,71,72)        148.1114         estimate D2E/DX2                !
 ! D247  D(73,70,71,72)        -28.6272         estimate D2E/DX2                !
 ! D248  D(69,70,73,66)          5.849          estimate D2E/DX2                !
[...]
  Beta virt. eigenvalues --    2.10719   2.10974   2.11276   2.11480   2.11917
  Beta virt. eigenvalues --    2.12776   2.13637   2.13962   2.14060   2.14264
  Beta virt. eigenvalues --    2.14653   2.14697   2.15243   2.17009   2.17389
  Beta virt. eigenvalues --    2.17615   2.17900   2.18120   2.18441   2.21982
  Beta virt. eigenvalues --    2.22529   2.22908   2.23035   2.23252   2.23718
  Beta virt. eigenvalues --    2.24066   2.24463   2.24557   2.24794   2.25208
  Beta virt. eigenvalues --    2.25308   2.25798   2.26104   2.26227   2.26438
  Beta virt. eigenvalues --    2.26723   2.26960   2.27185   2.27347   2.27596
  Beta virt. eigenvalues --    2.27669   2.28017   2.28562   2.28785   2.29114
  Beta virt. eigenvalues --    2.29661   2.30044   2.30373   2.30686   2.31026
  Beta virt. eigenvalues --    2.31363   2.31462   2.31909   2.32051   2.32163
  Beta virt. eigenvalues --    2.32856   2.33108   2.33173   2.33330   2.33656
  Beta virt. eigenvalues --    2.33713   2.34128   2.34347   2.34728   2.35375
  Beta virt. eigenvalues --    2.35835   2.35972   2.36158   2.36986   2.37588
  Beta virt. eigenvalues --    2.37748   2.38375   2.38451   2.38671   2.38812
  Beta virt. eigenvalues --    2.38923   2.38994   2.39121   2.39292   2.39417
  Beta virt. eigenvalues --    2.39488   2.39690   2.40119   2.40440   2.40918
  Beta virt. eigenvalues --    2.41174   2.41228   2.41395   2.42886   2.43474
  Beta virt. eigenvalues --    2.44122   2.44565   2.44773   2.45166   2.45367
  Beta virt. eigenvalues --    2.45386   2.45714   2.45868   2.45911   2.46220
  Beta virt. eigenvalues --    2.46369   2.46435   2.47061   2.48190   2.48863
  Beta virt. eigenvalues --    2.49019   2.49145   2.49225   2.49345   2.49407
  Beta virt. eigenvalues --    2.49616   2.49638   2.49793   2.49812   2.49936
  Beta virt. eigenvalues --    2.50021   2.50357   2.51285   2.52415   2.54433
  Beta virt. eigenvalues --    2.54483   2.54851   2.55073   2.55594   2.56052
  Beta virt. eigenvalues --    2.56973   2.57356   2.59623   2.60752   2.61208
  Beta virt. eigenvalues --    2.62020   2.62803   2.67146   2.67418   2.67535
  Beta virt. eigenvalues --    2.67692   2.68233   2.68742   2.69289   2.71687
  Beta virt. eigenvalues --    2.71778   2.72743   2.72913   2.73101   2.73632
  Beta virt. eigenvalues --    2.74123   2.74960   2.76403   2.76875   2.77789
  Beta virt. eigenvalues --    2.78742   2.78973   2.79130   2.81670   2.82168
  Beta virt. eigenvalues --    2.82284   2.82943   2.83661   2.83882   2.84391
  Beta virt. eigenvalues --    2.84508   2.84637   2.85344   2.85963   2.86669
  Beta virt. eigenvalues --    2.86754   2.86919   2.87101   2.87179   2.87416
  Beta virt. eigenvalues --    2.87578   2.87886   2.88167   2.88322   2.92678
  Beta virt. eigenvalues --    2.93685   2.95889   2.96163   2.96487   2.96869
  Beta virt. eigenvalues --    2.97951   2.98752   2.98955   3.00234   3.00509
  Beta virt. eigenvalues --    3.00593   3.00814   3.00899   3.01043   3.01115
  Beta virt. eigenvalues --    3.01405   3.01546   3.01735   3.02075   3.02977
  Beta virt. eigenvalues --    3.03136   3.04342   3.04769   3.05142   3.05772
  Beta virt. eigenvalues --    3.06853   3.09157   3.21024   3.22098   3.22684
  Beta virt. eigenvalues --    3.22902   3.23152   3.23262   3.25192   3.35921
  Beta virt. eigenvalues --    3.36489   3.38626   3.38810   3.39146   3.39361
  Beta virt. eigenvalues --    3.39712   3.50083   3.50927   3.51030   3.51300
  Beta virt. eigenvalues --    3.51628   3.52046   3.53713
          Condensed to atoms (all electrons):
          Atomic-Atomic Spin Densities.
 Mulliken charges and spin densities:
               1          2
     1  C   -0.016859   0.000000
     2  C    0.081400   0.000000
     3  N   -0.159784   0.000000
     4  C    0.045435  -0.000000
     5  C    0.119813   0.000000
     6  O   -0.251163   0.000000
     7  C    0.062039  -0.000000
     8  C    0.022292  -0.000000
     9  C    0.002353   0.000000
    10  N   -0.144674  -0.000000
    11  C    0.126430  -0.000000
    12  C   -0.216336  -0.000000
    13  S    0.143505   0.000000
    14  C    0.000122   0.000000
    15  C    0.085340  -0.000000
    16  N   -0.207189   0.000000
    17  C    0.095283   0.000000
    18  C    0.127704   0.000000
    19  O   -0.202989  -0.000000
    20  C    0.057936   0.000000
    21  C    0.019933  -0.000000
    22  C   -0.017960  -0.000000
    23  N   -0.170150   0.000000
    24  C    0.108252   0.000000
    25  C   -0.217451  -0.000000
    26  S    0.186925   0.000000
    27  C    0.004672   0.000000
    28  C    0.076328  -0.000000
    29  N   -0.156485   0.000000
    30  C    0.052531  -0.000000
    31  C    0.126987   0.000000
    32  O   -0.253152  -0.000000
    33  C    0.064389   0.000000
    34  C    0.022242  -0.000000
    35  C   -0.000102   0.000000
    36  N   -0.145892  -0.000000
    37  C    0.126625  -0.000000
    38  C   -0.216199   0.000000
    39  S    0.143910   0.000000
    40  C    0.000251   0.000000
    41  C    0.084407  -0.000000
    42  N   -0.208240  -0.000000
    43  C    0.094898   0.000000
    44  C    0.128346  -0.000000
    45  O   -0.202228   0.000000
    46  C    0.057679   0.000000
    47  C    0.019855   0.000000
    48  C   -0.014986  -0.000000
    49  N   -0.169348   0.000000
    50  C    0.112544   0.000000
    51  C   -0.217080  -0.000000
    52  S    0.169361   0.000000
    53  C    0.001148   0.000000
    54  C    0.082943  -0.000000
    55  N   -0.208762  -0.000000
    56  C    0.094518  -0.000000
    57  C    0.128743   0.000000
    58  O   -0.202514  -0.000000
    59  C    0.056713   0.000000
    60  C    0.019151  -0.000000
    61  C   -0.014724   0.000000
    62  N   -0.168826   0.000000
    63  C    0.112451  -0.000000
    64  C   -0.216655  -0.000000
    65  S    0.167686  -0.000000
    66  C    0.001030   0.000000
    67  C    0.082538   0.000000
    68  N   -0.208448  -0.000000
    69  C    0.094256  -0.000000
    70  C    0.128342   0.000000
    71  O   -0.202419  -0.000000
    72  C    0.057003   0.000000
    73  C    0.018833  -0.000000
    74  C   -0.015522  -0.000000
    75  N   -0.169199  -0.000000
    76  C    0.111948  -0.000000
    77  C   -0.215945  -0.000000
    78  S    0.167068  -0.000000
    79  C    0.000216   0.000000
    80  C    0.080965  -0.000000
    81  N   -0.206542   0.000000
    82  C    0.102850  -0.000000
    83  C    0.125781  -0.000000
    84  O   -0.202130  -0.000000
    85  C    0.057451  -0.000000
    86  C    0.017829   0.000000
    87  C   -0.036011  -0.000000
    88  N   -0.173968  -0.000000
    89  C    0.109981   0.000000
    90  C   -0.167275   0.000000
    91  S    0.175152  -0.000000
    92  H   -0.009045  -0.000000
    93  H    0.003099  -0.000000
    94  H    0.051856  -0.000000
    95  H    0.057014   0.000000
    96  H    0.052919  -0.000000
    97  H   -0.005645  -0.000000
    98  H    0.004664  -0.000000
    99  H   -0.000020  -0.000000
   100  H    0.045582  -0.000000
   101  H    0.049700  -0.000000
   102  H    0.057920  -0.000000
   103  H   -0.012245   0.000000
   104  H   -0.007144  -0.000000
   105  H    0.004828  -0.000000
   106  H    0.056474   0.000000
   107  H    0.054241   0.000000
   108  H    0.052216  -0.000000
   109  H   -0.015287  -0.000000
   110  H    0.003577   0.000000
   111  H   -0.001304   0.000000
   112  H    0.059061   0.000000
   113  H    0.049570   0.000000
   114  H    0.045919  -0.000000
   115  H   -0.011832  -0.000000
   116  H    0.000260  -0.000000
   117  H   -0.003580   0.000000
   118  H    0.058856   0.000000
   119  H    0.049567  -0.000000
   120  H    0.050057   0.000000
   121  H   -0.007425   0.000000
   122  H   -0.000152   0.000000
   123  H   -0.003535  -0.000000
   124  H    0.048982  -0.000000
   125  H    0.058393  -0.000000
   126  H    0.049455  -0.000000
   127  H   -0.008077   0.000000
   128  H   -0.000356   0.000000
   129  H   -0.004111  -0.000000
   130  H    0.047954   0.000000
   131  H    0.057028   0.000000
   132  H    0.048268  -0.000000
   133  H   -0.009225   0.000000
   134  H   -0.006147  -0.000000
   135  H    0.020495  -0.000000
 Sum of Mulliken charges =  -0.00000  -0.00000
 Mulliken charges and spin densities with hydrogens summed into heavy atoms:
               1          2
     1  C   -0.025904   0.000000
     2  C    0.084499   0.000000
     3  N   -0.159784   0.000000
     4  C    0.045435  -0.000000
     5  C    0.119813   0.000000
     6  O   -0.251163   0.000000
     7  C    0.223829  -0.000000
     8  C    0.016647  -0.000000
     9  C    0.002353   0.000000
    10  N   -0.144674  -0.000000
    11  C    0.131094  -0.000000
    12  C   -0.216336  -0.000000
    13  S    0.143505   0.000000
    14  C    0.000122   0.000000
    15  C    0.085321  -0.000000
    16  N   -0.207189   0.000000
    17  C    0.095283   0.000000
    18  C    0.127704   0.000000
    19  O   -0.202989  -0.000000
    20  C    0.211137   0.000000
    21  C    0.007688  -0.000000
    22  C   -0.017960  -0.000000
    23  N   -0.170150   0.000000
    24  C    0.101108   0.000000
    25  C   -0.217451  -0.000000
    26  S    0.186925   0.000000
    27  C    0.004672   0.000000
    28  C    0.081156  -0.000000
    29  N   -0.156485   0.000000
    30  C    0.052531  -0.000000
    31  C    0.126987   0.000000
    32  O   -0.253152  -0.000000
    33  C    0.227318   0.000000
    34  C    0.006955  -0.000000
    35  C   -0.000102   0.000000
    36  N   -0.145892  -0.000000
    37  C    0.130202  -0.000000
    38  C   -0.216199   0.000000
    39  S    0.143910   0.000000
    40  C    0.000251   0.000000
    41  C    0.083104  -0.000000
    42  N   -0.208240  -0.000000
    43  C    0.094898   0.000000
    44  C    0.128346  -0.000000
    45  O   -0.202228   0.000000
    46  C    0.212228   0.000000
    47  C    0.008023   0.000000
    48  C   -0.014986  -0.000000
    49  N   -0.169348   0.000000
    50  C    0.112804   0.000000
    51  C   -0.217080  -0.000000
    52  S    0.169361   0.000000
    53  C    0.001148   0.000000
    54  C    0.079363  -0.000000
    55  N   -0.208762  -0.000000
    56  C    0.094518  -0.000000
    57  C    0.128743   0.000000
    58  O   -0.202514  -0.000000
    59  C    0.215193   0.000000
    60  C    0.011725  -0.000000
    61  C   -0.014724   0.000000
    62  N   -0.168826   0.000000
    63  C    0.112298  -0.000000
    64  C   -0.216655  -0.000000
    65  S    0.167686  -0.000000
    66  C    0.001030   0.000000
    67  C    0.079004   0.000000
    68  N   -0.208448  -0.000000
    69  C    0.094256  -0.000000
    70  C    0.128342   0.000000
    71  O   -0.202419  -0.000000
    72  C    0.213834   0.000000
    73  C    0.010756  -0.000000
    74  C   -0.015522  -0.000000
    75  N   -0.169199  -0.000000
    76  C    0.111591  -0.000000
    77  C   -0.215945  -0.000000
    78  S    0.167068  -0.000000
    79  C    0.000216   0.000000
    80  C    0.076854  -0.000000
    81  N   -0.206542   0.000000
    82  C    0.102850  -0.000000
    83  C    0.125781  -0.000000
    84  O   -0.202130  -0.000000
    85  C    0.210702  -0.000000
    86  C    0.008604   0.000000
    87  C   -0.036011  -0.000000
    88  N   -0.173968  -0.000000
    89  C    0.103834  -0.000000
    90  C   -0.146780   0.000000
    91  S    0.175152  -0.000000
 Electronic spatial extent (au):  <R**2>=         639795.1006
 Charge=             -0.0000 electrons
 Dipole moment (field-independent basis, Debye):
    X=             18.9914    Y=             -8.3788    Z=             -0.1553  Tot=             20.7582
 Quadrupole moment (field-independent basis, Debye-Ang):
   XX=           -425.7113   YY=           -511.7768   ZZ=           -565.1502
   XY=           -152.3583   XZ=             15.3461   YZ=             -0.4012
 Traceless Quadrupole moment (field-independent basis, Debye-Ang):
   XX=             75.1681   YY=            -10.8974   ZZ=            -64.2707
   XY=           -152.3583   XZ=             15.3461   YZ=             -0.4012
 Octapole moment (field-independent basis, Debye-Ang**2):
  XXX=          14044.1160  YYY=           -151.6270  ZZZ=             -0.9571  XYY=           -253.1079
  XXY=          -2055.5643  XXZ=           -108.2688  XZZ=             61.9813  YZZ=            -52.1467
  YYZ=             -1.2313  XYZ=             47.4772
 Hexadecapole moment (field-independent basis, Debye-Ang**3):
 XXXX=        -647688.2725 YYYY=         -11206.0354 ZZZZ=          -2690.5196 XXXY=         -53923.4037
 XXXZ=           5354.0428 YYYX=          -3321.0227 YYYZ=            -51.7518 ZZZX=            -22.9269
 ZZZY=            -39.7330 XXYY=        -140046.1088 XXZZ=        -145954.5910 YYZZ=          -2368.4062
 XXYZ=           1625.6195 YYXZ=            329.9999 ZZXY=           -438.3290
 N-N= 1.331548466322D+04 E-N=-4.191261268588D+04  KE= 6.473255036288D+03
 Leave Link  601 at Fri Jul 24 23:24:25 2020, MaxMem=  4026531840 cpu:              13.1 elap:               1.9
 (Enter /opt/ohpc/pub/libs/gaussian/g16-A.03/sandybridge/g16/l9999.exe)

 Test job not archived.
 1\1\GINC-SKYLAKE033\FOpt\ULC-wPBE\CC-pVDZ\C63H44N14O7S7\RDU230\24-Jul-
 2020\0\\#P uLC-wPBE/cc-pVDZ iop(3/107=0172800000, 3/108=0172800000) op
 t\\H44 C63 S7 N14 O7\\0,1\C,26.6373777125,2.8767602425,0.8012752716\C,
 25.6875504779,3.9016246454,0.7377915238\N,24.3814078278,3.6845732144,0
 .5456588729\C,23.947104062,2.420356522,0.4047389055\C,24.83928375,1.31
 38091331,0.4547101206\O,24.2941172673,0.0745270136,0.3003145558\C,25.1
 584261391,-1.0568475004,0.3572060147\C,26.2052400753,1.5557436396,0.65
 69307359\C,22.4850403839,2.2709246217,0.198159026\N,21.6719730914,3.30
 73034187,0.1697550902\C,20.3813694076,2.9171162875,-0.0309633409\C,20.
 1501833548,1.5583134093,-0.1661051829\S,21.6703669828,0.7205274858,-0.
 0249912108\C,18.8741458476,0.8666926135,-0.3895239716\C,17.6663738691,
 1.412638489,0.0900927799\N,16.4774589739,0.8413262743,-0.1060847249\C,
 16.3935385692,-0.3219860745,-0.7759327657\C,17.552784119,-0.9721024849
 ,-1.2865946173\O,17.381586176,-2.1431306082,-1.9420990017\C,18.5387800
 02,-2.7891688981,-2.4616563941\C,18.7951495137,-0.3523402433,-1.086934
 9883\C,15.023981093,-0.8424679504,-0.921587934\N,14.635568737,-1.94442
 91265,-1.5254220876\C,13.2770467893,-2.0788207536,-1.4455244221\C,12.5
 864707883,-1.0818096665,-0.775884174\S,13.7236549858,0.1100052065,-0.2
 051105975\C,11.1390529776,-0.9736003534,-0.5534811175\C,10.4952923269,
 0.2710957655,-0.3961545793\N,9.1842288155,0.4161040918,-0.2031370055\C
 ,8.4011723098,-0.675784869,-0.1599104474\C,8.9479571763,-1.979412642,-
 0.3130631538\O,8.0756871476,-3.0240259392,-0.2494689804\C,8.5873186471
 ,-4.3453509079,-0.402277717\C,10.3266003513,-2.1207131982,-0.501969328
 4\C,6.9582766838,-0.4200648236,0.0574559995\N,6.4720125646,0.798623089
 9,0.1822538368\C,5.1225818906,0.7741080524,0.3718066143\C,4.5146653776
 ,-0.4700946486,0.4013495767\S,5.7360257732,-1.6896853274,0.1686315083\
 C,3.0936887986,-0.7880854078,0.5902419342\C,2.0932033666,0.114548371,0
 .1764372893\N,0.7896710531,-0.1107603776,0.3460008302\C,0.3753282388,-
 1.2536781409,0.9216931949\C,1.2995062606,-2.2448281378,1.3589008055\O,
 0.7988516185,-3.3687749711,1.9202403277\C,1.7210668691,-4.3594070063,2
 .3619415704\C,2.6678679222,-1.9877787285,1.1886540182\C,-1.086158339,-
 1.377866206,1.0469743371\N,-1.7746403421,-2.3661051458,1.5734154493\C,
 -3.1162911735,-2.1084101657,1.5017151907\C,-3.4927008952,-0.9118937109
 ,0.9139118789\S,-2.0612494155,-0.0492906772,0.415495841\C,-4.849881531
 2,-0.3878248883,0.7131938455\C,-5.9474267172,-1.2609896102,0.572899693
 8\N,-7.2023113165,-0.8386560678,0.4133062945\C,-7.4653730631,0.4796409
 356,0.363520491\C,-6.4292365055,1.4505988789,0.4722893132\O,-6.7780836
 667,2.7547442729,0.402380637\C,-5.7425191808,3.7272204915,0.508218805\
 C,-5.116225227,0.9919998919,0.6548472366\C,-8.889063618,0.8104662981,0
 .1887776987\N,-9.4415396266,1.999999299,0.1031993957\C,-10.7962029237,
 1.8904351425,-0.0533737641\C,-11.3199962875,0.6085998573,-0.0900820881
 \S,-10.0199833771,-0.5407339798,0.085300399\C,-12.7232116135,0.2065247
 3,-0.2520256173\C,-13.7697706214,1.049800986,0.1721315013\N,-15.059979
 1194,0.7455606118,0.0246755458\C,-15.4136399278,-0.4245223696,-0.53689
 69877\C,-14.4378728588,-1.3627215152,-0.9797145299\O,-14.8775840168,-2
 .5207417043,-1.5217980769\C,-13.9028853838,-3.4623990883,-1.9595414208
 \C,-13.085194238,-1.0220164389,-0.8335900695\C,-16.8666166188,-0.63718
 00136,-0.6401965912\N,-17.5012040698,-1.6673400885,-1.1535832235\C,-18
 .8550490531,-1.4909373609,-1.0644069213\C,-19.2956059506,-0.3170815566
 ,-0.4756514375\S,-17.9123074311,0.6324277163,0.0001988139\C,-20.679462
 2238,0.1246413012,-0.2576035927\C,-21.719261718,-0.8116878843,-0.09445
 82282\N,-22.9959728069,-0.4653845289,0.0792486731\C,-23.339305256,0.83
 40184863,0.1228943104\C,-22.3648666862,1.8647338668,-0.0070602358\O,-2
 2.7903690824,3.14721091,0.0598073348\C,-21.815890134,4.1773848524,-0.0
 648641597\C,-21.0292049517,1.4862100308,-0.205444204\C,-24.7791288541,
 1.0816571782,0.3164159115\N,-25.397512251,2.2383357057,0.390013597\C,-
 26.7454354465,2.0519637515,0.5730104298\C,-27.1706460308,0.7449004069,
 0.6412054963\S,-25.8300950271,-0.3307604351,0.4696551786\H,27.69987665
 18,3.1029740948,0.9611370765\H,25.9894595694,4.9550179359,0.8470607539
 \H,25.9189119304,-1.0279641946,-0.4508620653\H,24.5090489538,-1.937429
 282,0.2166745781\H,25.6673218466,-1.1293988312,1.3409305204\H,26.92389
 03868,0.7291277566,0.7020020227\H,19.5997989178,3.6841059814,-0.102545
 167\H,17.6682939365,2.3464421111,0.6716219618\H,19.2555771765,-3.05755
 93883,-1.6567851988\H,19.0556796841,-2.1604257729,-3.2172538084\H,18.1
 714769726,-3.7102683799,-2.9446446099\H,19.7109666501,-0.8025894453,-1
 .4879457157\H,12.8005979838,-2.9394458337,-1.93261851\H,11.0820328517,
 1.2027434923,-0.4402252687\H,7.7134772233,-5.0147344741,-0.3313154381\
 H,9.3096691482,-4.5965289232,0.4021175581\H,9.0736704798,-4.4795550001
 ,-1.3908529141\H,10.781754764,-3.1138883983,-0.5873036195\H,4.58977737
 56,1.7223676226,0.5174625423\H,2.3640072179,1.0535920659,-0.3286157538
 \H,1.1035566261,-5.1755711127,2.7731116783\H,2.391428717,-3.9704831873
 ,3.1573862176\H,2.3358341867,-4.7505491213,1.5237359546\H,3.4157569931
 ,-2.7102994319,1.5363203621\H,-3.8200374356,-2.8335745081,1.929380314\
 H,-5.7971382159,-2.3507948858,0.5735902514\H,-6.2451320635,4.704641900
 6,0.4165901747\H,-4.9950948794,3.6204930954,-0.3060127143\H,-5.2259324
 067,3.6709920704,1.4896042525\H,-4.2905981267,1.704319256,0.7697316253
 \H,-11.393065376,2.8039371228,-0.1685247805\H,-13.5491463742,2.0068251
 654,0.6678616129\H,-13.2557626097,-3.8017674036,-1.1233493615\H,-14.47
 57062252,-4.3204905671,-2.3494210578\H,-13.2666536206,-3.047738423,-2.
 7698257305\H,-12.3004123446,-1.7023372928,-1.1851150889\H,-19.51954017
 32,-2.2592000305,-1.4793493127\H,-21.5028908932,-1.8904220848,-0.08831
 83372\H,-21.0520034709,4.1200369974,0.7392994389\H,-22.3734856979,5.12
 44784337,0.0285884001\H,-21.3091510615,4.1465725926,-1.0527444652\H,-2
 0.2502821482,2.2466197313,-0.3373651203\H,-27.4000256648,2.9287471209,
 0.6539006028\H,-28.1891490435,0.3696744583,0.7817523274\\Version=EM64L
 -G16RevA.03\State=1-A\HF=-6503.505792\S2=0.\S2-1=0.\S2A=0.\RMSD=7.178e
 -09\RMSF=9.299e-07\Dipole=7.4654115,-3.2882783,-0.3913219\Quadrupole=5
 5.5286786,-8.0298774,-47.4988012,-113.9350998,0.4903272,3.7431981\PG=C
 01 [X(C63H44N14O7S7)]\\@


 TO DETECT ERRORS, THE PROGRAMMER MUST HAVE A CONNIVING MIND,
 ONE THAT DELIGHTS IN UNCOVERING FLAWS WHERE BEAUTY AND
 PERFECTION WERE ONCE THOUGHT TO LIE.

             -- THE PSYCHOLOGY OF COMPUTER PROGRAMMING
                GERALD M. WEINBERG
 Job cpu time:       2 days 20 hours 22 minutes 44.5 seconds.
 Elapsed time:       0 days  8 hours 42 minutes  3.2 seconds.
 File lengths (MBytes):  RWF=   2572 Int=      0 D2E=      0 Chk=    232 Scr=      8
 Normal termination of Gaussian 16 at Fri Jul 24 23:24:26 2020.
