 Entering Gaussian System, Link 0=g16
 Input=mols_65_3_12_c-cOC-C_opt_0.gjf
 Output=mols_65_3_12_c-cOC-C_opt_0.log
 Initial command:
 /opt/ohpc/pub/libs/gaussian/g16-A.03/sandybridge/g16/l1.exe "/mnt/gpfs2_4m/scratch/rdu230/ondemand/projects/dihedral_energies/7trial/wtuning/mols_65_3_12_c-cOC-C/Gau-355434.inp" -scrdir="/mnt/gpfs2_4m/scratch/rdu230/ondemand/projects/dihedral_energies/7trial/wtuning/mols_65_3_12_c-cOC-C/"
 Entering Link 1 = /opt/ohpc/pub/libs/gaussian/g16-A.03/sandybridge/g16/l1.exe PID=    355435.
  
 Copyright (c) 1988,1990,1992,1993,1995,1998,2003,2009,2016,
            Gaussian, Inc.  All Rights Reserved.
  
 This is part of the Gaussian(R) 16 program.  It is based on
 the Gaussian(R) 09 system (copyright 2009, Gaussian, Inc.),
 the Gaussian(R) 03 system (copyright 2003, Gaussian, Inc.),
 the Gaussian(R) 98 system (copyright 1998, Gaussian, Inc.),
 the Gaussian(R) 94 system (copyright 1995, Gaussian, Inc.),
 the Gaussian 92(TM) system (copyright 1992, Gaussian, Inc.),
 the Gaussian 90(TM) system (copyright 1990, Gaussian, Inc.),
 the Gaussian 88(TM) system (copyright 1988, Gaussian, Inc.),
 the Gaussian 86(TM) system (copyright 1986, Carnegie Mellon
 University), and the Gaussian 82(TM) system (copyright 1983,
 Carnegie Mellon University). Gaussian is a federally registered
 trademark of Gaussian, Inc.
  
 This software contains proprietary and confidential information,
 including trade secrets, belonging to Gaussian, Inc.
  
 This software is provided under written license and may be
 used, copied, transmitted, or stored only in accord with that
 written license.
  
 The following legend is applicable only to US Government
 contracts under FAR:
  
                    RESTRICTED RIGHTS LEGEND
  
 Use, reproduction and disclosure by the US Government is
 subject to restrictions as set forth in subparagraphs (a)
 and (c) of the Commercial Computer Software - Restricted
 Rights clause in FAR 52.227-19.
  
 Gaussian, Inc.
 340 Quinnipiac St., Bldg. 40, Wallingford CT 06492
  
  
 ---------------------------------------------------------------
 Warning -- This program may not be used in any manner that
 competes with the business of Gaussian, Inc. or will provide
 assistance to any competitor of Gaussian, Inc.  The licensee
 of this program is prohibited from giving any competitor of
 Gaussian, Inc. access to this program.  By using this program,
 the user acknowledges that Gaussian, Inc. is engaged in the
 business of creating and licensing software in the field of
 computational chemistry and represents and warrants to the
 licensee that it is not a competitor of Gaussian, Inc. and that
 it will not use this program in any manner prohibited above.
 ---------------------------------------------------------------
  

 Cite this work as:
 Gaussian 16, Revision A.03,
 M. J. Frisch, G. W. Trucks, H. B. Schlegel, G. E. Scuseria, 
 M. A. Robb, J. R. Cheeseman, G. Scalmani, V. Barone, 
 G. A. Petersson, H. Nakatsuji, X. Li, M. Caricato, A. V. Marenich, 
 J. Bloino, B. G. Janesko, R. Gomperts, B. Mennucci, H. P. Hratchian, 
 J. V. Ortiz, A. F. Izmaylov, J. L. Sonnenberg, D. Williams-Young, 
 F. Ding, F. Lipparini, F. Egidi, J. Goings, B. Peng, A. Petrone, 
 T. Henderson, D. Ranasinghe, V. G. Zakrzewski, J. Gao, N. Rega, 
 G. Zheng, W. Liang, M. Hada, M. Ehara, K. Toyota, R. Fukuda, 
 J. Hasegawa, M. Ishida, T. Nakajima, Y. Honda, O. Kitao, H. Nakai, 
 T. Vreven, K. Throssell, J. A. Montgomery, Jr., J. E. Peralta, 
 F. Ogliaro, M. J. Bearpark, J. J. Heyd, E. N. Brothers, K. N. Kudin, 
 V. N. Staroverov, T. A. Keith, R. Kobayashi, J. Normand, 
 K. Raghavachari, A. P. Rendell, J. C. Burant, S. S. Iyengar, 
 J. Tomasi, M. Cossi, J. M. Millam, M. Klene, C. Adamo, R. Cammi, 
 J. W. Ochterski, R. L. Martin, K. Morokuma, O. Farkas, 
 J. B. Foresman, and D. J. Fox, Gaussian, Inc., Wallingford CT, 2016.
 
 ******************************************
 Gaussian 16:  EM64L-G16RevA.03 25-Dec-2016
                23-Jul-2020 
 ******************************************
 %mem=30GB
 %nproc=8
 Will use up to    8 processors via shared memory.
 ---------------------------------------------------------------
 #P uLC-wPBE/cc-pVDZ iop(3/107=0369500000, 3/108=0369500000) opt
 ---------------------------------------------------------------
 1/18=20,19=15,26=3,38=1/1,3;
 2/9=110,12=2,17=6,18=5,40=1/2;
 3/5=16,11=2,25=1,30=1,71=1,74=-41,107=369500000,108=369500000,116=2/1,2,3;
 4//1;
 5/5=2,38=5/2;
 6/7=2,8=2,9=2,10=2,28=1/1;
 7//1,2,3,16;
 1/18=20,19=15,26=3/3(2);
 2/9=110/2;
 99//99;
 2/9=110/2;
 3/5=16,11=2,25=1,30=1,71=1,74=-41,107=369500000,108=369500000,116=2/1,2,3;
 4/5=5,16=3,69=1/1;
 5/5=2,38=5/2;
 7//1,2,3,16;
 1/18=20,19=15,26=3/3(-5);
 2/9=110/2;
 6/7=2,8=2,9=2,10=2,19=2,28=1/1;
 99/9=1/99;
 Leave Link    1 at Thu Jul 23 17:01:26 2020, MaxMem=  4026531840 cpu:               2.0 elap:               0.3
 (Enter /opt/ohpc/pub/libs/gaussian/g16-A.03/sandybridge/g16/l101.exe)
 -------------
 H26 C33 S3 O3
 -------------
 Symbolic Z-matrix:
 Charge =  0 Multiplicity = 1
 C                     10.25988  -2.95485   0.53879 
 C                     9.19488  -3.44961  -0.16972 
 C                     8.10262  -2.68718  -0.45184 
 C                     8.15216  -1.33274  -0.04207 
 C                     9.20386  -0.79885   0.62621 
 O                     9.19477   0.60982   0.97971 
 C                     10.36723   1.10091   1.61967 
 C                     10.34656  -1.59774   0.9679 
 C                     6.92188  -0.45759  -0.42959 
 C                     6.9541    0.71533  -1.17695 
 C                     5.58384   1.25485  -1.24137 
 C                     4.69384   0.44265  -0.61687 
 S                     5.35877  -0.90364   0.06327 
 C                     3.2673    0.64383  -0.5953 
 C                     2.32856  -0.22976  -1.09373 
 C                     0.98626  -0.05323  -1.13784 
 C                     0.46537   1.12023  -0.5048 
 C                     1.37564   2.0867   -0.00698 
 O                     0.75616   3.25746   0.5429 
 C                     1.66965   4.20211   1.10476 
 C                     2.66569   1.84591  -0.01781 
 C                    -1.02946   1.41235  -0.54658 
 C                    -1.68089   2.44811  -1.05893 
 C                    -3.08369   2.3043   -1.02802 
 C                    -3.49938   1.164    -0.3829 
 S                    -2.1244    0.18873   0.02064 
 C                    -4.86293   0.65322  -0.12881 
 C                    -5.87391   1.52939   0.32302 
 C                    -7.12642   1.00413   0.54478 
 C                    -7.44722  -0.2713    0.25023 
 C                    -6.50657  -1.17066  -0.15104 
 O                    -6.91317  -2.42348  -0.42028 
 C                    -5.92294  -3.36374  -0.809 
 C                    -5.20338  -0.65202  -0.40396 
 C                    -8.88977  -0.75599   0.59178 
 C                    -9.27124  -1.82229   1.39367 
 C                    -10.64757  -1.91915   1.39734 
 C                    -11.26852  -0.98524   0.63437 
 S                    -10.15507   0.05268  -0.16526 
 H                     11.11359  -3.58863   0.76124 
 H                     9.23124  -4.48953  -0.39473 
 H                     7.24871  -3.03926  -0.94182 
 H                     10.07729   2.20077   1.77084 
 H                     10.54298   0.66272   2.61251 
 H                     11.23903   1.08715   0.98104 
 H                     11.20927  -1.28406   1.48152 
 H                     7.82176   1.19112  -1.58574 
 H                     5.38361   2.13175  -1.82681 
 H                     2.7462   -1.13215  -1.60422 
 H                     0.2953   -0.71782  -1.58813 
 H                     2.29175   4.59239   0.42866 
 H                     2.2296    3.77109   1.97983 
 H                     1.05782   4.97696   1.49199 
 H                     3.46839   2.54155   0.39439 
 H                    -1.16998   3.38069  -1.49198 
 H                    -3.80176   3.10927  -1.41162 
 H                    -5.58025   2.50964   0.50716 
 H                    -7.85902   1.72667   0.97361 
 H                    -6.3603   -4.32996  -0.91874 
 H                    -5.42326  -3.17901  -1.7941 
 H                    -5.09723  -3.46449  -0.0055 
 H                    -4.41677  -1.31714  -0.85364 
 H                    -8.55841  -2.39752   1.98997 
 H                    -11.1808  -2.62594   2.00153 
 H                    -12.32879  -0.86829   0.54429 
 
 ITRead=  0  0  0  0  0  0  0  0  0  0  0  0  0  0  0  0  0  0  0  0
 ITRead=  0  0  0  0  0  0  0  0  0  0  0  0  0  0  0  0  0  0  0  0
 ITRead=  0  0  0  0  0  0  0  0  0  0  0  0  0  0  0  0  0  0  0  0
 ITRead=  0  0  0  0  0
 MicOpt= -1 -1 -1 -1 -1 -1 -1 -1 -1 -1 -1 -1 -1 -1 -1 -1 -1 -1 -1 -1
 MicOpt= -1 -1 -1 -1 -1 -1 -1 -1 -1 -1 -1 -1 -1 -1 -1 -1 -1 -1 -1 -1
 MicOpt= -1 -1 -1 -1 -1 -1 -1 -1 -1 -1 -1 -1 -1 -1 -1 -1 -1 -1 -1 -1
 MicOpt= -1 -1 -1 -1 -1
 NAtoms=     65 NQM=       65 NQMF=       0 NMMI=      0 NMMIF=      0
                NMic=       0 NMicF=      0.
                    Isotopes and Nuclear Properties:
 (Nuclear quadrupole moments (NQMom) in fm**2, nuclear magnetic moments (NMagM)
  in nuclear magnetons)

  Atom         1           2           3           4           5           6           7           8           9          10
 IAtWgt=          12          12          12          12          12          16          12          12          12          12
 AtmWgt=  12.0000000  12.0000000  12.0000000  12.0000000  12.0000000  15.9949146  12.0000000  12.0000000  12.0000000  12.0000000
 NucSpn=           0           0           0           0           0           0           0           0           0           0
 AtZEff=  -0.0000000  -0.0000000  -0.0000000  -0.0000000  -0.0000000  -0.0000000  -0.0000000  -0.0000000  -0.0000000  -0.0000000
 NQMom=    0.0000000   0.0000000   0.0000000   0.0000000   0.0000000   0.0000000   0.0000000   0.0000000   0.0000000   0.0000000
 NMagM=    0.0000000   0.0000000   0.0000000   0.0000000   0.0000000   0.0000000   0.0000000   0.0000000   0.0000000   0.0000000
 AtZNuc=   6.0000000   6.0000000   6.0000000   6.0000000   6.0000000   8.0000000   6.0000000   6.0000000   6.0000000   6.0000000

  Atom        11          12          13          14          15          16          17          18          19          20
 IAtWgt=          12          12          32          12          12          12          12          12          16          12
 AtmWgt=  12.0000000  12.0000000  31.9720718  12.0000000  12.0000000  12.0000000  12.0000000  12.0000000  15.9949146  12.0000000
 NucSpn=           0           0           0           0           0           0           0           0           0           0
 AtZEff=  -0.0000000  -0.0000000  -0.0000000  -0.0000000  -0.0000000  -0.0000000  -0.0000000  -0.0000000  -0.0000000  -0.0000000
 NQMom=    0.0000000   0.0000000   0.0000000   0.0000000   0.0000000   0.0000000   0.0000000   0.0000000   0.0000000   0.0000000
 NMagM=    0.0000000   0.0000000   0.0000000   0.0000000   0.0000000   0.0000000   0.0000000   0.0000000   0.0000000   0.0000000
 AtZNuc=   6.0000000   6.0000000  16.0000000   6.0000000   6.0000000   6.0000000   6.0000000   6.0000000   8.0000000   6.0000000

  Atom        21          22          23          24          25          26          27          28          29          30
 IAtWgt=          12          12          12          12          12          32          12          12          12          12
 AtmWgt=  12.0000000  12.0000000  12.0000000  12.0000000  12.0000000  31.9720718  12.0000000  12.0000000  12.0000000  12.0000000
 NucSpn=           0           0           0           0           0           0           0           0           0           0
 AtZEff=  -0.0000000  -0.0000000  -0.0000000  -0.0000000  -0.0000000  -0.0000000  -0.0000000  -0.0000000  -0.0000000  -0.0000000
 NQMom=    0.0000000   0.0000000   0.0000000   0.0000000   0.0000000   0.0000000   0.0000000   0.0000000   0.0000000   0.0000000
 NMagM=    0.0000000   0.0000000   0.0000000   0.0000000   0.0000000   0.0000000   0.0000000   0.0000000   0.0000000   0.0000000
 AtZNuc=   6.0000000   6.0000000   6.0000000   6.0000000   6.0000000  16.0000000   6.0000000   6.0000000   6.0000000   6.0000000

  Atom        31          32          33          34          35          36          37          38          39          40
 IAtWgt=          12          16          12          12          12          12          12          12          32           1
 AtmWgt=  12.0000000  15.9949146  12.0000000  12.0000000  12.0000000  12.0000000  12.0000000  12.0000000  31.9720718   1.0078250
 NucSpn=           0           0           0           0           0           0           0           0           0           1
 AtZEff=  -0.0000000  -0.0000000  -0.0000000  -0.0000000  -0.0000000  -0.0000000  -0.0000000  -0.0000000  -0.0000000  -0.0000000
 NQMom=    0.0000000   0.0000000   0.0000000   0.0000000   0.0000000   0.0000000   0.0000000   0.0000000   0.0000000   0.0000000
 NMagM=    0.0000000   0.0000000   0.0000000   0.0000000   0.0000000   0.0000000   0.0000000   0.0000000   0.0000000   2.7928460
 AtZNuc=   6.0000000   8.0000000   6.0000000   6.0000000   6.0000000   6.0000000   6.0000000   6.0000000  16.0000000   1.0000000

  Atom        41          42          43          44          45          46          47          48          49          50
 IAtWgt=           1           1           1           1           1           1           1           1           1           1
 AtmWgt=   1.0078250   1.0078250   1.0078250   1.0078250   1.0078250   1.0078250   1.0078250   1.0078250   1.0078250   1.0078250
 NucSpn=           1           1           1           1           1           1           1           1           1           1
 AtZEff=  -0.0000000  -0.0000000  -0.0000000  -0.0000000  -0.0000000  -0.0000000  -0.0000000  -0.0000000  -0.0000000  -0.0000000
 NQMom=    0.0000000   0.0000000   0.0000000   0.0000000   0.0000000   0.0000000   0.0000000   0.0000000   0.0000000   0.0000000
 NMagM=    2.7928460   2.7928460   2.7928460   2.7928460   2.7928460   2.7928460   2.7928460   2.7928460   2.7928460   2.7928460
 AtZNuc=   1.0000000   1.0000000   1.0000000   1.0000000   1.0000000   1.0000000   1.0000000   1.0000000   1.0000000   1.0000000

  Atom        51          52          53          54          55          56          57          58          59          60
 IAtWgt=           1           1           1           1           1           1           1           1           1           1
 AtmWgt=   1.0078250   1.0078250   1.0078250   1.0078250   1.0078250   1.0078250   1.0078250   1.0078250   1.0078250   1.0078250
 NucSpn=           1           1           1           1           1           1           1           1           1           1
 AtZEff=  -0.0000000  -0.0000000  -0.0000000  -0.0000000  -0.0000000  -0.0000000  -0.0000000  -0.0000000  -0.0000000  -0.0000000
 NQMom=    0.0000000   0.0000000   0.0000000   0.0000000   0.0000000   0.0000000   0.0000000   0.0000000   0.0000000   0.0000000
 NMagM=    2.7928460   2.7928460   2.7928460   2.7928460   2.7928460   2.7928460   2.7928460   2.7928460   2.7928460   2.7928460
 AtZNuc=   1.0000000   1.0000000   1.0000000   1.0000000   1.0000000   1.0000000   1.0000000   1.0000000   1.0000000   1.0000000

  Atom        61          62          63          64          65
 IAtWgt=           1           1           1           1           1
 AtmWgt=   1.0078250   1.0078250   1.0078250   1.0078250   1.0078250
 NucSpn=           1           1           1           1           1
 AtZEff=  -0.0000000  -0.0000000  -0.0000000  -0.0000000  -0.0000000
 NQMom=    0.0000000   0.0000000   0.0000000   0.0000000   0.0000000
 NMagM=    2.7928460   2.7928460   2.7928460   2.7928460   2.7928460
 AtZNuc=   1.0000000   1.0000000   1.0000000   1.0000000   1.0000000
 Leave Link  101 at Thu Jul 23 17:01:26 2020, MaxMem=  4026531840 cpu:               2.9 elap:               0.4
 (Enter /opt/ohpc/pub/libs/gaussian/g16-A.03/sandybridge/g16/l103.exe)

 GradGradGradGradGradGradGradGradGradGradGradGradGradGradGradGradGradGrad
 Berny optimization.
 Initialization pass.
                           ----------------------------
                           !    Initial Parameters    !
                           ! (Angstroms and Degrees)  !
 --------------------------                            --------------------------
 ! Name  Definition              Value          Derivative Info.                !
 --------------------------------------------------------------------------------
 ! R1    R(1,2)                  1.3715         estimate D2E/DX2                !
 ! R2    R(1,8)                  1.426          estimate D2E/DX2                !
 ! R3    R(1,40)                 1.0863         estimate D2E/DX2                !
 ! R4    R(2,3)                  1.3616         estimate D2E/DX2                !
 ! R5    R(2,41)                 1.0646         estimate D2E/DX2                !
 ! R6    R(3,4)                  1.4159         estimate D2E/DX2                !
 ! R7    R(3,42)                 1.0456         estimate D2E/DX2                !
 ! R8    R(4,5)                  1.3556         estimate D2E/DX2                !
 ! R9    R(4,9)                  1.5587         estimate D2E/DX2                !
 ! R10   R(5,6)                  1.4524         estimate D2E/DX2                !
 ! R11   R(5,8)                  1.4355         estimate D2E/DX2                !
 ! R12   R(6,7)                  1.4232         estimate D2E/DX2                !
 ! R13   R(7,43)                 1.1474         estimate D2E/DX2                !
 ! R14   R(7,44)                 1.0994         estimate D2E/DX2                !
 ! R15   R(7,45)                 1.0808         estimate D2E/DX2                !
 ! R16   R(8,46)                 1.0519         estimate D2E/DX2                !
 ! R17   R(9,10)                 1.3912         estimate D2E/DX2                !
 ! R18   R(9,13)                 1.6986         estimate D2E/DX2                !
 ! R19   R(10,11)                1.4741         estimate D2E/DX2                !
 ! R20   R(10,47)                1.0707         estimate D2E/DX2                !
 ! R21   R(11,12)                1.3571         estimate D2E/DX2                !
 ! R22   R(11,48)                1.0732         estimate D2E/DX2                !
 ! R23   R(12,13)                1.6484         estimate D2E/DX2                !
 ! R24   R(12,14)                1.4408         estimate D2E/DX2                !
 ! R25   R(14,15)                1.3758         estimate D2E/DX2                !
 ! R26   R(14,21)                1.463          estimate D2E/DX2                !
 ! R27   R(15,16)                1.3546         estimate D2E/DX2                !
 ! R28   R(15,49)                1.1177         estimate D2E/DX2                !
 ! R29   R(16,17)                1.4315         estimate D2E/DX2                !
 ! R30   R(16,50)                1.0592         estimate D2E/DX2                !
 ! R31   R(17,18)                1.4179         estimate D2E/DX2                !
 ! R32   R(17,22)                1.5237         estimate D2E/DX2                !
 ! R33   R(18,19)                1.4342         estimate D2E/DX2                !
 ! R34   R(18,21)                1.3124         estimate D2E/DX2                !
 ! R35   R(19,20)                1.4292         estimate D2E/DX2                !
 ! R36   R(20,51)                0.9982         estimate D2E/DX2                !
 ! R37   R(20,52)                1.1247         estimate D2E/DX2                !
 ! R38   R(20,53)                1.0605         estimate D2E/DX2                !
 ! R39   R(21,54)                1.1394         estimate D2E/DX2                !
 ! R40   R(22,23)                1.3265         estimate D2E/DX2                !
 ! R41   R(22,26)                1.7372         estimate D2E/DX2                !
 ! R42   R(23,24)                1.4105         estimate D2E/DX2                !
 ! R43   R(23,55)                1.1482         estimate D2E/DX2                !
 ! R44   R(24,25)                1.3745         estimate D2E/DX2                !
 ! R45   R(24,56)                1.1449         estimate D2E/DX2                !
 ! R46   R(25,26)                1.7334         estimate D2E/DX2                !
 ! R47   R(25,27)                1.4781         estimate D2E/DX2                !
 ! R48   R(27,28)                1.4121         estimate D2E/DX2                !
 ! R49   R(27,34)                1.3767         estimate D2E/DX2                !
 ! R50   R(28,29)                1.3762         estimate D2E/DX2                !
 ! R51   R(28,57)                1.0397         estimate D2E/DX2                !
 ! R52   R(29,30)                1.3477         estimate D2E/DX2                !
 ! R53   R(29,58)                1.1147         estimate D2E/DX2                !
 ! R54   R(30,31)                1.3619         estimate D2E/DX2                !
 ! R55   R(30,35)                1.5597         estimate D2E/DX2                !
 ! R56   R(31,32)                1.3444         estimate D2E/DX2                !
 ! R57   R(31,34)                1.4252         estimate D2E/DX2                !
 ! R58   R(32,33)                1.4198         estimate D2E/DX2                !
 ! R59   R(33,59)                1.0663         estimate D2E/DX2                !
 ! R60   R(33,60)                1.1199         estimate D2E/DX2                !
 ! R61   R(33,61)                1.1565         estimate D2E/DX2                !
 ! R62   R(34,62)                1.124          estimate D2E/DX2                !
 ! R63   R(35,36)                1.3876         estimate D2E/DX2                !
 ! R64   R(35,39)                1.6817         estimate D2E/DX2                !
 ! R65   R(36,37)                1.3797         estimate D2E/DX2                !
 ! R66   R(36,63)                1.093          estimate D2E/DX2                !
 ! R67   R(37,38)                1.3564         estimate D2E/DX2                !
 ! R68   R(37,64)                1.0719         estimate D2E/DX2                !
 ! R69   R(38,39)                1.7194         estimate D2E/DX2                !
 ! R70   R(38,65)                1.0705         estimate D2E/DX2                !
 ! A1    A(2,1,8)              123.092          estimate D2E/DX2                !
 ! A2    A(2,1,40)             120.3709         estimate D2E/DX2                !
 ! A3    A(8,1,40)             116.4789         estimate D2E/DX2                !
 ! A4    A(1,2,3)              121.8677         estimate D2E/DX2                !
 ! A5    A(1,2,41)             115.7881         estimate D2E/DX2                !
 ! A6    A(3,2,41)             122.0447         estimate D2E/DX2                !
 ! A7    A(2,3,4)              116.5906         estimate D2E/DX2                !
 ! A8    A(2,3,42)             124.3111         estimate D2E/DX2                !
 ! A9    A(4,3,42)             119.0983         estimate D2E/DX2                !
 ! A10   A(3,4,5)              123.1297         estimate D2E/DX2                !
 ! A11   A(3,4,9)              115.9447         estimate D2E/DX2                !
 ! A12   A(5,4,9)              120.9153         estimate D2E/DX2                !
 ! A13   A(4,5,6)              119.8092         estimate D2E/DX2                !
 ! A14   A(4,5,8)              121.0456         estimate D2E/DX2                !
 ! A15   A(6,5,8)              119.1313         estimate D2E/DX2                !
 ! A16   A(5,6,7)              116.0385         estimate D2E/DX2                !
 ! A17   A(6,7,43)             100.4765         estimate D2E/DX2                !
 ! A18   A(6,7,44)             113.5942         estimate D2E/DX2                !
 ! A19   A(6,7,45)             113.2313         estimate D2E/DX2                !
 ! A20   A(43,7,44)            107.6656         estimate D2E/DX2                !
 ! A21   A(43,7,45)            107.0903         estimate D2E/DX2                !
 ! A22   A(44,7,45)            113.5546         estimate D2E/DX2                !
 ! A23   A(1,8,5)              114.1808         estimate D2E/DX2                !
 ! A24   A(1,8,46)             118.7246         estimate D2E/DX2                !
 ! A25   A(5,8,46)             127.0939         estimate D2E/DX2                !
 ! A26   A(4,9,10)             126.0613         estimate D2E/DX2                !
 ! A27   A(4,9,13)             120.4483         estimate D2E/DX2                !
 ! A28   A(10,9,13)            113.4904         estimate D2E/DX2                !
 ! A29   A(9,10,11)            108.0917         estimate D2E/DX2                !
 ! A30   A(9,10,47)            126.767          estimate D2E/DX2                !
 ! A31   A(11,10,47)           125.029          estimate D2E/DX2                !
 ! A32   A(10,11,12)           111.744          estimate D2E/DX2                !
 ! A33   A(10,11,48)           119.7577         estimate D2E/DX2                !
 ! A34   A(12,11,48)           128.1464         estimate D2E/DX2                !
 ! A35   A(11,12,13)           114.4642         estimate D2E/DX2                !
 ! A36   A(11,12,14)           124.9332         estimate D2E/DX2                !
 ! A37   A(13,12,14)           120.4806         estimate D2E/DX2                !
 ! A38   A(9,13,12)             92.1214         estimate D2E/DX2                !
 ! A39   A(12,14,15)           125.5547         estimate D2E/DX2                !
 ! A40   A(12,14,21)           121.8551         estimate D2E/DX2                !
 ! A41   A(15,14,21)           112.5902         estimate D2E/DX2                !
 ! A42   A(14,15,16)           127.2425         estimate D2E/DX2                !
 ! A43   A(14,15,49)           115.0334         estimate D2E/DX2                !
 ! A44   A(16,15,49)           117.4257         estimate D2E/DX2                !
 ! A45   A(15,16,17)           116.9379         estimate D2E/DX2                !
 ! A46   A(15,16,50)           125.3462         estimate D2E/DX2                !
 ! A47   A(17,16,50)           117.7093         estimate D2E/DX2                !
 ! A48   A(16,17,18)           118.7124         estimate D2E/DX2                !
 ! A49   A(16,17,22)           120.1351         estimate D2E/DX2                !
 ! A50   A(18,17,22)           120.5823         estimate D2E/DX2                !
 ! A51   A(17,18,19)           114.4401         estimate D2E/DX2                !
 ! A52   A(17,18,21)           120.2056         estimate D2E/DX2                !
 ! A53   A(19,18,21)           125.2778         estimate D2E/DX2                !
 ! A54   A(18,19,20)           114.4709         estimate D2E/DX2                !
 ! A55   A(19,20,51)           112.9851         estimate D2E/DX2                !
 ! A56   A(19,20,52)           111.7644         estimate D2E/DX2                !
 ! A57   A(19,20,53)           104.9358         estimate D2E/DX2                !
 ! A58   A(51,20,52)           111.5008         estimate D2E/DX2                !
 ! A59   A(51,20,53)           108.7346         estimate D2E/DX2                !
 ! A60   A(52,20,53)           106.4468         estimate D2E/DX2                !
 ! A61   A(14,21,18)           123.9333         estimate D2E/DX2                !
 ! A62   A(14,21,54)           110.7781         estimate D2E/DX2                !
 ! A63   A(18,21,54)           125.2768         estimate D2E/DX2                !
 ! A64   A(17,22,23)           129.9462         estimate D2E/DX2                !
 ! A65   A(17,22,26)           118.318          estimate D2E/DX2                !
 ! A66   A(23,22,26)           111.5036         estimate D2E/DX2                !
 ! A67   A(22,23,24)           113.5985         estimate D2E/DX2                !
 ! A68   A(22,23,55)           124.1495         estimate D2E/DX2                !
 ! A69   A(24,23,55)           122.252          estimate D2E/DX2                !
 ! A70   A(23,24,25)           113.3067         estimate D2E/DX2                !
 ! A71   A(23,24,56)           123.0072         estimate D2E/DX2                !
 ! A72   A(25,24,56)           123.4273         estimate D2E/DX2                !
 ! A73   A(24,25,26)           109.642          estimate D2E/DX2                !
 ! A74   A(24,25,27)           130.2679         estimate D2E/DX2                !
 ! A75   A(26,25,27)           119.8232         estimate D2E/DX2                !
 ! A76   A(22,26,25)            91.5847         estimate D2E/DX2                !
 ! A77   A(25,27,28)           120.0704         estimate D2E/DX2                !
 ! A78   A(25,27,34)           121.4272         estimate D2E/DX2                !
 ! A79   A(28,27,34)           118.3717         estimate D2E/DX2                !
 ! A80   A(27,28,29)           117.7979         estimate D2E/DX2                !
 ! A81   A(27,28,57)           116.0695         estimate D2E/DX2                !
 ! A82   A(29,28,57)           126.0408         estimate D2E/DX2                !
 ! A83   A(28,29,30)           122.8626         estimate D2E/DX2                !
 ! A84   A(28,29,58)           114.3767         estimate D2E/DX2                !
 ! A85   A(30,29,58)           122.7539         estimate D2E/DX2                !
 ! A86   A(29,30,31)           121.6646         estimate D2E/DX2                !
 ! A87   A(29,30,35)           117.8005         estimate D2E/DX2                !
 ! A88   A(31,30,35)           119.8769         estimate D2E/DX2                !
 ! A89   A(30,31,32)           117.7438         estimate D2E/DX2                !
 ! A90   A(30,31,34)           116.3293         estimate D2E/DX2                !
 ! A91   A(32,31,34)           125.4596         estimate D2E/DX2                !
 ! A92   A(31,32,33)           117.4546         estimate D2E/DX2                !
 ! A93   A(32,33,59)           110.0122         estimate D2E/DX2                !
 ! A94   A(32,33,60)           116.281          estimate D2E/DX2                !
 ! A95   A(32,33,61)           111.4341         estimate D2E/DX2                !
 ! A96   A(59,33,60)           104.0022         estimate D2E/DX2                !
 ! A97   A(59,33,61)           106.5838         estimate D2E/DX2                !
 ! A98   A(60,33,61)           107.8745         estimate D2E/DX2                !
 ! A99   A(27,34,31)           122.3898         estimate D2E/DX2                !
 ! A100  A(27,34,62)           117.9            estimate D2E/DX2                !
 ! A101  A(31,34,62)           119.7073         estimate D2E/DX2                !
 ! A102  A(30,35,36)           128.2879         estimate D2E/DX2                !
 ! A103  A(30,35,39)           116.6081         estimate D2E/DX2                !
 ! A104  A(36,35,39)           115.0131         estimate D2E/DX2                !
 ! A105  A(35,36,37)           109.2509         estimate D2E/DX2                !
 ! A106  A(35,36,63)           122.7118         estimate D2E/DX2                !
 ! A107  A(37,36,63)           127.7474         estimate D2E/DX2                !
 ! A108  A(36,37,38)           114.0055         estimate D2E/DX2                !
 ! A109  A(36,37,64)           122.958          estimate D2E/DX2                !
 ! A110  A(38,37,64)           122.9102         estimate D2E/DX2                !
 ! A111  A(37,38,39)           112.3801         estimate D2E/DX2                !
 ! A112  A(37,38,65)           125.1673         estimate D2E/DX2                !
 ! A113  A(39,38,65)           122.432          estimate D2E/DX2                !
 ! A114  A(35,39,38)            89.2897         estimate D2E/DX2                !
 ! D1    D(8,1,2,3)             -3.6646         estimate D2E/DX2                !
 ! D2    D(8,1,2,41)          -177.498          estimate D2E/DX2                !
 ! D3    D(40,1,2,3)           179.2078         estimate D2E/DX2                !
 ! D4    D(40,1,2,41)            5.3744         estimate D2E/DX2                !
 ! D5    D(2,1,8,5)              1.627          estimate D2E/DX2                !
 ! D6    D(2,1,8,46)          -178.0991         estimate D2E/DX2                !
 ! D7    D(40,1,8,5)           178.8584         estimate D2E/DX2                !
 ! D8    D(40,1,8,46)           -0.8677         estimate D2E/DX2                !
 ! D9    D(1,2,3,4)              3.4471         estimate D2E/DX2                !
 ! D10   D(1,2,3,42)          -176.463          estimate D2E/DX2                !
 ! D11   D(41,2,3,4)           176.8949         estimate D2E/DX2                !
 ! D12   D(41,2,3,42)           -3.0152         estimate D2E/DX2                !
 ! D13   D(2,3,4,5)             -1.5215         estimate D2E/DX2                !
 ! D14   D(2,3,4,9)            177.3213         estimate D2E/DX2                !
 ! D15   D(42,3,4,5)           178.3936         estimate D2E/DX2                !
 ! D16   D(42,3,4,9)            -2.7637         estimate D2E/DX2                !
 ! D17   D(3,4,5,6)            178.3027         estimate D2E/DX2                !
 ! D18   D(3,4,5,8)             -0.3246         estimate D2E/DX2                !
 ! D19   D(9,4,5,6)             -0.4844         estimate D2E/DX2                !
 ! D20   D(9,4,5,8)           -179.1117         estimate D2E/DX2                !
 ! D21   D(3,4,9,10)          -122.8497         estimate D2E/DX2                !
 ! D22   D(3,4,9,13)            57.0949         estimate D2E/DX2                !
 ! D23   D(5,4,9,10)            56.0207         estimate D2E/DX2                !
 ! D24   D(5,4,9,13)          -124.0347         estimate D2E/DX2                !
 ! D25   D(4,5,6,7)           -176.9345         estimate D2E/DX2                !
 ! D26   D(8,5,6,7)              1.7191         estimate D2E/DX2                !
 ! D27   D(4,5,8,1)              0.3054         estimate D2E/DX2                !
 ! D28   D(4,5,8,46)          -179.9957         estimate D2E/DX2                !
 ! D29   D(6,5,8,1)           -178.331          estimate D2E/DX2                !
 ! D30   D(6,5,8,46)             1.3678         estimate D2E/DX2                !
 ! D31   D(5,6,7,43)           179.9769         estimate D2E/DX2                !
 ! D32   D(5,6,7,44)           -65.3448         estimate D2E/DX2                !
 ! D33   D(5,6,7,45)            66.1105         estimate D2E/DX2                !
 ! D34   D(4,9,10,11)         -176.8578         estimate D2E/DX2                !
 ! D35   D(4,9,10,47)           -0.5763         estimate D2E/DX2                !
 ! D36   D(13,9,10,11)           3.1943         estimate D2E/DX2                !
 ! D37   D(13,9,10,47)         179.4758         estimate D2E/DX2                !
 ! D38   D(4,9,13,12)          177.6171         estimate D2E/DX2                !
 ! D39   D(10,9,13,12)          -2.4317         estimate D2E/DX2                !
 ! D40   D(9,10,11,12)          -2.5778         estimate D2E/DX2                !
 ! D41   D(9,10,11,48)        -176.311          estimate D2E/DX2                !
 ! D42   D(47,10,11,12)       -178.9402         estimate D2E/DX2                !
 ! D43   D(47,10,11,48)          7.3266         estimate D2E/DX2                !
 ! D44   D(10,11,12,13)          0.8946         estimate D2E/DX2                !
 ! D45   D(10,11,12,14)       -175.0873         estimate D2E/DX2                !
 ! D46   D(48,11,12,13)        173.9738         estimate D2E/DX2                !
 ! D47   D(48,11,12,14)         -2.008          estimate D2E/DX2                !
 ! D48   D(11,12,13,9)           0.8163         estimate D2E/DX2                !
 ! D49   D(14,12,13,9)         176.9942         estimate D2E/DX2                !
 ! D50   D(11,12,14,15)        119.438          estimate D2E/DX2                !
 ! D51   D(11,12,14,21)        -60.5251         estimate D2E/DX2                !
 ! D52   D(13,12,14,15)        -56.3177         estimate D2E/DX2                !
 ! D53   D(13,12,14,21)        123.7192         estimate D2E/DX2                !
 ! D54   D(12,14,15,16)       -177.2613         estimate D2E/DX2                !
 ! D55   D(12,14,15,49)         -3.7467         estimate D2E/DX2                !
 ! D56   D(21,14,15,16)          2.7048         estimate D2E/DX2                !
 ! D57   D(21,14,15,49)        176.2194         estimate D2E/DX2                !
 ! D58   D(12,14,21,18)        178.1908         estimate D2E/DX2                !
 ! D59   D(12,14,21,54)         -0.6137         estimate D2E/DX2                !
 ! D60   D(15,14,21,18)         -1.7767         estimate D2E/DX2                !
 ! D61   D(15,14,21,54)        179.4188         estimate D2E/DX2                !
 ! D62   D(14,15,16,17)         -5.3536         estimate D2E/DX2                !
 ! D63   D(14,15,16,50)        175.6106         estimate D2E/DX2                !
 ! D64   D(49,15,16,17)       -178.7328         estimate D2E/DX2                !
 ! D65   D(49,15,16,50)          2.2314         estimate D2E/DX2                !
 ! D66   D(15,16,17,18)          6.7838         estimate D2E/DX2                !
 ! D67   D(15,16,17,22)        178.1772         estimate D2E/DX2                !
 ! D68   D(50,16,17,18)       -174.1045         estimate D2E/DX2                !
 ! D69   D(50,16,17,22)         -2.7111         estimate D2E/DX2                !
 ! D70   D(16,17,18,19)        176.7648         estimate D2E/DX2                !
 ! D71   D(16,17,18,21)         -6.2506         estimate D2E/DX2                !
 ! D72   D(22,17,18,19)          5.4111         estimate D2E/DX2                !
 ! D73   D(22,17,18,21)       -177.6043         estimate D2E/DX2                !
 ! D74   D(16,17,22,23)       -119.4141         estimate D2E/DX2                !
 ! D75   D(16,17,22,26)         54.5283         estimate D2E/DX2                !
 ! D76   D(18,17,22,23)         51.8167         estimate D2E/DX2                !
 ! D77   D(18,17,22,26)       -134.2409         estimate D2E/DX2                !
 ! D78   D(17,18,19,20)        177.0467         estimate D2E/DX2                !
 ! D79   D(21,18,19,20)          0.2391         estimate D2E/DX2                !
 ! D80   D(17,18,21,14)          3.7765         estimate D2E/DX2                !
 ! D81   D(17,18,21,54)       -177.5927         estimate D2E/DX2                !
 ! D82   D(19,18,21,14)       -179.5866         estimate D2E/DX2                !
 ! D83   D(19,18,21,54)         -0.9558         estimate D2E/DX2                !
 ! D84   D(18,19,20,51)         63.6839         estimate D2E/DX2                !
 ! D85   D(18,19,20,52)        -63.045          estimate D2E/DX2                !
 ! D86   D(18,19,20,53)       -178.0068         estimate D2E/DX2                !
 ! D87   D(17,22,23,24)        173.8804         estimate D2E/DX2                !
 ! D88   D(17,22,23,55)         -6.0488         estimate D2E/DX2                !
 ! D89   D(26,22,23,24)         -0.3891         estimate D2E/DX2                !
 ! D90   D(26,22,23,55)        179.6817         estimate D2E/DX2                !
 ! D91   D(17,22,26,25)       -177.8257         estimate D2E/DX2                !
 ! D92   D(23,22,26,25)         -2.8141         estimate D2E/DX2                !
 ! D93   D(22,23,24,25)          4.5733         estimate D2E/DX2                !
 ! D94   D(22,23,24,56)        178.9068         estimate D2E/DX2                !
 ! D95   D(55,23,24,25)       -175.4959         estimate D2E/DX2                !
 ! D96   D(55,23,24,56)         -1.1624         estimate D2E/DX2                !
 ! D97   D(23,24,25,26)         -6.4752         estimate D2E/DX2                !
 ! D98   D(23,24,25,27)        179.6001         estimate D2E/DX2                !
 ! D99   D(56,24,25,26)        179.2186         estimate D2E/DX2                !
 ! D100  D(56,24,25,27)          5.294          estimate D2E/DX2                !
 ! D101  D(24,25,26,22)          5.2484         estimate D2E/DX2                !
 ! D102  D(27,25,26,22)        179.9073         estimate D2E/DX2                !
 ! D103  D(24,25,27,28)        -44.3828         estimate D2E/DX2                !
 ! D104  D(24,25,27,34)        131.3919         estimate D2E/DX2                !
 ! D105  D(26,25,27,28)        142.2147         estimate D2E/DX2                !
 ! D106  D(26,25,27,34)        -42.0105         estimate D2E/DX2                !
 ! D107  D(25,27,28,29)       -179.994          estimate D2E/DX2                !
 ! D108  D(25,27,28,57)         -3.2661         estimate D2E/DX2                !
 ! D109  D(34,27,28,29)          4.1033         estimate D2E/DX2                !
 ! D110  D(34,27,28,57)       -179.1688         estimate D2E/DX2                !
 ! D111  D(25,27,34,31)        179.1701         estimate D2E/DX2                !
 ! D112  D(25,27,34,62)         -1.4484         estimate D2E/DX2                !
 ! D113  D(28,27,34,31)         -4.9855         estimate D2E/DX2                !
 ! D114  D(28,27,34,62)        174.396          estimate D2E/DX2                !
 ! D115  D(27,28,29,30)         -5.3743         estimate D2E/DX2                !
 ! D116  D(27,28,29,58)        175.5572         estimate D2E/DX2                !
 ! D117  D(57,28,29,30)        178.2611         estimate D2E/DX2                !
 ! D118  D(57,28,29,58)         -0.8074         estimate D2E/DX2                !
 ! D119  D(28,29,30,31)          7.4432         estimate D2E/DX2                !
 ! D120  D(28,29,30,35)        178.1292         estimate D2E/DX2                !
 ! D121  D(58,29,30,31)       -173.5657         estimate D2E/DX2                !
 ! D122  D(58,29,30,35)         -2.8797         estimate D2E/DX2                !
 ! D123  D(29,30,31,32)        179.7753         estimate D2E/DX2                !
 ! D124  D(29,30,31,34)         -7.6348         estimate D2E/DX2                !
 ! D125  D(35,30,31,32)          9.2787         estimate D2E/DX2                !
 ! D126  D(35,30,31,34)       -178.1313         estimate D2E/DX2                !
 ! D127  D(29,30,35,36)       -122.9221         estimate D2E/DX2                !
 ! D128  D(29,30,35,39)         60.7464         estimate D2E/DX2                !
 ! D129  D(31,30,35,36)         47.9369         estimate D2E/DX2                !
 ! D130  D(31,30,35,39)       -128.3946         estimate D2E/DX2                !
 ! D131  D(30,31,32,33)       -178.6151         estimate D2E/DX2                !
 ! D132  D(34,31,32,33)          9.5434         estimate D2E/DX2                !
 ! D133  D(30,31,34,27)          6.6163         estimate D2E/DX2                !
 ! D134  D(30,31,34,62)       -172.7544         estimate D2E/DX2                !
 ! D135  D(32,31,34,27)        178.5607         estimate D2E/DX2                !
 ! D136  D(32,31,34,62)         -0.81           estimate D2E/DX2                !
 ! D137  D(31,32,33,59)        175.6078         estimate D2E/DX2                !
 ! D138  D(31,32,33,60)        -66.5494         estimate D2E/DX2                !
 ! D139  D(31,32,33,61)         57.6182         estimate D2E/DX2                !
 ! D140  D(30,35,36,37)       -178.4265         estimate D2E/DX2                !
 ! D141  D(30,35,36,63)          7.3201         estimate D2E/DX2                !
 ! D142  D(39,35,36,37)         -2.0459         estimate D2E/DX2                !
 ! D143  D(39,35,36,63)       -176.2993         estimate D2E/DX2                !
 ! D144  D(30,35,39,38)        179.1789         estimate D2E/DX2                !
 ! D145  D(36,35,39,38)          2.3559         estimate D2E/DX2                !
 ! D146  D(35,36,37,38)          0.4169         estimate D2E/DX2                !
 ! D147  D(35,36,37,64)       -175.6033         estimate D2E/DX2                !
 ! D148  D(63,36,37,38)        174.3007         estimate D2E/DX2                !
 ! D149  D(63,36,37,64)         -1.7195         estimate D2E/DX2                !
 ! D150  D(36,37,38,39)          1.3094         estimate D2E/DX2                !
 ! D151  D(36,37,38,65)       -177.0653         estimate D2E/DX2                !
 ! D152  D(64,37,38,39)        177.3317         estimate D2E/DX2                !
 ! D153  D(64,37,38,65)         -1.043          estimate D2E/DX2                !
 ! D154  D(37,38,39,35)         -2.0469         estimate D2E/DX2                !
 ! D155  D(65,38,39,35)        176.3789         estimate D2E/DX2                !
 --------------------------------------------------------------------------------
 Trust Radius=3.00D-01 FncErr=1.00D-07 GrdErr=1.00D-06 EigMax=2.50D+02 EigMin=1.00D-04
 Number of steps in this run=    349 maximum allowed number of steps=    390.
 GradGradGradGradGradGradGradGradGradGradGradGradGradGradGradGradGradGrad

 Leave Link  103 at Thu Jul 23 17:01:27 2020, MaxMem=  4026531840 cpu:               0.2 elap:               0.0
 (Enter /opt/ohpc/pub/libs/gaussian/g16-A.03/sandybridge/g16/l202.exe)
 Stoichiometry    C33H26O3S3
 Framework group  C1[X(C33H26O3S3)]
 Deg. of freedom   189
 Full point group                 C1      NOp   1
 Largest Abelian subgroup         C1      NOp   1
 Largest concise Abelian subgroup C1      NOp   1
                         Standard orientation:                         
 ---------------------------------------------------------------------
 Center     Atomic      Atomic             Coordinates (Angstroms)
 Number     Number       Type             X           Y           Z
 ---------------------------------------------------------------------
      1          6           0       10.262543   -2.952590    0.542142
      2          6           0        9.197483   -3.447217   -0.166372
      3          6           0        8.105321   -2.684653   -0.448486
      4          6           0        8.155025   -1.330225   -0.038720
      5          6           0        9.206791   -0.796463    0.629561
      6          8           0        9.197873    0.612210    0.983059
      7          6           0       10.370397    1.103152    1.623015
      8          6           0       10.349396   -1.595488    0.971251
      9          6           0        6.924853   -0.454924   -0.426240
     10          6           0        6.957216    0.717990   -1.173606
     11          6           0        5.587018    1.257682   -1.238023
     12          6           0        4.696926    0.445590   -0.613521
     13         16           0        5.361688   -0.900777    0.066614
     14          6           0        3.270412    0.646947   -0.591955
     15          6           0        2.331565   -0.226527   -1.090376
     16          6           0        0.989285   -0.049830   -1.134494
     17          6           0        0.468533    1.123691   -0.501455
     18          6           0        1.378926    2.090044   -0.003629
     19          8           0        0.759589    3.260887    0.546251
     20          6           0        1.673188    4.205416    1.108113
     21          6           0        2.668945    1.849096   -0.014456
     22          6           0       -1.026258    1.415990   -0.543230
     23          6           0       -1.677565    2.451835   -1.055586
     24          6           0       -3.080378    2.308190   -1.024674
     25          6           0       -3.496205    1.167943   -0.379548
     26         16           0       -2.121344    0.192507    0.023985
     27          6           0       -4.859822    0.657328   -0.125459
     28          6           0       -5.870689    1.533626    0.326366
     29          6           0       -7.123264    1.008520    0.548125
     30          6           0       -7.444220   -0.266873    0.253583
     31          6           0       -6.503682   -1.166352   -0.147692
     32          8           0       -6.910436   -2.419115   -0.416934
     33          6           0       -5.920323   -3.359497   -0.805652
     34          6           0       -5.200436   -0.647864   -0.400615
     35          6           0       -8.886837   -0.751390    0.595128
     36          6           0       -9.268432   -1.817636    1.397020
     37          6           0      -10.644779   -1.914328    1.400688
     38          6           0      -11.265615   -0.980345    0.637722
     39         16           0      -10.152032    0.057438   -0.161914
     40          1           0       11.116182   -3.586473    0.764588
     41          1           0        9.233717   -4.487142   -0.391385
     42          1           0        7.251366   -3.036633   -0.938473
     43          1           0       10.080593    2.203047    1.774193
     44          1           0       10.546085    0.664941    2.615857
     45          1           0       11.242191    1.089289    0.984384
     46          1           0       11.212143   -1.281914    1.484870
     47          1           0        7.824930    1.193675   -1.582395
     48          1           0        5.386896    2.134610   -1.823456
     49          1           0        2.749092   -1.128967   -1.600873
     50          1           0        0.298242   -0.714338   -1.584779
     51          1           0        2.295342    4.595626    0.432005
     52          1           0        2.233089    3.774335    1.983180
     53          1           0        1.061458    4.980342    1.495343
     54          1           0        3.471731    2.544637    0.397735
     55          1           0       -1.166537    3.384350   -1.488633
     56          1           0       -3.798348    3.113255   -1.408267
     57          1           0       -5.576918    2.513835    0.510505
     58          1           0       -7.855779    1.731149    0.976954
     59          1           0       -6.357804   -4.325666   -0.915391
     60          1           0       -5.420623   -3.174826   -1.790749
     61          1           0       -5.094622   -3.460348   -0.002154
     62          1           0       -4.413903   -1.313082   -0.850288
     63          1           0       -8.555677   -2.392956    1.993318
     64          1           0      -11.178089   -2.621055    2.004880
     65          1           0      -12.325866   -0.863261    0.547641
 ---------------------------------------------------------------------
 Rotational constants (GHZ):           0.2428714           0.0192619           0.0182662
 Leave Link  202 at Thu Jul 23 17:01:27 2020, MaxMem=  4026531840 cpu:               0.1 elap:               0.0
 (Enter /opt/ohpc/pub/libs/gaussian/g16-A.03/sandybridge/g16/l301.exe)
 Standard basis: CC-pVDZ (5D, 7F)
 Ernie: Thresh=  0.10000D-02 Tol=  0.10000D-05 Strict=F.
 Ernie:  102 primitive shells out of 1072 were deleted.
 There are   727 symmetry adapted cartesian basis functions of A   symmetry.
 There are   688 symmetry adapted basis functions of A   symmetry.
   688 basis functions,  1583 primitive gaussians,   727 cartesian basis functions
   148 alpha electrons      148 beta electrons
       nuclear repulsion energy      4187.0254395728 Hartrees.
 IExCor=32609 DFT=T Ex+Corr=LC-wPBE ExCW=0 ScaHFX=  1.000000
 ScaDFX=  1.000000  0.000000  1.000000  1.000000 ScalE2=  1.000000  1.000000
 IRadAn=      5 IRanWt=     -1 IRanGd=            0 ICorTp=0 IEmpDi=  4
 HFx  wShort=  0.000000 wLong=  0.369500 cFull=  0.000000 cShort=  0.000000 cLong=  1.000000
 DFx  wShort=  0.000000 wLong=  0.369500 cFull=  0.000000 cShort=  0.000000 cLong=  1.000000
 NAtoms=   65 NActive=   65 NUniq=   65 SFac= 1.00D+00 NAtFMM=   60 NAOKFM=T Big=T
 Integral buffers will be    131072 words long.
 Raffenetti 2 integral format.
 Two-electron integral symmetry is turned on.
 Leave Link  301 at Thu Jul 23 17:01:27 2020, MaxMem=  4026531840 cpu:               0.4 elap:               0.1
 (Enter /opt/ohpc/pub/libs/gaussian/g16-A.03/sandybridge/g16/l302.exe)
 NPDir=0 NMtPBC=     1 NCelOv=     1 NCel=       1 NClECP=     1 NCelD=      1
         NCelK=      1 NCelE2=     1 NClLst=     1 CellRange=     0.0.
 One-electron integrals computed using PRISM.
 One-electron integral symmetry used in STVInt
 NBasis=   688 RedAO= T EigKep=  2.59D-04  NBF=   688
 NBsUse=   688 1.00D-06 EigRej= -1.00D+00 NBFU=   688
 Precomputing XC quadrature grid using
 IXCGrd= 4 IRadAn=           5 IRanWt=          -1 IRanGd=           0 AccXCQ= 0.00D+00.
 Generated NRdTot=       0 NPtTot=           0 NUsed=           0 NTot=          32
 NSgBfM=   648   648   648   648   648 MxSgAt=    65 MxSgA2=    65.
 Leave Link  302 at Thu Jul 23 17:01:28 2020, MaxMem=  4026531840 cpu:              13.4 elap:               1.7
 (Enter /opt/ohpc/pub/libs/gaussian/g16-A.03/sandybridge/g16/l303.exe)
 DipDrv:  MaxL=1.
 Leave Link  303 at Thu Jul 23 17:01:29 2020, MaxMem=  4026531840 cpu:               1.0 elap:               0.2
 (Enter /opt/ohpc/pub/libs/gaussian/g16-A.03/sandybridge/g16/l401.exe)
 ExpMin= 1.22D-01 ExpMax= 1.11D+05 ExpMxC= 1.07D+03 IAcc=3 IRadAn=         5 AccDes= 0.00D+00
 Harris functional with IExCor=32609 and IRadAn=       5 diagonalized for initial guess.
 HarFok:  IExCor=32609 AccDes= 0.00D+00 IRadAn=         5 IDoV= 1 UseB2=F ITyADJ=14
 ICtDFT=  3500011 ScaDFX=  1.000000  1.000000  1.000000  1.000000
 FoFCou: FMM=F IPFlag=           0 FMFlag=      100000 FMFlg1=        2001
         NFxFlg=           0 DoJE=T BraDBF=F KetDBF=T FulRan=T
         wScrn=  0.000000 ICntrl=       500 IOpCl=  0 I1Cent=   200000004 NGrid=           0
         NMat0=    1 NMatS0=      1 NMatT0=    0 NMatD0=    1 NMtDS0=    0 NMtDT0=    0
 Petite list used in FoFCou.
 Harris En= -2691.68900398867    
 JPrj=0 DoOrth=F DoCkMO=F.
 Initial guess <Sx>= 0.0000 <Sy>= 0.0000 <Sz>= 0.0000 <S**2>=-0.0000 S=-0.0000
 Leave Link  401 at Thu Jul 23 17:01:36 2020, MaxMem=  4026531840 cpu:              58.4 elap:               7.4
 (Enter /opt/ohpc/pub/libs/gaussian/g16-A.03/sandybridge/g16/l502.exe)
 Integral symmetry usage will be decided dynamically.
 UHF open shell SCF:
 Using DIIS extrapolation, IDIIS=  1040.
 NGot=  4026531840 LenX=  4025461411 LenY=  4024932155
 Requested convergence on RMS density matrix=1.00D-08 within 128 cycles.
 Requested convergence on MAX density matrix=1.00D-06.
 Requested convergence on             energy=1.00D-06.
 No special actions if energy rises.
 Fock matrices will be formed incrementally for  20 cycles.
 Integral accuracy reduced to 1.0D-05 until final iterations.

 Cycle   1  Pass 0  IDiag  1:
 FoFJK:  IHMeth= 1 ICntrl=       0 DoSepK=T KAlg= 0 I1Cent=           0 FoldK=F
 IRaf=         1 NMat=       1 IRICut=       1 DoRegI=T DoRafI=F ISym2E= 0 IDoP0=0 IntGTp=1.
 FoFCou: FMM=T IPFlag=           0 FMFlag=      100000 FMFlg1=        2001
         NFxFlg=           0 DoJE=T BraDBF=F KetDBF=F FulRan=T
         wScrn=  0.000000 ICntrl=       500 IOpCl=  0 I1Cent=           0 NGrid=           0
         NMat0=    1 NMatS0=      1 NMatT0=    0 NMatD0=    1 NMtDS0=    0 NMtDT0=    0
 Symmetry not used in FoFCou.
 FMM levels:  10  Number of levels for PrismC:   9
 E= -2690.94654441626    
 DIIS: error= 1.92D-02 at cycle   1 NSaved=   1.
 NSaved= 1 IEnMin= 1 EnMin= -2690.94654441626     IErMin= 1 ErrMin= 1.92D-02
 ErrMax= 1.92D-02  0.00D+00 EMaxC= 1.00D-01 BMatC= 3.23D+00 BMatP= 3.23D+00
 IDIUse=3 WtCom= 8.08D-01 WtEn= 1.92D-01
 Coeff-Com:  0.100D+01
 Coeff-En:   0.100D+01
 Coeff:      0.100D+01
 Gap=     0.425 Goal=   None    Shift=    0.000
 Gap=     0.425 Goal=   None    Shift=    0.000
 GapD=    0.425 DampG=2.000 DampE=0.500 DampFc=1.0000 IDamp=-1.
 RMSDP=2.74D-03 MaxDP=1.38D-01              OVMax= 2.32D-01

 Cycle   2  Pass 0  IDiag  1:
 RMSU=  2.70D-03    CP:  9.65D-01
 E= -2691.29533470353     Delta-E=       -0.348790287268 Rises=F Damp=F
 DIIS: error= 2.11D-02 at cycle   2 NSaved=   2.
 NSaved= 2 IEnMin= 2 EnMin= -2691.29533470353     IErMin= 1 ErrMin= 1.92D-02
 ErrMax= 2.11D-02  0.00D+00 EMaxC= 1.00D-01 BMatC= 2.26D+00 BMatP= 3.23D+00
 IDIUse=3 WtCom= 7.89D-01 WtEn= 2.11D-01
 Coeff-Com:  0.452D+00 0.548D+00
 Coeff-En:   0.362D+00 0.638D+00
 Coeff:      0.433D+00 0.567D+00
 Gap=     0.368 Goal=   None    Shift=    0.000
 Gap=     0.368 Goal=   None    Shift=    0.000
 RMSDP=1.36D-03 MaxDP=8.60D-02 DE=-3.49D-01 OVMax= 1.46D-01

 Cycle   3  Pass 0  IDiag  1:
 RMSU=  7.92D-04    CP:  9.70D-01  5.90D-01
 E= -2691.88214333432     Delta-E=       -0.586808630793 Rises=F Damp=F
 DIIS: error= 2.73D-03 at cycle   3 NSaved=   3.
 NSaved= 3 IEnMin= 3 EnMin= -2691.88214333432     IErMin= 3 ErrMin= 2.73D-03
 ErrMax= 2.73D-03  0.00D+00 EMaxC= 1.00D-01 BMatC= 5.40D-02 BMatP= 2.26D+00
 IDIUse=3 WtCom= 9.73D-01 WtEn= 2.73D-02
 Coeff-Com:  0.979D-01 0.174D+00 0.728D+00
 Coeff-En:   0.000D+00 0.000D+00 0.100D+01
 Coeff:      0.952D-01 0.170D+00 0.735D+00
 Gap=     0.314 Goal=   None    Shift=    0.000
 Gap=     0.314 Goal=   None    Shift=    0.000
 RMSDP=2.62D-04 MaxDP=1.50D-02 DE=-5.87D-01 OVMax= 4.02D-02

 Cycle   4  Pass 0  IDiag  1:
 RMSU=  2.11D-04    CP:  9.70D-01  6.31D-01  8.62D-01
 E= -2691.89617449918     Delta-E=       -0.014031164864 Rises=F Damp=F
 DIIS: error= 9.04D-04 at cycle   4 NSaved=   4.
 NSaved= 4 IEnMin= 4 EnMin= -2691.89617449918     IErMin= 4 ErrMin= 9.04D-04
 ErrMax= 9.04D-04  0.00D+00 EMaxC= 1.00D-01 BMatC= 9.20D-03 BMatP= 5.40D-02
 IDIUse=3 WtCom= 9.91D-01 WtEn= 9.04D-03
 Coeff-Com: -0.899D-02-0.229D-02 0.287D+00 0.725D+00
 Coeff-En:   0.000D+00 0.000D+00 0.000D+00 0.100D+01
 Coeff:     -0.891D-02-0.227D-02 0.284D+00 0.727D+00
 Gap=     0.315 Goal=   None    Shift=    0.000
 Gap=     0.315 Goal=   None    Shift=    0.000
 RMSDP=9.41D-05 MaxDP=4.99D-03 DE=-1.40D-02 OVMax= 9.43D-03

 Cycle   5  Pass 0  IDiag  1:
 RMSU=  6.50D-05    CP:  9.69D-01  6.27D-01  9.38D-01  8.68D-01
 E= -2691.89884665983     Delta-E=       -0.002672160648 Rises=F Damp=F
 DIIS: error= 2.64D-04 at cycle   5 NSaved=   5.
 NSaved= 5 IEnMin= 5 EnMin= -2691.89884665983     IErMin= 5 ErrMin= 2.64D-04
 ErrMax= 2.64D-04  0.00D+00 EMaxC= 1.00D-01 BMatC= 7.35D-04 BMatP= 9.20D-03
 IDIUse=3 WtCom= 9.97D-01 WtEn= 2.64D-03
 Coeff-Com: -0.114D-01-0.184D-01 0.435D-01 0.251D+00 0.735D+00
 Coeff-En:   0.000D+00 0.000D+00 0.000D+00 0.000D+00 0.100D+01
 Coeff:     -0.114D-01-0.183D-01 0.434D-01 0.250D+00 0.736D+00
 Gap=     0.316 Goal=   None    Shift=    0.000
 Gap=     0.316 Goal=   None    Shift=    0.000
 RMSDP=3.40D-05 MaxDP=1.85D-03 DE=-2.67D-03 OVMax= 4.97D-03

 Cycle   6  Pass 0  IDiag  1:
 RMSU=  2.66D-05    CP:  9.69D-01  6.26D-01  9.56D-01  9.42D-01  1.01D+00
 E= -2691.89913924939     Delta-E=       -0.000292589556 Rises=F Damp=F
 DIIS: error= 1.11D-04 at cycle   6 NSaved=   6.
 NSaved= 6 IEnMin= 6 EnMin= -2691.89913924939     IErMin= 6 ErrMin= 1.11D-04
 ErrMax= 1.11D-04  0.00D+00 EMaxC= 1.00D-01 BMatC= 1.33D-04 BMatP= 7.35D-04
 IDIUse=3 WtCom= 9.99D-01 WtEn= 1.11D-03
 Coeff-Com: -0.369D-02-0.871D-02-0.228D-01-0.883D-02 0.261D+00 0.783D+00
 Coeff-En:   0.000D+00 0.000D+00 0.000D+00 0.000D+00 0.000D+00 0.100D+01
 Coeff:     -0.369D-02-0.870D-02-0.228D-01-0.882D-02 0.260D+00 0.784D+00
 Gap=     0.317 Goal=   None    Shift=    0.000
 Gap=     0.317 Goal=   None    Shift=    0.000
 RMSDP=1.92D-05 MaxDP=1.13D-03 DE=-2.93D-04 OVMax= 3.51D-03

 Cycle   7  Pass 0  IDiag  1:
 RMSU=  1.32D-05    CP:  9.69D-01  6.26D-01  9.64D-01  9.66D-01  1.18D+00
                    CP:  1.10D+00
 E= -2691.89922076642     Delta-E=       -0.000081517034 Rises=F Damp=F
 DIIS: error= 6.37D-05 at cycle   7 NSaved=   7.
 NSaved= 7 IEnMin= 7 EnMin= -2691.89922076642     IErMin= 7 ErrMin= 6.37D-05
 ErrMax= 6.37D-05  0.00D+00 EMaxC= 1.00D-01 BMatC= 2.85D-05 BMatP= 1.33D-04
 IDIUse=1 WtCom= 1.00D+00 WtEn= 0.00D+00
 Coeff-Com:  0.101D-02 0.453D-03-0.144D-01-0.567D-01-0.976D-01 0.248D+00
 Coeff-Com:  0.919D+00
 Coeff:      0.101D-02 0.453D-03-0.144D-01-0.567D-01-0.976D-01 0.248D+00
 Coeff:      0.919D+00
 Gap=     0.317 Goal=   None    Shift=    0.000
 Gap=     0.317 Goal=   None    Shift=    0.000
 RMSDP=1.68D-05 MaxDP=6.58D-04 DE=-8.15D-05 OVMax= 2.28D-03

 Cycle   8  Pass 0  IDiag  1:
 RMSU=  1.15D-05    CP:  9.69D-01  6.25D-01  9.67D-01  9.80D-01  1.26D+00
                    CP:  1.44D+00  1.39D+00
 E= -2691.89924666954     Delta-E=       -0.000025903118 Rises=F Damp=F
 DIIS: error= 2.14D-05 at cycle   8 NSaved=   8.
 NSaved= 8 IEnMin= 8 EnMin= -2691.89924666954     IErMin= 8 ErrMin= 2.14D-05
 ErrMax= 2.14D-05  0.00D+00 EMaxC= 1.00D-01 BMatC= 6.37D-06 BMatP= 2.85D-05
 IDIUse=1 WtCom= 1.00D+00 WtEn= 0.00D+00
 Coeff-Com:  0.103D-02 0.162D-02-0.144D-02-0.223D-01-0.904D-01-0.359D-01
 Coeff-Com:  0.378D+00 0.769D+00
 Coeff:      0.103D-02 0.162D-02-0.144D-02-0.223D-01-0.904D-01-0.359D-01
 Coeff:      0.378D+00 0.769D+00
 Gap=     0.317 Goal=   None    Shift=    0.000
 Gap=     0.317 Goal=   None    Shift=    0.000
 RMSDP=1.28D-05 MaxDP=3.38D-04 DE=-2.59D-05 OVMax= 9.97D-04

 Cycle   9  Pass 0  IDiag  1:
 RMSU=  7.71D-06    CP:  9.69D-01  6.25D-01  9.68D-01  9.83D-01  1.29D+00
                    CP:  1.58D+00  1.84D+00  1.62D+00
 E= -2691.89925301822     Delta-E=       -0.000006348678 Rises=F Damp=F
 DIIS: error= 3.26D-05 at cycle   9 NSaved=   9.
 NSaved= 9 IEnMin= 9 EnMin= -2691.89925301822     IErMin= 8 ErrMin= 2.14D-05
 ErrMax= 3.26D-05  0.00D+00 EMaxC= 1.00D-01 BMatC= 1.95D-06 BMatP= 6.37D-06
 IDIUse=1 WtCom= 1.00D+00 WtEn= 0.00D+00
 Coeff-Com:  0.352D-03 0.669D-03 0.119D-02-0.285D-02-0.262D-01-0.414D-01
 Coeff-Com:  0.550D-01 0.329D+00 0.684D+00
 Coeff:      0.352D-03 0.669D-03 0.119D-02-0.285D-02-0.262D-01-0.414D-01
 Coeff:      0.550D-01 0.329D+00 0.684D+00
 Gap=     0.317 Goal=   None    Shift=    0.000
 Gap=     0.317 Goal=   None    Shift=    0.000
 RMSDP=1.30D-05 MaxDP=3.35D-04 DE=-6.35D-06 OVMax= 2.13D-04

 Cycle  10  Pass 0  IDiag  1:
 RMSU=  6.78D-06    CP:  9.69D-01  6.25D-01  9.68D-01  9.83D-01  1.30D+00
                    CP:  1.64D+00  2.08D+00  2.30D+00  1.90D+00
 E= -2691.89925649820     Delta-E=       -0.000003479988 Rises=F Damp=F
 DIIS: error= 4.29D-05 at cycle  10 NSaved=  10.
 NSaved=10 IEnMin=10 EnMin= -2691.89925649820     IErMin= 8 ErrMin= 2.14D-05
 ErrMax= 4.29D-05  0.00D+00 EMaxC= 1.00D-01 BMatC= 2.44D-06 BMatP= 1.95D-06
 IDIUse=1 WtCom= 1.00D+00 WtEn= 0.00D+00
 Coeff-Com:  0.358D-03 0.682D-03 0.125D-02-0.278D-02-0.266D-01-0.429D-01
 Coeff-Com:  0.542D-01 0.337D+00 0.713D+00-0.338D-01
 Coeff:      0.358D-03 0.682D-03 0.125D-02-0.278D-02-0.266D-01-0.429D-01
 Coeff:      0.542D-01 0.337D+00 0.713D+00-0.338D-01
 Gap=     0.317 Goal=   None    Shift=    0.000
 Gap=     0.317 Goal=   None    Shift=    0.000
 RMSDP=7.18D-07 MaxDP=2.04D-05 DE=-3.48D-06 OVMax= 2.64D-06

 Initial convergence to 1.0D-05 achieved.  Increase integral accuracy.
 Cycle  11  Pass 1  IDiag  1:
 E= -2691.89864982489     Delta-E=        0.000606673312 Rises=F Damp=F
 DIIS: error= 2.54D-04 at cycle   1 NSaved=   1.
 NSaved= 1 IEnMin= 1 EnMin= -2691.89864982489     IErMin= 1 ErrMin= 2.54D-04
 ErrMax= 2.54D-04  0.00D+00 EMaxC= 1.00D-01 BMatC= 1.11D-04 BMatP= 1.11D-04
 IDIUse=3 WtCom= 9.97D-01 WtEn= 2.54D-03
 Coeff-Com:  0.100D+01
 Coeff-En:   0.100D+01
 Coeff:      0.100D+01
 Gap=     0.317 Goal=   None    Shift=    0.000
 Gap=     0.317 Goal=   None    Shift=    0.000
 RMSDP=7.18D-07 MaxDP=2.04D-05 DE= 6.07D-04 OVMax= 4.32D-04

 Cycle  12  Pass 1  IDiag  1:
 RMSU=  1.62D-04    CP:  1.00D+00
 E= -2691.89867270677     Delta-E=       -0.000022881877 Rises=F Damp=F
 DIIS: error= 1.07D-05 at cycle   2 NSaved=   2.
 NSaved= 2 IEnMin= 2 EnMin= -2691.89867270677     IErMin= 2 ErrMin= 1.07D-05
 ErrMax= 1.07D-05  0.00D+00 EMaxC= 1.00D-01 BMatC= 2.57D-07 BMatP= 1.11D-04
 IDIUse=1 WtCom= 1.00D+00 WtEn= 0.00D+00
 Coeff-Com: -0.363D-01 0.104D+01
 Coeff:     -0.363D-01 0.104D+01
 Gap=     0.317 Goal=   None    Shift=    0.000
 Gap=     0.317 Goal=   None    Shift=    0.000
 RMSDP=8.23D-06 MaxDP=3.26D-04 DE=-2.29D-05 OVMax= 6.91D-05

 Cycle  13  Pass 1  IDiag  1:
 RMSU=  2.31D-06    CP:  1.00D+00  1.05D+00
 E= -2691.89867280465     Delta-E=       -0.000000097885 Rises=F Damp=F
 DIIS: error= 2.37D-06 at cycle   3 NSaved=   3.
 NSaved= 3 IEnMin= 3 EnMin= -2691.89867280465     IErMin= 3 ErrMin= 2.37D-06
 ErrMax= 2.37D-06  0.00D+00 EMaxC= 1.00D-01 BMatC= 5.03D-08 BMatP= 2.57D-07
 IDIUse=1 WtCom= 1.00D+00 WtEn= 0.00D+00
 Coeff-Com: -0.133D-01 0.355D+00 0.658D+00
 Coeff:     -0.133D-01 0.355D+00 0.658D+00
 Gap=     0.317 Goal=   None    Shift=    0.000
 Gap=     0.317 Goal=   None    Shift=    0.000
 RMSDP=3.00D-07 MaxDP=1.94D-05 DE=-9.79D-08 OVMax= 2.99D-05

 Cycle  14  Pass 1  IDiag  1:
 RMSU=  2.37D-07    CP:  1.00D+00  1.05D+00  1.05D+00
 E= -2691.89867281793     Delta-E=       -0.000000013281 Rises=F Damp=F
 DIIS: error= 9.00D-07 at cycle   4 NSaved=   4.
 NSaved= 4 IEnMin= 4 EnMin= -2691.89867281793     IErMin= 4 ErrMin= 9.00D-07
 ErrMax= 9.00D-07  0.00D+00 EMaxC= 1.00D-01 BMatC= 1.18D-08 BMatP= 5.03D-08
 IDIUse=1 WtCom= 1.00D+00 WtEn= 0.00D+00
 Coeff-Com:  0.250D-02-0.816D-01 0.284D+00 0.795D+00
 Coeff:      0.250D-02-0.816D-01 0.284D+00 0.795D+00
 Gap=     0.317 Goal=   None    Shift=    0.000
 Gap=     0.317 Goal=   None    Shift=    0.000
 RMSDP=2.03D-07 MaxDP=6.39D-06 DE=-1.33D-08 OVMax= 2.32D-05

 Cycle  15  Pass 1  IDiag  1:
 RMSU=  1.22D-07    CP:  1.00D+00  1.05D+00  1.11D+00  9.43D-01
 E= -2691.89867281783     Delta-E=        0.000000000107 Rises=F Damp=F
 DIIS: error= 4.08D-07 at cycle   5 NSaved=   5.
 NSaved= 5 IEnMin= 4 EnMin= -2691.89867281793     IErMin= 5 ErrMin= 4.08D-07
 ErrMax= 4.08D-07  0.00D+00 EMaxC= 1.00D-01 BMatC= 9.59D-10 BMatP= 1.18D-08
 IDIUse=1 WtCom= 1.00D+00 WtEn= 0.00D+00
 Coeff-Com:  0.146D-02-0.418D-01 0.111D-02 0.136D+00 0.903D+00
 Coeff:      0.146D-02-0.418D-01 0.111D-02 0.136D+00 0.903D+00
 Gap=     0.317 Goal=   None    Shift=    0.000
 Gap=     0.317 Goal=   None    Shift=    0.000
 RMSDP=6.12D-08 MaxDP=3.75D-06 DE= 1.07D-10 OVMax= 1.25D-05

 Cycle  16  Pass 1  IDiag  1:
 RMSU=  3.83D-08    CP:  1.00D+00  1.05D+00  1.11D+00  1.06D+00  1.30D+00
 E= -2691.89867281866     Delta-E=       -0.000000000835 Rises=F Damp=F
 DIIS: error= 2.66D-07 at cycle   6 NSaved=   6.
 NSaved= 6 IEnMin= 6 EnMin= -2691.89867281866     IErMin= 6 ErrMin= 2.66D-07
 ErrMax= 2.66D-07  0.00D+00 EMaxC= 1.00D-01 BMatC= 3.94D-10 BMatP= 9.59D-10
 IDIUse=1 WtCom= 1.00D+00 WtEn= 0.00D+00
 Coeff-Com: -0.400D-03 0.158D-01-0.119D+00-0.278D+00 0.415D+00 0.967D+00
 Coeff:     -0.400D-03 0.158D-01-0.119D+00-0.278D+00 0.415D+00 0.967D+00
 Gap=     0.317 Goal=   None    Shift=    0.000
 Gap=     0.317 Goal=   None    Shift=    0.000
 RMSDP=5.21D-08 MaxDP=3.24D-06 DE=-8.35D-10 OVMax= 1.03D-05

 Cycle  17  Pass 1  IDiag  1:
 RMSU=  2.34D-08    CP:  1.00D+00  1.05D+00  1.11D+00  1.12D+00  1.65D+00
                    CP:  1.29D+00
 E= -2691.89867281920     Delta-E=       -0.000000000537 Rises=F Damp=F
 DIIS: error= 6.95D-08 at cycle   7 NSaved=   7.
 NSaved= 7 IEnMin= 7 EnMin= -2691.89867281920     IErMin= 7 ErrMin= 6.95D-08
 ErrMax= 6.95D-08  0.00D+00 EMaxC= 1.00D-01 BMatC= 4.20D-11 BMatP= 3.94D-10
 IDIUse=1 WtCom= 1.00D+00 WtEn= 0.00D+00
 Coeff-Com: -0.302D-03 0.106D-01-0.527D-01-0.134D+00 0.102D+00 0.421D+00
 Coeff-Com:  0.653D+00
 Coeff:     -0.302D-03 0.106D-01-0.527D-01-0.134D+00 0.102D+00 0.421D+00
 Coeff:      0.653D+00
 Gap=     0.317 Goal=   None    Shift=    0.000
 Gap=     0.317 Goal=   None    Shift=    0.000
 RMSDP=9.66D-09 MaxDP=5.05D-07 DE=-5.37D-10 OVMax= 1.84D-06

 SCF Done:  E(ULC-wPBE) =  -2691.89867282     A.U. after   17 cycles
            NFock= 17  Conv=0.97D-08     -V/T= 2.0046
 <Sx>= 0.0000 <Sy>= 0.0000 <Sz>= 0.0000 <S**2>=-0.0000 S=-0.0000
 <L.S>= 0.000000000000E+00
 KE= 2.679460175858D+03 PE=-1.469611812015D+04 EE= 5.137733831905D+03
 Annihilation of the first spin contaminant:
 S**2 before annihilation    -0.0000,   after    -0.0000
 Leave Link  502 at Thu Jul 23 17:08:14 2020, MaxMem=  4026531840 cpu:            3118.9 elap:             397.9
 (Enter /opt/ohpc/pub/libs/gaussian/g16-A.03/sandybridge/g16/l601.exe)
 Copying SCF densities to generalized density rwf, IOpCl= 1 IROHF=0.

 **********************************************************************

            Population analysis using the SCF density.

 **********************************************************************

 Orbital symmetries:
 Alpha Orbitals:
       Occupied  (A) (A) (A) (A) (A) (A) (A) (A) (A) (A) (A) (A)
                 (A) (A) (A) (A) (A) (A) (A) (A) (A) (A) (A) (A)
                 (A) (A) (A) (A) (A) (A) (A) (A) (A) (A) (A) (A)
                 (A) (A) (A) (A) (A) (A) (A) (A) (A) (A) (A) (A)
                 (A) (A) (A) (A) (A) (A) (A) (A) (A) (A) (A) (A)
                 (A) (A) (A) (A) (A) (A) (A) (A) (A) (A) (A) (A)
                 (A) (A) (A) (A) (A) (A) (A) (A) (A) (A) (A) (A)
                 (A) (A) (A) (A) (A) (A) (A) (A) (A) (A) (A) (A)
                 (A) (A) (A) (A) (A) (A) (A) (A) (A) (A) (A) (A)
                 (A) (A) (A) (A) (A) (A) (A) (A) (A) (A) (A) (A)
                 (A) (A) (A) (A) (A) (A) (A) (A) (A) (A) (A) (A)
                 (A) (A) (A) (A) (A) (A) (A) (A) (A) (A) (A) (A)
                 (A) (A) (A) (A)
       Virtual   (A) (A) (A) (A) (A) (A) (A) (A) (A) (A) (A) (A)
                 (A) (A) (A) (A) (A) (A) (A) (A) (A) (A) (A) (A)
                 (A) (A) (A) (A) (A) (A) (A) (A) (A) (A) (A) (A)
                 (A) (A) (A) (A) (A) (A) (A) (A) (A) (A) (A) (A)
                 (A) (A) (A) (A) (A) (A) (A) (A) (A) (A) (A) (A)
                 (A) (A) (A) (A) (A) (A) (A) (A) (A) (A) (A) (A)
                 (A) (A) (A) (A) (A) (A) (A) (A) (A) (A) (A) (A)
                 (A) (A) (A) (A) (A) (A) (A) (A) (A) (A) (A) (A)
                 (A) (A) (A) (A) (A) (A) (A) (A) (A) (A) (A) (A)
                 (A) (A) (A) (A) (A) (A) (A) (A) (A) (A) (A) (A)
                 (A) (A) (A) (A) (A) (A) (A) (A) (A) (A) (A) (A)
                 (A) (A) (A) (A) (A) (A) (A) (A) (A) (A) (A) (A)
                 (A) (A) (A) (A) (A) (A) (A) (A) (A) (A) (A) (A)
                 (A) (A) (A) (A) (A) (A) (A) (A) (A) (A) (A) (A)
                 (A) (A) (A) (A) (A) (A) (A) (A) (A) (A) (A) (A)
                 (A) (A) (A) (A) (A) (A) (A) (A) (A) (A) (A) (A)
                 (A) (A) (A) (A) (A) (A) (A) (A) (A) (A) (A) (A)
                 (A) (A) (A) (A) (A) (A) (A) (A) (A) (A) (A) (A)
                 (A) (A) (A) (A) (A) (A) (A) (A) (A) (A) (A) (A)
                 (A) (A) (A) (A) (A) (A) (A) (A) (A) (A) (A) (A)
                 (A) (A) (A) (A) (A) (A) (A) (A) (A) (A) (A) (A)
                 (A) (A) (A) (A) (A) (A) (A) (A) (A) (A) (A) (A)
                 (A) (A) (A) (A) (A) (A) (A) (A) (A) (A) (A) (A)
                 (A) (A) (A) (A) (A) (A) (A) (A) (A) (A) (A) (A)
                 (A) (A) (A) (A) (A) (A) (A) (A) (A) (A) (A) (A)
                 (A) (A) (A) (A) (A) (A) (A) (A) (A) (A) (A) (A)
                 (A) (A) (A) (A) (A) (A) (A) (A) (A) (A) (A) (A)
                 (A) (A) (A) (A) (A) (A) (A) (A) (A) (A) (A) (A)
                 (A) (A) (A) (A) (A) (A) (A) (A) (A) (A) (A) (A)
                 (A) (A) (A) (A) (A) (A) (A) (A) (A) (A) (A) (A)
                 (A) (A) (A) (A) (A) (A) (A) (A) (A) (A) (A) (A)
                 (A) (A) (A) (A) (A) (A) (A) (A) (A) (A) (A) (A)
                 (A) (A) (A) (A) (A) (A) (A) (A) (A) (A) (A) (A)
                 (A) (A) (A) (A) (A) (A) (A) (A) (A) (A) (A) (A)
                 (A) (A) (A) (A) (A) (A) (A) (A) (A) (A) (A) (A)
                 (A) (A) (A) (A) (A) (A) (A) (A) (A) (A) (A) (A)
                 (A) (A) (A) (A) (A) (A) (A) (A) (A) (A) (A) (A)
                 (A) (A) (A) (A) (A) (A) (A) (A) (A) (A) (A) (A)
                 (A) (A) (A) (A) (A) (A) (A) (A) (A) (A) (A) (A)
                 (A) (A) (A) (A) (A) (A) (A) (A) (A) (A) (A) (A)
                 (A) (A) (A) (A) (A) (A) (A) (A) (A) (A) (A) (A)
                 (A) (A) (A) (A) (A) (A) (A) (A) (A) (A) (A) (A)
                 (A) (A) (A) (A) (A) (A) (A) (A) (A) (A) (A) (A)
                 (A) (A) (A) (A) (A) (A) (A) (A) (A) (A) (A) (A)
                 (A) (A) (A) (A) (A) (A) (A) (A) (A) (A) (A) (A)
 Beta  Orbitals:
       Occupied  (A) (A) (A) (A) (A) (A) (A) (A) (A) (A) (A) (A)
                 (A) (A) (A) (A) (A) (A) (A) (A) (A) (A) (A) (A)
                 (A) (A) (A) (A) (A) (A) (A) (A) (A) (A) (A) (A)
                 (A) (A) (A) (A) (A) (A) (A) (A) (A) (A) (A) (A)
                 (A) (A) (A) (A) (A) (A) (A) (A) (A) (A) (A) (A)
                 (A) (A) (A) (A) (A) (A) (A) (A) (A) (A) (A) (A)
                 (A) (A) (A) (A) (A) (A) (A) (A) (A) (A) (A) (A)
                 (A) (A) (A) (A) (A) (A) (A) (A) (A) (A) (A) (A)
                 (A) (A) (A) (A) (A) (A) (A) (A) (A) (A) (A) (A)
                 (A) (A) (A) (A) (A) (A) (A) (A) (A) (A) (A) (A)
                 (A) (A) (A) (A) (A) (A) (A) (A) (A) (A) (A) (A)
                 (A) (A) (A) (A) (A) (A) (A) (A) (A) (A) (A) (A)
                 (A) (A) (A) (A)
       Virtual   (A) (A) (A) (A) (A) (A) (A) (A) (A) (A) (A) (A)
                 (A) (A) (A) (A) (A) (A) (A) (A) (A) (A) (A) (A)
                 (A) (A) (A) (A) (A) (A) (A) (A) (A) (A) (A) (A)
                 (A) (A) (A) (A) (A) (A) (A) (A) (A) (A) (A) (A)
                 (A) (A) (A) (A) (A) (A) (A) (A) (A) (A) (A) (A)
                 (A) (A) (A) (A) (A) (A) (A) (A) (A) (A) (A) (A)
                 (A) (A) (A) (A) (A) (A) (A) (A) (A) (A) (A) (A)
                 (A) (A) (A) (A) (A) (A) (A) (A) (A) (A) (A) (A)
                 (A) (A) (A) (A) (A) (A) (A) (A) (A) (A) (A) (A)
                 (A) (A) (A) (A) (A) (A) (A) (A) (A) (A) (A) (A)
                 (A) (A) (A) (A) (A) (A) (A) (A) (A) (A) (A) (A)
                 (A) (A) (A) (A) (A) (A) (A) (A) (A) (A) (A) (A)
                 (A) (A) (A) (A) (A) (A) (A) (A) (A) (A) (A) (A)
                 (A) (A) (A) (A) (A) (A) (A) (A) (A) (A) (A) (A)
                 (A) (A) (A) (A) (A) (A) (A) (A) (A) (A) (A) (A)
                 (A) (A) (A) (A) (A) (A) (A) (A) (A) (A) (A) (A)
                 (A) (A) (A) (A) (A) (A) (A) (A) (A) (A) (A) (A)
                 (A) (A) (A) (A) (A) (A) (A) (A) (A) (A) (A) (A)
                 (A) (A) (A) (A) (A) (A) (A) (A) (A) (A) (A) (A)
                 (A) (A) (A) (A) (A) (A) (A) (A) (A) (A) (A) (A)
                 (A) (A) (A) (A) (A) (A) (A) (A) (A) (A) (A) (A)
                 (A) (A) (A) (A) (A) (A) (A) (A) (A) (A) (A) (A)
                 (A) (A) (A) (A) (A) (A) (A) (A) (A) (A) (A) (A)
                 (A) (A) (A) (A) (A) (A) (A) (A) (A) (A) (A) (A)
                 (A) (A) (A) (A) (A) (A) (A) (A) (A) (A) (A) (A)
                 (A) (A) (A) (A) (A) (A) (A) (A) (A) (A) (A) (A)
                 (A) (A) (A) (A) (A) (A) (A) (A) (A) (A) (A) (A)
                 (A) (A) (A) (A) (A) (A) (A) (A) (A) (A) (A) (A)
                 (A) (A) (A) (A) (A) (A) (A) (A) (A) (A) (A) (A)
                 (A) (A) (A) (A) (A) (A) (A) (A) (A) (A) (A) (A)
                 (A) (A) (A) (A) (A) (A) (A) (A) (A) (A) (A) (A)
                 (A) (A) (A) (A) (A) (A) (A) (A) (A) (A) (A) (A)
                 (A) (A) (A) (A) (A) (A) (A) (A) (A) (A) (A) (A)
                 (A) (A) (A) (A) (A) (A) (A) (A) (A) (A) (A) (A)
                 (A) (A) (A) (A) (A) (A) (A) (A) (A) (A) (A) (A)
                 (A) (A) (A) (A) (A) (A) (A) (A) (A) (A) (A) (A)
                 (A) (A) (A) (A) (A) (A) (A) (A) (A) (A) (A) (A)
                 (A) (A) (A) (A) (A) (A) (A) (A) (A) (A) (A) (A)
                 (A) (A) (A) (A) (A) (A) (A) (A) (A) (A) (A) (A)
                 (A) (A) (A) (A) (A) (A) (A) (A) (A) (A) (A) (A)
                 (A) (A) (A) (A) (A) (A) (A) (A) (A) (A) (A) (A)
                 (A) (A) (A) (A) (A) (A) (A) (A) (A) (A) (A) (A)
                 (A) (A) (A) (A) (A) (A) (A) (A) (A) (A) (A) (A)
                 (A) (A) (A) (A) (A) (A) (A) (A) (A) (A) (A) (A)
                 (A) (A) (A) (A) (A) (A) (A) (A) (A) (A) (A) (A)
 The electronic state is 1-A.
 Alpha  occ. eigenvalues --  -88.30277 -88.29680 -88.29530 -19.00433 -18.99129
 Alpha  occ. eigenvalues --  -18.98979 -10.17492 -10.16832 -10.16354 -10.16289
 Alpha  occ. eigenvalues --  -10.15756 -10.14022 -10.13975 -10.13482 -10.13323
 Alpha  occ. eigenvalues --  -10.13029 -10.13020 -10.12972 -10.12750 -10.12708
 Alpha  occ. eigenvalues --  -10.12220 -10.11861 -10.11520 -10.11437 -10.11346
 Alpha  occ. eigenvalues --  -10.11179 -10.11101 -10.11058 -10.10877 -10.10773
 Alpha  occ. eigenvalues --  -10.10741 -10.10625 -10.10459 -10.10359 -10.10147
 Alpha  occ. eigenvalues --  -10.10121 -10.09411 -10.09350 -10.09246  -7.91199
 Alpha  occ. eigenvalues --   -7.90446  -7.90218  -5.92800  -5.92266  -5.92029
 Alpha  occ. eigenvalues --   -5.91916  -5.91846  -5.91540  -5.91339  -5.91205
 Alpha  occ. eigenvalues --   -5.90922  -1.19830  -1.16255  -1.16014  -1.04161
 Alpha  occ. eigenvalues --   -1.03048  -1.02488  -1.00548  -0.99995  -0.99401
 Alpha  occ. eigenvalues --   -0.93073  -0.91814  -0.89864  -0.89334  -0.88969
 Alpha  occ. eigenvalues --   -0.88696  -0.87157  -0.87027  -0.86153  -0.85996
 Alpha  occ. eigenvalues --   -0.84106  -0.83726  -0.82554  -0.82020  -0.80923
 Alpha  occ. eigenvalues --   -0.76281  -0.74676  -0.73385  -0.73161  -0.72953
 Alpha  occ. eigenvalues --   -0.71670  -0.68254  -0.67804  -0.67537  -0.67441
 Alpha  occ. eigenvalues --   -0.66491  -0.66351  -0.65122  -0.64251  -0.63667
 Alpha  occ. eigenvalues --   -0.62668  -0.61771  -0.61134  -0.60353  -0.60238
 Alpha  occ. eigenvalues --   -0.59614  -0.58963  -0.58703  -0.58598  -0.58301
 Alpha  occ. eigenvalues --   -0.57906  -0.57324  -0.56527  -0.55414  -0.54656
 Alpha  occ. eigenvalues --   -0.53319  -0.53050  -0.52892  -0.52771  -0.52072
 Alpha  occ. eigenvalues --   -0.51875  -0.51400  -0.51180  -0.50440  -0.50341
 Alpha  occ. eigenvalues --   -0.50212  -0.49812  -0.49448  -0.48889  -0.48796
 Alpha  occ. eigenvalues --   -0.48184  -0.47949  -0.47445  -0.47216  -0.46763
 Alpha  occ. eigenvalues --   -0.46370  -0.45867  -0.45386  -0.44979  -0.43975
 Alpha  occ. eigenvalues --   -0.43795  -0.43585  -0.43304  -0.42961  -0.42425
 Alpha  occ. eigenvalues --   -0.42285  -0.38096  -0.37026  -0.35865  -0.35086
 Alpha  occ. eigenvalues --   -0.35019  -0.34812  -0.34172  -0.33758  -0.32842
 Alpha  occ. eigenvalues --   -0.32360  -0.30763  -0.29141
 Alpha virt. eigenvalues --    0.02554   0.04676   0.05590   0.07404   0.07629
 Alpha virt. eigenvalues --    0.08455   0.09084   0.09828   0.11057   0.13630
 Alpha virt. eigenvalues --    0.14097   0.14432   0.14540   0.14949   0.15586
 Alpha virt. eigenvalues --    0.15965   0.16257   0.16399   0.16550   0.17068
 Alpha virt. eigenvalues --    0.17307   0.18089   0.18407   0.18591   0.19363
 Alpha virt. eigenvalues --    0.19649   0.20194   0.20559   0.21115   0.21293
 Alpha virt. eigenvalues --    0.21550   0.21870   0.22085   0.22335   0.22623
 Alpha virt. eigenvalues --    0.22826   0.22992   0.23573   0.24026   0.24070
 Alpha virt. eigenvalues --    0.24380   0.24658   0.24797   0.25287   0.25611
 Alpha virt. eigenvalues --    0.26293   0.26620   0.27217   0.28298   0.28810
 Alpha virt. eigenvalues --    0.29710   0.30786   0.31455   0.32122   0.33516
 Alpha virt. eigenvalues --    0.34174   0.34543   0.34739   0.35300   0.36137
 Alpha virt. eigenvalues --    0.37626   0.37788   0.37897   0.38523   0.39769
 Alpha virt. eigenvalues --    0.39848   0.41159   0.41417   0.41493   0.42855
 Alpha virt. eigenvalues --    0.43421   0.43822   0.44900   0.46536   0.47024
 Alpha virt. eigenvalues --    0.47906   0.49458   0.50873   0.51263   0.51760
 Alpha virt. eigenvalues --    0.52081   0.52370   0.53091   0.53219   0.53961
 Alpha virt. eigenvalues --    0.54071   0.54420   0.54536   0.54691   0.54871
 Alpha virt. eigenvalues --    0.55203   0.55597   0.55675   0.56044   0.56174
 Alpha virt. eigenvalues --    0.56461   0.56589   0.56768   0.57202   0.57378
 Alpha virt. eigenvalues --    0.57527   0.57690   0.58111   0.58230   0.58335
 Alpha virt. eigenvalues --    0.58599   0.58987   0.59291   0.59372   0.59491
 Alpha virt. eigenvalues --    0.59757   0.60110   0.60439   0.60757   0.60919
 Alpha virt. eigenvalues --    0.61132   0.61304   0.61488   0.61652   0.62024
 Alpha virt. eigenvalues --    0.62396   0.62542   0.62565   0.62857   0.63239
 Alpha virt. eigenvalues --    0.63476   0.63816   0.63953   0.64113   0.64305
[...]
     2 C(13)  Bbb    -0.0000    -0.000    -0.000    -0.000 -0.2005 -0.1529  0.9677
              Bcc     0.0000     0.000     0.000     0.000  0.7501 -0.6594  0.0513
 
              Baa    -0.0000    -0.000    -0.000    -0.000 -0.4698 -0.3340  0.8171
     3 C(13)  Bbb     0.0000     0.000     0.000     0.000  0.3528  0.7774  0.5207
              Bcc     0.0000     0.000     0.000     0.000  0.8092 -0.5329  0.2474
 
              Baa    -0.0000    -0.000    -0.000    -0.000 -0.5647  0.7875  0.2469
     4 C(13)  Bbb    -0.0000    -0.000    -0.000    -0.000  0.6590  0.2502  0.7093
              Bcc     0.0000     0.000     0.000     0.000 -0.4968 -0.5633  0.6602
 
              Baa    -0.0000    -0.000    -0.000    -0.000 -0.1039 -0.4949  0.8627
     5 C(13)  Bbb    -0.0000    -0.000    -0.000    -0.000  0.6790 -0.6691 -0.3020
              Bcc     0.0000     0.000     0.000     0.000  0.7267  0.5544  0.4055
 
              Baa    -0.0000     0.000     0.000     0.000 -0.4136  0.9047 -0.1023
     6 O(17)  Bbb     0.0000    -0.000    -0.000    -0.000 -0.4504 -0.1056  0.8866
              Bcc     0.0000    -0.000    -0.000    -0.000  0.7912  0.4128  0.4512
 
              Baa    -0.0000    -0.000    -0.000    -0.000 -0.5001  0.4330  0.7500
     7 C(13)  Bbb    -0.0000    -0.000    -0.000    -0.000 -0.0510  0.8498 -0.5246
              Bcc     0.0000     0.000     0.000     0.000  0.8645  0.3006  0.4029
 
              Baa    -0.0000    -0.000    -0.000    -0.000  0.3657  0.8746  0.3183
     8 C(13)  Bbb    -0.0000    -0.000    -0.000    -0.000 -0.1282 -0.2914  0.9480
              Bcc     0.0000     0.000     0.000     0.000  0.9218 -0.3875  0.0055
 
              Baa    -0.0000    -0.000    -0.000    -0.000  0.9005 -0.4148  0.1305
     9 C(13)  Bbb     0.0000     0.000     0.000     0.000  0.4069  0.6980 -0.5892
              Bcc     0.0000     0.000     0.000     0.000  0.1533  0.5837  0.7974
 
              Baa    -0.0000    -0.000    -0.000    -0.000  0.0126  0.4517  0.8921
    10 C(13)  Bbb     0.0000     0.000     0.000     0.000  0.8587 -0.4620  0.2218
              Bcc     0.0000     0.000     0.000     0.000  0.5124  0.7632 -0.3936
 
              Baa    -0.0000    -0.000    -0.000    -0.000  0.8803  0.4699 -0.0659
    11 C(13)  Bbb    -0.0000    -0.000    -0.000    -0.000 -0.0749  0.2748  0.9586
              Bcc     0.0000     0.000     0.000     0.000 -0.4685  0.8389 -0.2771
 
              Baa    -0.0000    -0.000    -0.000    -0.000  0.9927 -0.1195  0.0156
    12 C(13)  Bbb     0.0000     0.000     0.000     0.000  0.1150  0.8998 -0.4209
              Bcc     0.0000     0.000     0.000     0.000  0.0363  0.4196  0.9070
 
              Baa    -0.0000    -0.000    -0.000    -0.000  0.8992  0.3630  0.2443
    13 S(33)  Bbb     0.0000     0.000     0.000     0.000 -0.2965  0.0951  0.9503
              Bcc     0.0000     0.000     0.000     0.000 -0.3217  0.9269 -0.1931
 
              Baa    -0.0000    -0.000    -0.000    -0.000  0.9388 -0.3439  0.0197
    14 C(13)  Bbb    -0.0000    -0.000    -0.000    -0.000 -0.0922 -0.1957  0.9763
              Bcc     0.0000     0.000     0.000     0.000  0.3319  0.9184  0.2154
 
              Baa    -0.0000    -0.000    -0.000    -0.000  0.9935  0.0918 -0.0669
    15 C(13)  Bbb     0.0000     0.000     0.000     0.000 -0.1019  0.9805 -0.1679
              Bcc     0.0000     0.000     0.000     0.000  0.0502  0.1737  0.9835
 
              Baa    -0.0000    -0.000    -0.000    -0.000 -0.0693 -0.3379  0.9386
    16 C(13)  Bbb    -0.0000    -0.000    -0.000    -0.000  0.9043  0.3761  0.2021
              Bcc     0.0000     0.000     0.000     0.000 -0.4213  0.8628  0.2795
 
              Baa    -0.0000    -0.000    -0.000    -0.000  0.9191 -0.3880 -0.0690
    17 C(13)  Bbb     0.0000     0.000     0.000     0.000  0.3941  0.9020  0.1763
              Bcc     0.0000     0.000     0.000     0.000 -0.0061 -0.1892  0.9819
 
              Baa    -0.0000    -0.000    -0.000    -0.000 -0.2423 -0.1116  0.9638
    18 C(13)  Bbb    -0.0000    -0.000    -0.000    -0.000  0.8426 -0.5166  0.1520
              Bcc     0.0000     0.000     0.000     0.000  0.4809  0.8489  0.2192
 
              Baa    -0.0000     0.000     0.000     0.000 -0.0621  0.1228  0.9905
    19 O(17)  Bbb     0.0000    -0.000    -0.000    -0.000 -0.1191  0.9844 -0.1295
              Bcc     0.0000    -0.000    -0.000    -0.000  0.9909  0.1261  0.0465
 
              Baa    -0.0000    -0.000    -0.000    -0.000 -0.1752 -0.3165  0.9323
    20 C(13)  Bbb     0.0000     0.000     0.000     0.000 -0.5198  0.8339  0.1855
              Bcc     0.0000     0.000     0.000     0.000  0.8362  0.4521  0.3106
 
              Baa    -0.0000    -0.000    -0.000    -0.000  0.9168  0.3986 -0.0235
    21 C(13)  Bbb     0.0000     0.000     0.000     0.000 -0.3505  0.7752 -0.5255
              Bcc     0.0000     0.000     0.000     0.000 -0.1912  0.4900  0.8505
 
              Baa    -0.0000    -0.000    -0.000    -0.000  0.9442 -0.3226  0.0671
    22 C(13)  Bbb     0.0000     0.000     0.000     0.000  0.3032  0.7708 -0.5603
              Bcc     0.0000     0.000     0.000     0.000  0.1290  0.5493  0.8256
 
              Baa    -0.0000    -0.000    -0.000    -0.000  0.9120  0.4058 -0.0594
    23 C(13)  Bbb     0.0000     0.000     0.000     0.000  0.1466 -0.1872  0.9713
              Bcc     0.0000     0.000     0.000     0.000 -0.3831  0.8946  0.2302
 
              Baa    -0.0000    -0.000    -0.000    -0.000  0.8896 -0.4319  0.1484
    24 C(13)  Bbb     0.0000     0.000     0.000     0.000 -0.3411 -0.4122  0.8449
              Bcc     0.0000     0.000     0.000     0.000  0.3037  0.8022  0.5140
 
              Baa    -0.0000    -0.000    -0.000    -0.000  0.8018 -0.5491 -0.2358
    25 C(13)  Bbb     0.0000     0.000     0.000     0.000  0.3438  0.1011  0.9336
              Bcc     0.0000     0.000     0.000     0.000  0.4887  0.8296 -0.2698
 
              Baa    -0.0000    -0.000    -0.000    -0.000 -0.4828  0.6910  0.5379
    26 S(33)  Bbb    -0.0000    -0.000    -0.000    -0.000  0.4489 -0.3321  0.8296
              Bcc     0.0000     0.000     0.000     0.000  0.7519  0.6420 -0.1499
 
              Baa    -0.0000    -0.000    -0.000    -0.000  0.1673  0.9735  0.1559
    27 C(13)  Bbb     0.0000     0.000     0.000     0.000  0.5334 -0.2223  0.8161
              Bcc     0.0000     0.000     0.000     0.000  0.8291 -0.0533 -0.5565
 
              Baa    -0.0000    -0.000    -0.000    -0.000  0.9457 -0.2398 -0.2194
    28 C(13)  Bbb    -0.0000    -0.000    -0.000    -0.000  0.1705 -0.2087  0.9630
              Bcc     0.0000     0.000     0.000     0.000  0.2767  0.9481  0.1565
 
              Baa    -0.0000    -0.000    -0.000    -0.000  0.1322  0.9387  0.3183
    29 C(13)  Bbb     0.0000     0.000     0.000     0.000  0.9771 -0.0694 -0.2012
              Bcc     0.0000     0.000     0.000     0.000  0.1668 -0.3376  0.9264
 
              Baa    -0.0000    -0.000    -0.000    -0.000  0.0429  0.9660  0.2549
    30 C(13)  Bbb     0.0000     0.000     0.000     0.000  0.9821 -0.0876  0.1668
              Bcc     0.0000     0.000     0.000     0.000 -0.1834 -0.2432  0.9525
 
              Baa    -0.0000    -0.000    -0.000    -0.000 -0.1814  0.4130  0.8925
    31 C(13)  Bbb    -0.0000    -0.000    -0.000    -0.000 -0.4248  0.7856 -0.4499
              Bcc     0.0000     0.000     0.000     0.000  0.8869  0.4608 -0.0329
 
              Baa    -0.0000     0.000     0.000     0.000  0.7502 -0.0135 -0.6611
    32 O(17)  Bbb     0.0000    -0.000    -0.000    -0.000  0.6418 -0.2258  0.7329
              Bcc     0.0000    -0.000    -0.000    -0.000  0.1591  0.9741  0.1607
 
              Baa    -0.0000    -0.000    -0.000    -0.000  0.7738 -0.6177 -0.1403
    33 C(13)  Bbb    -0.0000    -0.000    -0.000    -0.000  0.0044 -0.2162  0.9763
              Bcc     0.0000     0.000     0.000     0.000  0.6334  0.7561  0.1646
 
              Baa    -0.0000    -0.000    -0.000    -0.000  0.1579 -0.2239  0.9617
    34 C(13)  Bbb    -0.0000    -0.000    -0.000    -0.000  0.0827  0.9735  0.2130
              Bcc     0.0000     0.000     0.000     0.000  0.9840 -0.0459 -0.1723
 
              Baa    -0.0000    -0.000    -0.000    -0.000  0.9787  0.1960  0.0614
    35 C(13)  Bbb     0.0000     0.000     0.000     0.000 -0.1205  0.3054  0.9446
              Bcc     0.0000     0.000     0.000     0.000 -0.1664  0.9318 -0.3225
 
              Baa    -0.0000    -0.000    -0.000    -0.000  0.2151  0.9448 -0.2472
    36 C(13)  Bbb     0.0000     0.000     0.000     0.000  0.9190 -0.1101  0.3787
              Bcc     0.0000     0.000     0.000     0.000 -0.3305  0.3086  0.8919
 
              Baa    -0.0000    -0.000    -0.000    -0.000 -0.0535  0.9819 -0.1819
    37 C(13)  Bbb     0.0000     0.000     0.000     0.000  0.9616  0.0016 -0.2743
              Bcc     0.0000     0.000     0.000     0.000  0.2691  0.1896  0.9443
 
              Baa    -0.0000    -0.000    -0.000    -0.000  0.8895 -0.4475  0.0923
    38 C(13)  Bbb     0.0000     0.000     0.000     0.000  0.3968  0.8567  0.3297
              Bcc     0.0000     0.000     0.000     0.000 -0.2266 -0.2566  0.9396
 
              Baa    -0.0000    -0.000    -0.000    -0.000 -0.0903  0.4384  0.8942
    39 S(33)  Bbb     0.0000     0.000     0.000     0.000 -0.4578  0.7791 -0.4282
              Bcc     0.0000     0.000     0.000     0.000  0.8844  0.4480 -0.1304
 
              Baa    -0.0000    -0.000    -0.000    -0.000 -0.6727  0.6752 -0.3026
    40 H(1)   Bbb     0.0000     0.000     0.000     0.000 -0.3324  0.0897  0.9389
              Bcc     0.0000     0.000     0.000     0.000  0.6611  0.7321  0.1641
 
              Baa    -0.0000    -0.000    -0.000    -0.000 -0.3279  0.8377  0.4368
    41 H(1)   Bbb     0.0000     0.000     0.000     0.000 -0.1891 -0.5112  0.8384
              Bcc     0.0000     0.000     0.000     0.000  0.9256  0.1924  0.3260
 
              Baa    -0.0000    -0.000    -0.000    -0.000 -0.3778 -0.2152  0.9005
    42 H(1)   Bbb    -0.0000    -0.000    -0.000    -0.000  0.8687 -0.4189  0.2644
              Bcc     0.0000     0.000     0.000     0.000  0.3203  0.8822  0.3453
 
              Baa    -0.0000    -0.000    -0.000    -0.000 -0.6205  0.6383 -0.4557
    43 H(1)   Bbb    -0.0000    -0.000    -0.000    -0.000 -0.6847 -0.1575  0.7116
              Bcc     0.0000     0.000     0.000     0.000  0.3824  0.7535  0.5347
 
              Baa    -0.0000    -0.000    -0.000    -0.000 -0.1867 -0.1971  0.9624
    44 H(1)   Bbb     0.0000     0.000     0.000     0.000  0.8825  0.3969  0.2525
              Bcc     0.0000     0.000     0.000     0.000 -0.4317  0.8965  0.0998
 
              Baa    -0.0000    -0.000    -0.000    -0.000 -0.5675 -0.1579  0.8081
    45 H(1)   Bbb     0.0000     0.000     0.000     0.000  0.7623  0.2701  0.5881
              Bcc     0.0000     0.000     0.000     0.000 -0.3112  0.9498 -0.0329
 
              Baa    -0.0000    -0.000    -0.000    -0.000  0.8776 -0.4217  0.2279
    46 H(1)   Bbb     0.0000     0.000     0.000     0.000  0.4019  0.9064  0.1299
              Bcc     0.0000     0.000     0.000     0.000 -0.2614 -0.0224  0.9650
 
              Baa    -0.0000    -0.000    -0.000    -0.000 -0.2677  0.5689  0.7776
    47 H(1)   Bbb    -0.0000    -0.000    -0.000    -0.000  0.5970 -0.5355  0.5973
              Bcc     0.0000     0.000     0.000     0.000  0.7562  0.6242 -0.1963
 
              Baa    -0.0000    -0.000    -0.000    -0.000 -0.2364  0.2081  0.9491
    48 H(1)   Bbb    -0.0000    -0.000    -0.000    -0.000  0.9710  0.0880  0.2225
              Bcc     0.0000     0.000     0.000     0.000 -0.0372  0.9741 -0.2228
 
              Baa    -0.0000    -0.000    -0.000    -0.000  0.9796 -0.1991 -0.0281
    49 H(1)   Bbb     0.0000     0.000     0.000     0.000  0.1778  0.7923  0.5837
              Bcc     0.0000     0.000     0.000     0.000 -0.0939 -0.5768  0.8115
 
              Baa    -0.0000    -0.000    -0.000    -0.000  0.0569 -0.4045  0.9128
    50 H(1)   Bbb    -0.0000    -0.000    -0.000    -0.000  0.7381 -0.5986 -0.3113
              Bcc     0.0000     0.000     0.000     0.000  0.6723  0.6914  0.2645
 
              Baa    -0.0000    -0.000    -0.000    -0.000  0.9747 -0.2221  0.0254
    51 H(1)   Bbb    -0.0000    -0.000    -0.000    -0.000  0.2233  0.9628 -0.1521
              Bcc     0.0000     0.000     0.000     0.000  0.0093  0.1539  0.9880
 
              Baa    -0.0000    -0.000    -0.000    -0.000  0.7137 -0.4002 -0.5748
    52 H(1)   Bbb    -0.0000    -0.000    -0.000    -0.000  0.6874  0.5576  0.4653
              Bcc     0.0000     0.000     0.000     0.000 -0.1343  0.7272 -0.6731
 
              Baa    -0.0000    -0.000    -0.000    -0.000 -0.4340 -0.1896  0.8807
    53 H(1)   Bbb    -0.0000    -0.000    -0.000    -0.000  0.8548  0.2223  0.4690
              Bcc     0.0000     0.000     0.000     0.000 -0.2847  0.9564  0.0656
 
              Baa    -0.0000    -0.000    -0.000    -0.000  0.4008  0.8602  0.3153
    54 H(1)   Bbb     0.0000     0.000     0.000     0.000  0.9152 -0.3920 -0.0938
              Bcc     0.0000     0.000     0.000     0.000 -0.0429 -0.3261  0.9444
 
              Baa    -0.0000    -0.000    -0.000    -0.000  0.4609  0.8442 -0.2736
    55 H(1)   Bbb     0.0000     0.000     0.000     0.000  0.8863 -0.4534  0.0942
              Bcc     0.0000     0.000     0.000     0.000  0.0445  0.2859  0.9572
 
              Baa    -0.0000    -0.000    -0.000    -0.000  0.1096  0.7504  0.6519
    56 H(1)   Bbb    -0.0000    -0.000    -0.000    -0.000 -0.1340 -0.6387  0.7577
              Bcc     0.0000     0.000     0.000     0.000  0.9849 -0.1704  0.0306
 
              Baa    -0.0000    -0.000    -0.000    -0.000  0.0865  0.9583  0.2723
    57 H(1)   Bbb     0.0000     0.000     0.000     0.000  0.9894 -0.0507 -0.1361
              Bcc     0.0000     0.000     0.000     0.000  0.1166 -0.2811  0.9526
 
              Baa    -0.0000    -0.000    -0.000    -0.000  0.6627 -0.6603 -0.3533
    58 H(1)   Bbb     0.0000     0.000     0.000     0.000  0.7291  0.6766  0.1032
              Bcc     0.0000     0.000     0.000     0.000  0.1709 -0.3259  0.9298
 
              Baa    -0.0000    -0.000    -0.000    -0.000 -0.1673 -0.6562  0.7358
    59 H(1)   Bbb     0.0000     0.000     0.000     0.000  0.8168 -0.5102 -0.2694
              Bcc     0.0000     0.000     0.000     0.000  0.5522  0.5559  0.6213
 
              Baa    -0.0000    -0.000    -0.000    -0.000 -0.5530 -0.2363  0.7990
    60 H(1)   Bbb    -0.0000    -0.000    -0.000    -0.000 -0.2622  0.9596  0.1022
              Bcc     0.0000     0.000     0.000     0.000  0.7909  0.1530  0.5926
 
              Baa    -0.0000    -0.000    -0.000    -0.000  0.1800 -0.6266  0.7582
    61 H(1)   Bbb    -0.0000    -0.000    -0.000    -0.000 -0.0541  0.7633  0.6437
              Bcc     0.0000     0.000     0.000     0.000  0.9822  0.1569 -0.1035
 
              Baa    -0.0000    -0.000    -0.000    -0.000  0.3647 -0.0963  0.9261
    62 H(1)   Bbb    -0.0000    -0.000    -0.000    -0.000  0.6016  0.7836 -0.1554
              Bcc     0.0000     0.000     0.000     0.000  0.7107 -0.6138 -0.3437
 
              Baa    -0.0000    -0.000    -0.000    -0.000  0.8894 -0.4454 -0.1029
    63 H(1)   Bbb     0.0000     0.000     0.000     0.000 -0.2554 -0.6709  0.6962
              Bcc     0.0000     0.000     0.000     0.000  0.3791  0.5929  0.7105
 
              Baa    -0.0000    -0.000    -0.000    -0.000  0.4494  0.8431 -0.2952
    64 H(1)   Bbb     0.0000     0.000     0.000     0.000  0.8891 -0.3900  0.2396
              Bcc     0.0000     0.000     0.000     0.000 -0.0869  0.3702  0.9249
 
              Baa    -0.0000    -0.000    -0.000    -0.000  0.9863 -0.0889  0.1392
    65 H(1)   Bbb     0.0000     0.000     0.000     0.000  0.1538  0.8019 -0.5774
              Bcc     0.0000     0.000     0.000     0.000 -0.0603  0.5909  0.8045
 

 ---------------------------------------------------------------------------------

 No NMR shielding tensors so no spin-rotation constants.
 Leave Link  601 at Thu Jul 23 19:00:16 2020, MaxMem=  4026531840 cpu:               6.5 elap:               0.9
 (Enter /opt/ohpc/pub/libs/gaussian/g16-A.03/sandybridge/g16/l9999.exe)

 Test job not archived.
 1\1\GINC-SKYLAKE041\FOpt\ULC-wPBE\CC-pVDZ\C33H26O3S3\RDU230\23-Jul-202
 0\0\\#P uLC-wPBE/cc-pVDZ iop(3/107=0369500000, 3/108=0369500000) opt\\
 H26 C33 S3 O3\\0,1\C,10.139758473,-3.1867530387,0.4160204264\C,8.91239
 74467,-3.6320763382,-0.0484518997\C,7.8911754973,-2.7112370862,-0.2540
 65291\C,8.0596625985,-1.3493641336,-0.0022422171\C,9.318166166,-0.9140
 607175,0.4653329005\O,9.4541690754,0.4161632345,0.6949553486\C,10.6676
 219159,0.8795245583,1.2415052353\C,10.3443639168,-1.8338561645,0.67171
 17308\C,6.9405284156,-0.410005364,-0.2083671979\C,6.9499547628,0.89748
 63726,-0.6154870457\C,5.6492640209,1.4565398875,-0.7340446163\C,4.6493
 794356,0.5797950378,-0.4095401175\S,5.3142303216,-0.9436606515,0.05543
 93964\C,3.1943362764,0.8089666409,-0.4142120876\C,2.2946638399,-0.2132
 611203,-0.7075876817\C,0.9311244625,0.0459074323,-0.7157412283\C,0.408
 8900669,1.308875993,-0.4385430658\C,1.3265368588,2.34138585,-0.1472659
 483\O,0.80057732,3.5617245803,0.1225434242\C,1.6741122518,4.6000489147
 ,0.5041411016\C,2.6933667593,2.084379711,-0.1304270766\C,-1.0477166329
 ,1.5334804094,-0.4342583539\C,-1.7700178209,2.6513916109,-0.7579531696
 \C,-3.1744288272,2.4587143812,-0.6647652831\C,-3.5245818152,1.19847910
 8,-0.2622015043\S,-2.113102038,0.2434344928,0.0159388812\C,-4.87642693
 16,0.6515108674,-0.0551950455\C,-5.9172931179,1.478051851,0.362554741\
 C,-7.1891322937,0.9518363558,0.5405561357\C,-7.4785602776,-0.394739814
 2,0.321154263\C,-6.4169778487,-1.2288909217,-0.0884745347\O,-6.7150949
 06,-2.535590291,-0.2928280092\C,-5.6998168351,-3.3884746599,-0.7716013
 448\C,-5.1422163206,-0.7039973098,-0.276849853\C,-8.8501607854,-0.9061
 326635,0.5024149003\C,-9.2831426647,-2.1328577016,0.9305619242\C,-10.7
 01552402,-2.2297433881,1.0121085552\C,-11.3272388493,-1.0796328344,0.6
 355182788\S,-10.2023054388,0.128516468,0.1775604793\H,10.9579289718,-3
 .8914801699,0.5818469777\H,8.7455105037,-4.6902205761,-0.2580796119\H,
 6.9264096909,-3.0557462156,-0.6349458745\H,10.5443797408,1.9602909468,
 1.3834625007\H,10.8790707459,0.4103372892,2.2171770022\H,11.5175131273
 ,0.7010601603,0.560905865\H,11.3164952649,-1.5018097025,1.0357034658\H
 ,7.8686160707,1.4365320754,-0.8356805561\H,5.4579696643,2.4728769837,-
 1.0806229036\H,2.6588325799,-1.2123220304,-0.9552802403\H,0.2397575489
 ,-0.7623972794,-0.9661842809\H,2.3856365665,4.8517562649,-0.3006042885
 \H,2.235193089,4.3431211181,1.418282531\H,1.0396878658,5.4716984993,0.
 7063954215\H,3.3960825943,2.8748318377,0.1304544644\H,-1.3014347499,3.
 5827113184,-1.0675513711\H,-3.9082752394,3.2251621092,-0.9163504269\H,
 -5.7288934839,2.5311452684,0.5771466078\H,-7.991363872,1.6089967999,0.
 8852402402\H,-6.1635289428,-4.3754088183,-0.8903391371\H,-5.3141644132
 ,-3.0520738176,-1.7486929664\H,-4.8622007007,-3.4672421336,-0.05799063
 36\H,-4.3329930011,-1.3476018248,-0.6222050892\H,-8.5989654816,-2.9395
 311678,1.1842170493\H,-11.2329737222,-3.1239568719,1.3394574012\H,-12.
 3963314938,-0.8769546222,0.5952337024\\Version=EM64L-G16RevA.03\State=
 1-A\HF=-2692.0098591\S2=0.\S2-1=0.\S2A=0.\RMSD=5.462e-09\RMSF=2.353e-0
 6\Dipole=1.8798499,0.3748524,0.1364049\Quadrupole=16.0446421,8.5976511
 ,-24.6422932,12.029928,6.9737605,2.6072114\PG=C01 [X(C33H26O3S3)]\\@


 THERE IS NO SCIENCE WITHOUT FANCY, NOR ART WITHOUT FACTS.
     -- VLADIMIR NABAKOV
 Job cpu time:       0 days 15 hours 31 minutes 31.2 seconds.
 Elapsed time:       0 days  1 hours 58 minutes 49.3 seconds.
 File lengths (MBytes):  RWF=    576 Int=      0 D2E=      0 Chk=     52 Scr=      8
 Normal termination of Gaussian 16 at Thu Jul 23 19:00:16 2020.
