 Entering Gaussian System, Link 0=g16
 Input=mols_65_1_07_c-n-COC_opt_0.gjf
 Output=mols_65_1_07_c-n-COC_opt_0.log
 Initial command:
 /opt/ohpc/pub/libs/gaussian/g16-A.03/sandybridge/g16/l1.exe "/mnt/gpfs2_4m/scratch/rdu230/ondemand/projects/dihedral_energies/7trial/wtuning/mols_65_1_07_c-n-COC/Gau-156065.inp" -scrdir="/mnt/gpfs2_4m/scratch/rdu230/ondemand/projects/dihedral_energies/7trial/wtuning/mols_65_1_07_c-n-COC/"
 Entering Link 1 = /opt/ohpc/pub/libs/gaussian/g16-A.03/sandybridge/g16/l1.exe PID=    156066.
  
 Copyright (c) 1988,1990,1992,1993,1995,1998,2003,2009,2016,
            Gaussian, Inc.  All Rights Reserved.
  
 This is part of the Gaussian(R) 16 program.  It is based on
 the Gaussian(R) 09 system (copyright 2009, Gaussian, Inc.),
 the Gaussian(R) 03 system (copyright 2003, Gaussian, Inc.),
 the Gaussian(R) 98 system (copyright 1998, Gaussian, Inc.),
 the Gaussian(R) 94 system (copyright 1995, Gaussian, Inc.),
 the Gaussian 92(TM) system (copyright 1992, Gaussian, Inc.),
 the Gaussian 90(TM) system (copyright 1990, Gaussian, Inc.),
 the Gaussian 88(TM) system (copyright 1988, Gaussian, Inc.),
 the Gaussian 86(TM) system (copyright 1986, Carnegie Mellon
 University), and the Gaussian 82(TM) system (copyright 1983,
 Carnegie Mellon University). Gaussian is a federally registered
 trademark of Gaussian, Inc.
  
 This software contains proprietary and confidential information,
 including trade secrets, belonging to Gaussian, Inc.
  
 This software is provided under written license and may be
 used, copied, transmitted, or stored only in accord with that
 written license.
  
 The following legend is applicable only to US Government
 contracts under FAR:
  
                    RESTRICTED RIGHTS LEGEND
  
 Use, reproduction and disclosure by the US Government is
 subject to restrictions as set forth in subparagraphs (a)
 and (c) of the Commercial Computer Software - Restricted
 Rights clause in FAR 52.227-19.
  
 Gaussian, Inc.
 340 Quinnipiac St., Bldg. 40, Wallingford CT 06492
  
  
 ---------------------------------------------------------------
 Warning -- This program may not be used in any manner that
 competes with the business of Gaussian, Inc. or will provide
 assistance to any competitor of Gaussian, Inc.  The licensee
 of this program is prohibited from giving any competitor of
 Gaussian, Inc. access to this program.  By using this program,
 the user acknowledges that Gaussian, Inc. is engaged in the
 business of creating and licensing software in the field of
 computational chemistry and represents and warrants to the
 licensee that it is not a competitor of Gaussian, Inc. and that
 it will not use this program in any manner prohibited above.
 ---------------------------------------------------------------
  

 Cite this work as:
 Gaussian 16, Revision A.03,
 M. J. Frisch, G. W. Trucks, H. B. Schlegel, G. E. Scuseria, 
 M. A. Robb, J. R. Cheeseman, G. Scalmani, V. Barone, 
 G. A. Petersson, H. Nakatsuji, X. Li, M. Caricato, A. V. Marenich, 
 J. Bloino, B. G. Janesko, R. Gomperts, B. Mennucci, H. P. Hratchian, 
 J. V. Ortiz, A. F. Izmaylov, J. L. Sonnenberg, D. Williams-Young, 
 F. Ding, F. Lipparini, F. Egidi, J. Goings, B. Peng, A. Petrone, 
 T. Henderson, D. Ranasinghe, V. G. Zakrzewski, J. Gao, N. Rega, 
 G. Zheng, W. Liang, M. Hada, M. Ehara, K. Toyota, R. Fukuda, 
 J. Hasegawa, M. Ishida, T. Nakajima, Y. Honda, O. Kitao, H. Nakai, 
 T. Vreven, K. Throssell, J. A. Montgomery, Jr., J. E. Peralta, 
 F. Ogliaro, M. J. Bearpark, J. J. Heyd, E. N. Brothers, K. N. Kudin, 
 V. N. Staroverov, T. A. Keith, R. Kobayashi, J. Normand, 
 K. Raghavachari, A. P. Rendell, J. C. Burant, S. S. Iyengar, 
 J. Tomasi, M. Cossi, J. M. Millam, M. Klene, C. Adamo, R. Cammi, 
 J. W. Ochterski, R. L. Martin, K. Morokuma, O. Farkas, 
 J. B. Foresman, and D. J. Fox, Gaussian, Inc., Wallingford CT, 2016.
 
 ******************************************
 Gaussian 16:  EM64L-G16RevA.03 25-Dec-2016
                25-Jul-2020 
 ******************************************
 %mem=30GB
 %nproc=8
 Will use up to    8 processors via shared memory.
 ---------------------------------------------------------------
 #P uLC-wPBE/cc-pVDZ iop(3/107=0248300000, 3/108=0248300000) opt
 ---------------------------------------------------------------
 1/18=20,19=15,26=3,38=1/1,3;
 2/9=110,12=2,17=6,18=5,40=1/2;
 3/5=16,11=2,25=1,30=1,71=1,74=-41,107=248300000,108=248300000,116=2/1,2,3;
 4//1;
 5/5=2,38=5/2;
 6/7=2,8=2,9=2,10=2,28=1/1;
 7//1,2,3,16;
 1/18=20,19=15,26=3/3(2);
 2/9=110/2;
 99//99;
 2/9=110/2;
 3/5=16,11=2,25=1,30=1,71=1,74=-41,107=248300000,108=248300000,116=2/1,2,3;
 4/5=5,16=3,69=1/1;
 5/5=2,38=5/2;
 7//1,2,3,16;
 1/18=20,19=15,26=3/3(-5);
 2/9=110/2;
 6/7=2,8=2,9=2,10=2,19=2,28=1/1;
 99/9=1/99;
 Leave Link    1 at Sat Jul 25 13:23:18 2020, MaxMem=  4026531840 cpu:               1.1 elap:               0.2
 (Enter /opt/ohpc/pub/libs/gaussian/g16-A.03/sandybridge/g16/l101.exe)
 ---------------
 H9 C10 S1 N1 O1
 ---------------
 Symbolic Z-matrix:
 Charge =  0 Multiplicity = 1
 C                     3.69072   0.31147   0.06112 
 C                     2.91533   1.24657  -0.66345 
 C                     1.56333   0.99996  -0.70533 
 C                     1.0559   -0.09168  -0.07367 
 N                     1.78718  -0.98643   0.57288 
 C                     3.09306  -0.72539   0.63477 
 C                    -0.40605  -0.38269  -0.00345 
 C                    -1.52279   0.4961    0.07812 
 O                    -1.33911   1.84278   0.16796 
 C                    -2.43235   2.56293   0.4166 
 C                    -2.79959  -0.24812  -0.03875 
 C                    -2.5978   -1.62468  -0.19387 
 S                    -0.91616  -2.02577  -0.25467 
 H                     4.80101   0.44595   0.15557 
 H                     3.31166   2.09981  -1.09595 
 H                     0.86286   1.74195  -1.18602 
 H                     3.76351  -1.49336   1.20261 
 H                    -3.0393    2.26969   1.2861 
 H                    -3.1865    2.56239  -0.45091 
 H                    -2.12652   3.61453   0.56069 
 H                    -3.7012    0.26818   0.02175 
 H                    -3.32169  -2.36795  -0.26007 
 
 ITRead=  0  0  0  0  0  0  0  0  0  0  0  0  0  0  0  0  0  0  0  0
 ITRead=  0  0
 MicOpt= -1 -1 -1 -1 -1 -1 -1 -1 -1 -1 -1 -1 -1 -1 -1 -1 -1 -1 -1 -1
 MicOpt= -1 -1
 NAtoms=     22 NQM=       22 NQMF=       0 NMMI=      0 NMMIF=      0
                NMic=       0 NMicF=      0.
                    Isotopes and Nuclear Properties:
 (Nuclear quadrupole moments (NQMom) in fm**2, nuclear magnetic moments (NMagM)
  in nuclear magnetons)

  Atom         1           2           3           4           5           6           7           8           9          10
 IAtWgt=          12          12          12          12          14          12          12          12          16          12
 AtmWgt=  12.0000000  12.0000000  12.0000000  12.0000000  14.0030740  12.0000000  12.0000000  12.0000000  15.9949146  12.0000000
 NucSpn=           0           0           0           0           2           0           0           0           0           0
 AtZEff=  -0.0000000  -0.0000000  -0.0000000  -0.0000000  -0.0000000  -0.0000000  -0.0000000  -0.0000000  -0.0000000  -0.0000000
 NQMom=    0.0000000   0.0000000   0.0000000   0.0000000   2.0440000   0.0000000   0.0000000   0.0000000   0.0000000   0.0000000
 NMagM=    0.0000000   0.0000000   0.0000000   0.0000000   0.4037610   0.0000000   0.0000000   0.0000000   0.0000000   0.0000000
 AtZNuc=   6.0000000   6.0000000   6.0000000   6.0000000   7.0000000   6.0000000   6.0000000   6.0000000   8.0000000   6.0000000

  Atom        11          12          13          14          15          16          17          18          19          20
 IAtWgt=          12          12          32           1           1           1           1           1           1           1
 AtmWgt=  12.0000000  12.0000000  31.9720718   1.0078250   1.0078250   1.0078250   1.0078250   1.0078250   1.0078250   1.0078250
 NucSpn=           0           0           0           1           1           1           1           1           1           1
 AtZEff=  -0.0000000  -0.0000000  -0.0000000  -0.0000000  -0.0000000  -0.0000000  -0.0000000  -0.0000000  -0.0000000  -0.0000000
 NQMom=    0.0000000   0.0000000   0.0000000   0.0000000   0.0000000   0.0000000   0.0000000   0.0000000   0.0000000   0.0000000
 NMagM=    0.0000000   0.0000000   0.0000000   2.7928460   2.7928460   2.7928460   2.7928460   2.7928460   2.7928460   2.7928460
 AtZNuc=   6.0000000   6.0000000  16.0000000   1.0000000   1.0000000   1.0000000   1.0000000   1.0000000   1.0000000   1.0000000

  Atom        21          22
 IAtWgt=           1           1
 AtmWgt=   1.0078250   1.0078250
 NucSpn=           1           1
 AtZEff=  -0.0000000  -0.0000000
 NQMom=    0.0000000   0.0000000
 NMagM=    2.7928460   2.7928460
 AtZNuc=   1.0000000   1.0000000
 Leave Link  101 at Sat Jul 25 13:23:18 2020, MaxMem=  4026531840 cpu:               2.3 elap:               0.4
 (Enter /opt/ohpc/pub/libs/gaussian/g16-A.03/sandybridge/g16/l103.exe)

 GradGradGradGradGradGradGradGradGradGradGradGradGradGradGradGradGradGrad
 Berny optimization.
 Initialization pass.
                           ----------------------------
                           !    Initial Parameters    !
                           ! (Angstroms and Degrees)  !
 --------------------------                            --------------------------
 ! Name  Definition              Value          Derivative Info.                !
 --------------------------------------------------------------------------------
 ! R1    R(1,2)                  1.4144         estimate D2E/DX2                !
 ! R2    R(1,6)                  1.3272         estimate D2E/DX2                !
 ! R3    R(1,14)                 1.1224         estimate D2E/DX2                !
 ! R4    R(2,3)                  1.3749         estimate D2E/DX2                !
 ! R5    R(2,15)                 1.0355         estimate D2E/DX2                !
 ! R6    R(3,4)                  1.3595         estimate D2E/DX2                !
 ! R7    R(3,16)                 1.1279         estimate D2E/DX2                !
 ! R8    R(4,5)                  1.3242         estimate D2E/DX2                !
 ! R9    R(4,7)                  1.4923         estimate D2E/DX2                !
 ! R10   R(5,6)                  1.3332         estimate D2E/DX2                !
 ! R11   R(6,17)                 1.1669         estimate D2E/DX2                !
 ! R12   R(7,8)                  1.4234         estimate D2E/DX2                !
 ! R13   R(7,13)                 1.7387         estimate D2E/DX2                !
 ! R14   R(8,9)                  1.3621         estimate D2E/DX2                !
 ! R15   R(8,11)                 1.4825         estimate D2E/DX2                !
 ! R16   R(9,10)                 1.3325         estimate D2E/DX2                !
 ! R17   R(10,18)                1.1002         estimate D2E/DX2                !
 ! R18   R(10,19)                1.1495         estimate D2E/DX2                !
 ! R19   R(10,20)                1.1046         estimate D2E/DX2                !
 ! R20   R(11,12)                1.3999         estimate D2E/DX2                !
 ! R21   R(11,21)                1.0407         estimate D2E/DX2                !
 ! R22   R(12,13)                1.7299         estimate D2E/DX2                !
 ! R23   R(12,22)                1.0396         estimate D2E/DX2                !
 ! A1    A(2,1,6)              119.4101         estimate D2E/DX2                !
 ! A2    A(2,1,14)             120.4098         estimate D2E/DX2                !
 ! A3    A(6,1,14)             120.1794         estimate D2E/DX2                !
 ! A4    A(1,2,3)              115.8534         estimate D2E/DX2                !
 ! A5    A(1,2,15)             123.2932         estimate D2E/DX2                !
 ! A6    A(3,2,15)             120.7601         estimate D2E/DX2                !
 ! A7    A(2,3,4)              119.7954         estimate D2E/DX2                !
 ! A8    A(2,3,16)             120.3739         estimate D2E/DX2                !
 ! A9    A(4,3,16)             119.6325         estimate D2E/DX2                !
 ! A10   A(3,4,5)              124.2859         estimate D2E/DX2                !
 ! A11   A(3,4,7)              122.9652         estimate D2E/DX2                !
 ! A12   A(5,4,7)              112.7237         estimate D2E/DX2                !
 ! A13   A(4,5,6)              115.5517         estimate D2E/DX2                !
 ! A14   A(1,6,5)              125.0314         estimate D2E/DX2                !
 ! A15   A(1,6,17)             117.7594         estimate D2E/DX2                !
 ! A16   A(5,6,17)             117.1626         estimate D2E/DX2                !
 ! A17   A(4,7,8)              130.6101         estimate D2E/DX2                !
 ! A18   A(4,7,13)             117.7043         estimate D2E/DX2                !
 ! A19   A(8,7,13)             111.1955         estimate D2E/DX2                !
 ! A20   A(7,8,9)              120.5563         estimate D2E/DX2                !
 ! A21   A(7,8,11)             111.1772         estimate D2E/DX2                !
 ! A22   A(9,8,11)             128.1455         estimate D2E/DX2                !
 ! A23   A(8,9,10)             115.8485         estimate D2E/DX2                !
 ! A24   A(9,10,18)            117.132          estimate D2E/DX2                !
 ! A25   A(9,10,19)            113.4029         estimate D2E/DX2                !
 ! A26   A(9,10,20)            108.1618         estimate D2E/DX2                !
 ! A27   A(18,10,19)           103.5544         estimate D2E/DX2                !
 ! A28   A(18,10,20)           107.6618         estimate D2E/DX2                !
 ! A29   A(19,10,20)           106.2919         estimate D2E/DX2                !
 ! A30   A(8,11,12)            112.2246         estimate D2E/DX2                !
 ! A31   A(8,11,21)            119.5053         estimate D2E/DX2                !
 ! A32   A(12,11,21)           128.2531         estimate D2E/DX2                !
 ! A33   A(11,12,13)           111.8397         estimate D2E/DX2                !
 ! A34   A(11,12,22)           127.5684         estimate D2E/DX2                !
 ! A35   A(13,12,22)           120.5886         estimate D2E/DX2                !
 ! A36   A(7,13,12)             93.4979         estimate D2E/DX2                !
 ! D1    D(6,1,2,3)              0.4797         estimate D2E/DX2                !
 ! D2    D(6,1,2,15)           176.9852         estimate D2E/DX2                !
 ! D3    D(14,1,2,3)          -179.223          estimate D2E/DX2                !
 ! D4    D(14,1,2,15)           -2.7174         estimate D2E/DX2                !
 ! D5    D(2,1,6,5)              1.0568         estimate D2E/DX2                !
 ! D6    D(2,1,6,17)           178.4949         estimate D2E/DX2                !
 ! D7    D(14,1,6,5)          -179.2398         estimate D2E/DX2                !
 ! D8    D(14,1,6,17)           -1.8017         estimate D2E/DX2                !
 ! D9    D(1,2,3,4)             -0.1122         estimate D2E/DX2                !
 ! D10   D(1,2,3,16)           174.7533         estimate D2E/DX2                !
 ! D11   D(15,2,3,4)          -176.7132         estimate D2E/DX2                !
 ! D12   D(15,2,3,16)           -1.8478         estimate D2E/DX2                !
 ! D13   D(2,3,4,5)             -1.8457         estimate D2E/DX2                !
 ! D14   D(2,3,4,7)            176.1971         estimate D2E/DX2                !
 ! D15   D(16,3,4,5)          -176.7495         estimate D2E/DX2                !
 ! D16   D(16,3,4,7)             1.2933         estimate D2E/DX2                !
 ! D17   D(3,4,5,6)              3.2082         estimate D2E/DX2                !
 ! D18   D(7,4,5,6)           -175.0115         estimate D2E/DX2                !
 ! D19   D(3,4,7,8)            -33.6074         estimate D2E/DX2                !
 ! D20   D(3,4,7,13)           137.5654         estimate D2E/DX2                !
 ! D21   D(5,4,7,8)            144.6394         estimate D2E/DX2                !
 ! D22   D(5,4,7,13)           -44.1878         estimate D2E/DX2                !
 ! D23   D(4,5,6,1)             -2.8235         estimate D2E/DX2                !
 ! D24   D(4,5,6,17)           179.7246         estimate D2E/DX2                !
 ! D25   D(4,7,8,9)             -3.1923         estimate D2E/DX2                !
 ! D26   D(4,7,8,11)           173.1246         estimate D2E/DX2                !
 ! D27   D(13,7,8,9)          -174.8133         estimate D2E/DX2                !
 ! D28   D(13,7,8,11)            1.5035         estimate D2E/DX2                !
 ! D29   D(4,7,13,12)         -175.0589         estimate D2E/DX2                !
 ! D30   D(8,7,13,12)           -2.2367         estimate D2E/DX2                !
 ! D31   D(7,8,9,10)          -171.4619         estimate D2E/DX2                !
 ! D32   D(11,8,9,10)           12.9063         estimate D2E/DX2                !
 ! D33   D(7,8,11,12)            0.26           estimate D2E/DX2                !
 ! D34   D(7,8,11,21)          178.8786         estimate D2E/DX2                !
 ! D35   D(9,8,11,12)          176.2266         estimate D2E/DX2                !
 ! D36   D(9,8,11,21)           -5.1548         estimate D2E/DX2                !
 ! D37   D(8,9,10,18)           52.7657         estimate D2E/DX2                !
 ! D38   D(8,9,10,19)          -67.8139         estimate D2E/DX2                !
 ! D39   D(8,9,10,20)          174.5611         estimate D2E/DX2                !
 ! D40   D(8,11,12,13)          -1.9227         estimate D2E/DX2                !
 ! D41   D(8,11,12,22)         177.4168         estimate D2E/DX2                !
 ! D42   D(21,11,12,13)        179.6083         estimate D2E/DX2                !
 ! D43   D(21,11,12,22)         -1.0522         estimate D2E/DX2                !
 ! D44   D(11,12,13,7)           2.4054         estimate D2E/DX2                !
 ! D45   D(22,12,13,7)        -176.9864         estimate D2E/DX2                !
 --------------------------------------------------------------------------------
 Trust Radius=3.00D-01 FncErr=1.00D-07 GrdErr=1.00D-06 EigMax=2.50D+02 EigMin=1.00D-04
 Number of steps in this run=    114 maximum allowed number of steps=    132.
 GradGradGradGradGradGradGradGradGradGradGradGradGradGradGradGradGradGrad

 Leave Link  103 at Sat Jul 25 13:23:18 2020, MaxMem=  4026531840 cpu:               0.2 elap:               0.0
 (Enter /opt/ohpc/pub/libs/gaussian/g16-A.03/sandybridge/g16/l202.exe)
                          Input orientation:                          
 ---------------------------------------------------------------------
 Center     Atomic      Atomic             Coordinates (Angstroms)
 Number     Number       Type             X           Y           Z
 ---------------------------------------------------------------------
      1          6           0        3.690715    0.311472    0.061120
      2          6           0        2.915334    1.246566   -0.663450
      3          6           0        1.563331    0.999957   -0.705325
      4          6           0        1.055895   -0.091677   -0.073666
      5          7           0        1.787177   -0.986431    0.572877
      6          6           0        3.093058   -0.725389    0.634772
      7          6           0       -0.406054   -0.382692   -0.003445
      8          6           0       -1.522786    0.496102    0.078120
      9          8           0       -1.339109    1.842778    0.167956
     10          6           0       -2.432345    2.562928    0.416599
     11          6           0       -2.799585   -0.248117   -0.038751
     12          6           0       -2.597804   -1.624682   -0.193872
     13         16           0       -0.916155   -2.025774   -0.254670
     14          1           0        4.801006    0.445952    0.155570
     15          1           0        3.311660    2.099815   -1.095953
     16          1           0        0.862864    1.741946   -1.186015
     17          1           0        3.763508   -1.493362    1.202606
     18          1           0       -3.039304    2.269688    1.286097
     19          1           0       -3.186501    2.562393   -0.450906
     20          1           0       -2.126517    3.614534    0.560686
     21          1           0       -3.701197    0.268183    0.021747
     22          1           0       -3.321694   -2.367954   -0.260065
 ---------------------------------------------------------------------
                    Distance matrix (angstroms):
                    1          2          3          4          5
     1  C    0.000000
     2  C    1.414432   0.000000
     3  C    2.363728   1.374948   0.000000
     4  C    2.668890   2.365640   1.359467   0.000000
     5  N    2.360064   2.790613   2.372687   1.324151   0.000000
     6  C    1.327159   2.367609   2.666973   2.248001   1.333154
     7  C    4.155665   3.757886   2.506558   1.492285   2.346681
     8  C    5.216797   4.561801   3.223627   2.649173   3.660402
     9  O    5.258844   4.375727   3.145970   3.088129   4.235806
    10  C    6.533551   5.612218   4.434751   4.410794   5.516044
    11  C    6.515145   5.940086   4.586616   3.858811   4.685892
    12  C    6.584769   6.233720   4.946247   3.964098   4.497035
    13  S    5.175490   5.055256   3.937764   2.768118   3.012154
    14  H    1.122387   2.206249   3.395674   3.790442   3.362890
    15  H    2.163486   1.035455   2.102126   3.306990   3.825435
    16  H    3.405634   2.175111   1.127947   2.153312   3.375218
    17  H    2.136753   3.421808   3.833747   3.305262   2.135280
    18  H    7.115359   6.348640   5.173222   4.918908   5.865655
    19  H    7.254303   6.245716   5.006679   5.018398   6.195140
    20  H    6.708202   5.703161   4.696145   4.926068   6.040367
    21  H    7.392144   6.723482   5.364642   4.771638   5.656859
    22  H    7.513745   7.219972   5.950172   4.937557   5.357514
                    6          7          8          9         10
     6  C    0.000000
     7  C    3.573310   0.000000
     8  C    4.807070   1.423384   0.000000
     9  O    5.143686   2.419233   1.362110   0.000000
    10  C    6.433561   3.599857   2.283339   1.332518   0.000000
    11  C    5.950182   2.397571   1.482476   2.558820   2.871269
    12  C    5.820764   2.526375   2.393192   3.706550   4.235107
    13  S    4.307656   1.738688   2.615073   3.914486   4.879100
    14  H    2.125738   5.274980   6.324465   6.297006   7.541292
    15  H    3.320388   4.601936   5.227065   4.826302   5.957842
    16  H    3.791671   2.742756   2.973464   2.586907   3.755101
    17  H    1.166928   4.480334   5.759109   6.183610   7.447140
    18  H    6.855696   3.953738   2.627669   2.079220   1.100189
    19  H    7.170849   4.074878   2.705065   2.076943   1.149485
    20  H    6.788548   4.388172   3.212784   1.978223   1.104612
    21  H    6.893830   3.358905   2.191027   2.842567   2.651744
    22  H    6.681901   3.536676   3.399008   4.673768   5.055929
                   11         12         13         14         15
    11  C    0.000000
    12  C    1.399896   0.000000
    13  S    2.598845   1.729889   0.000000
    14  H    7.634689   7.691035   6.242087   0.000000
    15  H    6.631574   7.043252   5.966797   2.553375   0.000000
    16  H    4.323205   4.928971   4.269429   4.357570   2.476446
    17  H    6.794541   6.514114   4.930148   2.435903   4.289343
    18  H    2.855176   4.189433   5.033162   8.128626   6.785113
    19  H    2.866800   4.236063   5.122915   8.285373   6.546462
    20  H    3.966411   5.314212   5.826050   7.628539   5.883247
    21  H    1.040735   2.201569   3.618716   8.505114   7.333777
    22  H    2.194376   1.039640   2.429760   8.606339   8.041210
                   16         17         18         19         20
    16  H    0.000000
    17  H    4.958474   0.000000
    18  H    4.649383   7.774688   0.000000
    19  H    4.196531   8.214979   1.767632   0.000000
    20  H    3.936235   7.822727   1.779891   1.803853   0.000000
    21  H    4.945839   7.760109   2.458192   2.398273   3.737397
    22  H    5.937945   7.287277   4.896742   4.935891   6.155668
                   21         22
    21  H    0.000000
    22  H    2.678182   0.000000
 Stoichiometry    C10H9NOS
 Framework group  C1[X(C10H9NOS)]
 Deg. of freedom    60
 Full point group                 C1      NOp   1
 Largest Abelian subgroup         C1      NOp   1
 Largest concise Abelian subgroup C1      NOp   1
                         Standard orientation:                         
 ---------------------------------------------------------------------
 Center     Atomic      Atomic             Coordinates (Angstroms)
 Number     Number       Type             X           Y           Z
 ---------------------------------------------------------------------
      1          6           0        3.690915    0.324091    0.086358
      2          6           0        2.915761    1.250109   -0.650016
      3          6           0        1.564610    0.999362   -0.694698
      4          6           0        1.057746   -0.087631   -0.054632
      5          7           0        1.788989   -0.974174    0.603167
      6          6           0        3.093903   -0.708933    0.667555
      7          6           0       -0.403659   -0.382023    0.012779
      8          6           0       -1.523099    0.494402    0.081732
      9          8           0       -1.343458    1.842375    0.159465
     10          6           0       -2.439609    2.561816    0.397085
     11          6           0       -2.797397   -0.254434   -0.032927
     12          6           0       -2.591252   -1.631844   -0.174189
     13         16           0       -0.908290   -2.028826   -0.224763
     14          1           0        4.800462    0.462543    0.183757
     15          1           0        3.311405    2.100311   -1.089094
     16          1           0        0.863962    1.734807   -1.185084
     17          1           0        3.764270   -1.469617    1.245213
     18          1           0       -3.049095    2.275159    1.267011
     19          1           0       -3.190426    2.550953   -0.473244
     20          1           0       -2.137218    3.615587    0.532337
     21          1           0       -3.700646    0.259913    0.019225
     22          1           0       -3.312844   -2.377717   -0.236075
 ---------------------------------------------------------------------
 Rotational constants (GHZ):           1.1874594           0.5435938           0.3914834
 Leave Link  202 at Sat Jul 25 13:23:18 2020, MaxMem=  4026531840 cpu:               0.3 elap:               0.1
 (Enter /opt/ohpc/pub/libs/gaussian/g16-A.03/sandybridge/g16/l301.exe)
 Standard basis: CC-pVDZ (5D, 7F)
 Ernie: Thresh=  0.10000D-02 Tol=  0.10000D-05 Strict=F.
 Ernie:  34 primitive shells out of 359 were deleted.
 There are   244 symmetry adapted cartesian basis functions of A   symmetry.
 There are   231 symmetry adapted basis functions of A   symmetry.
   231 basis functions,   530 primitive gaussians,   244 cartesian basis functions
    50 alpha electrons       50 beta electrons
       nuclear repulsion energy       838.2970282351 Hartrees.
 IExCor=32609 DFT=T Ex+Corr=LC-wPBE ExCW=0 ScaHFX=  1.000000
 ScaDFX=  1.000000  0.000000  1.000000  1.000000 ScalE2=  1.000000  1.000000
 IRadAn=      5 IRanWt=     -1 IRanGd=            0 ICorTp=0 IEmpDi=  4
 HFx  wShort=  0.000000 wLong=  0.248300 cFull=  0.000000 cShort=  0.000000 cLong=  1.000000
 DFx  wShort=  0.000000 wLong=  0.248300 cFull=  0.000000 cShort=  0.000000 cLong=  1.000000
 NAtoms=   22 NActive=   22 NUniq=   22 SFac= 1.00D+00 NAtFMM=   60 NAOKFM=F Big=F
 Integral buffers will be    131072 words long.
 Raffenetti 2 integral format.
 Two-electron integral symmetry is turned on.
 Leave Link  301 at Sat Jul 25 13:23:18 2020, MaxMem=  4026531840 cpu:               0.4 elap:               0.1
 (Enter /opt/ohpc/pub/libs/gaussian/g16-A.03/sandybridge/g16/l302.exe)
 NPDir=0 NMtPBC=     1 NCelOv=     1 NCel=       1 NClECP=     1 NCelD=      1
         NCelK=      1 NCelE2=     1 NClLst=     1 CellRange=     0.0.
 One-electron integrals computed using PRISM.
 One-electron integral symmetry used in STVInt
 NBasis=   231 RedAO= T EigKep=  5.42D-04  NBF=   231
 NBsUse=   231 1.00D-06 EigRej= -1.00D+00 NBFU=   231
 Precomputing XC quadrature grid using
 IXCGrd= 4 IRadAn=           5 IRanWt=          -1 IRanGd=           0 AccXCQ= 0.00D+00.
 Generated NRdTot=       0 NPtTot=           0 NUsed=           0 NTot=          32
 NSgBfM=   244   244   244   244   244 MxSgAt=    22 MxSgA2=    22.
 Leave Link  302 at Sat Jul 25 13:23:19 2020, MaxMem=  4026531840 cpu:               3.9 elap:               0.7
 (Enter /opt/ohpc/pub/libs/gaussian/g16-A.03/sandybridge/g16/l303.exe)
 DipDrv:  MaxL=1.
 Leave Link  303 at Sat Jul 25 13:23:19 2020, MaxMem=  4026531840 cpu:               1.1 elap:               0.3
 (Enter /opt/ohpc/pub/libs/gaussian/g16-A.03/sandybridge/g16/l401.exe)
 ExpMin= 1.22D-01 ExpMax= 1.11D+05 ExpMxC= 1.07D+03 IAcc=3 IRadAn=         5 AccDes= 0.00D+00
 Harris functional with IExCor=32609 and IRadAn=       5 diagonalized for initial guess.
 HarFok:  IExCor=32609 AccDes= 0.00D+00 IRadAn=         5 IDoV= 1 UseB2=F ITyADJ=14
 ICtDFT=  3500011 ScaDFX=  1.000000  1.000000  1.000000  1.000000
 FoFCou: FMM=F IPFlag=           0 FMFlag=      100000 FMFlg1=           0
         NFxFlg=           0 DoJE=T BraDBF=F KetDBF=T FulRan=T
         wScrn=  0.000000 ICntrl=       500 IOpCl=  0 I1Cent=   200000004 NGrid=           0
         NMat0=    1 NMatS0=      1 NMatT0=    0 NMatD0=    1 NMtDS0=    0 NMtDT0=    0
 Petite list used in FoFCou.
 Harris En= -914.019306901118    
 JPrj=0 DoOrth=F DoCkMO=F.
 Initial guess <Sx>= 0.0000 <Sy>= 0.0000 <Sz>= 0.0000 <S**2>=-0.0000 S=-0.0000
 Leave Link  401 at Sat Jul 25 13:23:22 2020, MaxMem=  4026531840 cpu:              11.5 elap:               2.8
 (Enter /opt/ohpc/pub/libs/gaussian/g16-A.03/sandybridge/g16/l502.exe)
 Integral symmetry usage will be decided dynamically.
 UHF open shell SCF:
 Using DIIS extrapolation, IDIIS=  1040.
 NGot=  4026531840 LenX=  4026408160 LenY=  4026348183
 Requested convergence on RMS density matrix=1.00D-08 within 128 cycles.
 Requested convergence on MAX density matrix=1.00D-06.
 Requested convergence on             energy=1.00D-06.
 No special actions if energy rises.
 Fock matrices will be formed incrementally for  20 cycles.
 Integral accuracy reduced to 1.0D-05 until final iterations.

 Cycle   1  Pass 0  IDiag  1:
 FoFJK:  IHMeth= 1 ICntrl=       0 DoSepK=T KAlg= 0 I1Cent=           0 FoldK=F
 IRaf=         1 NMat=       1 IRICut=       1 DoRegI=T DoRafI=F ISym2E= 0 IDoP0=0 IntGTp=1.
 FoFCou: FMM=F IPFlag=           0 FMFlag=      100000 FMFlg1=           0
         NFxFlg=           0 DoJE=T BraDBF=F KetDBF=F FulRan=T
         wScrn=  0.000000 ICntrl=       500 IOpCl=  0 I1Cent=           0 NGrid=           0
         NMat0=    1 NMatS0=      1 NMatT0=    0 NMatD0=    1 NMtDS0=    0 NMtDT0=    0
 Symmetry not used in FoFCou.
 E= -913.801251987098    
 DIIS: error= 2.25D-02 at cycle   1 NSaved=   1.
 NSaved= 1 IEnMin= 1 EnMin= -913.801251987098     IErMin= 1 ErrMin= 2.25D-02
 ErrMax= 2.25D-02  0.00D+00 EMaxC= 1.00D-01 BMatC= 8.90D-01 BMatP= 8.90D-01
 IDIUse=3 WtCom= 7.75D-01 WtEn= 2.25D-01
 Coeff-Com:  0.100D+01
 Coeff-En:   0.100D+01
 Coeff:      0.100D+01
 Gap=     0.375 Goal=   None    Shift=    0.000
 Gap=     0.375 Goal=   None    Shift=    0.000
 GapD=    0.375 DampG=1.000 DampE=0.500 DampFc=0.5000 IDamp=-1.
 Damping current iteration by 5.00D-01
 RMSDP=4.04D-03 MaxDP=1.41D-01              OVMax= 1.78D-01

 Cycle   2  Pass 0  IDiag  1:
 RMSU=  2.00D-03    CP:  9.87D-01
 E= -913.931480422020     Delta-E=       -0.130228434922 Rises=F Damp=T
 DIIS: error= 3.86D-03 at cycle   2 NSaved=   2.
 NSaved= 2 IEnMin= 2 EnMin= -913.931480422020     IErMin= 2 ErrMin= 3.86D-03
 ErrMax= 3.86D-03  0.00D+00 EMaxC= 1.00D-01 BMatC= 3.71D-02 BMatP= 8.90D-01
 IDIUse=3 WtCom= 9.61D-01 WtEn= 3.86D-02
 Coeff-Com: -0.421D-01 0.104D+01
 Coeff-En:   0.000D+00 0.100D+01
 Coeff:     -0.405D-01 0.104D+01
 Gap=     0.330 Goal=   None    Shift=    0.000
 Gap=     0.330 Goal=   None    Shift=    0.000
 RMSDP=1.03D-03 MaxDP=2.43D-02 DE=-1.30D-01 OVMax= 1.00D-01

 Cycle   3  Pass 0  IDiag  1:
 RMSU=  9.94D-04    CP:  9.81D-01  1.12D+00
 E= -914.055403166227     Delta-E=       -0.123922744208 Rises=F Damp=F
 DIIS: error= 2.16D-03 at cycle   3 NSaved=   3.
 NSaved= 3 IEnMin= 3 EnMin= -914.055403166227     IErMin= 3 ErrMin= 2.16D-03
 ErrMax= 2.16D-03  0.00D+00 EMaxC= 1.00D-01 BMatC= 1.22D-02 BMatP= 3.71D-02
 IDIUse=3 WtCom= 9.78D-01 WtEn= 2.16D-02
 Coeff-Com: -0.326D-01 0.358D+00 0.674D+00
 Coeff-En:   0.000D+00 0.000D+00 0.100D+01
 Coeff:     -0.319D-01 0.351D+00 0.681D+00
 Gap=     0.302 Goal=   None    Shift=    0.000
 Gap=     0.302 Goal=   None    Shift=    0.000
 RMSDP=3.83D-04 MaxDP=1.31D-02 DE=-1.24D-01 OVMax= 2.83D-02

 Cycle   4  Pass 0  IDiag  1:
 RMSU=  3.15D-04    CP:  9.82D-01  1.16D+00  7.94D-01
 E= -914.058049932172     Delta-E=       -0.002646765945 Rises=F Damp=F
 DIIS: error= 1.23D-03 at cycle   4 NSaved=   4.
 NSaved= 4 IEnMin= 4 EnMin= -914.058049932172     IErMin= 4 ErrMin= 1.23D-03
 ErrMax= 1.23D-03  0.00D+00 EMaxC= 1.00D-01 BMatC= 3.60D-03 BMatP= 1.22D-02
 IDIUse=3 WtCom= 9.88D-01 WtEn= 1.23D-02
 Coeff-Com: -0.417D-02 0.531D-01 0.353D+00 0.598D+00
 Coeff-En:   0.000D+00 0.000D+00 0.158D+00 0.842D+00
 Coeff:     -0.412D-02 0.524D-01 0.350D+00 0.601D+00
 Gap=     0.303 Goal=   None    Shift=    0.000
 Gap=     0.303 Goal=   None    Shift=    0.000
 RMSDP=1.44D-04 MaxDP=6.03D-03 DE=-2.65D-03 OVMax= 1.13D-02

 Cycle   5  Pass 0  IDiag  1:
 RMSU=  9.58D-05    CP:  9.81D-01  1.15D+00  8.77D-01  7.87D-01
 E= -914.058996969220     Delta-E=       -0.000947037048 Rises=F Damp=F
 DIIS: error= 3.70D-04 at cycle   5 NSaved=   5.
 NSaved= 5 IEnMin= 5 EnMin= -914.058996969220     IErMin= 5 ErrMin= 3.70D-04
 ErrMax= 3.70D-04  0.00D+00 EMaxC= 1.00D-01 BMatC= 2.41D-04 BMatP= 3.60D-03
 IDIUse=3 WtCom= 9.96D-01 WtEn= 3.70D-03
 Coeff-Com:  0.547D-02-0.248D-01 0.603D-01 0.226D+00 0.733D+00
 Coeff-En:   0.000D+00 0.000D+00 0.000D+00 0.000D+00 0.100D+01
 Coeff:      0.545D-02-0.247D-01 0.600D-01 0.225D+00 0.734D+00
 Gap=     0.304 Goal=   None    Shift=    0.000
 Gap=     0.304 Goal=   None    Shift=    0.000
 RMSDP=5.29D-05 MaxDP=1.67D-03 DE=-9.47D-04 OVMax= 3.85D-03

 Cycle   6  Pass 0  IDiag  1:
 RMSU=  4.04D-05    CP:  9.81D-01  1.15D+00  8.93D-01  8.80D-01  1.03D+00
 E= -914.059082033563     Delta-E=       -0.000085064343 Rises=F Damp=F
 DIIS: error= 1.38D-04 at cycle   6 NSaved=   6.
 NSaved= 6 IEnMin= 6 EnMin= -914.059082033563     IErMin= 6 ErrMin= 1.38D-04
 ErrMax= 1.38D-04  0.00D+00 EMaxC= 1.00D-01 BMatC= 3.94D-05 BMatP= 2.41D-04
 IDIUse=3 WtCom= 9.99D-01 WtEn= 1.38D-03
 Coeff-Com:  0.392D-02-0.204D-01-0.241D-01 0.732D-02 0.282D+00 0.751D+00
 Coeff-En:   0.000D+00 0.000D+00 0.000D+00 0.000D+00 0.000D+00 0.100D+01
 Coeff:      0.391D-02-0.204D-01-0.241D-01 0.731D-02 0.282D+00 0.751D+00
 Gap=     0.304 Goal=   None    Shift=    0.000
 Gap=     0.304 Goal=   None    Shift=    0.000
 RMSDP=2.62D-05 MaxDP=1.10D-03 DE=-8.51D-05 OVMax= 2.83D-03

 Cycle   7  Pass 0  IDiag  1:
 RMSU=  1.61D-05    CP:  9.81D-01  1.15D+00  9.01D-01  9.12D-01  1.20D+00
                    CP:  1.05D+00
 E= -914.059103541264     Delta-E=       -0.000021507701 Rises=F Damp=F
 DIIS: error= 7.59D-05 at cycle   7 NSaved=   7.
 NSaved= 7 IEnMin= 7 EnMin= -914.059103541264     IErMin= 7 ErrMin= 7.59D-05
 ErrMax= 7.59D-05  0.00D+00 EMaxC= 1.00D-01 BMatC= 6.48D-06 BMatP= 3.94D-05
 IDIUse=1 WtCom= 1.00D+00 WtEn= 0.00D+00
 Coeff-Com:  0.270D-03-0.990D-03-0.143D-01-0.384D-01-0.935D-01 0.202D+00
 Coeff-Com:  0.945D+00
 Coeff:      0.270D-03-0.990D-03-0.143D-01-0.384D-01-0.935D-01 0.202D+00
 Coeff:      0.945D+00
 Gap=     0.304 Goal=   None    Shift=    0.000
 Gap=     0.304 Goal=   None    Shift=    0.000
 RMSDP=1.66D-05 MaxDP=6.04D-04 DE=-2.15D-05 OVMax= 1.68D-03

 Cycle   8  Pass 0  IDiag  1:
 RMSU=  7.00D-06    CP:  9.81D-01  1.15D+00  9.05D-01  9.33D-01  1.27D+00
                    CP:  1.30D+00  1.21D+00
 E= -914.059108492102     Delta-E=       -0.000004950838 Rises=F Damp=F
 DIIS: error= 2.35D-05 at cycle   8 NSaved=   8.
 NSaved= 8 IEnMin= 8 EnMin= -914.059108492102     IErMin= 8 ErrMin= 2.35D-05
 ErrMax= 2.35D-05  0.00D+00 EMaxC= 1.00D-01 BMatC= 1.58D-06 BMatP= 6.48D-06
 IDIUse=1 WtCom= 1.00D+00 WtEn= 0.00D+00
 Coeff-Com: -0.364D-03 0.218D-02-0.308D-02-0.197D-01-0.913D-01-0.133D-01
 Coeff-Com:  0.447D+00 0.679D+00
 Coeff:     -0.364D-03 0.218D-02-0.308D-02-0.197D-01-0.913D-01-0.133D-01
 Coeff:      0.447D+00 0.679D+00
 Gap=     0.304 Goal=   None    Shift=    0.000
 Gap=     0.304 Goal=   None    Shift=    0.000
 RMSDP=5.43D-06 MaxDP=2.23D-04 DE=-4.95D-06 OVMax= 6.56D-04

 Initial convergence to 1.0D-05 achieved.  Increase integral accuracy.
 Cycle   9  Pass 1  IDiag  1:
 E= -914.058961381910     Delta-E=        0.000147110193 Rises=F Damp=F
 DIIS: error= 4.93D-05 at cycle   1 NSaved=   1.
 NSaved= 1 IEnMin= 1 EnMin= -914.058961381910     IErMin= 1 ErrMin= 4.93D-05
 ErrMax= 4.93D-05  0.00D+00 EMaxC= 1.00D-01 BMatC= 1.30D-06 BMatP= 1.30D-06
 IDIUse=1 WtCom= 1.00D+00 WtEn= 0.00D+00
 Coeff-Com:  0.100D+01
 Coeff:      0.100D+01
 Gap=     0.304 Goal=   None    Shift=    0.000
 Gap=     0.304 Goal=   None    Shift=    0.000
 RMSDP=5.43D-06 MaxDP=2.23D-04 DE= 1.47D-04 OVMax= 2.09D-04

 Cycle  10  Pass 1  IDiag  1:
 RMSU=  2.62D-05    CP:  1.00D+00
 E= -914.058961639979     Delta-E=       -0.000000258069 Rises=F Damp=F
 DIIS: error= 7.35D-06 at cycle   2 NSaved=   2.
 NSaved= 2 IEnMin= 2 EnMin= -914.058961639979     IErMin= 2 ErrMin= 7.35D-06
 ErrMax= 7.35D-06  0.00D+00 EMaxC= 1.00D-01 BMatC= 1.20D-07 BMatP= 1.30D-06
 IDIUse=1 WtCom= 1.00D+00 WtEn= 0.00D+00
 Coeff-Com:  0.980D-01 0.902D+00
 Coeff:      0.980D-01 0.902D+00
 Gap=     0.304 Goal=   None    Shift=    0.000
 Gap=     0.304 Goal=   None    Shift=    0.000
 RMSDP=2.08D-06 MaxDP=6.74D-05 DE=-2.58D-07 OVMax= 1.54D-04

 Cycle  11  Pass 1  IDiag  1:
 RMSU=  1.58D-06    CP:  1.00D+00  1.05D+00
 E= -914.058961651118     Delta-E=       -0.000000011139 Rises=F Damp=F
 DIIS: error= 8.92D-06 at cycle   3 NSaved=   3.
 NSaved= 3 IEnMin= 3 EnMin= -914.058961651118     IErMin= 2 ErrMin= 7.35D-06
 ErrMax= 8.92D-06  0.00D+00 EMaxC= 1.00D-01 BMatC= 1.47D-07 BMatP= 1.20D-07
 IDIUse=1 WtCom= 1.00D+00 WtEn= 0.00D+00
 Coeff-Com: -0.273D-01 0.533D+00 0.494D+00
 Coeff:     -0.273D-01 0.533D+00 0.494D+00
 Gap=     0.304 Goal=   None    Shift=    0.000
 Gap=     0.304 Goal=   None    Shift=    0.000
 RMSDP=8.69D-07 MaxDP=3.85D-05 DE=-1.11D-08 OVMax= 7.49D-05

 Cycle  12  Pass 1  IDiag  1:
 RMSU=  5.71D-07    CP:  1.00D+00  1.06D+00  6.26D-01
 E= -914.058961690893     Delta-E=       -0.000000039775 Rises=F Damp=F
 DIIS: error= 1.37D-06 at cycle   4 NSaved=   4.
 NSaved= 4 IEnMin= 4 EnMin= -914.058961690893     IErMin= 4 ErrMin= 1.37D-06
 ErrMax= 1.37D-06  0.00D+00 EMaxC= 1.00D-01 BMatC= 2.28D-09 BMatP= 1.20D-07
 IDIUse=1 WtCom= 1.00D+00 WtEn= 0.00D+00
 Coeff-Com: -0.843D-02 0.381D-01 0.649D-01 0.905D+00
 Coeff:     -0.843D-02 0.381D-01 0.649D-01 0.905D+00
 Gap=     0.304 Goal=   None    Shift=    0.000
 Gap=     0.304 Goal=   None    Shift=    0.000
 RMSDP=2.80D-07 MaxDP=1.04D-05 DE=-3.98D-08 OVMax= 2.68D-05

 Cycle  13  Pass 1  IDiag  1:
 RMSU=  1.85D-07    CP:  1.00D+00  1.06D+00  6.79D-01  1.32D+00
 E= -914.058961693047     Delta-E=       -0.000000002154 Rises=F Damp=F
 DIIS: error= 1.05D-06 at cycle   5 NSaved=   5.
 NSaved= 5 IEnMin= 5 EnMin= -914.058961693047     IErMin= 5 ErrMin= 1.05D-06
 ErrMax= 1.05D-06  0.00D+00 EMaxC= 1.00D-01 BMatC= 9.50D-10 BMatP= 2.28D-09
 IDIUse=1 WtCom= 1.00D+00 WtEn= 0.00D+00
 Coeff-Com:  0.679D-02-0.195D+00-0.167D+00 0.403D+00 0.952D+00
 Coeff:      0.679D-02-0.195D+00-0.167D+00 0.403D+00 0.952D+00
 Gap=     0.304 Goal=   None    Shift=    0.000
 Gap=     0.304 Goal=   None    Shift=    0.000
 RMSDP=2.43D-07 MaxDP=8.36D-06 DE=-2.15D-09 OVMax= 2.78D-05

 Cycle  14  Pass 1  IDiag  1:
 RMSU=  9.96D-08    CP:  1.00D+00  1.07D+00  7.21D-01  1.68D+00  1.29D+00
 E= -914.058961693997     Delta-E=       -0.000000000950 Rises=F Damp=F
 DIIS: error= 2.92D-07 at cycle   6 NSaved=   6.
 NSaved= 6 IEnMin= 6 EnMin= -914.058961693997     IErMin= 6 ErrMin= 2.92D-07
 ErrMax= 2.92D-07  0.00D+00 EMaxC= 1.00D-01 BMatC= 1.56D-10 BMatP= 9.50D-10
 IDIUse=1 WtCom= 1.00D+00 WtEn= 0.00D+00
 Coeff-Com:  0.403D-02-0.950D-01-0.847D-01 0.966D-01 0.461D+00 0.618D+00
 Coeff:      0.403D-02-0.950D-01-0.847D-01 0.966D-01 0.461D+00 0.618D+00
 Gap=     0.304 Goal=   None    Shift=    0.000
 Gap=     0.304 Goal=   None    Shift=    0.000
 RMSDP=4.75D-08 MaxDP=1.48D-06 DE=-9.50D-10 OVMax= 4.43D-06

 Cycle  15  Pass 1  IDiag  1:
 RMSU=  2.90D-08    CP:  1.00D+00  1.07D+00  7.27D-01  1.72D+00  1.43D+00
                    CP:  1.03D+00
 E= -914.058961694013     Delta-E=       -0.000000000016 Rises=F Damp=F
 DIIS: error= 7.88D-08 at cycle   7 NSaved=   7.
 NSaved= 7 IEnMin= 7 EnMin= -914.058961694013     IErMin= 7 ErrMin= 7.88D-08
 ErrMax= 7.88D-08  0.00D+00 EMaxC= 1.00D-01 BMatC= 1.12D-11 BMatP= 1.56D-10
 IDIUse=1 WtCom= 1.00D+00 WtEn= 0.00D+00
 Coeff-Com:  0.341D-03-0.308D-02-0.358D-02-0.309D-01 0.227D-01 0.212D+00
 Coeff-Com:  0.803D+00
 Coeff:      0.341D-03-0.308D-02-0.358D-02-0.309D-01 0.227D-01 0.212D+00
 Coeff:      0.803D+00
 Gap=     0.304 Goal=   None    Shift=    0.000
 Gap=     0.304 Goal=   None    Shift=    0.000
 RMSDP=1.77D-08 MaxDP=5.79D-07 DE=-1.64D-11 OVMax= 1.46D-06

 Cycle  16  Pass 1  IDiag  1:
 RMSU=  8.88D-09    CP:  1.00D+00  1.06D+00  7.27D-01  1.73D+00  1.46D+00
                    CP:  1.13D+00  9.43D-01
 E= -914.058961694035     Delta-E=       -0.000000000022 Rises=F Damp=F
 DIIS: error= 3.06D-08 at cycle   8 NSaved=   8.
 NSaved= 8 IEnMin= 8 EnMin= -914.058961694035     IErMin= 8 ErrMin= 3.06D-08
 ErrMax= 3.06D-08  0.00D+00 EMaxC= 1.00D-01 BMatC= 2.32D-12 BMatP= 1.12D-11
 IDIUse=1 WtCom= 1.00D+00 WtEn= 0.00D+00
 Coeff-Com: -0.248D-03 0.829D-02 0.715D-02-0.261D-01-0.363D-01 0.299D-01
 Coeff-Com:  0.385D+00 0.632D+00
 Coeff:     -0.248D-03 0.829D-02 0.715D-02-0.261D-01-0.363D-01 0.299D-01
 Coeff:      0.385D+00 0.632D+00
 Gap=     0.304 Goal=   None    Shift=    0.000
 Gap=     0.304 Goal=   None    Shift=    0.000
 RMSDP=5.36D-09 MaxDP=1.85D-07 DE=-2.16D-11 OVMax= 3.03D-07

 SCF Done:  E(ULC-wPBE) =  -914.058961694     A.U. after   16 cycles
            NFock= 16  Conv=0.54D-08     -V/T= 2.0045
 <Sx>= 0.0000 <Sy>= 0.0000 <Sz>= 0.0000 <S**2>=-0.0000 S=-0.0000
 <L.S>= 0.000000000000E+00
 KE= 9.099965377244D+02 PE=-3.823843948148D+03 EE= 1.161491420495D+03
 Annihilation of the first spin contaminant:
 S**2 before annihilation    -0.0000,   after    -0.0000
 Leave Link  502 at Sat Jul 25 13:24:23 2020, MaxMem=  4026531840 cpu:             479.7 elap:              60.7
 (Enter /opt/ohpc/pub/libs/gaussian/g16-A.03/sandybridge/g16/l601.exe)
 Copying SCF densities to generalized density rwf, IOpCl= 1 IROHF=0.

 **********************************************************************

            Population analysis using the SCF density.

 **********************************************************************

 Orbital symmetries:
 Alpha Orbitals:
       Occupied  (A) (A) (A) (A) (A) (A) (A) (A) (A) (A) (A) (A)
                 (A) (A) (A) (A) (A) (A) (A) (A) (A) (A) (A) (A)
                 (A) (A) (A) (A) (A) (A) (A) (A) (A) (A) (A) (A)
                 (A) (A) (A) (A) (A) (A) (A) (A) (A) (A) (A) (A)
                 (A) (A)
       Virtual   (A) (A) (A) (A) (A) (A) (A) (A) (A) (A) (A) (A)
                 (A) (A) (A) (A) (A) (A) (A) (A) (A) (A) (A) (A)
                 (A) (A) (A) (A) (A) (A) (A) (A) (A) (A) (A) (A)
                 (A) (A) (A) (A) (A) (A) (A) (A) (A) (A) (A) (A)
                 (A) (A) (A) (A) (A) (A) (A) (A) (A) (A) (A) (A)
                 (A) (A) (A) (A) (A) (A) (A) (A) (A) (A) (A) (A)
                 (A) (A) (A) (A) (A) (A) (A) (A) (A) (A) (A) (A)
                 (A) (A) (A) (A) (A) (A) (A) (A) (A) (A) (A) (A)
                 (A) (A) (A) (A) (A) (A) (A) (A) (A) (A) (A) (A)
                 (A) (A) (A) (A) (A) (A) (A) (A) (A) (A) (A) (A)
                 (A) (A) (A) (A) (A) (A) (A) (A) (A) (A) (A) (A)
                 (A) (A) (A) (A) (A) (A) (A) (A) (A) (A) (A) (A)
                 (A) (A) (A) (A) (A) (A) (A) (A) (A) (A) (A) (A)
                 (A) (A) (A) (A) (A) (A) (A) (A) (A) (A) (A) (A)
                 (A) (A) (A) (A) (A) (A) (A) (A) (A) (A) (A) (A)
                 (A)
 Beta  Orbitals:
       Occupied  (A) (A) (A) (A) (A) (A) (A) (A) (A) (A) (A) (A)
                 (A) (A) (A) (A) (A) (A) (A) (A) (A) (A) (A) (A)
                 (A) (A) (A) (A) (A) (A) (A) (A) (A) (A) (A) (A)
                 (A) (A) (A) (A) (A) (A) (A) (A) (A) (A) (A) (A)
                 (A) (A)
       Virtual   (A) (A) (A) (A) (A) (A) (A) (A) (A) (A) (A) (A)
                 (A) (A) (A) (A) (A) (A) (A) (A) (A) (A) (A) (A)
                 (A) (A) (A) (A) (A) (A) (A) (A) (A) (A) (A) (A)
                 (A) (A) (A) (A) (A) (A) (A) (A) (A) (A) (A) (A)
                 (A) (A) (A) (A) (A) (A) (A) (A) (A) (A) (A) (A)
                 (A) (A) (A) (A) (A) (A) (A) (A) (A) (A) (A) (A)
                 (A) (A) (A) (A) (A) (A) (A) (A) (A) (A) (A) (A)
                 (A) (A) (A) (A) (A) (A) (A) (A) (A) (A) (A) (A)
                 (A) (A) (A) (A) (A) (A) (A) (A) (A) (A) (A) (A)
                 (A) (A) (A) (A) (A) (A) (A) (A) (A) (A) (A) (A)
                 (A) (A) (A) (A) (A) (A) (A) (A) (A) (A) (A) (A)
                 (A) (A) (A) (A) (A) (A) (A) (A) (A) (A) (A) (A)
                 (A) (A) (A) (A) (A) (A) (A) (A) (A) (A) (A) (A)
                 (A) (A) (A) (A) (A) (A) (A) (A) (A) (A) (A) (A)
                 (A) (A) (A) (A) (A) (A) (A) (A) (A) (A) (A) (A)
                 (A)
 The electronic state is 1-A.
 Alpha  occ. eigenvalues --  -88.23367 -18.94544 -14.12844 -10.10372 -10.09092
 Alpha  occ. eigenvalues --  -10.07932 -10.06660 -10.06493 -10.06099 -10.05355
 Alpha  occ. eigenvalues --  -10.04643 -10.04333 -10.04328  -7.83736  -5.85679
 Alpha  occ. eigenvalues --   -5.85191  -5.84816  -1.15189  -1.01899  -0.93898
 Alpha  occ. eigenvalues --   -0.87764  -0.85394  -0.82274  -0.79532  -0.75324
 Alpha  occ. eigenvalues --   -0.71286  -0.69876  -0.64774  -0.63923  -0.61934
 Alpha  occ. eigenvalues --   -0.56840  -0.56390  -0.55294  -0.54900  -0.52126
 Alpha  occ. eigenvalues --   -0.51364  -0.50315  -0.49260  -0.47545  -0.46073
 Alpha  occ. eigenvalues --   -0.45581  -0.42733  -0.41835  -0.40500  -0.39184
 Alpha  occ. eigenvalues --   -0.36922  -0.35935  -0.33362  -0.30989  -0.28008
 Alpha virt. eigenvalues --    0.02353   0.04723   0.07956   0.11612   0.13416
 Alpha virt. eigenvalues --    0.14001   0.14142   0.16576   0.17993   0.18369
 Alpha virt. eigenvalues --    0.19327   0.20492   0.20997   0.21761   0.23100
 Alpha virt. eigenvalues --    0.23452   0.25026   0.30275   0.30435   0.33901
 Alpha virt. eigenvalues --    0.34599   0.36696   0.37945   0.39108   0.42578
 Alpha virt. eigenvalues --    0.44640   0.48434   0.50186   0.50687   0.51219
 Alpha virt. eigenvalues --    0.51451   0.52453   0.53126   0.53289   0.54638
 Alpha virt. eigenvalues --    0.55712   0.56022   0.56633   0.56759   0.57583
 Alpha virt. eigenvalues --    0.57917   0.59152   0.60246   0.60507   0.61533
 Alpha virt. eigenvalues --    0.62391   0.64135   0.64436   0.65251   0.66750
 Alpha virt. eigenvalues --    0.68027   0.68083   0.68558   0.70173   0.70992
 Alpha virt. eigenvalues --    0.71493   0.73021   0.73386   0.75102   0.75801
 Alpha virt. eigenvalues --    0.76093   0.78212   0.79826   0.80606   0.82867
 Alpha virt. eigenvalues --    0.84794   0.86909   0.89658   0.91320   0.93448
 Alpha virt. eigenvalues --    0.93972   0.94651   0.97582   0.99428   0.99586
 Alpha virt. eigenvalues --    1.01057   1.01922   1.02829   1.03643   1.03812
 Alpha virt. eigenvalues --    1.05209   1.06290   1.07865   1.08818   1.09648
 Alpha virt. eigenvalues --    1.10661   1.13514   1.14109   1.15912   1.17505
 Alpha virt. eigenvalues --    1.21015   1.23117   1.23892   1.26402   1.26850
 Alpha virt. eigenvalues --    1.28817   1.30640   1.34339   1.36789   1.39050
 Alpha virt. eigenvalues --    1.39825   1.43040   1.45568   1.46464   1.47557
 Alpha virt. eigenvalues --    1.52010   1.53492   1.54830   1.55631   1.56483
 Alpha virt. eigenvalues --    1.57199   1.58187   1.60772   1.62235   1.63514
 Alpha virt. eigenvalues --    1.64533   1.66370   1.67259   1.68364   1.69073
 Alpha virt. eigenvalues --    1.70109   1.71149   1.72423   1.73254   1.74333
 Alpha virt. eigenvalues --    1.75533   1.77288   1.79446   1.80623   1.82339
 Alpha virt. eigenvalues --    1.83026   1.83910   1.84842   1.87405   1.91034
 Alpha virt. eigenvalues --    1.91507   1.93472   1.94929   1.97341   1.98283
 Alpha virt. eigenvalues --    1.99517   2.02049   2.02931   2.04625   2.05728
 Alpha virt. eigenvalues --    2.06885   2.08396   2.10532   2.13792   2.14930
 Alpha virt. eigenvalues --    2.14977   2.18554   2.19283   2.22852   2.27154
 Alpha virt. eigenvalues --    2.35464   2.36858   2.40858   2.42797   2.44429
 Alpha virt. eigenvalues --    2.48906   2.49180   2.49981   2.51793   2.55482
 Alpha virt. eigenvalues --    2.57683   2.59189   2.62769   2.63778   2.78362
 Alpha virt. eigenvalues --    2.79925   2.90818   2.93555   2.95496   2.99703
 Alpha virt. eigenvalues --    3.07940   3.11737   3.13495   3.41946   3.48473
 Alpha virt. eigenvalues --    3.58261
  Beta  occ. eigenvalues --  -88.23367 -18.94544 -14.12844 -10.10372 -10.09092
  Beta  occ. eigenvalues --  -10.07932 -10.06660 -10.06493 -10.06099 -10.05355
  Beta  occ. eigenvalues --  -10.04643 -10.04333 -10.04328  -7.83736  -5.85679
  Beta  occ. eigenvalues --   -5.85191  -5.84816  -1.15189  -1.01899  -0.93898
  Beta  occ. eigenvalues --   -0.87764  -0.85394  -0.82274  -0.79532  -0.75324
  Beta  occ. eigenvalues --   -0.71286  -0.69876  -0.64774  -0.63923  -0.61934
  Beta  occ. eigenvalues --   -0.56840  -0.56390  -0.55294  -0.54900  -0.52126
  Beta  occ. eigenvalues --   -0.51364  -0.50315  -0.49260  -0.47545  -0.46073
  Beta  occ. eigenvalues --   -0.45581  -0.42733  -0.41835  -0.40500  -0.39184
  Beta  occ. eigenvalues --   -0.36922  -0.35935  -0.33362  -0.30989  -0.28008
  Beta virt. eigenvalues --    0.02353   0.04723   0.07956   0.11612   0.13416
  Beta virt. eigenvalues --    0.14001   0.14142   0.16576   0.17993   0.18369
  Beta virt. eigenvalues --    0.19327   0.20492   0.20997   0.21761   0.23100
  Beta virt. eigenvalues --    0.23452   0.25026   0.30275   0.30435   0.33901
  Beta virt. eigenvalues --    0.34599   0.36696   0.37945   0.39108   0.42578
  Beta virt. eigenvalues --    0.44640   0.48434   0.50186   0.50687   0.51219
  Beta virt. eigenvalues --    0.51451   0.52453   0.53126   0.53289   0.54638
  Beta virt. eigenvalues --    0.55712   0.56022   0.56633   0.56759   0.57583
  Beta virt. eigenvalues --    0.57917   0.59152   0.60246   0.60507   0.61533
  Beta virt. eigenvalues --    0.62391   0.64135   0.64436   0.65251   0.66750
  Beta virt. eigenvalues --    0.68027   0.68083   0.68558   0.70173   0.70992
  Beta virt. eigenvalues --    0.71493   0.73021   0.73386   0.75102   0.75801
  Beta virt. eigenvalues --    0.76093   0.78212   0.79826   0.80606   0.82867
  Beta virt. eigenvalues --    0.84794   0.86909   0.89658   0.91320   0.93448
  Beta virt. eigenvalues --    0.93972   0.94651   0.97582   0.99428   0.99586
  Beta virt. eigenvalues --    1.01057   1.01922   1.02829   1.03643   1.03812
  Beta virt. eigenvalues --    1.05209   1.06290   1.07865   1.08818   1.09648
  Beta virt. eigenvalues --    1.10661   1.13514   1.14109   1.15912   1.17505
  Beta virt. eigenvalues --    1.21015   1.23117   1.23892   1.26402   1.26850
  Beta virt. eigenvalues --    1.28817   1.30640   1.34339   1.36789   1.39050
  Beta virt. eigenvalues --    1.39825   1.43040   1.45568   1.46464   1.47557
  Beta virt. eigenvalues --    1.52010   1.53492   1.54830   1.55631   1.56483
  Beta virt. eigenvalues --    1.57199   1.58187   1.60772   1.62235   1.63514
  Beta virt. eigenvalues --    1.64533   1.66370   1.67259   1.68364   1.69073
  Beta virt. eigenvalues --    1.70109   1.71149   1.72423   1.73254   1.74333
  Beta virt. eigenvalues --    1.75533   1.77288   1.79446   1.80623   1.82339
  Beta virt. eigenvalues --    1.83026   1.83910   1.84842   1.87405   1.91034
  Beta virt. eigenvalues --    1.91507   1.93472   1.94929   1.97341   1.98283
  Beta virt. eigenvalues --    1.99517   2.02049   2.02931   2.04625   2.05728
  Beta virt. eigenvalues --    2.06885   2.08396   2.10532   2.13792   2.14930
  Beta virt. eigenvalues --    2.14977   2.18554   2.19283   2.22852   2.27154
  Beta virt. eigenvalues --    2.35464   2.36858   2.40858   2.42797   2.44429
  Beta virt. eigenvalues --    2.48906   2.49180   2.49981   2.51793   2.55482
  Beta virt. eigenvalues --    2.57683   2.59189   2.62769   2.63778   2.78362
  Beta virt. eigenvalues --    2.79925   2.90818   2.93555   2.95496   2.99703
  Beta virt. eigenvalues --    3.07940   3.11737   3.13495   3.41946   3.48473
  Beta virt. eigenvalues --    3.58261
          Condensed to atoms (all electrons):
               1          2          3          4          5          6
     1  C    4.859612   0.487055   0.002256  -0.052889  -0.038206   0.509463
     2  C    0.487055   4.630186   0.532969  -0.030018  -0.043684  -0.027959
     3  C    0.002256   0.532969   4.881965   0.468620  -0.047416  -0.060074
     4  C   -0.052889  -0.030018   0.468620   4.854824   0.585287  -0.087810
     5  N   -0.038206  -0.043684  -0.047416   0.585287   6.238950   0.572107
     6  C    0.509463  -0.027959  -0.060074  -0.087810   0.572107   4.663879
     7  C    0.002287   0.004968  -0.106222   0.262817  -0.076254   0.003790
     8  C   -0.000012   0.000304  -0.011756  -0.048208   0.001478  -0.000140
     9  O    0.000004  -0.000069  -0.001295   0.001031  -0.000014   0.000002
    10  C   -0.000000   0.000001   0.000056  -0.000352   0.000003  -0.000000
    11  C    0.000000  -0.000006   0.000208   0.011571  -0.000214   0.000005
    12  C    0.000001   0.000004  -0.000054   0.002462   0.000456   0.000008
    13  S    0.000114  -0.000140   0.006120  -0.047246   0.009404   0.000622
    14  H    0.389302  -0.050748   0.008676   0.000681   0.005807  -0.035628
    15  H   -0.060129   0.411329  -0.045619   0.009676  -0.000613   0.009750
    16  H    0.008538  -0.043349   0.385911  -0.031021   0.005079   0.000675
    17  H   -0.060742   0.005969   0.001238   0.002030  -0.031121   0.392643
    18  H    0.000000   0.000000  -0.000020   0.000115  -0.000001   0.000000
    19  H    0.000000  -0.000001   0.000048   0.000036  -0.000000  -0.000000
    20  H   -0.000000  -0.000001   0.000035  -0.000008   0.000000  -0.000000
    21  H    0.000000  -0.000000   0.000022  -0.000306   0.000003  -0.000000
    22  H    0.000000  -0.000000   0.000004  -0.000238   0.000001  -0.000000
               7          8          9         10         11         12
     1  C    0.002287  -0.000012   0.000004  -0.000000   0.000000   0.000001
     2  C    0.004968   0.000304  -0.000069   0.000001  -0.000006   0.000004
     3  C   -0.106222  -0.011756  -0.001295   0.000056   0.000208  -0.000054
     4  C    0.262817  -0.048208   0.001031  -0.000352   0.011571   0.002462
     5  N   -0.076254   0.001478  -0.000014   0.000003  -0.000214   0.000456
     6  C    0.003790  -0.000140   0.000002  -0.000000   0.000005   0.000008
     7  C    5.448062   0.505656  -0.063065   0.007148  -0.056020  -0.075883
     8  C    0.505656   4.866152   0.416769  -0.080865   0.399844  -0.025725
     9  O   -0.063065   0.416769   7.571163   0.389047  -0.052076   0.003441
    10  C    0.007148  -0.080865   0.389047   4.477694  -0.006872   0.000355
    11  C   -0.056020   0.399844  -0.052076  -0.006872   4.823365   0.526079
    12  C   -0.075883  -0.025725   0.003441   0.000355   0.526079   4.944449
    13  S    0.354974  -0.089727   0.002279  -0.000207  -0.081067   0.363543
    14  H    0.000062  -0.000000   0.000000  -0.000000   0.000000  -0.000000
    15  H   -0.000427  -0.000004  -0.000015   0.000000  -0.000000   0.000000
    16  H   -0.021669  -0.000933   0.015570  -0.000450   0.000499  -0.000083
    17  H   -0.000777   0.000012   0.000000   0.000000  -0.000000  -0.000001
    18  H    0.002236  -0.002935  -0.030015   0.384557   0.005151  -0.000141
    19  H    0.000254  -0.008940  -0.036230   0.383293   0.008634  -0.000049
    20  H   -0.000701   0.004458  -0.022697   0.396817  -0.000103  -0.000007
    21  H    0.008218  -0.034561  -0.004637   0.006594   0.399061  -0.052001
    22  H    0.000980   0.007242  -0.000039   0.000001  -0.022800   0.405218
              13         14         15         16         17         18
     1  C    0.000114   0.389302  -0.060129   0.008538  -0.060742   0.000000
     2  C   -0.000140  -0.050748   0.411329  -0.043349   0.005969   0.000000
     3  C    0.006120   0.008676  -0.045619   0.385911   0.001238  -0.000020
     4  C   -0.047246   0.000681   0.009676  -0.031021   0.002030   0.000115
     5  N    0.009404   0.005807  -0.000613   0.005079  -0.031121  -0.000001
     6  C    0.000622  -0.035628   0.009750   0.000675   0.392643   0.000000
     7  C    0.354974   0.000062  -0.000427  -0.021669  -0.000777   0.002236
     8  C   -0.089727  -0.000000  -0.000004  -0.000933   0.000012  -0.002935
     9  O    0.002279   0.000000  -0.000015   0.015570   0.000000  -0.030015
    10  C   -0.000207  -0.000000   0.000000  -0.000450   0.000000   0.384557
    11  C   -0.081067   0.000000  -0.000000   0.000499  -0.000000   0.005151
    12  C    0.363543  -0.000000   0.000000  -0.000083  -0.000001  -0.000141
    13  S   15.312867  -0.000004   0.000008   0.000136  -0.000070  -0.000137
    14  H   -0.000004   0.707476  -0.012885  -0.000168  -0.011588   0.000000
    15  H    0.000008  -0.012885   0.735731  -0.014414  -0.000253  -0.000000
    16  H    0.000136  -0.000168  -0.014414   0.690636   0.000101   0.000221
    17  H   -0.000070  -0.011588  -0.000253   0.000101   0.684881  -0.000000
    18  H   -0.000137   0.000000  -0.000000   0.000221  -0.000000   0.697696
    19  H   -0.000056   0.000000  -0.000000  -0.000168   0.000000  -0.057749
    20  H    0.000019  -0.000000   0.000001  -0.000281  -0.000000  -0.029012
    21  H    0.007049  -0.000000   0.000000   0.000003  -0.000000   0.001269
    22  H   -0.039588  -0.000000   0.000000   0.000001  -0.000000   0.000004
              19         20         21         22
     1  C    0.000000  -0.000000   0.000000   0.000000
     2  C   -0.000001  -0.000001  -0.000000  -0.000000
     3  C    0.000048   0.000035   0.000022   0.000004
     4  C    0.000036  -0.000008  -0.000306  -0.000238
     5  N   -0.000000   0.000000   0.000003   0.000001
     6  C   -0.000000  -0.000000  -0.000000  -0.000000
     7  C    0.000254  -0.000701   0.008218   0.000980
     8  C   -0.008940   0.004458  -0.034561   0.007242
     9  O   -0.036230  -0.022697  -0.004637  -0.000039
    10  C    0.383293   0.396817   0.006594   0.000001
    11  C    0.008634  -0.000103   0.399061  -0.022800
    12  C   -0.000049  -0.000007  -0.052001   0.405218
    13  S   -0.000056   0.000019   0.007049  -0.039588
    14  H    0.000000  -0.000000  -0.000000  -0.000000
    15  H   -0.000000   0.000001   0.000000   0.000000
    16  H   -0.000168  -0.000281   0.000003   0.000001
    17  H    0.000000  -0.000000  -0.000000  -0.000000
    18  H   -0.057749  -0.029012   0.001269   0.000004
    19  H    0.713333  -0.028936   0.002239   0.000010
    20  H   -0.028936   0.640724  -0.000389   0.000000
    21  H    0.002239  -0.000389   0.706608  -0.007775
    22  H    0.000010   0.000000  -0.007775   0.655114
          Atomic-Atomic Spin Densities.
               1          2          3          4          5          6
     1  C    0.000000  -0.000000   0.000000  -0.000000   0.000000  -0.000000
     2  C   -0.000000   0.000000  -0.000000   0.000000  -0.000000   0.000000
     3  C    0.000000  -0.000000  -0.000000   0.000000   0.000000  -0.000000
     4  C   -0.000000   0.000000   0.000000  -0.000000  -0.000000  -0.000000
     5  N    0.000000  -0.000000   0.000000  -0.000000   0.000000   0.000000
     6  C   -0.000000   0.000000  -0.000000  -0.000000   0.000000  -0.000000
     7  C   -0.000000  -0.000000   0.000000   0.000000   0.000000   0.000000
     8  C   -0.000000   0.000000   0.000000   0.000000  -0.000000   0.000000
     9  O    0.000000   0.000000   0.000000   0.000000  -0.000000  -0.000000
    10  C   -0.000000  -0.000000  -0.000000   0.000000  -0.000000   0.000000
    11  C    0.000000  -0.000000   0.000000  -0.000000  -0.000000  -0.000000
    12  C   -0.000000   0.000000   0.000000  -0.000000   0.000000   0.000000
    13  S   -0.000000   0.000000  -0.000000   0.000000  -0.000000   0.000000
    14  H    0.000000  -0.000000   0.000000  -0.000000   0.000000  -0.000000
    15  H   -0.000000   0.000000  -0.000000   0.000000  -0.000000   0.000000
    16  H    0.000000  -0.000000   0.000000  -0.000000   0.000000  -0.000000
    17  H   -0.000000   0.000000  -0.000000   0.000000  -0.000000   0.000000
    18  H   -0.000000   0.000000  -0.000000  -0.000000   0.000000  -0.000000
    19  H    0.000000  -0.000000  -0.000000  -0.000000  -0.000000  -0.000000
    20  H   -0.000000  -0.000000   0.000000   0.000000  -0.000000   0.000000
    21  H   -0.000000   0.000000  -0.000000  -0.000000   0.000000   0.000000
    22  H   -0.000000  -0.000000   0.000000   0.000000   0.000000   0.000000
               7          8          9         10         11         12
     1  C   -0.000000  -0.000000   0.000000  -0.000000   0.000000  -0.000000
     2  C   -0.000000   0.000000   0.000000  -0.000000  -0.000000   0.000000
     3  C    0.000000   0.000000   0.000000  -0.000000   0.000000   0.000000
     4  C    0.000000   0.000000   0.000000   0.000000  -0.000000  -0.000000
     5  N    0.000000  -0.000000  -0.000000  -0.000000  -0.000000   0.000000
     6  C    0.000000   0.000000  -0.000000   0.000000  -0.000000   0.000000
     7  C    0.000000   0.000000   0.000000  -0.000000  -0.000000   0.000000
     8  C    0.000000  -0.000000  -0.000000  -0.000000   0.000000  -0.000000
     9  O    0.000000  -0.000000  -0.000000  -0.000000   0.000000  -0.000000
    10  C   -0.000000  -0.000000  -0.000000   0.000000   0.000000  -0.000000
    11  C   -0.000000   0.000000   0.000000   0.000000   0.000000   0.000000
    12  C    0.000000  -0.000000  -0.000000  -0.000000   0.000000  -0.000000
    13  S   -0.000000   0.000000  -0.000000   0.000000   0.000000  -0.000000
    14  H   -0.000000  -0.000000   0.000000  -0.000000   0.000000  -0.000000
    15  H    0.000000   0.000000  -0.000000   0.000000  -0.000000   0.000000
    16  H   -0.000000   0.000000  -0.000000   0.000000   0.000000  -0.000000
    17  H    0.000000   0.000000  -0.000000   0.000000  -0.000000  -0.000000
    18  H   -0.000000  -0.000000  -0.000000   0.000000   0.000000   0.000000
    19  H   -0.000000  -0.000000  -0.000000   0.000000   0.000000  -0.000000
    20  H    0.000000   0.000000  -0.000000   0.000000  -0.000000  -0.000000
    21  H   -0.000000   0.000000   0.000000   0.000000  -0.000000   0.000000
    22  H    0.000000  -0.000000  -0.000000  -0.000000   0.000000  -0.000000
              13         14         15         16         17         18
     1  C   -0.000000   0.000000  -0.000000   0.000000  -0.000000  -0.000000
     2  C    0.000000  -0.000000   0.000000  -0.000000   0.000000   0.000000
     3  C   -0.000000   0.000000  -0.000000   0.000000  -0.000000  -0.000000
     4  C    0.000000  -0.000000   0.000000  -0.000000   0.000000  -0.000000
     5  N   -0.000000   0.000000  -0.000000   0.000000  -0.000000   0.000000
     6  C    0.000000  -0.000000   0.000000  -0.000000   0.000000  -0.000000
     7  C   -0.000000  -0.000000   0.000000  -0.000000   0.000000  -0.000000
     8  C    0.000000  -0.000000   0.000000   0.000000   0.000000  -0.000000
     9  O   -0.000000   0.000000  -0.000000  -0.000000  -0.000000  -0.000000
    10  C    0.000000  -0.000000   0.000000   0.000000   0.000000   0.000000
    11  C    0.000000   0.000000  -0.000000   0.000000  -0.000000   0.000000
    12  C   -0.000000  -0.000000   0.000000  -0.000000  -0.000000   0.000000
    13  S    0.000000   0.000000   0.000000  -0.000000   0.000000   0.000000
    14  H    0.000000   0.000000  -0.000000   0.000000  -0.000000  -0.000000
    15  H    0.000000  -0.000000   0.000000  -0.000000   0.000000   0.000000
    16  H   -0.000000   0.000000  -0.000000   0.000000  -0.000000  -0.000000
    17  H    0.000000  -0.000000   0.000000  -0.000000  -0.000000  -0.000000
    18  H    0.000000  -0.000000   0.000000  -0.000000  -0.000000   0.000000
    19  H    0.000000   0.000000  -0.000000  -0.000000  -0.000000  -0.000000
    20  H   -0.000000  -0.000000   0.000000   0.000000   0.000000  -0.000000
    21  H   -0.000000  -0.000000   0.000000  -0.000000  -0.000000  -0.000000
    22  H   -0.000000  -0.000000   0.000000   0.000000   0.000000   0.000000
              19         20         21         22
     1  C    0.000000  -0.000000  -0.000000  -0.000000
     2  C   -0.000000  -0.000000   0.000000  -0.000000
     3  C   -0.000000   0.000000  -0.000000   0.000000
     4  C   -0.000000   0.000000  -0.000000   0.000000
     5  N   -0.000000  -0.000000   0.000000   0.000000
     6  C   -0.000000   0.000000   0.000000   0.000000
     7  C   -0.000000   0.000000  -0.000000   0.000000
     8  C   -0.000000   0.000000   0.000000  -0.000000
     9  O   -0.000000  -0.000000   0.000000  -0.000000
    10  C    0.000000   0.000000   0.000000  -0.000000
    11  C    0.000000  -0.000000  -0.000000   0.000000
    12  C   -0.000000  -0.000000   0.000000  -0.000000
    13  S    0.000000  -0.000000  -0.000000  -0.000000
    14  H    0.000000  -0.000000  -0.000000  -0.000000
    15  H   -0.000000   0.000000   0.000000   0.000000
    16  H   -0.000000   0.000000  -0.000000   0.000000
    17  H   -0.000000   0.000000  -0.000000   0.000000
    18  H   -0.000000  -0.000000  -0.000000   0.000000
    19  H   -0.000000   0.000000   0.000000  -0.000000
    20  H    0.000000  -0.000000   0.000000  -0.000000
    21  H    0.000000   0.000000  -0.000000   0.000000
    22  H   -0.000000  -0.000000   0.000000   0.000000
 Mulliken charges and spin densities:
               1          2
     1  C   -0.046654  -0.000000
     2  C    0.123187   0.000000
     3  C   -0.015673  -0.000000
     4  C    0.098945  -0.000000
     5  N   -0.181052   0.000000
     6  C    0.058669  -0.000000
     7  C   -0.200433   0.000000
     8  C    0.101892  -0.000000
     9  O   -0.189153  -0.000000
    10  C    0.043179  -0.000000
    11  C    0.044741   0.000000
    12  C   -0.092073  -0.000000
    13  S    0.201106  -0.000000
    14  H   -0.000985   0.000000
    15  H   -0.032136   0.000000
    16  H    0.005167  -0.000000
    17  H    0.017678  -0.000000
    18  H    0.028762   0.000000
    19  H    0.024282  -0.000000
    20  H    0.040081  -0.000000
    21  H   -0.031396  -0.000000
    22  H    0.001867   0.000000
 Sum of Mulliken charges =  -0.00000  -0.00000
 Mulliken charges and spin densities with hydrogens summed into heavy atoms:
               1          2
     1  C   -0.047639   0.000000
     2  C    0.091051   0.000000
     3  C   -0.010506  -0.000000
     4  C    0.098945  -0.000000
     5  N   -0.181052   0.000000
     6  C    0.076346  -0.000000
     7  C   -0.200433   0.000000
     8  C    0.101892  -0.000000
     9  O   -0.189153  -0.000000
    10  C    0.136304  -0.000000
    11  C    0.013345   0.000000
    12  C   -0.090206  -0.000000
    13  S    0.201106  -0.000000
 Electronic spatial extent (au):  <R**2>=           2787.9465
 Charge=             -0.0000 electrons
 Dipole moment (field-independent basis, Debye):
    X=             -0.5987    Y=              2.2183    Z=             -0.6383  Tot=              2.3847
 Quadrupole moment (field-independent basis, Debye-Ang):
   XX=            -65.6590   YY=            -76.4966   ZZ=            -84.9188
   XY=              1.0364   XZ=             -1.2508   YZ=              0.0611
 Traceless Quadrupole moment (field-independent basis, Debye-Ang):
   XX=             10.0325   YY=             -0.8051   ZZ=             -9.2273
   XY=              1.0364   XZ=             -1.2508   YZ=              0.0611
 Octapole moment (field-independent basis, Debye-Ang**2):
  XXX=              4.5763  YYY=             16.2960  ZZZ=              1.7485  XYY=            -17.2008
  XXY=             10.2172  XXZ=              4.9217  XZZ=              0.9375  YZZ=              6.0266
  YYZ=             -3.0987  XYZ=             -9.0513
 Hexadecapole moment (field-independent basis, Debye-Ang**3):
 XXXX=          -2243.1118 YYYY=          -1031.2574 ZZZZ=           -187.0914 XXXY=              2.2969
 XXXZ=             13.7087 YYYX=             -2.3030 YYYZ=              8.4931 ZZZX=             -1.6208
 ZZZY=             -0.2585 XXYY=           -528.2624 XXZZ=           -466.3220 YYZZ=           -214.7020
 XXYZ=            -10.1448 YYXZ=            -11.3300 ZZXY=             -8.8291
 N-N= 8.382970282351D+02 E-N=-3.823843940576D+03  KE= 9.099965377244D+02
                          Isotropic Fermi Contact Couplings
        Atom                 a.u.       MegaHertz       Gauss      10(-4) cm-1
     1  C(13)             -0.00000      -0.00000      -0.00000      -0.00000
     2  C(13)              0.00000       0.00000       0.00000       0.00000
     3  C(13)             -0.00000      -0.00000      -0.00000      -0.00000
     4  C(13)              0.00000       0.00000       0.00000       0.00000
     5  N(14)             -0.00000      -0.00000      -0.00000      -0.00000
     6  C(13)             -0.00000      -0.00000      -0.00000      -0.00000
     7  C(13)              0.00000       0.00000       0.00000       0.00000
     8  C(13)             -0.00000      -0.00000      -0.00000      -0.00000
     9  O(17)             -0.00000       0.00000       0.00000       0.00000
    10  C(13)             -0.00000      -0.00000      -0.00000      -0.00000
    11  C(13)             -0.00000      -0.00000      -0.00000      -0.00000
    12  C(13)             -0.00000      -0.00000      -0.00000      -0.00000
    13  S(33)             -0.00000      -0.00000      -0.00000      -0.00000
    14  H(1)               0.00000       0.00000       0.00000       0.00000
    15  H(1)              -0.00000      -0.00000      -0.00000      -0.00000
    16  H(1)               0.00000       0.00000       0.00000       0.00000
    17  H(1)              -0.00000      -0.00000      -0.00000      -0.00000
    18  H(1)              -0.00000      -0.00000      -0.00000      -0.00000
    19  H(1)              -0.00000      -0.00000      -0.00000      -0.00000
    20  H(1)              -0.00000      -0.00000      -0.00000      -0.00000
    21  H(1)              -0.00000      -0.00000      -0.00000      -0.00000
    22  H(1)               0.00000       0.00000       0.00000       0.00000
 --------------------------------------------------------
       Center         ----  Spin Dipole Couplings  ----
                      3XX-RR        3YY-RR        3ZZ-RR
 --------------------------------------------------------
     1   Atom        0.000000     -0.000000     -0.000000
     2   Atom        0.000000      0.000000     -0.000000
     3   Atom        0.000000      0.000000     -0.000000
     4   Atom        0.000000      0.000000     -0.000000
     5   Atom       -0.000000      0.000000      0.000000
     6   Atom       -0.000000      0.000000     -0.000000
     7   Atom        0.000000      0.000000     -0.000000
     8   Atom       -0.000000     -0.000000      0.000000
     9   Atom       -0.000000      0.000000     -0.000000
    10   Atom        0.000000     -0.000000     -0.000000
    11   Atom       -0.000000      0.000000     -0.000000
    12   Atom       -0.000000      0.000000      0.000000
    13   Atom       -0.000000      0.000000     -0.000000
    14   Atom        0.000000     -0.000000     -0.000000
    15   Atom       -0.000000      0.000000     -0.000000
    16   Atom        0.000000      0.000000     -0.000000
    17   Atom       -0.000000      0.000000     -0.000000
    18   Atom       -0.000000      0.000000     -0.000000
    19   Atom       -0.000000     -0.000000      0.000000
    20   Atom        0.000000     -0.000000      0.000000
    21   Atom       -0.000000     -0.000000      0.000000
    22   Atom        0.000000     -0.000000     -0.000000
 --------------------------------------------------------
                        XY            XZ            YZ
 --------------------------------------------------------
     1   Atom       -0.000000      0.000000     -0.000000
     2   Atom        0.000000     -0.000000     -0.000000
     3   Atom       -0.000000      0.000000     -0.000000
     4   Atom       -0.000000      0.000000      0.000000
     5   Atom        0.000000     -0.000000     -0.000000
     6   Atom       -0.000000      0.000000     -0.000000
     7   Atom        0.000000      0.000000     -0.000000
     8   Atom        0.000000     -0.000000     -0.000000
     9   Atom        0.000000     -0.000000     -0.000000
    10   Atom       -0.000000     -0.000000      0.000000
    11   Atom       -0.000000     -0.000000      0.000000
    12   Atom       -0.000000     -0.000000     -0.000000
    13   Atom       -0.000000     -0.000000     -0.000000
    14   Atom        0.000000     -0.000000     -0.000000
    15   Atom        0.000000     -0.000000     -0.000000
    16   Atom       -0.000000      0.000000     -0.000000
    17   Atom       -0.000000     -0.000000     -0.000000
    18   Atom        0.000000      0.000000     -0.000000
    19   Atom        0.000000      0.000000      0.000000
    20   Atom        0.000000      0.000000     -0.000000
    21   Atom        0.000000     -0.000000     -0.000000
    22   Atom        0.000000      0.000000      0.000000
 --------------------------------------------------------


 ---------------------------------------------------------------------------------
              Anisotropic Spin Dipole Couplings in Principal Axis System
 ---------------------------------------------------------------------------------

       Atom             a.u.   MegaHertz   Gauss  10(-4) cm-1        Axes

              Baa    -0.0000    -0.000    -0.000    -0.000 -0.2049  0.4117  0.8880
     1 C(13)  Bbb    -0.0000    -0.000    -0.000    -0.000  0.4767  0.8344 -0.2768
              Bcc     0.0000     0.000     0.000     0.000  0.8549 -0.3665  0.3672
 
              Baa    -0.0000    -0.000    -0.000    -0.000 -0.1572  0.4838  0.8610
     2 C(13)  Bbb     0.0000     0.000     0.000     0.000  0.8679 -0.3483  0.3541
              Bcc     0.0000     0.000     0.000     0.000  0.4712  0.8029 -0.3651
 
              Baa    -0.0000    -0.000    -0.000    -0.000 -0.4790 -0.0027  0.8778
     3 C(13)  Bbb    -0.0000    -0.000    -0.000    -0.000  0.5466  0.7816  0.3006
              Bcc     0.0000     0.000     0.000     0.000  0.6869 -0.6238  0.3729
 
              Baa    -0.0000    -0.000    -0.000    -0.000 -0.5448 -0.5275  0.6519
     4 C(13)  Bbb    -0.0000    -0.000    -0.000    -0.000  0.5141  0.4041  0.7566
              Bcc     0.0000     0.000     0.000     0.000 -0.6625  0.7473  0.0511
 
              Baa    -0.0000    -0.000    -0.000    -0.000  0.9561 -0.2705  0.1129
     5 N(14)  Bbb     0.0000     0.000     0.000     0.000  0.0460  0.5188  0.8537
              Bcc     0.0000     0.000     0.000     0.000  0.2895  0.8110 -0.5085
 
              Baa    -0.0000    -0.000    -0.000    -0.000  0.8503 -0.0906 -0.5184
     6 C(13)  Bbb    -0.0000    -0.000    -0.000    -0.000  0.4644  0.5925  0.6582
              Bcc     0.0000     0.000     0.000     0.000 -0.2476  0.8004 -0.5459
 
              Baa    -0.0000    -0.000    -0.000    -0.000 -0.6900  0.7001  0.1836
     7 C(13)  Bbb    -0.0000    -0.000    -0.000    -0.000  0.1936 -0.0658  0.9789
              Bcc     0.0000     0.000     0.000     0.000  0.6974  0.7110 -0.0901
 
              Baa    -0.0000    -0.000    -0.000    -0.000  0.7156 -0.6980 -0.0275
     8 C(13)  Bbb     0.0000     0.000     0.000     0.000  0.6915  0.7022  0.1695
              Bcc     0.0000     0.000     0.000     0.000 -0.0990 -0.1403  0.9851
 
              Baa    -0.0000     0.000     0.000     0.000  0.8568 -0.4968  0.1382
     9 O(17)  Bbb    -0.0000     0.000     0.000     0.000 -0.0474  0.1910  0.9804
              Bcc     0.0000    -0.000    -0.000    -0.000  0.5135  0.8466 -0.1401
 
              Baa    -0.0000    -0.000    -0.000    -0.000  0.2917  0.9537 -0.0730
    10 C(13)  Bbb    -0.0000    -0.000    -0.000    -0.000  0.1207  0.0391  0.9919
              Bcc     0.0000     0.000     0.000     0.000  0.9488 -0.2982 -0.1037
 
              Baa    -0.0000    -0.000    -0.000    -0.000  0.8961  0.4422 -0.0391
    11 C(13)  Bbb    -0.0000    -0.000    -0.000    -0.000  0.1387 -0.1952  0.9709
              Bcc     0.0000     0.000     0.000     0.000 -0.4217  0.8754  0.2363
 
              Baa    -0.0000    -0.000    -0.000    -0.000  0.8802  0.4736  0.0316
    12 C(13)  Bbb     0.0000     0.000     0.000     0.000 -0.0412  0.0099  0.9991
              Bcc     0.0000     0.000     0.000     0.000 -0.4729  0.8807 -0.0283
 
              Baa    -0.0000    -0.000    -0.000    -0.000  0.9276  0.1769  0.3290
    13 S(33)  Bbb    -0.0000    -0.000    -0.000    -0.000 -0.3325 -0.0103  0.9431
              Bcc     0.0000     0.000     0.000     0.000 -0.1702  0.9842 -0.0493
 
              Baa    -0.0000    -0.000    -0.000    -0.000 -0.0701  0.5834  0.8092
    14 H(1)   Bbb    -0.0000    -0.000    -0.000    -0.000 -0.4749  0.6938 -0.5414
              Bcc     0.0000     0.000     0.000     0.000  0.8773  0.4222 -0.2284
 
              Baa    -0.0000    -0.000    -0.000    -0.000 -0.0686  0.5058  0.8599
    15 H(1)   Bbb    -0.0000    -0.000    -0.000    -0.000  0.8777 -0.3792  0.2931
              Bcc     0.0000     0.000     0.000     0.000  0.4743  0.7749 -0.4179
 
              Baa    -0.0000    -0.000    -0.000    -0.000 -0.1295  0.4099  0.9029
    16 H(1)   Bbb    -0.0000    -0.000    -0.000    -0.000  0.7577  0.6282 -0.1765
              Bcc     0.0000     0.000     0.000     0.000 -0.6396  0.6613 -0.3920
 
              Baa    -0.0000    -0.000    -0.000    -0.000  0.9377  0.2379  0.2531
    17 H(1)   Bbb    -0.0000    -0.000    -0.000    -0.000 -0.3307  0.3890  0.8598
              Bcc     0.0000     0.000     0.000     0.000 -0.1061  0.8900 -0.4435
 
              Baa    -0.0000    -0.000    -0.000    -0.000 -0.6134  0.4930  0.6169
    18 H(1)   Bbb     0.0000     0.000     0.000     0.000 -0.0220  0.7702 -0.6375
              Bcc     0.0000     0.000     0.000     0.000  0.7894  0.4046  0.4616
 
              Baa    -0.0000    -0.000    -0.000    -0.000 -0.5705  0.7982 -0.1934
    19 H(1)   Bbb     0.0000     0.000     0.000     0.000  0.6925  0.3409 -0.6358
              Bcc     0.0000     0.000     0.000     0.000  0.4416  0.4967  0.7472
 
              Baa    -0.0000    -0.000    -0.000    -0.000 -0.3714  0.9103  0.1826
    20 H(1)   Bbb     0.0000     0.000     0.000     0.000  0.0031 -0.1955  0.9807
              Bcc     0.0000     0.000     0.000     0.000  0.9285  0.3648  0.0698
 
              Baa    -0.0000    -0.000    -0.000    -0.000  0.7782 -0.6244  0.0672
    21 H(1)   Bbb    -0.0000    -0.000    -0.000    -0.000  0.6168  0.7800  0.1055
[...]
     8  C    0.000000  -0.000000  -0.000000   0.000000   0.000000  -0.000000
     9  O    0.000000  -0.000000   0.000000  -0.000000   0.000000  -0.000000
    10  C    0.000000   0.000000  -0.000000   0.000000   0.000000   0.000000
    11  C   -0.000000   0.000000   0.000000   0.000000  -0.000000   0.000000
    12  C   -0.000000  -0.000000  -0.000000   0.000000   0.000000  -0.000000
    13  S   -0.000000   0.000000   0.000000   0.000000  -0.000000   0.000000
    14  H   -0.000000  -0.000000  -0.000000  -0.000000   0.000000  -0.000000
    15  H    0.000000   0.000000   0.000000   0.000000  -0.000000   0.000000
    16  H    0.000000  -0.000000  -0.000000  -0.000000  -0.000000   0.000000
    17  H    0.000000  -0.000000   0.000000  -0.000000   0.000000   0.000000
    18  H   -0.000000   0.000000   0.000000  -0.000000  -0.000000   0.000000
    19  H   -0.000000   0.000000  -0.000000   0.000000   0.000000   0.000000
    20  H    0.000000   0.000000  -0.000000   0.000000  -0.000000  -0.000000
    21  H   -0.000000   0.000000   0.000000   0.000000  -0.000000   0.000000
    22  H    0.000000  -0.000000  -0.000000  -0.000000   0.000000  -0.000000
              13         14         15         16         17         18
     1  C    0.000000  -0.000000   0.000000   0.000000   0.000000  -0.000000
     2  C   -0.000000  -0.000000   0.000000  -0.000000  -0.000000  -0.000000
     3  C    0.000000   0.000000  -0.000000   0.000000   0.000000  -0.000000
     4  C    0.000000  -0.000000   0.000000  -0.000000  -0.000000  -0.000000
     5  N   -0.000000   0.000000  -0.000000  -0.000000   0.000000   0.000000
     6  C   -0.000000  -0.000000   0.000000  -0.000000  -0.000000   0.000000
     7  C   -0.000000  -0.000000   0.000000   0.000000   0.000000  -0.000000
     8  C    0.000000  -0.000000   0.000000  -0.000000  -0.000000   0.000000
     9  O    0.000000  -0.000000   0.000000  -0.000000   0.000000   0.000000
    10  C    0.000000  -0.000000   0.000000  -0.000000  -0.000000  -0.000000
    11  C   -0.000000   0.000000  -0.000000  -0.000000   0.000000  -0.000000
    12  C    0.000000  -0.000000   0.000000   0.000000   0.000000   0.000000
    13  S   -0.000000   0.000000  -0.000000   0.000000   0.000000  -0.000000
    14  H    0.000000   0.000000  -0.000000   0.000000   0.000000  -0.000000
    15  H   -0.000000  -0.000000   0.000000  -0.000000  -0.000000   0.000000
    16  H    0.000000   0.000000  -0.000000   0.000000   0.000000  -0.000000
    17  H    0.000000   0.000000  -0.000000   0.000000  -0.000000  -0.000000
    18  H   -0.000000  -0.000000   0.000000  -0.000000  -0.000000   0.000000
    19  H   -0.000000  -0.000000   0.000000  -0.000000   0.000000   0.000000
    20  H    0.000000  -0.000000   0.000000   0.000000  -0.000000  -0.000000
    21  H   -0.000000   0.000000  -0.000000  -0.000000   0.000000   0.000000
    22  H    0.000000  -0.000000  -0.000000   0.000000   0.000000   0.000000
              19         20         21         22
     1  C   -0.000000   0.000000  -0.000000   0.000000
     2  C   -0.000000   0.000000   0.000000  -0.000000
     3  C   -0.000000  -0.000000  -0.000000   0.000000
     4  C    0.000000  -0.000000  -0.000000   0.000000
     5  N    0.000000  -0.000000   0.000000  -0.000000
     6  C    0.000000   0.000000   0.000000  -0.000000
     7  C   -0.000000   0.000000  -0.000000   0.000000
     8  C    0.000000   0.000000   0.000000  -0.000000
     9  O   -0.000000  -0.000000   0.000000  -0.000000
    10  C    0.000000   0.000000   0.000000  -0.000000
    11  C    0.000000  -0.000000  -0.000000   0.000000
    12  C    0.000000  -0.000000   0.000000  -0.000000
    13  S   -0.000000   0.000000  -0.000000   0.000000
    14  H   -0.000000  -0.000000   0.000000  -0.000000
    15  H    0.000000   0.000000  -0.000000  -0.000000
    16  H   -0.000000   0.000000  -0.000000   0.000000
    17  H    0.000000  -0.000000   0.000000   0.000000
    18  H    0.000000  -0.000000   0.000000   0.000000
    19  H   -0.000000   0.000000  -0.000000   0.000000
    20  H    0.000000  -0.000000   0.000000  -0.000000
    21  H   -0.000000   0.000000  -0.000000   0.000000
    22  H    0.000000  -0.000000   0.000000  -0.000000
 Mulliken charges and spin densities:
               1          2
     1  C   -0.041438  -0.000000
     2  C    0.072652  -0.000000
     3  C   -0.012143   0.000000
     4  C    0.137971  -0.000000
     5  N   -0.219474  -0.000000
     6  C    0.091137   0.000000
     7  C   -0.184534  -0.000000
     8  C    0.112392   0.000000
     9  O   -0.253095   0.000000
    10  C    0.061745  -0.000000
    11  C    0.021969   0.000000
    12  C   -0.127493   0.000000
    13  S    0.201779   0.000000
    14  H   -0.010443   0.000000
    15  H   -0.006791   0.000000
    16  H   -0.007289   0.000000
    17  H    0.003141  -0.000000
    18  H    0.046291   0.000000
    19  H    0.046290  -0.000000
    20  H    0.051360  -0.000000
    21  H   -0.006499  -0.000000
    22  H    0.022469  -0.000000
 Sum of Mulliken charges =  -0.00000   0.00000
 Mulliken charges and spin densities with hydrogens summed into heavy atoms:
               1          2
     1  C   -0.051881  -0.000000
     2  C    0.065861  -0.000000
     3  C   -0.019432   0.000000
     4  C    0.137971  -0.000000
     5  N   -0.219474  -0.000000
     6  C    0.094278   0.000000
     7  C   -0.184534  -0.000000
     8  C    0.112392   0.000000
     9  O   -0.253095   0.000000
    10  C    0.205687  -0.000000
    11  C    0.015471   0.000000
    12  C   -0.105023   0.000000
    13  S    0.201779   0.000000
 Electronic spatial extent (au):  <R**2>=           2814.2872
 Charge=             -0.0000 electrons
 Dipole moment (field-independent basis, Debye):
    X=             -1.5516    Y=              2.4558    Z=             -0.0009  Tot=              2.9049
 Quadrupole moment (field-independent basis, Debye-Ang):
   XX=            -64.0345   YY=            -74.8512   ZZ=            -85.9756
   XY=             -0.6785   XZ=              0.0007   YZ=             -0.0012
 Traceless Quadrupole moment (field-independent basis, Debye-Ang):
   XX=             10.9193   YY=              0.1026   ZZ=            -11.0218
   XY=             -0.6785   XZ=              0.0007   YZ=             -0.0012
 Octapole moment (field-independent basis, Debye-Ang**2):
  XXX=             -4.9312  YYY=             22.1408  ZZZ=              0.0004  XYY=            -18.3801
  XXY=             11.6950  XXZ=             -0.0092  XZZ=             -4.5626  YZZ=              2.9484
  YYZ=             -0.0018  XYZ=             -0.0008
 Hexadecapole moment (field-independent basis, Debye-Ang**3):
 XXXX=          -2254.5681 YYYY=          -1079.9133 ZZZZ=            -99.0463 XXXY=            -30.1341
 XXXZ=             -0.0271 YYYX=            -12.6426 YYYZ=              0.0112 ZZZX=              0.0056
 ZZZY=             -0.0027 XXYY=           -523.5180 XXZZ=           -475.2029 YYZZ=           -220.5503
 XXYZ=             -0.0035 YYXZ=              0.0058 ZZXY=            -15.6496
 N-N= 8.373126680669D+02 E-N=-3.821967762931D+03  KE= 9.096908812494D+02
                          Isotropic Fermi Contact Couplings
        Atom                 a.u.       MegaHertz       Gauss      10(-4) cm-1
     1  C(13)             -0.00000      -0.00000      -0.00000      -0.00000
     2  C(13)             -0.00000      -0.00000      -0.00000      -0.00000
     3  C(13)              0.00000       0.00000       0.00000       0.00000
     4  C(13)             -0.00000      -0.00000      -0.00000      -0.00000
     5  N(14)             -0.00000      -0.00000      -0.00000      -0.00000
     6  C(13)             -0.00000      -0.00000      -0.00000      -0.00000
     7  C(13)             -0.00000      -0.00000      -0.00000      -0.00000
     8  C(13)             -0.00000      -0.00000      -0.00000      -0.00000
     9  O(17)              0.00000      -0.00000      -0.00000      -0.00000
    10  C(13)             -0.00000      -0.00000      -0.00000      -0.00000
    11  C(13)             -0.00000      -0.00000      -0.00000      -0.00000
    12  C(13)              0.00000       0.00000       0.00000       0.00000
    13  S(33)             -0.00000      -0.00000      -0.00000      -0.00000
    14  H(1)               0.00000       0.00000       0.00000       0.00000
    15  H(1)               0.00000       0.00000       0.00000       0.00000
    16  H(1)              -0.00000      -0.00000      -0.00000      -0.00000
    17  H(1)              -0.00000      -0.00000      -0.00000      -0.00000
    18  H(1)              -0.00000      -0.00000      -0.00000      -0.00000
    19  H(1)              -0.00000      -0.00000      -0.00000      -0.00000
    20  H(1)              -0.00000      -0.00000      -0.00000      -0.00000
    21  H(1)              -0.00000      -0.00000      -0.00000      -0.00000
    22  H(1)              -0.00000      -0.00000      -0.00000      -0.00000
 --------------------------------------------------------
       Center         ----  Spin Dipole Couplings  ----
                      3XX-RR        3YY-RR        3ZZ-RR
 --------------------------------------------------------
     1   Atom       -0.000000     -0.000000      0.000000
     2   Atom        0.000000     -0.000000     -0.000000
     3   Atom        0.000000      0.000000     -0.000000
     4   Atom        0.000000     -0.000000      0.000000
     5   Atom       -0.000000      0.000000     -0.000000
     6   Atom       -0.000000      0.000000      0.000000
     7   Atom        0.000000      0.000000     -0.000000
     8   Atom        0.000000     -0.000000      0.000000
     9   Atom       -0.000000      0.000000     -0.000000
    10   Atom       -0.000000      0.000000     -0.000000
    11   Atom       -0.000000      0.000000      0.000000
    12   Atom        0.000000     -0.000000      0.000000
    13   Atom        0.000000     -0.000000     -0.000000
    14   Atom        0.000000     -0.000000     -0.000000
    15   Atom       -0.000000      0.000000     -0.000000
    16   Atom        0.000000      0.000000     -0.000000
    17   Atom        0.000000     -0.000000      0.000000
    18   Atom        0.000000     -0.000000     -0.000000
    19   Atom        0.000000     -0.000000     -0.000000
    20   Atom       -0.000000      0.000000     -0.000000
    21   Atom       -0.000000     -0.000000      0.000000
    22   Atom       -0.000000     -0.000000      0.000000
 --------------------------------------------------------
                        XY            XZ            YZ
 --------------------------------------------------------
     1   Atom       -0.000000     -0.000000     -0.000000
     2   Atom        0.000000      0.000000      0.000000
     3   Atom       -0.000000      0.000000      0.000000
     4   Atom        0.000000      0.000000     -0.000000
     5   Atom       -0.000000     -0.000000     -0.000000
     6   Atom        0.000000     -0.000000      0.000000
     7   Atom       -0.000000      0.000000     -0.000000
     8   Atom       -0.000000      0.000000     -0.000000
     9   Atom        0.000000      0.000000     -0.000000
    10   Atom        0.000000      0.000000     -0.000000
    11   Atom       -0.000000      0.000000     -0.000000
    12   Atom       -0.000000      0.000000     -0.000000
    13   Atom       -0.000000     -0.000000      0.000000
    14   Atom        0.000000      0.000000      0.000000
    15   Atom       -0.000000     -0.000000     -0.000000
    16   Atom       -0.000000     -0.000000      0.000000
    17   Atom        0.000000      0.000000     -0.000000
    18   Atom       -0.000000      0.000000      0.000000
    19   Atom        0.000000      0.000000     -0.000000
    20   Atom       -0.000000      0.000000      0.000000
    21   Atom        0.000000     -0.000000     -0.000000
    22   Atom       -0.000000      0.000000     -0.000000
 --------------------------------------------------------


 ---------------------------------------------------------------------------------
              Anisotropic Spin Dipole Couplings in Principal Axis System
 ---------------------------------------------------------------------------------

       Atom             a.u.   MegaHertz   Gauss  10(-4) cm-1        Axes

              Baa    -0.0000    -0.000    -0.000    -0.000  0.8464  0.5324  0.0111
     1 C(13)  Bbb     0.0000     0.000     0.000     0.000 -0.5322  0.8464 -0.0176
              Bcc     0.0000     0.000     0.000     0.000 -0.0187  0.0090  0.9998
 
              Baa    -0.0000    -0.000    -0.000    -0.000 -0.4329  0.9014  0.0044
     2 C(13)  Bbb    -0.0000    -0.000    -0.000    -0.000 -0.0015 -0.0056  1.0000
              Bcc     0.0000     0.000     0.000     0.000  0.9014  0.4329  0.0038
 
              Baa    -0.0000    -0.000    -0.000    -0.000 -0.0004 -0.0002  1.0000
     3 C(13)  Bbb     0.0000     0.000     0.000     0.000  0.0603  0.9982  0.0002
              Bcc     0.0000     0.000     0.000     0.000  0.9982 -0.0603  0.0004
 
              Baa    -0.0000    -0.000    -0.000    -0.000 -0.3281  0.9446  0.0025
     4 C(13)  Bbb     0.0000     0.000     0.000     0.000 -0.0017 -0.0033  1.0000
              Bcc     0.0000     0.000     0.000     0.000  0.9446  0.3281  0.0026
 
              Baa    -0.0000    -0.000    -0.000    -0.000  0.9967  0.0800  0.0099
     5 N(14)  Bbb    -0.0000    -0.000    -0.000    -0.000 -0.0102  0.0030  0.9999
              Bcc     0.0000     0.000     0.000     0.000 -0.0800  0.9968 -0.0038
 
              Baa    -0.0000    -0.000    -0.000    -0.000  0.9574 -0.2886  0.0063
     6 C(13)  Bbb     0.0000     0.000     0.000     0.000 -0.0136 -0.0234  0.9996
              Bcc     0.0000     0.000     0.000     0.000  0.2883  0.9572  0.0263
 
              Baa    -0.0000    -0.000    -0.000    -0.000  0.6676  0.7428 -0.0501
     7 C(13)  Bbb    -0.0000    -0.000    -0.000    -0.000  0.0097  0.0586  0.9982
              Bcc     0.0000     0.000     0.000     0.000  0.7444 -0.6670  0.0319
 
              Baa    -0.0000    -0.000    -0.000    -0.000  0.3290  0.9443  0.0017
     8 C(13)  Bbb     0.0000     0.000     0.000     0.000 -0.0114  0.0022  0.9999
              Bcc     0.0000     0.000     0.000     0.000  0.9443 -0.3290  0.0115
 
              Baa    -0.0000     0.000     0.000     0.000  0.8999 -0.3780 -0.2175
     9 O(17)  Bbb    -0.0000     0.000     0.000     0.000  0.1989 -0.0881  0.9761
              Bcc     0.0000    -0.000    -0.000    -0.000  0.3881  0.9216  0.0042
 
              Baa    -0.0000    -0.000    -0.000    -0.000  0.7903 -0.0642 -0.6093
    10 C(13)  Bbb     0.0000     0.000     0.000     0.000  0.4055  0.8004  0.4416
              Bcc     0.0000     0.000     0.000     0.000  0.4593 -0.5961  0.6586
 
              Baa    -0.0000    -0.000    -0.000    -0.000  0.9997  0.0210 -0.0147
    11 C(13)  Bbb     0.0000     0.000     0.000     0.000 -0.0187  0.9899  0.1403
              Bcc     0.0000     0.000     0.000     0.000  0.0175 -0.1399  0.9900
 
              Baa    -0.0000    -0.000    -0.000    -0.000  0.5886  0.8083 -0.0105
    12 C(13)  Bbb     0.0000     0.000     0.000     0.000 -0.0230  0.0297  0.9993
              Bcc     0.0000     0.000     0.000     0.000  0.8081 -0.5880  0.0360
 
              Baa    -0.0000    -0.000    -0.000    -0.000  0.0049 -0.0077  1.0000
    13 S(33)  Bbb    -0.0000    -0.000    -0.000    -0.000  0.0754  0.9971  0.0073
              Bcc     0.0000     0.000     0.000     0.000  0.9971 -0.0754 -0.0055
 
              Baa    -0.0000    -0.000    -0.000    -0.000 -0.0048 -0.0198  0.9998
    14 H(1)   Bbb    -0.0000    -0.000    -0.000    -0.000 -0.0482  0.9986  0.0195
              Bcc     0.0000     0.000     0.000     0.000  0.9988  0.0480  0.0058
 
              Baa    -0.0000    -0.000    -0.000    -0.000  0.0441  0.0317  0.9985
    15 H(1)   Bbb    -0.0000    -0.000    -0.000    -0.000  0.9187  0.3915 -0.0530
              Bcc     0.0000     0.000     0.000     0.000 -0.3926  0.9197 -0.0119
 
              Baa    -0.0000    -0.000    -0.000    -0.000 -0.0116 -0.0119  0.9999
    16 H(1)   Bbb    -0.0000    -0.000    -0.000    -0.000  0.7469  0.6648  0.0166
              Bcc     0.0000     0.000     0.000     0.000 -0.6649  0.7470  0.0012
 
              Baa    -0.0000    -0.000    -0.000    -0.000 -0.0986  0.9950  0.0162
    17 H(1)   Bbb     0.0000     0.000     0.000     0.000 -0.2412 -0.0397  0.9697
              Bcc     0.0000     0.000     0.000     0.000  0.9655  0.0917  0.2439
 
              Baa    -0.0000    -0.000    -0.000    -0.000 -0.1699 -0.6183  0.7674
    18 H(1)   Bbb     0.0000     0.000     0.000     0.000  0.5842  0.5639  0.5837
              Bcc     0.0000     0.000     0.000     0.000  0.7936 -0.5475 -0.2654
 
              Baa    -0.0000    -0.000    -0.000    -0.000 -0.4560  0.2365  0.8580
    19 H(1)   Bbb    -0.0000    -0.000    -0.000    -0.000 -0.0045  0.9634 -0.2679
              Bcc     0.0000     0.000     0.000     0.000  0.8900  0.1261  0.4382
 
              Baa    -0.0000    -0.000    -0.000    -0.000  0.6505  0.5385 -0.5356
    20 H(1)   Bbb     0.0000     0.000     0.000     0.000  0.6046  0.0598  0.7943
              Bcc     0.0000     0.000     0.000     0.000 -0.4597  0.8405  0.2867
 
              Baa    -0.0000    -0.000    -0.000    -0.000  0.7510 -0.6603  0.0033
    21 H(1)   Bbb     0.0000     0.000     0.000     0.000  0.5904  0.6738  0.4443
              Bcc     0.0000     0.000     0.000     0.000 -0.2956 -0.3317  0.8959
 
              Baa    -0.0000    -0.000    -0.000    -0.000  0.7513  0.6600 -0.0018
    22 H(1)   Bbb     0.0000     0.000     0.000     0.000 -0.6599  0.7512  0.0146
              Bcc     0.0000     0.000     0.000     0.000  0.0110 -0.0098  0.9999
 

 ---------------------------------------------------------------------------------

 No NMR shielding tensors so no spin-rotation constants.
 Leave Link  601 at Sat Jul 25 13:44:50 2020, MaxMem=  4026531840 cpu:               5.3 elap:               0.8
 (Enter /opt/ohpc/pub/libs/gaussian/g16-A.03/sandybridge/g16/l9999.exe)

 Test job not archived.
 1\1\GINC-SKYLAKE040\FOpt\ULC-wPBE\CC-pVDZ\C10H9N1O1S1\RDU230\25-Jul-20
 20\0\\#P uLC-wPBE/cc-pVDZ iop(3/107=0248300000, 3/108=0248300000) opt\
 \H9 C10 S1 N1 O1\\0,1\C,3.7636677715,0.2709498084,-0.0569062867\C,2.93
 46438184,1.3924181582,-0.1128466828\C,1.5526222272,1.2237166867,-0.071
 9444149\C,1.0364038532,-0.0815676502,0.024997919\N,1.8338799751,-1.168
 5051454,0.0793318036\C,3.1557167485,-0.9826040545,0.0386734591\C,-0.40
 22781679,-0.3724942373,0.0745222925\C,-1.5088247471,0.465653328,0.0432
 583557\O,-1.3626101102,1.8183694463,-0.0485086575\C,-2.5542010579,2.58
 84723777,-0.0745256852\C,-2.751619325,-0.2400404819,0.1162489061\C,-2.
 5588984239,-1.5963682006,0.2011552981\S,-0.9000770124,-2.035020011,0.1
 946394789\H,4.8553667604,0.3606624362,-0.0864437286\H,3.3621550799,2.4
 002150802,-0.1883965842\H,0.8704236711,2.0764952002,-0.1133006544\H,3.
 7671994863,-1.8960999165,0.0858188905\H,-3.147006337,2.4543658895,0.85
 21071059\H,-3.1838472884,2.3363690217,-0.9508883882\H,-2.2375501443,3.
 6409836246,-0.149681743\H,-3.7391628436,0.2277859292,0.1065921846\H,-3
 .3305069339,-2.3675212897,0.2681291315\\Version=EM64L-G16RevA.03\State
 =1-A\HF=-914.0958929\S2=0.\S2-1=0.\S2A=0.\RMSD=5.277e-09\RMSF=3.733e-0
 5\Dipole=-0.5813041,0.9826063,-0.0525583\Quadrupole=8.0736802,0.079589
 7,-8.1532699,-0.7638763,-0.296914,-0.5288949\PG=C01 [X(C10H9N1O1S1)]\\
 @


 A MUSTACHE HAIR ACROSS A CHIP IS LIKE A REDWOOD
 TREE FALLING THROUGH A HOUSING PROJECT.
 - AN IBM MANAGER IN EAST FISHKILL, NEW YORK
   AS QUOTED IN "FROM SANDS TO CIRCUITS", IBM INNOVATION JANUARY 1985.
 Job cpu time:       0 days  2 hours  1 minutes 58.3 seconds.
 Elapsed time:       0 days  0 hours 21 minutes 31.2 seconds.
 File lengths (MBytes):  RWF=    120 Int=      0 D2E=      0 Chk=     12 Scr=      8
 Normal termination of Gaussian 16 at Sat Jul 25 13:44:50 2020.
