 Entering Gaussian System, Link 0=g16
 Input=mols_66_7_11_n-n-cF-cF_opt_0.gjf
 Output=mols_66_7_11_n-n-cF-cF_opt_0.log
 Initial command:
 /opt/ohpc/pub/libs/gaussian/g16-A.03/sandybridge/g16/l1.exe "/mnt/gpfs2_4m/scratch/rdu230/ondemand/projects/dihedral_energies/7trial/wtuning/mols_66_7_11_n-n-cF-cF/Gau-141983.inp" -scrdir="/mnt/gpfs2_4m/scratch/rdu230/ondemand/projects/dihedral_energies/7trial/wtuning/mols_66_7_11_n-n-cF-cF/"
 Entering Link 1 = /opt/ohpc/pub/libs/gaussian/g16-A.03/sandybridge/g16/l1.exe PID=    141986.
  
 Copyright (c) 1988,1990,1992,1993,1995,1998,2003,2009,2016,
            Gaussian, Inc.  All Rights Reserved.
  
 This is part of the Gaussian(R) 16 program.  It is based on
 the Gaussian(R) 09 system (copyright 2009, Gaussian, Inc.),
 the Gaussian(R) 03 system (copyright 2003, Gaussian, Inc.),
 the Gaussian(R) 98 system (copyright 1998, Gaussian, Inc.),
 the Gaussian(R) 94 system (copyright 1995, Gaussian, Inc.),
 the Gaussian 92(TM) system (copyright 1992, Gaussian, Inc.),
 the Gaussian 90(TM) system (copyright 1990, Gaussian, Inc.),
 the Gaussian 88(TM) system (copyright 1988, Gaussian, Inc.),
 the Gaussian 86(TM) system (copyright 1986, Carnegie Mellon
 University), and the Gaussian 82(TM) system (copyright 1983,
 Carnegie Mellon University). Gaussian is a federally registered
 trademark of Gaussian, Inc.
  
 This software contains proprietary and confidential information,
 including trade secrets, belonging to Gaussian, Inc.
  
 This software is provided under written license and may be
 used, copied, transmitted, or stored only in accord with that
 written license.
  
 The following legend is applicable only to US Government
 contracts under FAR:
  
                    RESTRICTED RIGHTS LEGEND
  
 Use, reproduction and disclosure by the US Government is
 subject to restrictions as set forth in subparagraphs (a)
 and (c) of the Commercial Computer Software - Restricted
 Rights clause in FAR 52.227-19.
  
 Gaussian, Inc.
 340 Quinnipiac St., Bldg. 40, Wallingford CT 06492
  
  
 ---------------------------------------------------------------
 Warning -- This program may not be used in any manner that
 competes with the business of Gaussian, Inc. or will provide
 assistance to any competitor of Gaussian, Inc.  The licensee
 of this program is prohibited from giving any competitor of
 Gaussian, Inc. access to this program.  By using this program,
 the user acknowledges that Gaussian, Inc. is engaged in the
 business of creating and licensing software in the field of
 computational chemistry and represents and warrants to the
 licensee that it is not a competitor of Gaussian, Inc. and that
 it will not use this program in any manner prohibited above.
 ---------------------------------------------------------------
  

 Cite this work as:
 Gaussian 16, Revision A.03,
 M. J. Frisch, G. W. Trucks, H. B. Schlegel, G. E. Scuseria, 
 M. A. Robb, J. R. Cheeseman, G. Scalmani, V. Barone, 
 G. A. Petersson, H. Nakatsuji, X. Li, M. Caricato, A. V. Marenich, 
 J. Bloino, B. G. Janesko, R. Gomperts, B. Mennucci, H. P. Hratchian, 
 J. V. Ortiz, A. F. Izmaylov, J. L. Sonnenberg, D. Williams-Young, 
 F. Ding, F. Lipparini, F. Egidi, J. Goings, B. Peng, A. Petrone, 
 T. Henderson, D. Ranasinghe, V. G. Zakrzewski, J. Gao, N. Rega, 
 G. Zheng, W. Liang, M. Hada, M. Ehara, K. Toyota, R. Fukuda, 
 J. Hasegawa, M. Ishida, T. Nakajima, Y. Honda, O. Kitao, H. Nakai, 
 T. Vreven, K. Throssell, J. A. Montgomery, Jr., J. E. Peralta, 
 F. Ogliaro, M. J. Bearpark, J. J. Heyd, E. N. Brothers, K. N. Kudin, 
 V. N. Staroverov, T. A. Keith, R. Kobayashi, J. Normand, 
 K. Raghavachari, A. P. Rendell, J. C. Burant, S. S. Iyengar, 
 J. Tomasi, M. Cossi, J. M. Millam, M. Klene, C. Adamo, R. Cammi, 
 J. W. Ochterski, R. L. Martin, K. Morokuma, O. Farkas, 
 J. B. Foresman, and D. J. Fox, Gaussian, Inc., Wallingford CT, 2016.
 
 ******************************************
 Gaussian 16:  EM64L-G16RevA.03 25-Dec-2016
                24-Jul-2020 
 ******************************************
 %mem=30GB
 %nproc=8
 Will use up to    8 processors via shared memory.
 ---------------------------------------------------------------
 #P uLC-wPBE/cc-pVDZ iop(3/107=0075900000, 3/108=0075900000) opt
 ---------------------------------------------------------------
 1/18=20,19=15,26=3,38=1/1,3;
 2/9=110,12=2,17=6,18=5,40=1/2;
 3/5=16,11=2,25=1,30=1,71=1,74=-41,107=75900000,108=75900000,116=2/1,2,3;
 4//1;
 5/5=2,38=5/2;
 6/7=2,8=2,9=2,10=2,28=1/1;
 7//1,2,3,16;
 1/18=20,19=15,26=3/3(2);
 2/9=110/2;
 99//99;
 2/9=110/2;
 3/5=16,11=2,25=1,30=1,71=1,74=-41,107=75900000,108=75900000,116=2/1,2,3;
 4/5=5,16=3,69=1/1;
 5/5=2,38=5/2;
 7//1,2,3,16;
 1/18=20,19=15,26=3/3(-5);
 2/9=110/2;
 6/7=2,8=2,9=2,10=2,19=2,28=1/1;
 99/9=1/99;
 Leave Link    1 at Fri Jul 24 20:32:46 2020, MaxMem=  4026531840 cpu:               1.6 elap:               0.2
 (Enter /opt/ohpc/pub/libs/gaussian/g16-A.03/sandybridge/g16/l101.exe)
 ---------------
 H30 C70 N14 F14
 ---------------
 Symbolic Z-matrix:
 Charge =  0 Multiplicity = 1
 C                    -28.79845   1.86142  -0.25412 
 C                    -28.14431   1.87712   1.01721 
 C                    -26.8241   1.67554   1.10063 
 F                    -26.21479   1.65947   2.2769 
 C                    -26.14014   1.33     -0.14859 
 N                    -26.77231   1.26555  -1.28592 
 C                    -28.10808   1.50069  -1.30855 
 C                    -24.63099   1.07044  -0.13612 
 N                    -23.95188   2.01547   0.53826 
 C                    -22.54771   1.8584    0.45793 
 C                    -21.90879   0.8344   -0.09667 
 C                    -22.68038  -0.1359   -0.71648 
 C                    -24.08846   0.03669  -0.76222 
 F                    -24.84369  -0.95657  -1.37689 
 C                    -20.48526   0.67393  -0.1192 
 C                    -19.65783   0.58759  -1.25449 
 C                    -18.34575   0.47585  -1.261 
 F                    -17.66887   0.48238  -2.43173 
 C                    -17.62147   0.48586  -0.04338 
 N                    -18.33387   0.58036   1.12959 
 C                    -19.66765   0.67483   1.074 
 C                    -16.14745   0.3281    0.09582 
 N                    -15.51057  -0.40393  -0.85017 
 C                    -14.2079  -0.57212  -0.78155 
 C                    -13.42671  -0.00627   0.28105 
 C                    -14.05089   0.76372   1.25846 
 C                    -15.42545   0.92741   1.123 
 F                    -16.00461   1.71847   2.07962 
 C                    -11.99848  -0.17019   0.23533 
 C                    -11.34028  -0.75739   1.36768 
 C                    -9.91088  -0.8616    1.31909 
 F                    -9.34121  -1.50062   2.38365 
 C                    -9.19737  -0.49912   0.17655 
 N                    -9.82373   0.15729  -0.80403 
 C                    -11.13675   0.24197  -0.76199 
 C                    -7.72108  -0.5527    0.13686 
 N                    -7.03734  -0.57157   1.23982 
 C                    -5.68832  -0.66392   1.26008 
 C                    -4.92423  -0.84588   0.0165 
 C                    -5.60884  -0.81424  -1.13249 
 C                    -7.04769  -0.70532  -1.05877 
 F                    -7.66765  -0.72503  -2.29572 
 C                    -3.45942  -0.95013   0.01704 
 C                    -2.65461  -0.02733   0.84751 
 C                    -1.28389  -0.23166   0.79686 
 F                    -0.49753   0.71447   1.49084 
 C                    -0.63038  -1.16629   0.00064 
 N                    -1.43104  -1.99876  -0.74011 
 C                    -2.74451  -1.8932   -0.72224 
 C                     0.77718  -1.35344  -0.10274 
 N                     1.45261  -1.29897   1.08181 
 C                     2.81598  -1.41917   1.03403 
 C                     3.54339  -1.54206  -0.14768 
 C                     2.79972  -1.51979  -1.34622 
 C                     1.49341  -1.43772  -1.33856 
 F                     0.74225  -1.33378  -2.51871 
 C                     5.07203  -1.61817  -0.2153 
 C                     5.69572  -2.42804   0.723 
 C                     7.1028   -2.50276   0.68945 
 F                     7.785    -3.22752   1.59073 
 C                     7.86018  -1.6446   -0.21157 
 N                     7.22768  -0.85413  -1.09349 
 C                     5.87838  -0.85605  -1.05843 
 C                     9.29849  -1.61878  -0.21329 
 N                     9.92561  -1.79407  -1.31747 
 C                     11.26468  -1.63513  -1.43611 
 C                     12.07029  -1.30163  -0.33013 
 C                     11.45005  -1.20422   0.93938 
 C                     10.05087  -1.25704   0.98761 
 F                     9.4519   -1.07354   2.13753 
 C                     13.5637  -1.06575  -0.39507 
 C                     14.04356  -0.24032  -1.31319 
 C                     15.47328   0.03858  -1.30328 
 F                     15.92184   1.04805  -2.15941 
 C                     16.23939  -0.58452  -0.37675 
 N                     15.7475  -1.5211    0.48877 
 C                     14.39604  -1.72277   0.44772 
 C                     17.74256  -0.29942  -0.28691 
 N                     18.33303   0.09691  -1.40171 
 C                     19.65573   0.52452  -1.35725 
 C                     20.42419   0.49921  -0.16267 
 C                     19.73594   0.0075    0.93447 
 C                     18.41479  -0.2805    0.88714 
 F                     17.80577  -0.67611   2.11429 
 C                     21.78955   0.87909  -0.13049 
 C                     22.16778   2.13179  -0.63223 
 C                     23.56529   2.57781  -0.51296 
 F                     23.83838   3.81269  -0.89835 
 C                     24.50899   1.64294  -0.08031 
 N                     24.16312   0.47005   0.42829 
 C                     22.85408   0.02667   0.31414 
 C                     25.92901   2.06532   0.00985 
 N                     26.44832   2.66512  -0.99008 
 C                     27.75068   3.06069  -1.01243 
 C                     28.51622   2.88497   0.15586 
 C                     28.01129   2.16732   1.25881 
 C                     26.67713   1.78895   1.24944 
 F                     26.11879   1.24055   2.33784 
 H                    -29.85148   2.04527  -0.34129 
 H                    -28.74014   2.20159   1.93296 
 H                    -28.50947   1.36648  -2.33685 
 H                    -21.99388   2.59805   1.04952 
 H                    -22.30438  -1.06666  -1.25966 
 H                    -20.20825   0.6395   -2.29374 
 H                    -20.24904   0.6752    2.0511 
 H                    -13.74445  -1.13554  -1.517 
 H                    -13.49526   1.25914   2.01914 
 H                    -11.83211  -1.15632   2.22758 
 H                    -11.60186   0.77641  -1.71564 
 H                    -5.18409  -0.6427    2.22308 
 H                    -5.1471   -0.8971   -2.06881 
 H                    -3.09759   0.75284   1.44144 
 H                    -3.30983  -2.60023  -1.38714 
 H                     3.3248   -1.40351   2.00911 
 H                     3.35253  -1.62199  -2.305 
 H                     5.21255  -3.05944   1.45896 
 H                     5.36253  -0.18562  -1.71855 
 H                     11.71084  -1.83549  -2.35547 
 H                     11.91004  -0.90994   1.87319 
 H                     13.45188   0.37813  -1.97261 
 H                     14.13117  -2.4159    1.16786 
 H                     20.10538   0.73799  -2.29336 
 H                     20.22537  -0.0137    1.91637 
 H                     21.4877   2.88743  -0.9468 
 H                     22.64379  -0.88216   0.67937 
 H                     28.18034   3.56889  -1.83604 
 H                     29.5799   3.161     0.19643 
 H                     28.56126   2.03677   2.10746 
 
 ITRead=  0  0  0  0  0  0  0  0  0  0  0  0  0  0  0  0  0  0  0  0
 ITRead=  0  0  0  0  0  0  0  0  0  0  0  0  0  0  0  0  0  0  0  0
 ITRead=  0  0  0  0  0  0  0  0  0  0  0  0  0  0  0  0  0  0  0  0
 ITRead=  0  0  0  0  0  0  0  0  0  0  0  0  0  0  0  0  0  0  0  0
 ITRead=  0  0  0  0  0  0  0  0  0  0  0  0  0  0  0  0  0  0  0  0
 ITRead=  0  0  0  0  0  0  0  0  0  0  0  0  0  0  0  0  0  0  0  0
 ITRead=  0  0  0  0  0  0  0  0
 MicOpt= -1 -1 -1 -1 -1 -1 -1 -1 -1 -1 -1 -1 -1 -1 -1 -1 -1 -1 -1 -1
 MicOpt= -1 -1 -1 -1 -1 -1 -1 -1 -1 -1 -1 -1 -1 -1 -1 -1 -1 -1 -1 -1
 MicOpt= -1 -1 -1 -1 -1 -1 -1 -1 -1 -1 -1 -1 -1 -1 -1 -1 -1 -1 -1 -1
 MicOpt= -1 -1 -1 -1 -1 -1 -1 -1 -1 -1 -1 -1 -1 -1 -1 -1 -1 -1 -1 -1
 MicOpt= -1 -1 -1 -1 -1 -1 -1 -1 -1 -1 -1 -1 -1 -1 -1 -1 -1 -1 -1 -1
 MicOpt= -1 -1 -1 -1 -1 -1 -1 -1 -1 -1 -1 -1 -1 -1 -1 -1 -1 -1 -1 -1
 MicOpt= -1 -1 -1 -1 -1 -1 -1 -1
 NAtoms=    128 NQM=      128 NQMF=       0 NMMI=      0 NMMIF=      0
                NMic=       0 NMicF=      0.
                    Isotopes and Nuclear Properties:
 (Nuclear quadrupole moments (NQMom) in fm**2, nuclear magnetic moments (NMagM)
  in nuclear magnetons)

  Atom         1           2           3           4           5           6           7           8           9          10
 IAtWgt=          12          12          12          19          12          14          12          12          14          12
 AtmWgt=  12.0000000  12.0000000  12.0000000  18.9984033  12.0000000  14.0030740  12.0000000  12.0000000  14.0030740  12.0000000
 NucSpn=           0           0           0           1           0           2           0           0           2           0
 AtZEff=  -0.0000000  -0.0000000  -0.0000000  -0.0000000  -0.0000000  -0.0000000  -0.0000000  -0.0000000  -0.0000000  -0.0000000
 NQMom=    0.0000000   0.0000000   0.0000000   0.0000000   0.0000000   2.0440000   0.0000000   0.0000000   2.0440000   0.0000000
 NMagM=    0.0000000   0.0000000   0.0000000   2.6288670   0.0000000   0.4037610   0.0000000   0.0000000   0.4037610   0.0000000
 AtZNuc=   6.0000000   6.0000000   6.0000000   9.0000000   6.0000000   7.0000000   6.0000000   6.0000000   7.0000000   6.0000000

  Atom        11          12          13          14          15          16          17          18          19          20
 IAtWgt=          12          12          12          19          12          12          12          19          12          14
 AtmWgt=  12.0000000  12.0000000  12.0000000  18.9984033  12.0000000  12.0000000  12.0000000  18.9984033  12.0000000  14.0030740
 NucSpn=           0           0           0           1           0           0           0           1           0           2
 AtZEff=  -0.0000000  -0.0000000  -0.0000000  -0.0000000  -0.0000000  -0.0000000  -0.0000000  -0.0000000  -0.0000000  -0.0000000
 NQMom=    0.0000000   0.0000000   0.0000000   0.0000000   0.0000000   0.0000000   0.0000000   0.0000000   0.0000000   2.0440000
 NMagM=    0.0000000   0.0000000   0.0000000   2.6288670   0.0000000   0.0000000   0.0000000   2.6288670   0.0000000   0.4037610
 AtZNuc=   6.0000000   6.0000000   6.0000000   9.0000000   6.0000000   6.0000000   6.0000000   9.0000000   6.0000000   7.0000000

  Atom        21          22          23          24          25          26          27          28          29          30
 IAtWgt=          12          12          14          12          12          12          12          19          12          12
 AtmWgt=  12.0000000  12.0000000  14.0030740  12.0000000  12.0000000  12.0000000  12.0000000  18.9984033  12.0000000  12.0000000
 NucSpn=           0           0           2           0           0           0           0           1           0           0
 AtZEff=  -0.0000000  -0.0000000  -0.0000000  -0.0000000  -0.0000000  -0.0000000  -0.0000000  -0.0000000  -0.0000000  -0.0000000
 NQMom=    0.0000000   0.0000000   2.0440000   0.0000000   0.0000000   0.0000000   0.0000000   0.0000000   0.0000000   0.0000000
 NMagM=    0.0000000   0.0000000   0.4037610   0.0000000   0.0000000   0.0000000   0.0000000   2.6288670   0.0000000   0.0000000
 AtZNuc=   6.0000000   6.0000000   7.0000000   6.0000000   6.0000000   6.0000000   6.0000000   9.0000000   6.0000000   6.0000000

  Atom        31          32          33          34          35          36          37          38          39          40
 IAtWgt=          12          19          12          14          12          12          14          12          12          12
 AtmWgt=  12.0000000  18.9984033  12.0000000  14.0030740  12.0000000  12.0000000  14.0030740  12.0000000  12.0000000  12.0000000
 NucSpn=           0           1           0           2           0           0           2           0           0           0
 AtZEff=  -0.0000000  -0.0000000  -0.0000000  -0.0000000  -0.0000000  -0.0000000  -0.0000000  -0.0000000  -0.0000000  -0.0000000
 NQMom=    0.0000000   0.0000000   0.0000000   2.0440000   0.0000000   0.0000000   2.0440000   0.0000000   0.0000000   0.0000000
 NMagM=    0.0000000   2.6288670   0.0000000   0.4037610   0.0000000   0.0000000   0.4037610   0.0000000   0.0000000   0.0000000
 AtZNuc=   6.0000000   9.0000000   6.0000000   7.0000000   6.0000000   6.0000000   7.0000000   6.0000000   6.0000000   6.0000000

  Atom        41          42          43          44          45          46          47          48          49          50
 IAtWgt=          12          19          12          12          12          19          12          14          12          12
 AtmWgt=  12.0000000  18.9984033  12.0000000  12.0000000  12.0000000  18.9984033  12.0000000  14.0030740  12.0000000  12.0000000
 NucSpn=           0           1           0           0           0           1           0           2           0           0
 AtZEff=  -0.0000000  -0.0000000  -0.0000000  -0.0000000  -0.0000000  -0.0000000  -0.0000000  -0.0000000  -0.0000000  -0.0000000
 NQMom=    0.0000000   0.0000000   0.0000000   0.0000000   0.0000000   0.0000000   0.0000000   2.0440000   0.0000000   0.0000000
 NMagM=    0.0000000   2.6288670   0.0000000   0.0000000   0.0000000   2.6288670   0.0000000   0.4037610   0.0000000   0.0000000
 AtZNuc=   6.0000000   9.0000000   6.0000000   6.0000000   6.0000000   9.0000000   6.0000000   7.0000000   6.0000000   6.0000000

  Atom        51          52          53          54          55          56          57          58          59          60
 IAtWgt=          14          12          12          12          12          19          12          12          12          19
 AtmWgt=  14.0030740  12.0000000  12.0000000  12.0000000  12.0000000  18.9984033  12.0000000  12.0000000  12.0000000  18.9984033
 NucSpn=           2           0           0           0           0           1           0           0           0           1
 AtZEff=  -0.0000000  -0.0000000  -0.0000000  -0.0000000  -0.0000000  -0.0000000  -0.0000000  -0.0000000  -0.0000000  -0.0000000
 NQMom=    2.0440000   0.0000000   0.0000000   0.0000000   0.0000000   0.0000000   0.0000000   0.0000000   0.0000000   0.0000000
 NMagM=    0.4037610   0.0000000   0.0000000   0.0000000   0.0000000   2.6288670   0.0000000   0.0000000   0.0000000   2.6288670
 AtZNuc=   7.0000000   6.0000000   6.0000000   6.0000000   6.0000000   9.0000000   6.0000000   6.0000000   6.0000000   9.0000000

  Atom        61          62          63          64          65          66          67          68          69          70
 IAtWgt=          12          14          12          12          14          12          12          12          12          19
 AtmWgt=  12.0000000  14.0030740  12.0000000  12.0000000  14.0030740  12.0000000  12.0000000  12.0000000  12.0000000  18.9984033
 NucSpn=           0           2           0           0           2           0           0           0           0           1
 AtZEff=  -0.0000000  -0.0000000  -0.0000000  -0.0000000  -0.0000000  -0.0000000  -0.0000000  -0.0000000  -0.0000000  -0.0000000
 NQMom=    0.0000000   2.0440000   0.0000000   0.0000000   2.0440000   0.0000000   0.0000000   0.0000000   0.0000000   0.0000000
 NMagM=    0.0000000   0.4037610   0.0000000   0.0000000   0.4037610   0.0000000   0.0000000   0.0000000   0.0000000   2.6288670
 AtZNuc=   6.0000000   7.0000000   6.0000000   6.0000000   7.0000000   6.0000000   6.0000000   6.0000000   6.0000000   9.0000000

  Atom        71          72          73          74          75          76          77          78          79          80
 IAtWgt=          12          12          12          19          12          14          12          12          14          12
 AtmWgt=  12.0000000  12.0000000  12.0000000  18.9984033  12.0000000  14.0030740  12.0000000  12.0000000  14.0030740  12.0000000
 NucSpn=           0           0           0           1           0           2           0           0           2           0
 AtZEff=  -0.0000000  -0.0000000  -0.0000000  -0.0000000  -0.0000000  -0.0000000  -0.0000000  -0.0000000  -0.0000000  -0.0000000
 NQMom=    0.0000000   0.0000000   0.0000000   0.0000000   0.0000000   2.0440000   0.0000000   0.0000000   2.0440000   0.0000000
 NMagM=    0.0000000   0.0000000   0.0000000   2.6288670   0.0000000   0.4037610   0.0000000   0.0000000   0.4037610   0.0000000
 AtZNuc=   6.0000000   6.0000000   6.0000000   9.0000000   6.0000000   7.0000000   6.0000000   6.0000000   7.0000000   6.0000000

  Atom        81          82          83          84          85          86          87          88          89          90
 IAtWgt=          12          12          12          19          12          12          12          19          12          14
 AtmWgt=  12.0000000  12.0000000  12.0000000  18.9984033  12.0000000  12.0000000  12.0000000  18.9984033  12.0000000  14.0030740
 NucSpn=           0           0           0           1           0           0           0           1           0           2
 AtZEff=  -0.0000000  -0.0000000  -0.0000000  -0.0000000  -0.0000000  -0.0000000  -0.0000000  -0.0000000  -0.0000000  -0.0000000
 NQMom=    0.0000000   0.0000000   0.0000000   0.0000000   0.0000000   0.0000000   0.0000000   0.0000000   0.0000000   2.0440000
 NMagM=    0.0000000   0.0000000   0.0000000   2.6288670   0.0000000   0.0000000   0.0000000   2.6288670   0.0000000   0.4037610
 AtZNuc=   6.0000000   6.0000000   6.0000000   9.0000000   6.0000000   6.0000000   6.0000000   9.0000000   6.0000000   7.0000000

  Atom        91          92          93          94          95          96          97          98          99         100
 IAtWgt=          12          12          14          12          12          12          12          19           1           1
 AtmWgt=  12.0000000  12.0000000  14.0030740  12.0000000  12.0000000  12.0000000  12.0000000  18.9984033   1.0078250   1.0078250
 NucSpn=           0           0           2           0           0           0           0           1           1           1
 AtZEff=  -0.0000000  -0.0000000  -0.0000000  -0.0000000  -0.0000000  -0.0000000  -0.0000000  -0.0000000  -0.0000000  -0.0000000
 NQMom=    0.0000000   0.0000000   2.0440000   0.0000000   0.0000000   0.0000000   0.0000000   0.0000000   0.0000000   0.0000000
 NMagM=    0.0000000   0.0000000   0.4037610   0.0000000   0.0000000   0.0000000   0.0000000   2.6288670   2.7928460   2.7928460
 AtZNuc=   6.0000000   6.0000000   7.0000000   6.0000000   6.0000000   6.0000000   6.0000000   9.0000000   1.0000000   1.0000000

  Atom       101         102         103         104         105         106         107         108         109         110
 IAtWgt=           1           1           1           1           1           1           1           1           1           1
 AtmWgt=   1.0078250   1.0078250   1.0078250   1.0078250   1.0078250   1.0078250   1.0078250   1.0078250   1.0078250   1.0078250
 NucSpn=           1           1           1           1           1           1           1           1           1           1
 AtZEff=  -0.0000000  -0.0000000  -0.0000000  -0.0000000  -0.0000000  -0.0000000  -0.0000000  -0.0000000  -0.0000000  -0.0000000
 NQMom=    0.0000000   0.0000000   0.0000000   0.0000000   0.0000000   0.0000000   0.0000000   0.0000000   0.0000000   0.0000000
 NMagM=    2.7928460   2.7928460   2.7928460   2.7928460   2.7928460   2.7928460   2.7928460   2.7928460   2.7928460   2.7928460
 AtZNuc=   1.0000000   1.0000000   1.0000000   1.0000000   1.0000000   1.0000000   1.0000000   1.0000000   1.0000000   1.0000000

  Atom       111         112         113         114         115         116         117         118         119         120
 IAtWgt=           1           1           1           1           1           1           1           1           1           1
 AtmWgt=   1.0078250   1.0078250   1.0078250   1.0078250   1.0078250   1.0078250   1.0078250   1.0078250   1.0078250   1.0078250
 NucSpn=           1           1           1           1           1           1           1           1           1           1
 AtZEff=  -0.0000000  -0.0000000  -0.0000000  -0.0000000  -0.0000000  -0.0000000  -0.0000000  -0.0000000  -0.0000000  -0.0000000
 NQMom=    0.0000000   0.0000000   0.0000000   0.0000000   0.0000000   0.0000000   0.0000000   0.0000000   0.0000000   0.0000000
 NMagM=    2.7928460   2.7928460   2.7928460   2.7928460   2.7928460   2.7928460   2.7928460   2.7928460   2.7928460   2.7928460
 AtZNuc=   1.0000000   1.0000000   1.0000000   1.0000000   1.0000000   1.0000000   1.0000000   1.0000000   1.0000000   1.0000000

  Atom       121         122         123         124         125         126         127         128
 IAtWgt=           1           1           1           1           1           1           1           1
 AtmWgt=   1.0078250   1.0078250   1.0078250   1.0078250   1.0078250   1.0078250   1.0078250   1.0078250
 NucSpn=           1           1           1           1           1           1           1           1
 AtZEff=  -0.0000000  -0.0000000  -0.0000000  -0.0000000  -0.0000000  -0.0000000  -0.0000000  -0.0000000
 NQMom=    0.0000000   0.0000000   0.0000000   0.0000000   0.0000000   0.0000000   0.0000000   0.0000000
 NMagM=    2.7928460   2.7928460   2.7928460   2.7928460   2.7928460   2.7928460   2.7928460   2.7928460
 AtZNuc=   1.0000000   1.0000000   1.0000000   1.0000000   1.0000000   1.0000000   1.0000000   1.0000000
 Leave Link  101 at Fri Jul 24 20:32:47 2020, MaxMem=  4026531840 cpu:               3.0 elap:               0.4
 (Enter /opt/ohpc/pub/libs/gaussian/g16-A.03/sandybridge/g16/l103.exe)

 GradGradGradGradGradGradGradGradGradGradGradGradGradGradGradGradGradGrad
 Berny optimization.
 Initialization pass.
                           ----------------------------
                           !    Initial Parameters    !
                           ! (Angstroms and Degrees)  !
 --------------------------                            --------------------------
 ! Name  Definition              Value          Derivative Info.                !
 --------------------------------------------------------------------------------
 ! R1    R(1,2)                  1.4298         estimate D2E/DX2                !
 ! R2    R(1,7)                  1.3109         estimate D2E/DX2                !
 ! R3    R(1,99)                 1.0725         estimate D2E/DX2                !
 ! R4    R(2,3)                  1.3381         estimate D2E/DX2                !
 ! R5    R(2,100)                1.1397         estimate D2E/DX2                !
 ! R6    R(3,4)                  1.3248         estimate D2E/DX2                !
 ! R7    R(3,5)                  1.4655         estimate D2E/DX2                !
 ! R8    R(5,6)                  1.3028         estimate D2E/DX2                !
 ! R9    R(5,8)                  1.5314         estimate D2E/DX2                !
 ! R10   R(6,7)                  1.3565         estimate D2E/DX2                !
 ! R11   R(7,101)                1.112          estimate D2E/DX2                !
 ! R12   R(8,9)                  1.345          estimate D2E/DX2                !
 ! R13   R(8,13)                 1.3248         estimate D2E/DX2                !
 ! R14   R(9,10)                 1.4152         estimate D2E/DX2                !
 ! R15   R(10,11)                1.3283         estimate D2E/DX2                !
 ! R16   R(10,102)               1.0972         estimate D2E/DX2                !
 ! R17   R(11,12)                1.386          estimate D2E/DX2                !
 ! R18   R(11,15)                1.4327         estimate D2E/DX2                !
 ! R19   R(12,13)                1.4194         estimate D2E/DX2                !
 ! R20   R(12,103)               1.1414         estimate D2E/DX2                !
 ! R21   R(13,14)                1.391          estimate D2E/DX2                !
 ! R22   R(15,16)                1.4075         estimate D2E/DX2                !
 ! R23   R(15,21)                1.4465         estimate D2E/DX2                !
 ! R24   R(16,17)                1.3168         estimate D2E/DX2                !
 ! R25   R(16,104)               1.1772         estimate D2E/DX2                !
 ! R26   R(17,18)                1.3523         estimate D2E/DX2                !
 ! R27   R(17,19)                1.4168         estimate D2E/DX2                !
 ! R28   R(19,20)                1.3756         estimate D2E/DX2                !
 ! R29   R(19,22)                1.489          estimate D2E/DX2                !
 ! R30   R(20,21)                1.3383         estimate D2E/DX2                !
 ! R31   R(21,105)               1.137          estimate D2E/DX2                !
 ! R32   R(22,23)                1.3551         estimate D2E/DX2                !
 ! R33   R(22,27)                1.3912         estimate D2E/DX2                !
 ! R34   R(23,24)                1.3153         estimate D2E/DX2                !
 ! R35   R(24,25)                1.4351         estimate D2E/DX2                !
 ! R36   R(24,106)               1.0359         estimate D2E/DX2                !
 ! R37   R(25,26)                1.3921         estimate D2E/DX2                !
 ! R38   R(25,29)                1.4383         estimate D2E/DX2                !
 ! R39   R(26,27)                1.3909         estimate D2E/DX2                !
 ! R40   R(26,107)               1.0643         estimate D2E/DX2                !
 ! R41   R(27,28)                1.3698         estimate D2E/DX2                !
 ! R42   R(29,30)                1.4354         estimate D2E/DX2                !
 ! R43   R(29,35)                1.381          estimate D2E/DX2                !
 ! R44   R(30,31)                1.434          estimate D2E/DX2                !
 ! R45   R(30,108)               1.0679         estimate D2E/DX2                !
 ! R46   R(31,32)                1.3661         estimate D2E/DX2                !
 ! R47   R(31,33)                1.3949         estimate D2E/DX2                !
 ! R48   R(33,34)                1.3359         estimate D2E/DX2                !
 ! R49   R(33,36)                1.4778         estimate D2E/DX2                !
 ! R50   R(34,35)                1.3164         estimate D2E/DX2                !
 ! R51   R(35,109)               1.188          estimate D2E/DX2                !
 ! R52   R(36,37)                1.2978         estimate D2E/DX2                !
 ! R53   R(36,41)                1.3807         estimate D2E/DX2                !
 ! R54   R(37,38)                1.3523         estimate D2E/DX2                !
 ! R55   R(38,39)                1.4709         estimate D2E/DX2                !
 ! R56   R(38,110)               1.0872         estimate D2E/DX2                !
 ! R57   R(39,40)                1.3379         estimate D2E/DX2                !
 ! R58   R(39,43)                1.4685         estimate D2E/DX2                !
 ! R59   R(40,41)                1.4449         estimate D2E/DX2                !
 ! R60   R(40,111)               1.0473         estimate D2E/DX2                !
 ! R61   R(41,42)                1.3838         estimate D2E/DX2                !
 ! R62   R(43,44)                1.4795         estimate D2E/DX2                !
 ! R63   R(43,49)                1.3954         estimate D2E/DX2                !
 ! R64   R(44,45)                1.3868         estimate D2E/DX2                !
 ! R65   R(44,112)               1.0759         estimate D2E/DX2                !
 ! R66   R(45,46)                1.4125         estimate D2E/DX2                !
 ! R67   R(45,47)                1.3909         estimate D2E/DX2                !
 ! R68   R(47,48)                1.3721         estimate D2E/DX2                !
 ! R69   R(47,50)                1.4237         estimate D2E/DX2                !
 ! R70   R(48,49)                1.3178         estimate D2E/DX2                !
 ! R71   R(49,113)               1.1232         estimate D2E/DX2                !
 ! R72   R(50,51)                1.3647         estimate D2E/DX2                !
 ! R73   R(50,55)                1.4309         estimate D2E/DX2                !
 ! R74   R(51,52)                1.3695         estimate D2E/DX2                !
 ! R75   R(52,53)                1.3931         estimate D2E/DX2                !
 ! R76   R(52,114)               1.1            estimate D2E/DX2                !
 ! R77   R(53,54)                1.4107         estimate D2E/DX2                !
 ! R78   R(53,57)                1.532          estimate D2E/DX2                !
 ! R79   R(54,55)                1.3089         estimate D2E/DX2                !
 ! R80   R(54,115)               1.1114         estimate D2E/DX2                !
 ! R81   R(55,56)                1.4028         estimate D2E/DX2                !
 ! R82   R(57,58)                1.3875         estimate D2E/DX2                !
 ! R83   R(57,63)                1.3935         estimate D2E/DX2                !
 ! R84   R(58,59)                1.4095         estimate D2E/DX2                !
 ! R85   R(58,116)               1.0834         estimate D2E/DX2                !
 ! R86   R(59,60)                1.3427         estimate D2E/DX2                !
 ! R87   R(59,61)                1.4567         estimate D2E/DX2                !
 ! R88   R(61,62)                1.3426         estimate D2E/DX2                !
 ! R89   R(61,64)                1.4385         estimate D2E/DX2                !
 ! R90   R(62,63)                1.3498         estimate D2E/DX2                !
 ! R91   R(63,117)               1.073          estimate D2E/DX2                !
 ! R92   R(64,65)                1.2819         estimate D2E/DX2                !
 ! R93   R(64,69)                1.4626         estimate D2E/DX2                !
 ! R94   R(65,66)                1.3537         estimate D2E/DX2                !
 ! R95   R(66,67)                1.4083         estimate D2E/DX2                !
 ! R96   R(66,118)               1.0414         estimate D2E/DX2                !
 ! R97   R(67,68)                1.4163         estimate D2E/DX2                !
 ! R98   R(67,71)                1.5133         estimate D2E/DX2                !
 ! R99   R(68,69)                1.401          estimate D2E/DX2                !
 ! R100  R(68,119)               1.0818         estimate D2E/DX2                !
 ! R101  R(69,70)                1.3095         estimate D2E/DX2                !
 ! R102  R(71,72)                1.3246         estimate D2E/DX2                !
 ! R103  R(71,77)                1.3545         estimate D2E/DX2                !
 ! R104  R(72,73)                1.4567         estimate D2E/DX2                !
 ! R105  R(72,120)               1.0805         estimate D2E/DX2                !
 ! R106  R(73,74)                1.3976         estimate D2E/DX2                !
 ! R107  R(73,75)                1.3541         estimate D2E/DX2                !
 ! R108  R(75,76)                1.3668         estimate D2E/DX2                !
 ! R109  R(75,78)                1.5326         estimate D2E/DX2                !
 ! R110  R(76,77)                1.367          estimate D2E/DX2                !
 ! R111  R(77,121)               1.034          estimate D2E/DX2                !
 ! R112  R(78,79)                1.3223         estimate D2E/DX2                !
 ! R113  R(78,83)                1.353          estimate D2E/DX2                !
 ! R114  R(79,80)                1.3908         estimate D2E/DX2                !
 ! R115  R(80,81)                1.4206         estimate D2E/DX2                !
 ! R116  R(80,122)               1.0602         estimate D2E/DX2                !
 ! R117  R(81,82)                1.3853         estimate D2E/DX2                !
 ! R118  R(81,85)                1.4176         estimate D2E/DX2                !
 ! R119  R(82,83)                1.353          estimate D2E/DX2                !
 ! R120  R(82,123)               1.0973         estimate D2E/DX2                !
 ! R121  R(83,84)                1.4259         estimate D2E/DX2                !
 ! R122  R(85,86)                1.4015         estimate D2E/DX2                !
 ! R123  R(85,91)                1.4344         estimate D2E/DX2                !
 ! R124  R(86,87)                1.4718         estimate D2E/DX2                !
 ! R125  R(86,124)               1.0642         estimate D2E/DX2                !
 ! R126  R(87,88)                1.3221         estimate D2E/DX2                !
 ! R127  R(87,89)                1.397          estimate D2E/DX2                !
 ! R128  R(89,90)                1.3244         estimate D2E/DX2                !
 ! R129  R(89,92)                1.4842         estimate D2E/DX2                !
 ! R130  R(90,91)                1.3868         estimate D2E/DX2                !
 ! R131  R(91,125)               1.0018         estimate D2E/DX2                !
 ! R132  R(92,93)                1.2764         estimate D2E/DX2                !
 ! R133  R(92,97)                1.474          estimate D2E/DX2                !
 ! R134  R(93,94)                1.3613         estimate D2E/DX2                !
 ! R135  R(94,95)                1.4078         estimate D2E/DX2                !
 ! R136  R(94,126)               1.0589         estimate D2E/DX2                !
 ! R137  R(95,96)                1.4094         estimate D2E/DX2                !
 ! R138  R(95,127)               1.0997         estimate D2E/DX2                !
 ! R139  R(96,97)                1.3868         estimate D2E/DX2                !
 ! R140  R(96,128)               1.0197         estimate D2E/DX2                !
 ! R141  R(97,98)                1.3406         estimate D2E/DX2                !
 ! A1    A(2,1,7)              118.5066         estimate D2E/DX2                !
 ! A2    A(2,1,99)             121.3034         estimate D2E/DX2                !
 ! A3    A(7,1,99)             119.9245         estimate D2E/DX2                !
 ! A4    A(1,2,3)              120.3411         estimate D2E/DX2                !
 ! A5    A(1,2,100)            118.5798         estimate D2E/DX2                !
 ! A6    A(3,2,100)            120.571          estimate D2E/DX2                !
 ! A7    A(2,3,4)              120.7267         estimate D2E/DX2                !
 ! A8    A(2,3,5)              116.285          estimate D2E/DX2                !
 ! A9    A(4,3,5)              122.6381         estimate D2E/DX2                !
 ! A10   A(3,5,6)              121.9612         estimate D2E/DX2                !
 ! A11   A(3,5,8)              119.5349         estimate D2E/DX2                !
 ! A12   A(6,5,8)              118.4844         estimate D2E/DX2                !
 ! A13   A(5,6,7)              118.9343         estimate D2E/DX2                !
 ! A14   A(1,7,6)              123.5633         estimate D2E/DX2                !
 ! A15   A(1,7,101)            125.9381         estimate D2E/DX2                !
 ! A16   A(6,7,101)            110.4847         estimate D2E/DX2                !
 ! A17   A(5,8,9)              112.4934         estimate D2E/DX2                !
 ! A18   A(5,8,13)             122.1414         estimate D2E/DX2                !
 ! A19   A(9,8,13)             125.3424         estimate D2E/DX2                !
 ! A20   A(8,9,10)             113.2366         estimate D2E/DX2                !
 ! A21   A(9,10,11)            125.9104         estimate D2E/DX2                !
 ! A22   A(9,10,102)           113.292          estimate D2E/DX2                !
 ! A23   A(11,10,102)          120.1338         estimate D2E/DX2                !
 ! A24   A(10,11,12)           117.2986         estimate D2E/DX2                !
 ! A25   A(10,11,15)           124.8083         estimate D2E/DX2                !
 ! A26   A(12,11,15)           117.8843         estimate D2E/DX2                !
 ! A27   A(11,12,13)           118.7876         estimate D2E/DX2                !
 ! A28   A(11,12,103)          126.893          estimate D2E/DX2                !
 ! A29   A(13,12,103)          114.2442         estimate D2E/DX2                !
 ! A30   A(8,13,12)            119.0738         estimate D2E/DX2                !
 ! A31   A(8,13,14)            122.9371         estimate D2E/DX2                !
 ! A32   A(12,13,14)           117.7782         estimate D2E/DX2                !
 ! A33   A(11,15,16)           127.1328         estimate D2E/DX2                !
 ! A34   A(11,15,21)           123.2702         estimate D2E/DX2                !
 ! A35   A(16,15,21)           109.4586         estimate D2E/DX2                !
 ! A36   A(15,16,17)           126.5087         estimate D2E/DX2                !
 ! A37   A(15,16,104)          115.7555         estimate D2E/DX2                !
 ! A38   A(17,16,104)          117.7278         estimate D2E/DX2                !
 ! A39   A(16,17,18)           120.1712         estimate D2E/DX2                !
 ! A40   A(16,17,19)           120.2992         estimate D2E/DX2                !
 ! A41   A(18,17,19)           119.2159         estimate D2E/DX2                !
 ! A42   A(17,19,20)           117.9408         estimate D2E/DX2                !
 ! A43   A(17,19,22)           125.8509         estimate D2E/DX2                !
 ! A44   A(20,19,22)           116.1201         estimate D2E/DX2                !
 ! A45   A(19,20,21)           119.05           estimate D2E/DX2                !
 ! A46   A(15,21,20)           126.6968         estimate D2E/DX2                !
 ! A47   A(15,21,105)          114.826          estimate D2E/DX2                !
 ! A48   A(20,21,105)          118.2915         estimate D2E/DX2                !
 ! A49   A(19,22,23)           117.2089         estimate D2E/DX2                !
 ! A50   A(19,22,27)           122.4884         estimate D2E/DX2                !
 ! A51   A(23,22,27)           120.279          estimate D2E/DX2                !
 ! A52   A(22,23,24)           119.8764         estimate D2E/DX2                !
 ! A53   A(23,24,25)           121.8253         estimate D2E/DX2                !
 ! A54   A(23,24,106)          118.3987         estimate D2E/DX2                !
 ! A55   A(25,24,106)          119.7748         estimate D2E/DX2                !
 ! A56   A(24,25,26)           119.5973         estimate D2E/DX2                !
 ! A57   A(24,25,29)           118.1672         estimate D2E/DX2                !
 ! A58   A(26,25,29)           122.0453         estimate D2E/DX2                !
 ! A59   A(25,26,27)           116.0935         estimate D2E/DX2                !
 ! A60   A(25,26,107)          121.6827         estimate D2E/DX2                !
 ! A61   A(27,26,107)          122.0555         estimate D2E/DX2                !
 ! A62   A(22,27,26)           122.2812         estimate D2E/DX2                !
 ! A63   A(22,27,28)           123.0233         estimate D2E/DX2                !
 ! A64   A(26,27,28)           114.6953         estimate D2E/DX2                !
 ! A65   A(25,29,30)           118.4822         estimate D2E/DX2                !
 ! A66   A(25,29,35)           127.4854         estimate D2E/DX2                !
 ! A67   A(30,29,35)           113.934          estimate D2E/DX2                !
 ! A68   A(29,30,31)           117.3925         estimate D2E/DX2                !
 ! A69   A(29,30,108)          125.2295         estimate D2E/DX2                !
 ! A70   A(31,30,108)          117.3357         estimate D2E/DX2                !
 ! A71   A(30,31,32)           115.0404         estimate D2E/DX2                !
 ! A72   A(30,31,33)           121.2463         estimate D2E/DX2                !
 ! A73   A(32,31,33)           123.1293         estimate D2E/DX2                !
 ! A74   A(31,33,34)           119.2781         estimate D2E/DX2                !
 ! A75   A(31,33,36)           121.571          estimate D2E/DX2                !
 ! A76   A(34,33,36)           117.8055         estimate D2E/DX2                !
 ! A77   A(33,34,35)           118.4115         estimate D2E/DX2                !
 ! A78   A(29,35,34)           128.7745         estimate D2E/DX2                !
 ! A79   A(29,35,109)          118.0136         estimate D2E/DX2                !
 ! A80   A(34,35,109)          113.19           estimate D2E/DX2                !
 ! A81   A(33,36,37)           120.2647         estimate D2E/DX2                !
 ! A82   A(33,36,41)           120.964          estimate D2E/DX2                !
 ! A83   A(37,36,41)           118.5146         estimate D2E/DX2                !
 ! A84   A(36,37,38)           122.6341         estimate D2E/DX2                !
 ! A85   A(37,38,39)           120.9303         estimate D2E/DX2                !
 ! A86   A(37,38,110)          118.3319         estimate D2E/DX2                !
 ! A87   A(39,38,110)          120.6878         estimate D2E/DX2                !
 ! A88   A(38,39,40)           117.217          estimate D2E/DX2                !
 ! A89   A(38,39,43)           121.7789         estimate D2E/DX2                !
 ! A90   A(40,39,43)           120.8256         estimate D2E/DX2                !
 ! A91   A(39,40,41)           117.8758         estimate D2E/DX2                !
 ! A92   A(39,40,111)          122.708          estimate D2E/DX2                !
 ! A93   A(41,40,111)          119.3834         estimate D2E/DX2                !
 ! A94   A(36,41,40)           122.5625         estimate D2E/DX2                !
 ! A95   A(36,41,42)           123.8599         estimate D2E/DX2                !
 ! A96   A(40,41,42)           113.5454         estimate D2E/DX2                !
 ! A97   A(39,43,44)           119.9029         estimate D2E/DX2                !
 ! A98   A(39,43,49)           123.9757         estimate D2E/DX2                !
 ! A99   A(44,43,49)           116.1188         estimate D2E/DX2                !
 ! A100  A(43,44,45)           115.1677         estimate D2E/DX2                !
 ! A101  A(43,44,112)          122.5582         estimate D2E/DX2                !
 ! A102  A(45,44,112)          122.2716         estimate D2E/DX2                !
 ! A103  A(44,45,46)           115.6983         estimate D2E/DX2                !
 ! A104  A(44,45,47)           125.7548         estimate D2E/DX2                !
 ! A105  A(46,45,47)           118.0204         estimate D2E/DX2                !
 ! A106  A(45,47,48)           116.2673         estimate D2E/DX2                !
 ! A107  A(45,47,50)           126.4712         estimate D2E/DX2                !
 ! A108  A(48,47,50)           117.2542         estimate D2E/DX2                !
 ! A109  A(47,48,49)           121.7126         estimate D2E/DX2                !
 ! A110  A(43,49,48)           124.8887         estimate D2E/DX2                !
 ! A111  A(43,49,113)          118.7639         estimate D2E/DX2                !
 ! A112  A(48,49,113)          116.3083         estimate D2E/DX2                !
 ! A113  A(47,50,51)           114.9011         estimate D2E/DX2                !
 ! A114  A(47,50,55)           124.4263         estimate D2E/DX2                !
 ! A115  A(51,50,55)           120.2845         estimate D2E/DX2                !
 ! A116  A(50,51,52)           117.3193         estimate D2E/DX2                !
 ! A117  A(51,52,53)           123.8599         estimate D2E/DX2                !
 ! A118  A(51,52,114)          115.3625         estimate D2E/DX2                !
 ! A119  A(53,52,114)          120.7751         estimate D2E/DX2                !
 ! A120  A(52,53,54)           116.3621         estimate D2E/DX2                !
 ! A121  A(52,53,57)           124.2519         estimate D2E/DX2                !
 ! A122  A(54,53,57)           119.2937         estimate D2E/DX2                !
 ! A123  A(53,54,55)           121.4759         estimate D2E/DX2                !
 ! A124  A(53,54,115)          117.9863         estimate D2E/DX2                !
 ! A125  A(55,54,115)          120.4779         estimate D2E/DX2                !
 ! A126  A(50,55,54)           120.5517         estimate D2E/DX2                !
 ! A127  A(50,55,56)           117.0143         estimate D2E/DX2                !
 ! A128  A(54,55,56)           122.2856         estimate D2E/DX2                !
 ! A129  A(53,57,58)           116.5927         estimate D2E/DX2                !
 ! A130  A(53,57,63)           125.2325         estimate D2E/DX2                !
 ! A131  A(58,57,63)           117.9217         estimate D2E/DX2                !
 ! A132  A(57,58,59)           117.6182         estimate D2E/DX2                !
 ! A133  A(57,58,116)          126.8034         estimate D2E/DX2                !
 ! A134  A(59,58,116)          115.4985         estimate D2E/DX2                !
 ! A135  A(58,59,60)           121.3216         estimate D2E/DX2                !
 ! A136  A(58,59,61)           120.1686         estimate D2E/DX2                !
 ! A137  A(60,59,61)           117.9699         estimate D2E/DX2                !
 ! A138  A(59,61,62)           120.5443         estimate D2E/DX2                !
 ! A139  A(59,61,64)           122.0843         estimate D2E/DX2                !
 ! A140  A(62,61,64)           117.3649         estimate D2E/DX2                !
 ! A141  A(61,62,63)           116.9378         estimate D2E/DX2                !
 ! A142  A(57,63,62)           126.5085         estimate D2E/DX2                !
 ! A143  A(57,63,117)          115.8337         estimate D2E/DX2                !
 ! A144  A(62,63,117)          117.6269         estimate D2E/DX2                !
 ! A145  A(61,64,65)           119.1907         estimate D2E/DX2                !
 ! A146  A(61,64,69)           121.1848         estimate D2E/DX2                !
 ! A147  A(65,64,69)           119.3025         estimate D2E/DX2                !
 ! A148  A(64,65,66)           122.9137         estimate D2E/DX2                !
 ! A149  A(65,66,67)           121.6573         estimate D2E/DX2                !
 ! A150  A(65,66,118)          118.5936         estimate D2E/DX2                !
 ! A151  A(67,66,118)          119.59           estimate D2E/DX2                !
 ! A152  A(66,67,68)           118.0148         estimate D2E/DX2                !
 ! A153  A(66,67,71)           124.5912         estimate D2E/DX2                !
 ! A154  A(68,67,71)           117.3819         estimate D2E/DX2                !
 ! A155  A(67,68,69)           117.7509         estimate D2E/DX2                !
 ! A156  A(67,68,119)          127.3198         estimate D2E/DX2                !
 ! A157  A(69,68,119)          113.9047         estimate D2E/DX2                !
 ! A158  A(64,69,68)           119.6575         estimate D2E/DX2                !
 ! A159  A(64,69,70)           121.3588         estimate D2E/DX2                !
 ! A160  A(68,69,70)           118.8002         estimate D2E/DX2                !
 ! A161  A(67,71,72)           118.972          estimate D2E/DX2                !
 ! A162  A(67,71,77)           120.2714         estimate D2E/DX2                !
 ! A163  A(72,71,77)           120.7251         estimate D2E/DX2                !
 ! A164  A(71,72,73)           118.0441         estimate D2E/DX2                !
 ! A165  A(71,72,120)          125.544          estimate D2E/DX2                !
 ! A166  A(73,72,120)          115.5972         estimate D2E/DX2                !
 ! A167  A(72,73,74)           116.688          estimate D2E/DX2                !
 ! A168  A(72,73,75)           118.154          estimate D2E/DX2                !
 ! A169  A(74,73,75)           124.7457         estimate D2E/DX2                !
 ! A170  A(73,75,76)           123.0227         estimate D2E/DX2                !
 ! A171  A(73,75,78)           120.6244         estimate D2E/DX2                !
 ! A172  A(76,75,78)           116.3152         estimate D2E/DX2                !
 ! A173  A(75,76,77)           115.9663         estimate D2E/DX2                !
 ! A174  A(71,77,76)           123.6836         estimate D2E/DX2                !
 ! A175  A(71,77,121)          126.9465         estimate D2E/DX2                !
 ! A176  A(76,77,121)          109.3427         estimate D2E/DX2                !
 ! A177  A(75,78,79)           116.3785         estimate D2E/DX2                !
 ! A178  A(75,78,83)           122.7353         estimate D2E/DX2                !
 ! A179  A(79,78,83)           120.3655         estimate D2E/DX2                !
 ! A180  A(78,79,80)           119.3317         estimate D2E/DX2                !
 ! A181  A(79,80,81)           122.4013         estimate D2E/DX2                !
 ! A182  A(79,80,122)          115.9136         estimate D2E/DX2                !
 ! A183  A(81,80,122)          121.1059         estimate D2E/DX2                !
 ! A184  A(80,81,82)           113.7988         estimate D2E/DX2                !
 ! A185  A(80,81,85)           122.3653         estimate D2E/DX2                !
 ! A186  A(82,81,85)           123.7551         estimate D2E/DX2                !
 ! A187  A(81,82,83)           122.2058         estimate D2E/DX2                !
 ! A188  A(81,82,123)          119.5991         estimate D2E/DX2                !
 ! A189  A(83,82,123)          117.5619         estimate D2E/DX2                !
 ! A190  A(78,83,82)           121.2295         estimate D2E/DX2                !
 ! A191  A(78,83,84)           122.0516         estimate D2E/DX2                !
 ! A192  A(82,83,84)           116.487          estimate D2E/DX2                !
 ! A193  A(81,85,86)           119.4296         estimate D2E/DX2                !
 ! A194  A(81,85,91)           124.235          estimate D2E/DX2                !
 ! A195  A(86,85,91)           116.2228         estimate D2E/DX2                !
 ! A196  A(85,86,87)           119.8769         estimate D2E/DX2                !
 ! A197  A(85,86,124)          124.6146         estimate D2E/DX2                !
 ! A198  A(87,86,124)          114.5563         estimate D2E/DX2                !
 ! A199  A(86,87,88)           117.1005         estimate D2E/DX2                !
 ! A200  A(86,87,89)           117.6264         estimate D2E/DX2                !
 ! A201  A(88,87,89)           125.1529         estimate D2E/DX2                !
 ! A202  A(87,89,90)           122.3544         estimate D2E/DX2                !
 ! A203  A(87,89,92)           118.3363         estimate D2E/DX2                !
 ! A204  A(90,89,92)           118.5909         estimate D2E/DX2                !
 ! A205  A(89,90,91)           119.8709         estimate D2E/DX2                !
 ! A206  A(85,91,90)           122.4152         estimate D2E/DX2                !
 ! A207  A(85,91,125)          119.7579         estimate D2E/DX2                !
 ! A208  A(90,91,125)          117.2699         estimate D2E/DX2                !
 ! A209  A(89,92,93)           118.3838         estimate D2E/DX2                !
 ! A210  A(89,92,97)           118.9022         estimate D2E/DX2                !
 ! A211  A(93,92,97)           122.7113         estimate D2E/DX2                !
 ! A212  A(92,93,94)           122.5912         estimate D2E/DX2                !
 ! A213  A(93,94,95)           118.0571         estimate D2E/DX2                !
 ! A214  A(93,94,126)          122.7139         estimate D2E/DX2                !
 ! A215  A(95,94,126)          118.9962         estimate D2E/DX2                !
 ! A216  A(94,95,96)           121.2093         estimate D2E/DX2                !
 ! A217  A(94,95,127)          121.6872         estimate D2E/DX2                !
 ! A218  A(96,95,127)          116.4541         estimate D2E/DX2                !
 ! A219  A(95,96,97)           118.5743         estimate D2E/DX2                !
 ! A220  A(95,96,128)          121.5514         estimate D2E/DX2                !
 ! A221  A(97,96,128)          119.3128         estimate D2E/DX2                !
 ! A222  A(92,97,96)           116.283          estimate D2E/DX2                !
 ! A223  A(92,97,98)           123.2362         estimate D2E/DX2                !
 ! A224  A(96,97,98)           120.4521         estimate D2E/DX2                !
 ! D1    D(7,1,2,3)              7.4624         estimate D2E/DX2                !
 ! D2    D(7,1,2,100)          179.3338         estimate D2E/DX2                !
 ! D3    D(99,1,2,3)          -178.4631         estimate D2E/DX2                !
 ! D4    D(99,1,2,100)          -6.5917         estimate D2E/DX2                !
 ! D5    D(2,1,7,6)             -6.6729         estimate D2E/DX2                !
 ! D6    D(2,1,7,101)          174.8154         estimate D2E/DX2                !
 ! D7    D(99,1,7,6)           179.1685         estimate D2E/DX2                !
 ! D8    D(99,1,7,101)           0.6568         estimate D2E/DX2                !
 ! D9    D(1,2,3,4)           -178.5184         estimate D2E/DX2                !
 ! D10   D(1,2,3,5)             -5.1378         estimate D2E/DX2                !
 ! D11   D(100,2,3,4)            9.7732         estimate D2E/DX2                !
 ! D12   D(100,2,3,5)         -176.8462         estimate D2E/DX2                !
 ! D13   D(2,3,5,6)              2.2009         estimate D2E/DX2                !
 ! D14   D(2,3,5,8)           -179.4297         estimate D2E/DX2                !
 ! D15   D(4,3,5,6)            175.4432         estimate D2E/DX2                !
 ! D16   D(4,3,5,8)             -6.1875         estimate D2E/DX2                !
 ! D17   D(3,5,6,7)             -1.2773         estimate D2E/DX2                !
 ! D18   D(8,5,6,7)           -179.6631         estimate D2E/DX2                !
 ! D19   D(3,5,8,9)            -47.2172         estimate D2E/DX2                !
 ! D20   D(3,5,8,13)           134.4298         estimate D2E/DX2                !
 ! D21   D(6,5,8,9)            131.2089         estimate D2E/DX2                !
 ! D22   D(6,5,8,13)           -47.1442         estimate D2E/DX2                !
 ! D23   D(5,6,7,1)              3.7241         estimate D2E/DX2                !
 ! D24   D(5,6,7,101)         -177.5622         estimate D2E/DX2                !
 ! D25   D(5,8,9,10)          -174.6081         estimate D2E/DX2                !
 ! D26   D(13,8,9,10)            3.6823         estimate D2E/DX2                !
 ! D27   D(5,8,13,12)          179.5207         estimate D2E/DX2                !
 ! D28   D(5,8,13,14)           -5.8773         estimate D2E/DX2                !
 ! D29   D(9,8,13,12)            1.3862         estimate D2E/DX2                !
 ! D30   D(9,8,13,14)          175.9882         estimate D2E/DX2                !
 ! D31   D(8,9,10,11)           -6.4459         estimate D2E/DX2                !
 ! D32   D(8,9,10,102)        -177.0483         estimate D2E/DX2                !
 ! D33   D(9,10,11,12)           3.652          estimate D2E/DX2                !
 ! D34   D(9,10,11,15)        -177.4501         estimate D2E/DX2                !
 ! D35   D(102,10,11,12)       173.6657         estimate D2E/DX2                !
 ! D36   D(102,10,11,15)        -7.4364         estimate D2E/DX2                !
 ! D37   D(10,11,12,13)          1.9917         estimate D2E/DX2                !
 ! D38   D(10,11,12,103)       178.6442         estimate D2E/DX2                !
 ! D39   D(15,11,12,13)       -176.9846         estimate D2E/DX2                !
 ! D40   D(15,11,12,103)        -0.3321         estimate D2E/DX2                !
 ! D41   D(10,11,15,16)       -119.4929         estimate D2E/DX2                !
 ! D42   D(10,11,15,21)         55.7702         estimate D2E/DX2                !
 ! D43   D(12,11,15,16)         59.3991         estimate D2E/DX2                !
 ! D44   D(12,11,15,21)       -125.3378         estimate D2E/DX2                !
 ! D45   D(11,12,13,8)          -4.459          estimate D2E/DX2                !
 ! D46   D(11,12,13,14)       -179.3393         estimate D2E/DX2                !
 ! D47   D(103,12,13,8)        178.4768         estimate D2E/DX2                !
 ! D48   D(103,12,13,14)         3.5965         estimate D2E/DX2                !
 ! D49   D(11,15,16,17)        178.0492         estimate D2E/DX2                !
 ! D50   D(11,15,16,104)        -0.8915         estimate D2E/DX2                !
 ! D51   D(21,15,16,17)          2.2485         estimate D2E/DX2                !
 ! D52   D(21,15,16,104)      -176.6921         estimate D2E/DX2                !
 ! D53   D(11,15,21,20)       -177.3554         estimate D2E/DX2                !
 ! D54   D(11,15,21,105)         7.7181         estimate D2E/DX2                !
 ! D55   D(16,15,21,20)         -1.3593         estimate D2E/DX2                !
 ! D56   D(16,15,21,105)      -176.2858         estimate D2E/DX2                !
 ! D57   D(15,16,17,18)       -176.0632         estimate D2E/DX2                !
 ! D58   D(15,16,17,19)         -2.5455         estimate D2E/DX2                !
 ! D59   D(104,16,17,18)         2.8589         estimate D2E/DX2                !
 ! D60   D(104,16,17,19)       176.3767         estimate D2E/DX2                !
 ! D61   D(16,17,19,20)          1.6323         estimate D2E/DX2                !
 ! D62   D(16,17,19,22)        178.0712         estimate D2E/DX2                !
 ! D63   D(18,17,19,20)        175.2116         estimate D2E/DX2                !
 ! D64   D(18,17,19,22)         -8.3494         estimate D2E/DX2                !
 ! D65   D(17,19,20,21)         -0.8127         estimate D2E/DX2                !
 ! D66   D(22,19,20,21)       -177.5984         estimate D2E/DX2                !
 ! D67   D(17,19,22,23)        -28.8644         estimate D2E/DX2                !
 ! D68   D(17,19,22,27)        149.3674         estimate D2E/DX2                !
 ! D69   D(20,19,22,23)        147.632          estimate D2E/DX2                !
 ! D70   D(20,19,22,27)        -34.1363         estimate D2E/DX2                !
 ! D71   D(19,20,21,15)          0.8052         estimate D2E/DX2                !
 ! D72   D(19,20,21,105)       175.5755         estimate D2E/DX2                !
 ! D73   D(19,22,23,24)        179.7046         estimate D2E/DX2                !
 ! D74   D(27,22,23,24)          1.4317         estimate D2E/DX2                !
 ! D75   D(19,22,27,26)        179.1893         estimate D2E/DX2                !
 ! D76   D(19,22,27,28)         -0.6294         estimate D2E/DX2                !
 ! D77   D(23,22,27,26)         -2.6317         estimate D2E/DX2                !
 ! D78   D(23,22,27,28)        177.5496         estimate D2E/DX2                !
 ! D79   D(22,23,24,25)          0.4223         estimate D2E/DX2                !
 ! D80   D(22,23,24,106)      -179.9746         estimate D2E/DX2                !
 ! D81   D(23,24,25,26)         -1.1772         estimate D2E/DX2                !
 ! D82   D(23,24,25,29)       -176.2695         estimate D2E/DX2                !
 ! D83   D(106,24,25,26)       179.2251         estimate D2E/DX2                !
 ! D84   D(106,24,25,29)         4.1328         estimate D2E/DX2                !
 ! D85   D(24,25,26,27)          0.0412         estimate D2E/DX2                !
 ! D86   D(24,25,26,107)      -175.335          estimate D2E/DX2                !
 ! D87   D(29,25,26,27)        174.9365         estimate D2E/DX2                !
 ! D88   D(29,25,26,107)        -0.4397         estimate D2E/DX2                !
 ! D89   D(24,25,29,30)       -125.2596         estimate D2E/DX2                !
 ! D90   D(24,25,29,35)         58.5824         estimate D2E/DX2                !
 ! D91   D(26,25,29,30)         59.7752         estimate D2E/DX2                !
 ! D92   D(26,25,29,35)       -116.3829         estimate D2E/DX2                !
 ! D93   D(25,26,27,22)          1.8057         estimate D2E/DX2                !
 ! D94   D(25,26,27,28)       -178.3616         estimate D2E/DX2                !
 ! D95   D(107,26,27,22)       177.1631         estimate D2E/DX2                !
 ! D96   D(107,26,27,28)        -3.0042         estimate D2E/DX2                !
 ! D97   D(25,29,30,31)       -177.6061         estimate D2E/DX2                !
 ! D98   D(25,29,30,108)         4.8297         estimate D2E/DX2                !
 ! D99   D(35,29,30,31)         -0.9409         estimate D2E/DX2                !
 ! D100  D(35,29,30,108)      -178.5051         estimate D2E/DX2                !
 ! D101  D(25,29,35,34)        176.7602         estimate D2E/DX2                !
 ! D102  D(25,29,35,109)        -1.4102         estimate D2E/DX2                !
 ! D103  D(30,29,35,34)          0.4546         estimate D2E/DX2                !
 ! D104  D(30,29,35,109)      -177.7157         estimate D2E/DX2                !
 ! D105  D(29,30,31,32)       -176.1786         estimate D2E/DX2                !
 ! D106  D(29,30,31,33)         -4.6782         estimate D2E/DX2                !
 ! D107  D(108,30,31,32)         1.5817         estimate D2E/DX2                !
 ! D108  D(108,30,31,33)       173.082          estimate D2E/DX2                !
 ! D109  D(30,31,33,34)         11.0703         estimate D2E/DX2                !
 ! D110  D(30,31,33,36)        177.5354         estimate D2E/DX2                !
 ! D111  D(32,31,33,34)       -178.1311         estimate D2E/DX2                !
 ! D112  D(32,31,33,36)        -11.666          estimate D2E/DX2                !
 ! D113  D(31,33,34,35)        -11.3046         estimate D2E/DX2                !
 ! D114  D(36,33,34,35)       -178.2766         estimate D2E/DX2                !
 ! D115  D(31,33,36,37)        -19.3649         estimate D2E/DX2                !
 ! D116  D(31,33,36,41)        154.7283         estimate D2E/DX2                !
 ! D117  D(34,33,36,37)        147.2916         estimate D2E/DX2                !
 ! D118  D(34,33,36,41)        -38.6152         estimate D2E/DX2                !
 ! D119  D(33,34,35,29)          5.8525         estimate D2E/DX2                !
 ! D120  D(33,34,35,109)      -175.9048         estimate D2E/DX2                !
 ! D121  D(33,36,37,38)        177.8034         estimate D2E/DX2                !
 ! D122  D(41,36,37,38)          3.5671         estimate D2E/DX2                !
 ! D123  D(33,36,41,40)       -177.527          estimate D2E/DX2                !
 ! D124  D(33,36,41,42)          4.6736         estimate D2E/DX2                !
 ! D125  D(37,36,41,40)         -3.3327         estimate D2E/DX2                !
 ! D126  D(37,36,41,42)        178.868          estimate D2E/DX2                !
 ! D127  D(36,37,38,39)         -4.4234         estimate D2E/DX2                !
 ! D128  D(36,37,38,110)       178.1303         estimate D2E/DX2                !
 ! D129  D(37,38,39,40)          4.9005         estimate D2E/DX2                !
 ! D130  D(37,38,39,43)       -179.9199         estimate D2E/DX2                !
 ! D131  D(110,38,39,40)      -177.7134         estimate D2E/DX2                !
 ! D132  D(110,38,39,43)        -2.5338         estimate D2E/DX2                !
 ! D133  D(38,39,40,41)         -4.5293         estimate D2E/DX2                !
 ! D134  D(38,39,40,111)       177.5687         estimate D2E/DX2                !
 ! D135  D(43,39,40,41)       -179.7575         estimate D2E/DX2                !
 ! D136  D(43,39,40,111)         2.3405         estimate D2E/DX2                !
 ! D137  D(38,39,43,44)        -43.8198         estimate D2E/DX2                !
 ! D138  D(38,39,43,49)        135.5697         estimate D2E/DX2                !
 ! D139  D(40,39,43,44)        131.1878         estimate D2E/DX2                !
 ! D140  D(40,39,43,49)        -49.4226         estimate D2E/DX2                !
 ! D141  D(39,40,41,36)          4.0214         estimate D2E/DX2                !
 ! D142  D(39,40,41,42)       -177.9719         estimate D2E/DX2                !
 ! D143  D(111,40,41,36)      -178.0046         estimate D2E/DX2                !
 ! D144  D(111,40,41,42)         0.0022         estimate D2E/DX2                !
 ! D145  D(39,43,44,45)        178.6331         estimate D2E/DX2                !
 ! D146  D(39,43,44,112)        -1.9285         estimate D2E/DX2                !
 ! D147  D(49,43,44,45)         -0.803          estimate D2E/DX2                !
 ! D148  D(49,43,44,112)       178.6353         estimate D2E/DX2                !
 ! D149  D(39,43,49,48)        179.6599         estimate D2E/DX2                !
 ! D150  D(39,43,49,113)         2.0269         estimate D2E/DX2                !
 ! D151  D(44,43,49,48)         -0.9295         estimate D2E/DX2                !
 ! D152  D(44,43,49,113)      -178.5625         estimate D2E/DX2                !
 ! D153  D(43,44,45,46)        174.6514         estimate D2E/DX2                !
 ! D154  D(43,44,45,47)          3.1828         estimate D2E/DX2                !
 ! D155  D(112,44,45,46)        -4.7887         estimate D2E/DX2                !
 ! D156  D(112,44,45,47)      -176.2573         estimate D2E/DX2                !
 ! D157  D(44,45,47,48)         -3.6691         estimate D2E/DX2                !
 ! D158  D(44,45,47,50)        177.3473         estimate D2E/DX2                !
 ! D159  D(46,45,47,48)       -174.9594         estimate D2E/DX2                !
 ! D160  D(46,45,47,50)          6.0571         estimate D2E/DX2                !
 ! D161  D(45,47,48,49)          1.6887         estimate D2E/DX2                !
 ! D162  D(50,47,48,49)       -179.2307         estimate D2E/DX2                !
 ! D163  D(45,47,50,51)         42.0703         estimate D2E/DX2                !
 ! D164  D(45,47,50,55)       -130.7678         estimate D2E/DX2                !
 ! D165  D(48,47,50,51)       -136.9044         estimate D2E/DX2                !
 ! D166  D(48,47,50,55)         50.2576         estimate D2E/DX2                !
 ! D167  D(47,48,49,43)          0.4868         estimate D2E/DX2                !
 ! D168  D(47,48,49,113)       178.1722         estimate D2E/DX2                !
 ! D169  D(47,50,51,52)       -177.4485         estimate D2E/DX2                !
 ! D170  D(55,50,51,52)         -4.2881         estimate D2E/DX2                !
 ! D171  D(47,50,55,54)        175.3379         estimate D2E/DX2                !
 ! D172  D(47,50,55,56)         -0.3346         estimate D2E/DX2                !
 ! D173  D(51,50,55,54)          2.8627         estimate D2E/DX2                !
 ! D174  D(51,50,55,56)       -172.8098         estimate D2E/DX2                !
 ! D175  D(50,51,52,53)          2.4748         estimate D2E/DX2                !
 ! D176  D(50,51,52,114)      -178.1019         estimate D2E/DX2                !
 ! D177  D(51,52,53,54)          0.8548         estimate D2E/DX2                !
 ! D178  D(51,52,53,57)        177.3259         estimate D2E/DX2                !
 ! D179  D(114,52,53,54)      -178.5386         estimate D2E/DX2                !
 ! D180  D(114,52,53,57)        -2.0675         estimate D2E/DX2                !
 ! D181  D(52,53,54,55)         -2.4408         estimate D2E/DX2                !
 ! D182  D(52,53,54,115)      -179.6402         estimate D2E/DX2                !
 ! D183  D(57,53,54,55)       -179.0964         estimate D2E/DX2                !
 ! D184  D(57,53,54,115)         3.7041         estimate D2E/DX2                !
 ! D185  D(52,53,57,58)         43.1349         estimate D2E/DX2                !
 ! D186  D(52,53,57,63)       -130.9431         estimate D2E/DX2                !
 ! D187  D(54,53,57,58)       -140.4908         estimate D2E/DX2                !
 ! D188  D(54,53,57,63)         45.4313         estimate D2E/DX2                !
 ! D189  D(53,54,55,50)          0.6615         estimate D2E/DX2                !
 ! D190  D(53,54,55,56)        176.1006         estimate D2E/DX2                !
 ! D191  D(115,54,55,50)       177.7919         estimate D2E/DX2                !
 ! D192  D(115,54,55,56)        -6.769          estimate D2E/DX2                !
 ! D193  D(53,57,58,59)       -179.3418         estimate D2E/DX2                !
 ! D194  D(53,57,58,116)         4.0703         estimate D2E/DX2                !
 ! D195  D(63,57,58,59)         -4.8149         estimate D2E/DX2                !
 ! D196  D(63,57,58,116)       178.5972         estimate D2E/DX2                !
 ! D197  D(53,57,63,62)        176.5002         estimate D2E/DX2                !
 ! D198  D(53,57,63,117)        -1.4193         estimate D2E/DX2                !
 ! D199  D(58,57,63,62)          2.4936         estimate D2E/DX2                !
 ! D200  D(58,57,63,117)      -175.4258         estimate D2E/DX2                !
 ! D201  D(57,58,59,60)        177.7113         estimate D2E/DX2                !
 ! D202  D(57,58,59,61)          6.3103         estimate D2E/DX2                !
 ! D203  D(116,58,59,60)        -5.3151         estimate D2E/DX2                !
 ! D204  D(116,58,59,61)      -176.7161         estimate D2E/DX2                !
 ! D205  D(58,59,61,62)         -5.4108         estimate D2E/DX2                !
 ! D206  D(58,59,61,64)        175.5422         estimate D2E/DX2                !
 ! D207  D(60,59,61,62)       -177.0954         estimate D2E/DX2                !
 ! D208  D(60,59,61,64)          3.8575         estimate D2E/DX2                !
 ! D209  D(59,61,62,63)          2.7663         estimate D2E/DX2                !
 ! D210  D(64,61,62,63)       -178.1428         estimate D2E/DX2                !
 ! D211  D(59,61,64,65)        127.2334         estimate D2E/DX2                !
 ! D212  D(59,61,64,69)        -59.329          estimate D2E/DX2                !
 ! D213  D(62,61,64,65)        -51.8425         estimate D2E/DX2                !
 ! D214  D(62,61,64,69)        121.5952         estimate D2E/DX2                !
 ! D215  D(61,62,63,57)         -1.409          estimate D2E/DX2                !
 ! D216  D(61,62,63,117)       176.4774         estimate D2E/DX2                !
 ! D217  D(61,64,65,66)        172.2881         estimate D2E/DX2                !
 ! D218  D(69,64,65,66)         -1.2746         estimate D2E/DX2                !
 ! D219  D(61,64,69,68)       -178.1386         estimate D2E/DX2                !
 ! D220  D(61,64,69,70)          6.8429         estimate D2E/DX2                !
 ! D221  D(65,64,69,68)         -4.7082         estimate D2E/DX2                !
 ! D222  D(65,64,69,70)       -179.7267         estimate D2E/DX2                !
 ! D223  D(64,65,66,67)          1.959          estimate D2E/DX2                !
 ! D224  D(64,65,66,118)       177.3538         estimate D2E/DX2                !
 ! D225  D(65,66,67,68)          3.3124         estimate D2E/DX2                !
 ! D226  D(65,66,67,71)       -177.9884         estimate D2E/DX2                !
 ! D227  D(118,66,67,68)      -172.0375         estimate D2E/DX2                !
 ! D228  D(118,66,67,71)         6.6617         estimate D2E/DX2                !
 ! D229  D(66,67,68,69)         -8.8965         estimate D2E/DX2                !
 ! D230  D(66,67,68,119)      -176.5479         estimate D2E/DX2                !
 ! D231  D(71,67,68,69)        172.3094         estimate D2E/DX2                !
 ! D232  D(71,67,68,119)         4.658          estimate D2E/DX2                !
 ! D233  D(66,67,71,72)         49.8348         estimate D2E/DX2                !
 ! D234  D(66,67,71,77)       -128.1388         estimate D2E/DX2                !
 ! D235  D(68,67,71,72)       -131.4584         estimate D2E/DX2                !
 ! D236  D(68,67,71,77)         50.568          estimate D2E/DX2                !
 ! D237  D(67,68,69,64)          9.6662         estimate D2E/DX2                !
 ! D238  D(67,68,69,70)       -175.1877         estimate D2E/DX2                !
 ! D239  D(119,68,69,64)       178.9449         estimate D2E/DX2                !
 ! D240  D(119,68,69,70)        -5.909          estimate D2E/DX2                !
 ! D241  D(67,71,72,73)        176.139          estimate D2E/DX2                !
 ! D242  D(67,71,72,120)         6.9641         estimate D2E/DX2                !
 ! D243  D(77,71,72,73)         -5.8969         estimate D2E/DX2                !
 ! D244  D(77,71,72,120)      -175.0718         estimate D2E/DX2                !
 ! D245  D(67,71,77,76)       -177.095          estimate D2E/DX2                !
 ! D246  D(67,71,77,121)         0.8034         estimate D2E/DX2                !
 ! D247  D(72,71,77,76)          4.9673         estimate D2E/DX2                !
 ! D248  D(72,71,77,121)      -177.1343         estimate D2E/DX2                !
 ! D249  D(71,72,73,74)       -171.4649         estimate D2E/DX2                !
 ! D250  D(71,72,73,75)          1.5194         estimate D2E/DX2                !
 ! D251  D(120,72,73,74)        -1.2206         estimate D2E/DX2                !
 ! D252  D(120,72,73,75)       171.7638         estimate D2E/DX2                !
 ! D253  D(72,73,75,76)          4.2413         estimate D2E/DX2                !
 ! D254  D(72,73,75,78)       -178.0761         estimate D2E/DX2                !
 ! D255  D(74,73,75,76)        176.6094         estimate D2E/DX2                !
 ! D256  D(74,73,75,78)         -5.7081         estimate D2E/DX2                !
 ! D257  D(73,75,76,77)         -5.3014         estimate D2E/DX2                !
 ! D258  D(78,75,76,77)        176.9233         estimate D2E/DX2                !
 ! D259  D(73,75,78,79)        -26.7422         estimate D2E/DX2                !
 ! D260  D(73,75,78,83)        144.9959         estimate D2E/DX2                !
 ! D261  D(76,75,78,79)        151.0902         estimate D2E/DX2                !
 ! D262  D(76,75,78,83)        -37.1718         estimate D2E/DX2                !
 ! D263  D(75,76,77,71)          0.7282         estimate D2E/DX2                !
 ! D264  D(75,76,77,121)      -177.4919         estimate D2E/DX2                !
 ! D265  D(75,78,79,80)        172.41           estimate D2E/DX2                !
 ! D266  D(83,78,79,80)          0.4634         estimate D2E/DX2                !
 ! D267  D(75,78,83,82)       -178.3354         estimate D2E/DX2                !
 ! D268  D(75,78,83,84)          7.3915         estimate D2E/DX2                !
 ! D269  D(79,78,83,82)         -6.9163         estimate D2E/DX2                !
 ! D270  D(79,78,83,84)        178.8106         estimate D2E/DX2                !
 ! D271  D(78,79,80,81)          2.7791         estimate D2E/DX2                !
 ! D272  D(78,79,80,122)       174.134          estimate D2E/DX2                !
 ! D273  D(79,80,81,82)          0.2856         estimate D2E/DX2                !
 ! D274  D(79,80,81,85)        177.1281         estimate D2E/DX2                !
 ! D275  D(122,80,81,82)      -170.6291         estimate D2E/DX2                !
 ! D276  D(122,80,81,85)         6.2134         estimate D2E/DX2                !
 ! D277  D(80,81,82,83)         -6.7145         estimate D2E/DX2                !
 ! D278  D(80,81,82,123)      -177.3674         estimate D2E/DX2                !
 ! D279  D(85,81,82,83)        176.4934         estimate D2E/DX2                !
 ! D280  D(85,81,82,123)         5.8404         estimate D2E/DX2                !
 ! D281  D(80,81,85,86)         53.8465         estimate D2E/DX2                !
 ! D282  D(80,81,85,91)       -122.1425         estimate D2E/DX2                !
 ! D283  D(82,81,85,86)       -129.6287         estimate D2E/DX2                !
[...]
  Beta virt. eigenvalues --    2.10810   2.11233   2.11463   2.12013   2.12137
  Beta virt. eigenvalues --    2.12221   2.12255   2.12567   2.12681   2.13648
  Beta virt. eigenvalues --    2.14552   2.14585   2.15452   2.16028   2.16817
  Beta virt. eigenvalues --    2.17324   2.17372   2.17699   2.17897   2.18658
  Beta virt. eigenvalues --    2.19227   2.19409   2.19826   2.20061   2.20505
  Beta virt. eigenvalues --    2.20963   2.21464   2.22193   2.22428   2.24703
  Beta virt. eigenvalues --    2.24804   2.25254   2.25464   2.25818   2.25899
  Beta virt. eigenvalues --    2.26032   2.26238   2.27033   2.27443   2.28019
  Beta virt. eigenvalues --    2.28279   2.28481   2.28619   2.28911   2.29028
  Beta virt. eigenvalues --    2.29314   2.29516   2.29696   2.29846   2.30555
  Beta virt. eigenvalues --    2.31609   2.31881   2.31998   2.32621   2.33195
  Beta virt. eigenvalues --    2.33741   2.34546   2.34845   2.35546   2.35565
  Beta virt. eigenvalues --    2.35926   2.36097   2.36762   2.37081   2.37721
  Beta virt. eigenvalues --    2.38650   2.38966   2.39259   2.39605   2.39699
  Beta virt. eigenvalues --    2.40287   2.40605   2.40654   2.40861   2.41332
  Beta virt. eigenvalues --    2.41435   2.41741   2.41983   2.42190   2.43501
  Beta virt. eigenvalues --    2.43911   2.43936   2.44611   2.44869   2.44984
  Beta virt. eigenvalues --    2.45208   2.45301   2.45344   2.45592   2.45771
  Beta virt. eigenvalues --    2.46024   2.46179   2.46351   2.46624   2.46874
  Beta virt. eigenvalues --    2.46957   2.47091   2.47106   2.47156   2.47459
  Beta virt. eigenvalues --    2.47513   2.47740   2.47978   2.48226   2.48497
  Beta virt. eigenvalues --    2.48891   2.49197   2.49439   2.49923   2.50111
  Beta virt. eigenvalues --    2.50695   2.51380   2.52243   2.52480   2.53340
  Beta virt. eigenvalues --    2.54977   2.55567   2.56066   2.56573   2.57867
  Beta virt. eigenvalues --    2.58436   2.60886   2.61168   2.61874   2.62285
  Beta virt. eigenvalues --    2.62960   2.63116   2.63728   2.64314   2.64527
  Beta virt. eigenvalues --    2.65372   2.66145   2.66742   2.67281   2.67842
  Beta virt. eigenvalues --    2.68913   2.68930   2.72710   2.73319   2.73964
  Beta virt. eigenvalues --    2.74268   2.75183   2.75217   2.75378   2.76745
  Beta virt. eigenvalues --    2.76835   2.76952   2.77038   2.77534   2.78279
  Beta virt. eigenvalues --    2.78612   2.79545   2.79896   2.80380   2.81117
  Beta virt. eigenvalues --    2.81720   2.82295   2.82505   2.83028   2.83789
  Beta virt. eigenvalues --    2.84911   2.85868   2.86783   2.87595   2.92992
  Beta virt. eigenvalues --    2.93772   2.94568   2.95321   2.96111   2.96807
  Beta virt. eigenvalues --    2.97212   3.12374   3.13072   3.13960   3.15181
  Beta virt. eigenvalues --    3.16307   3.17258   3.24254   3.24936   3.25899
  Beta virt. eigenvalues --    3.27135   3.27906   3.28644   3.30225   3.30262
  Beta virt. eigenvalues --    3.50200   3.50224   3.50273   3.50294   3.50315
  Beta virt. eigenvalues --    3.50331   3.50353   3.50357   3.50408   3.50415
  Beta virt. eigenvalues --    3.50584   3.50601   3.50755   3.50780   3.52642
  Beta virt. eigenvalues --    3.53137   3.53218   3.53352   3.53462   3.53544
  Beta virt. eigenvalues --    3.53787   3.53840   3.54009   3.54138   3.54168
  Beta virt. eigenvalues --    3.54324   3.54565   3.54610   3.68280   3.68529
  Beta virt. eigenvalues --    3.68747   3.68779   3.68822   3.68840   3.69110
  Beta virt. eigenvalues --    3.69115   3.69636   3.69679   3.69739   3.69754
  Beta virt. eigenvalues --    3.69998   3.70006   3.88519   3.88690   3.88774
  Beta virt. eigenvalues --    3.88833   3.88872   3.88958   3.89021   3.90536
  Beta virt. eigenvalues --    3.92152   3.92175   3.92235   3.92259   3.92393
  Beta virt. eigenvalues --    3.92409   4.07343   4.09261   4.09602   4.09727
  Beta virt. eigenvalues --    4.09820   4.09934   4.10159   4.10460   4.10715
  Beta virt. eigenvalues --    4.10736   4.11045   4.11117   4.11471   4.11926
          Condensed to atoms (all electrons):
          Atomic-Atomic Spin Densities.
 Mulliken charges and spin densities:
               1          2
     1  C   -0.006716  -0.000000
     2  C    0.061222   0.000000
     3  C    0.127508  -0.000000
     4  F   -0.105075   0.000000
     5  C    0.027489   0.000000
     6  N   -0.178184  -0.000000
     7  C    0.080233   0.000000
     8  C    0.034410  -0.000000
     9  N   -0.174872  -0.000000
    10  C    0.077047   0.000000
    11  C   -0.026064  -0.000000
    12  C    0.058816   0.000000
    13  C    0.134509   0.000000
    14  F   -0.102260   0.000000
    15  C   -0.025040  -0.000000
    16  C    0.059402   0.000000
    17  C    0.134968   0.000000
    18  F   -0.101792  -0.000000
    19  C    0.031686  -0.000000
    20  N   -0.176845   0.000000
    21  C    0.077942   0.000000
    22  C    0.032138  -0.000000
    23  N   -0.176422   0.000000
    24  C    0.077960  -0.000000
    25  C   -0.025329   0.000000
    26  C    0.059116  -0.000000
    27  C    0.135308   0.000000
    28  F   -0.101295  -0.000000
    29  C   -0.025282   0.000000
    30  C    0.059280   0.000000
    31  C    0.134746  -0.000000
    32  F   -0.101311   0.000000
    33  C    0.031343   0.000000
    34  N   -0.176071   0.000000
    35  C    0.078080  -0.000000
    36  C    0.031958  -0.000000
    37  N   -0.175595  -0.000000
    38  C    0.077882   0.000000
    39  C   -0.026400  -0.000000
    40  C    0.059292   0.000000
    41  C    0.135388  -0.000000
    42  F   -0.100805   0.000000
    43  C   -0.023605   0.000000
    44  C    0.059265   0.000000
    45  C    0.134656  -0.000000
    46  F   -0.100987   0.000000
    47  C    0.031514   0.000000
    48  N   -0.175870   0.000000
    49  C    0.078318  -0.000000
    50  C    0.031794  -0.000000
    51  N   -0.175386  -0.000000
    52  C    0.077813   0.000000
    53  C   -0.026200   0.000000
    54  C    0.059844   0.000000
    55  C    0.135213   0.000000
    56  F   -0.101036  -0.000000
    57  C   -0.026535  -0.000000
    58  C    0.064282   0.000000
    59  C    0.126315  -0.000000
    60  F   -0.113213  -0.000000
    61  C    0.030777   0.000000
    62  N   -0.162388  -0.000000
    63  C    0.080662   0.000000
    64  C    0.030672  -0.000000
    65  N   -0.162437   0.000000
    66  C    0.080926  -0.000000
    67  C   -0.027396   0.000000
    68  C    0.063426  -0.000000
    69  C    0.126179   0.000000
    70  F   -0.113500  -0.000000
    71  C   -0.024352  -0.000000
    72  C    0.058683   0.000000
    73  C    0.135137  -0.000000
    74  F   -0.101264   0.000000
    75  C    0.031985   0.000000
    76  N   -0.175974  -0.000000
    77  C    0.078228   0.000000
    78  C    0.031606  -0.000000
    79  N   -0.176358   0.000000
    80  C    0.078349  -0.000000
    81  C   -0.024105   0.000000
    82  C    0.058509  -0.000000
    83  C    0.134659  -0.000000
    84  F   -0.102172   0.000000
    85  C   -0.025125  -0.000000
    86  C    0.057818  -0.000000
    87  C    0.134511   0.000000
    88  F   -0.102006  -0.000000
    89  C    0.034347   0.000000
    90  N   -0.174723  -0.000000
    91  C    0.077320   0.000000
    92  C    0.027390  -0.000000
    93  N   -0.177812   0.000000
    94  C    0.080358  -0.000000
    95  C   -0.006733   0.000000
    96  C    0.061229  -0.000000
    97  C    0.127272   0.000000
    98  F   -0.105613  -0.000000
    99  H   -0.006678  -0.000000
   100  H    0.003427   0.000000
   101  H    0.004336   0.000000
   102  H    0.002478  -0.000000
   103  H   -0.006826  -0.000000
   104  H   -0.005945   0.000000
   105  H    0.003271  -0.000000
   106  H    0.003244  -0.000000
   107  H   -0.006054   0.000000
   108  H   -0.005750  -0.000000
   109  H    0.003489  -0.000000
   110  H    0.001483  -0.000000
   111  H   -0.003632  -0.000000
   112  H   -0.003792   0.000000
   113  H    0.000886   0.000000
   114  H    0.001081  -0.000000
   115  H   -0.002641   0.000000
   116  H   -0.002415   0.000000
   117  H    0.001804   0.000000
   118  H    0.002597  -0.000000
   119  H   -0.002530  -0.000000
   120  H   -0.003112  -0.000000
   121  H    0.000615   0.000000
   122  H    0.001440  -0.000000
   123  H   -0.004140  -0.000000
   124  H   -0.004870  -0.000000
   125  H    0.000397  -0.000000
   126  H    0.004531  -0.000000
   127  H   -0.006644   0.000000
   128  H    0.003313   0.000000
 Sum of Mulliken charges =  -0.00000   0.00000
 Mulliken charges and spin densities with hydrogens summed into heavy atoms:
               1          2
     1  C   -0.013394  -0.000000
     2  C    0.064649   0.000000
     3  C    0.127508  -0.000000
     4  F   -0.105075   0.000000
     5  C    0.027489   0.000000
     6  N   -0.178184  -0.000000
     7  C    0.084570   0.000000
     8  C    0.034410  -0.000000
     9  N   -0.174872  -0.000000
    10  C    0.079526   0.000000
    11  C   -0.026064  -0.000000
    12  C    0.051990   0.000000
    13  C    0.134509   0.000000
    14  F   -0.102260   0.000000
    15  C   -0.025040  -0.000000
    16  C    0.053457   0.000000
    17  C    0.134968   0.000000
    18  F   -0.101792  -0.000000
    19  C    0.031686  -0.000000
    20  N   -0.176845   0.000000
    21  C    0.081213   0.000000
    22  C    0.032138  -0.000000
    23  N   -0.176422   0.000000
    24  C    0.081204  -0.000000
    25  C   -0.025329   0.000000
    26  C    0.053062  -0.000000
    27  C    0.135308   0.000000
    28  F   -0.101295  -0.000000
    29  C   -0.025282   0.000000
    30  C    0.053530   0.000000
    31  C    0.134746  -0.000000
    32  F   -0.101311   0.000000
    33  C    0.031343   0.000000
    34  N   -0.176071   0.000000
    35  C    0.081569  -0.000000
    36  C    0.031958  -0.000000
    37  N   -0.175595  -0.000000
    38  C    0.079365  -0.000000
    39  C   -0.026400  -0.000000
    40  C    0.055660   0.000000
    41  C    0.135388  -0.000000
    42  F   -0.100805   0.000000
    43  C   -0.023605   0.000000
    44  C    0.055473   0.000000
    45  C    0.134656  -0.000000
    46  F   -0.100987   0.000000
    47  C    0.031514   0.000000
    48  N   -0.175870   0.000000
    49  C    0.079204  -0.000000
    50  C    0.031794  -0.000000
    51  N   -0.175386  -0.000000
    52  C    0.078894   0.000000
    53  C   -0.026200   0.000000
    54  C    0.057203   0.000000
    55  C    0.135213   0.000000
    56  F   -0.101036  -0.000000
    57  C   -0.026535  -0.000000
    58  C    0.061867   0.000000
    59  C    0.126315  -0.000000
    60  F   -0.113213  -0.000000
    61  C    0.030777   0.000000
    62  N   -0.162388  -0.000000
    63  C    0.082466   0.000000
    64  C    0.030672  -0.000000
    65  N   -0.162437   0.000000
    66  C    0.083523  -0.000000
    67  C   -0.027396   0.000000
    68  C    0.060896  -0.000000
    69  C    0.126179   0.000000
    70  F   -0.113500  -0.000000
    71  C   -0.024352  -0.000000
    72  C    0.055571   0.000000
    73  C    0.135137  -0.000000
    74  F   -0.101264   0.000000
    75  C    0.031985   0.000000
    76  N   -0.175974  -0.000000
    77  C    0.078843   0.000000
    78  C    0.031606  -0.000000
    79  N   -0.176358   0.000000
    80  C    0.079789  -0.000000
    81  C   -0.024105   0.000000
    82  C    0.054369  -0.000000
    83  C    0.134659  -0.000000
    84  F   -0.102172   0.000000
    85  C   -0.025125  -0.000000
    86  C    0.052948  -0.000000
    87  C    0.134511   0.000000
    88  F   -0.102006  -0.000000
    89  C    0.034347   0.000000
    90  N   -0.174723  -0.000000
    91  C    0.077718   0.000000
    92  C    0.027390  -0.000000
    93  N   -0.177812   0.000000
    94  C    0.084889  -0.000000
    95  C   -0.013377   0.000000
    96  C    0.064542  -0.000000
    97  C    0.127272   0.000000
    98  F   -0.105613  -0.000000
 Electronic spatial extent (au):  <R**2>=         724074.9838
 Charge=             -0.0000 electrons
 Dipole moment (field-independent basis, Debye):
    X=              0.1192    Y=              0.7601    Z=             -0.4491  Tot=              0.8909
 Quadrupole moment (field-independent basis, Debye-Ang):
   XX=           -325.9871   YY=           -539.7448   ZZ=           -541.1375
   XY=              7.2324   XZ=            -15.6199   YZ=              0.4483
 Traceless Quadrupole moment (field-independent basis, Debye-Ang):
   XX=            142.9694   YY=            -70.7883   ZZ=            -72.1810
   XY=              7.2324   XZ=            -15.6199   YZ=              0.4483
 Octapole moment (field-independent basis, Debye-Ang**2):
  XXX=            180.2474  YYY=             19.8460  ZZZ=            -18.0275  XYY=              3.5053
  XXY=            211.4227  XXZ=            189.8714  XZZ=            -14.4714  YZZ=              3.1728
  YYZ=             -4.9009  XYZ=            -36.5389
 Hexadecapole moment (field-independent basis, Debye-Ang**3):
 XXXX=        -622659.2262 YYYY=          -5409.3615 ZZZZ=          -1917.0272 XXXY=           1633.1876
 XXXZ=          -5376.3930 YYYX=            258.5423 YYYZ=             26.8913 ZZZX=           -671.4108
 ZZZY=             20.8740 XXYY=        -162318.1032 XXZZ=        -161260.0666 YYZZ=          -1217.4103
 XXYZ=            226.0045 YYXZ=           -141.9305 ZZXY=             -0.1616
 N-N= 1.255085955929D+04 E-N=-3.644781115004D+04  KE= 4.816821950317D+03
 Leave Link  601 at Sat Jul 25 01:42:42 2020, MaxMem=  4026531840 cpu:              11.7 elap:               1.6
 (Enter /opt/ohpc/pub/libs/gaussian/g16-A.03/sandybridge/g16/l9999.exe)

 Test job not archived.
 1\1\GINC-SKYLAKE018\FOpt\ULC-wPBE\CC-pVDZ\C70H30F14N14\RDU230\25-Jul-2
 020\0\\#P uLC-wPBE/cc-pVDZ iop(3/107=0075900000, 3/108=0075900000) opt
 \\H30 C70 N14 F14\\0,1\C,-29.1251829493,-0.324212031,-0.2265360434\C,-
 28.4331454376,-1.1575428293,0.6595416415\C,-27.0377292458,-1.154545895
 7,0.608894563\F,-26.358246837,-1.9807225171,1.4313419765\C,-26.3577183
 267,-0.3249503391,-0.3111153817\N,-27.0395289322,0.4637051963,-1.17106
 04263\C,-28.3806334759,0.4592233004,-1.1223742242\C,-24.8714195148,-0.
 2650572215,-0.364042231\N,-24.2014396342,-0.2994862501,0.8088521885\C,
 -22.8657047589,-0.2182170448,0.7978736478\C,-22.0809163809,-0.10493008
 88,-0.373865107\C,-22.7769517458,-0.0751297689,-1.5976857748\C,-24.168
 0160848,-0.1550430082,-1.5850594637\F,-24.8194567719,-0.1704686717,-2.
 7657339658\C,-20.6052031173,-0.0201656962,-0.3137669276\C,-19.86881938
 65,0.7637534934,-1.2225469765\C,-18.479965782,0.7983249439,-1.11433691
 68\F,-17.7908443869,1.5876365453,-1.9631642104\C,-17.8185382562,0.0589
 635557,-0.1073056614\N,-18.5273781135,-0.6880369443,0.7681536686\C,-19
 .8604282464,-0.7254371965,0.6613761364\C,-16.3378724846,0.049870433,0.
 0237599437\N,-15.6095588404,0.0589866995,-1.1147870831\C,-14.274629277
 8,0.0228946893,-1.0338975103\C,-13.5475531678,-0.0164512935,0.17953636
 39\C,-14.3042464826,-0.0194024076,1.3670709894\C,-15.6946919489,0.0135
 301064,1.2822732823\F,-16.4050216071,0.0553729052,2.4275117266\C,-12.0
 688637585,-0.054485173,0.1971410703\C,-11.3564944355,-0.7740027089,1.1
 757245395\C,-9.9635164322,-0.7664698699,1.1395764767\F,-9.2952919461,-
 1.4954612779,2.0560880879\C,-9.2743280729,-0.0486651378,0.1354166374\N
 ,-9.9597982021,0.6360650509,-0.8069521275\C,-11.2971244784,0.633188415
 8,-0.7694831449\C,-7.7898418317,0.0049012678,0.0788318906\N,-7.1223922
 064,0.0740168181,1.2521479678\C,-5.7884930387,0.1712230888,1.235821236
 6\C,-5.0026163521,0.2124299905,0.059924979\C,-5.6938654687,0.116450105
 6,-1.1631745685\C,-7.083171721,0.0062589399,-1.1453300042\F,-7.7310348
 804,-0.1154670793,-2.321286995\C,-3.5290754759,0.327709342,0.117227938
 6\C,-2.8834019333,1.0910884055,1.1090329755\C,-1.4907791836,1.14749539
 18,1.1167331006\F,-0.8870451745,1.918452473,2.0433525511\C,-0.73668245
 88,0.4518317123,0.1443708663\N,-1.3588088532,-0.2735135003,-0.81184033
 84\C,-2.6950072325,-0.3319818152,-0.8161219805\C,0.7497189899,0.466740
 8401,0.1357334235\N,1.3811319512,0.4414411735,1.3305476847\C,2.7178470
 22,0.4048009881,1.3579092407\C,3.5424684035,0.3852615713,0.2083436377\
 C,2.8878534489,0.4363506156,-1.0373652424\C,1.4951434226,0.4841183722,
 -1.0651071973\F,0.8808910068,0.5637817066,-2.2625858006\C,5.017122257,
 0.3354114074,0.3143827141\C,5.6612977114,-0.3907418777,1.3345679128\C,
 7.0536741566,-0.3809039154,1.3790094345\F,7.6800371868,-1.118676692,2.
 3251200792\C,7.8056955391,0.3378370552,0.4290942249\N,7.1889593549,1.0
 248274225,-0.5567552421\C,5.8518368171,1.0225862116,-0.5999401885\C,9.
 2965838023,0.3367517821,0.4208500766\N,9.9014186533,0.1411245134,-0.77
 07925879\C,11.2381223183,0.1636557611,-0.8223834466\C,12.0838230372,0.
 3927409545,0.2899805388\C,11.4518657763,0.60955778,1.5296023767\C,10.0
 600080832,0.5791159949,1.5796739357\F,9.4450409796,0.8381057733,2.7573
 056207\C,13.5570243253,0.3956077397,0.1561960225\C,14.1970907133,0.888
 6979771,-0.9972616219\C,15.5887071043,0.8507999185,-1.0640034603\F,16.
 1909688834,1.3679099027,-2.1537669732\C,16.3476076096,0.3283388137,0.0
 081578797\N,15.7311260375,-0.1370294206,1.117555505\C,14.3953799483,-0
 .1058916978,1.1795430506\C,17.8312507324,0.2491765163,-0.0376509525\N,
 18.4035206162,-0.0642066908,-1.221586244\C,19.7349740745,-0.1715788456
 ,-1.2908527791\C,20.6134443903,0.0309669529,-0.2002215722\C,20.0198573
 028,0.3664161813,1.0320277496\C,18.6320902797,0.4720152204,1.105479654
 7\F,18.0794950992,0.838071785,2.2799151042\C,22.0784318736,-0.11153616
 16,-0.3468778113\C,22.745646971,0.2590696277,-1.5305776014\C,24.126494
 9176,0.0867785544,-1.607671169\F,24.7597652462,0.4878201237,-2.7285593
 882\C,24.8480233992,-0.4485306834,-0.5167366109\N,24.2068040084,-0.796
 0741592,0.6209921336\C,22.8804189362,-0.6361604222,0.6935509854\C,26.3
 187516604,-0.6700149088,-0.5744323672\N,26.8298042786,-1.1288680741,-1
 .738302697\C,28.1473035815,-1.3737370298,-1.8099275622\C,29.0355458264
 ,-1.1775355054,-0.7407123686\C,28.5232671203,-0.6879439766,0.466100101
 4\C,27.1527231662,-0.4316681042,0.5412004605\F,26.6508244945,0.0762720
 418,1.6863028095\H,-30.2238194501,-0.2879584737,-0.2253230887\H,-28.94
 38729046,-1.8113759541,1.379662977\H,-28.8894123426,1.1227188759,-1.84
 06330022\H,-22.3795176298,-0.2157563009,1.7870553394\H,-22.2574227447,
 -0.0241013879,-2.564736776\H,-20.3556482145,1.3756273475,-1.994707696\
 H,-20.378885723,-1.3796941133,1.3809949311\H,-13.7386615352,-0.0035823
 535,-1.9966076564\H,-13.8338246306,-0.0135495123,2.3601991684\H,-11.86
 31656005,-1.3687730372,1.9484791347\H,-11.7975650556,1.238551583,-1.54
 26536129\H,-5.2995441565,0.1990952104,2.2236697151\H,-5.1765141604,0.1
 435709735,-2.1319714871\H,-3.4418098628,1.6714783027,1.8562080137\H,-3
 .1419331981,-0.9665698434,-1.5991933944\H,3.1753193661,0.4106342819,2.
 3611315359\H,3.4371688019,0.4214293844,-1.9886761031\H,5.1056640307,-0
 .9923258101,2.0667460679\H,5.4006366652,1.6282382211,-1.4033531762\H,1
 1.679940136,-0.0375680013,-1.8124027796\H,12.0162432685,0.8392639697,2
 .4436087772\H,13.6381074366,1.3339536965,-1.8316657161\H,13.9502284859
 ,-0.5310731811,2.0943313477\H,20.1395943362,-0.4632372609,-2.274121205
 2\H,20.6163310138,0.5809439126,1.9293129746\H,22.2190698766,0.71127644
 08,-2.3821744824\H,22.4103889771,-0.9698312501,1.6335080115\H,28.51360
 93987,-1.7509505751,-2.7786835524\H,30.1068835196,-1.3975892556,-0.850
 8270239\H,29.1557467117,-0.4937681065,1.3431269026\\Version=EM64L-G16R
 evA.03\State=1-A\HF=-4845.4493315\S2=0.\S2-1=0.\S2A=0.\RMSD=3.606e-09\
 RMSF=2.093e-06\Dipole=0.0462612,0.1451333,0.3156578\Quadrupole=106.220
 4636,-53.5216682,-52.6987954,11.4545215,6.6611959,-0.4050684\PG=C01 [X
 (C70H30F14N14)]\\@


 REPARTEE - WHAT YOU THINK OF AFTER YOU BECOME A DEPARTEE.
 Job cpu time:       1 days 16 hours 30 minutes 33.5 seconds.
 Elapsed time:       0 days  5 hours  9 minutes 54.0 seconds.
 File lengths (MBytes):  RWF=   2572 Int=      0 D2E=      0 Chk=    232 Scr=      8
 Normal termination of Gaussian 16 at Sat Jul 25 01:42:42 2020.
