 Entering Gaussian System, Link 0=g16
 Input=mols_65_7_10_c-cF-CF_opt_0.gjf
 Output=mols_65_7_10_c-cF-CF_opt_0.log
 Initial command:
 /opt/ohpc/pub/libs/gaussian/g16-A.03/sandybridge/g16/l1.exe "/mnt/gpfs2_4m/scratch/rdu230/ondemand/projects/dihedral_energies/7trial/wtuning/redos_512cycles/mols_65_7_10_c-cF-CF/Gau-333736.inp" -scrdir="/mnt/gpfs2_4m/scratch/rdu230/ondemand/projects/dihedral_energies/7trial/wtuning/redos_512cycles/mols_65_7_10_c-cF-CF/"
 Entering Link 1 = /opt/ohpc/pub/libs/gaussian/g16-A.03/sandybridge/g16/l1.exe PID=    333737.
  
 Copyright (c) 1988,1990,1992,1993,1995,1998,2003,2009,2016,
            Gaussian, Inc.  All Rights Reserved.
  
 This is part of the Gaussian(R) 16 program.  It is based on
 the Gaussian(R) 09 system (copyright 2009, Gaussian, Inc.),
 the Gaussian(R) 03 system (copyright 2003, Gaussian, Inc.),
 the Gaussian(R) 98 system (copyright 1998, Gaussian, Inc.),
 the Gaussian(R) 94 system (copyright 1995, Gaussian, Inc.),
 the Gaussian 92(TM) system (copyright 1992, Gaussian, Inc.),
 the Gaussian 90(TM) system (copyright 1990, Gaussian, Inc.),
 the Gaussian 88(TM) system (copyright 1988, Gaussian, Inc.),
 the Gaussian 86(TM) system (copyright 1986, Carnegie Mellon
 University), and the Gaussian 82(TM) system (copyright 1983,
 Carnegie Mellon University). Gaussian is a federally registered
 trademark of Gaussian, Inc.
  
 This software contains proprietary and confidential information,
 including trade secrets, belonging to Gaussian, Inc.
  
 This software is provided under written license and may be
 used, copied, transmitted, or stored only in accord with that
 written license.
  
 The following legend is applicable only to US Government
 contracts under FAR:
  
                    RESTRICTED RIGHTS LEGEND
  
 Use, reproduction and disclosure by the US Government is
 subject to restrictions as set forth in subparagraphs (a)
 and (c) of the Commercial Computer Software - Restricted
 Rights clause in FAR 52.227-19.
  
 Gaussian, Inc.
 340 Quinnipiac St., Bldg. 40, Wallingford CT 06492
  
  
 ---------------------------------------------------------------
 Warning -- This program may not be used in any manner that
 competes with the business of Gaussian, Inc. or will provide
 assistance to any competitor of Gaussian, Inc.  The licensee
 of this program is prohibited from giving any competitor of
 Gaussian, Inc. access to this program.  By using this program,
 the user acknowledges that Gaussian, Inc. is engaged in the
 business of creating and licensing software in the field of
 computational chemistry and represents and warrants to the
 licensee that it is not a competitor of Gaussian, Inc. and that
 it will not use this program in any manner prohibited above.
 ---------------------------------------------------------------
  

 Cite this work as:
 Gaussian 16, Revision A.03,
 M. J. Frisch, G. W. Trucks, H. B. Schlegel, G. E. Scuseria, 
 M. A. Robb, J. R. Cheeseman, G. Scalmani, V. Barone, 
 G. A. Petersson, H. Nakatsuji, X. Li, M. Caricato, A. V. Marenich, 
 J. Bloino, B. G. Janesko, R. Gomperts, B. Mennucci, H. P. Hratchian, 
 J. V. Ortiz, A. F. Izmaylov, J. L. Sonnenberg, D. Williams-Young, 
 F. Ding, F. Lipparini, F. Egidi, J. Goings, B. Peng, A. Petrone, 
 T. Henderson, D. Ranasinghe, V. G. Zakrzewski, J. Gao, N. Rega, 
 G. Zheng, W. Liang, M. Hada, M. Ehara, K. Toyota, R. Fukuda, 
 J. Hasegawa, M. Ishida, T. Nakajima, Y. Honda, O. Kitao, H. Nakai, 
 T. Vreven, K. Throssell, J. A. Montgomery, Jr., J. E. Peralta, 
 F. Ogliaro, M. J. Bearpark, J. J. Heyd, E. N. Brothers, K. N. Kudin, 
 V. N. Staroverov, T. A. Keith, R. Kobayashi, J. Normand, 
 K. Raghavachari, A. P. Rendell, J. C. Burant, S. S. Iyengar, 
 J. Tomasi, M. Cossi, J. M. Millam, M. Klene, C. Adamo, R. Cammi, 
 J. W. Ochterski, R. L. Martin, K. Morokuma, O. Farkas, 
 J. B. Foresman, and D. J. Fox, Gaussian, Inc., Wallingford CT, 2016.
 
 ******************************************
 Gaussian 16:  EM64L-G16RevA.03 25-Dec-2016
                26-Jul-2020 
 ******************************************
 %mem=30GB
 %nproc=8
 Will use up to    8 processors via shared memory.
 ---------------------------------------------------------------
 #P uLC-wPBE/cc-pVDZ iop(3/107=0392200000, 3/108=0392200000) opt
 ---------------------------------------------------------------
 1/18=20,19=15,26=3,38=1/1,3;
 2/9=110,12=2,17=6,18=5,40=1/2;
 3/5=16,11=2,25=1,30=1,71=1,74=-41,107=392200000,108=392200000,116=2/1,2,3;
 4//1;
 5/5=2,38=5/2;
 6/7=2,8=2,9=2,10=2,28=1/1;
 7//1,2,3,16;
 1/18=20,19=15,26=3/3(2);
 2/9=110/2;
 99//99;
 2/9=110/2;
 3/5=16,11=2,25=1,30=1,71=1,74=-41,107=392200000,108=392200000,116=2/1,2,3;
 4/5=5,16=3,69=1/1;
 5/5=2,38=5/2;
 7//1,2,3,16;
 1/18=20,19=15,26=3/3(-5);
 2/9=110/2;
 6/7=2,8=2,9=2,10=2,19=2,28=1/1;
 99/9=1/99;
 Leave Link    1 at Sun Jul 26 12:21:38 2020, MaxMem=  4026531840 cpu:               1.8 elap:               0.3
 (Enter /opt/ohpc/pub/libs/gaussian/g16-A.03/sandybridge/g16/l101.exe)
 --------------
 H30 C70 S7 F14
 --------------
 Symbolic Z-matrix:
 Charge =  0 Multiplicity = 1
 C                     25.06853   5.53342  -0.77418 
 C                     25.54424   4.18359  -0.95909 
 C                     24.71052   3.13934  -0.5768 
 C                     23.297    3.3833   -0.17953 
 C                     22.90275   4.67492  -0.07258 
 F                     21.66237   5.02495   0.40585 
 C                     23.74427   5.74228  -0.3773 
 C                     22.48189   2.28386   0.19535 
 C                     22.78828   1.10055   0.82643 
 F                     23.97292   0.84442   1.37878 
 C                     21.74212   0.17097   0.96793 
 C                     20.53508   0.61483   0.26292 
 S                     20.8284   2.13707  -0.40682 
 C                     19.29322  -0.0503    0.16252 
 C                     18.33682   0.20917  -0.86239 
 C                     17.10165  -0.43869  -0.99175 
 C                     16.69265  -1.38294  -0.04729 
 C                     17.62666  -1.64134   1.02609 
 F                     17.28451  -2.59122   1.89619 
 C                     18.88137  -1.06555   1.1163 
 C                     15.4477  -2.03259  -0.10965 
 C                     15.2497  -3.4386   -0.22808 
 F                     16.20807  -4.34855  -0.26234 
 C                     13.79263  -3.74041  -0.2648 
 C                     12.97775  -2.62008  -0.27044 
 S                     13.96758  -1.22249  -0.10696 
 C                     11.57411  -2.56819  -0.36331 
 C                     10.92554  -1.4883   -0.92181 
 C                     9.47204  -1.40853  -1.06771 
 C                     8.75189  -2.50336  -0.47303 
 C                     9.41737  -3.49346   0.11699 
 F                     8.67889  -4.49002   0.67108 
 C                     10.80673  -3.5988    0.20734 
 C                     7.3014   -2.50437  -0.62083 
 C                     6.4454   -3.51236  -1.11913 
 F                     6.88973  -4.658    -1.58503 
 C                     5.06199  -3.17429  -1.03544 
 C                     4.81295  -1.93564  -0.53572 
 S                     6.34676  -1.15459  -0.04392 
 C                     3.56458  -1.26968  -0.28283 
 C                     3.35696   0.11323  -0.68682 
 C                     2.08139   0.63526  -0.54916 
 C                     1.00987  -0.00392   0.08225 
 C                     1.22019  -1.31428   0.46743 
 F                     0.30856  -2.01605   1.07922 
 C                     2.47037  -1.95537   0.28006 
 C                    -0.31579   0.5994    0.22514 
 C                    -0.66663   1.94262   0.45192 
 F                     0.2123    2.86862   0.7532 
 C                    -2.02307   2.11594   0.52719 
 C                    -2.75661   0.98815   0.21217 
 S                    -1.74111  -0.26287  -0.09409 
 C                    -4.2151    0.81584   0.20325 
 C                    -4.83968  -0.05369  -0.63961 
 C                    -6.27135  -0.32755  -0.62721 
 C                    -7.08605   0.42596   0.34307 
 C                    -6.49017   1.35155   1.15437 
 F                    -7.14483   2.10131   2.03861 
 C                    -5.08613   1.56169   1.05148 
 C                    -8.53495   0.1473    0.36295 
 C                    -9.11993  -1.03202   0.70195 
 F                    -8.47655  -2.12444   1.12841 
 C                    -10.53707  -1.00638   0.63693 
 C                    -10.92869   0.20702   0.23274 
 S                    -9.6486    1.29205  -0.08305 
 C                    -12.36572   0.64979   0.02249 
 C                    -12.87183   1.74922   0.8283 
 C                    -14.21678   2.03376   0.72451 
 C                    -15.10822   1.34675  -0.1443 
 C                    -14.56727   0.29426  -0.88941 
 F                    -15.23056  -0.44526  -1.77102 
 C                    -13.16409  -0.10047  -0.77741 
 C                    -16.53994   1.62991  -0.15743 
 C                    -17.20705   2.79418  -0.31406 
 F                    -16.48589   3.99901  -0.51524 
 C                    -18.60362   2.74653  -0.33614 
 C                    -19.02113   1.42683  -0.15527 
 S                    -17.69249   0.39716   0.02556 
 C                    -20.44281   0.93672  -0.03862 
 C                    -20.77862   0.09478   0.94843 
 C                    -22.15916  -0.43694   1.04334 
 C                    -23.03332  -0.03668   0.04977 
 C                    -22.60594   0.8803   -0.89836 
 F                    -23.53477   1.23938  -1.91156 
 C                    -21.31623   1.33738  -0.93947 
 C                    -24.46827  -0.54646   0.11104 
 C                    -24.81238  -1.87003   0.20123 
 F                    -24.03091  -2.89598   0.27893 
 C                    -26.30183  -1.98537   0.20995 
 C                    -26.91326  -0.75665   0.17603 
 S                    -25.73349   0.5229    0.18769 
 H                     25.77646   6.3305   -1.10914 
 H                     26.57191   3.95853  -1.20889 
 H                     24.9847   2.09399  -0.67792 
 H                     23.47514   6.8088   -0.2937 
 H                     21.74261  -0.77392   1.51498 
 H                     18.58294   0.95063  -1.62355 
 H                     16.47055  -0.17622  -1.81608 
 H                     19.54995  -1.26742   1.94041 
 H                     13.4517  -4.73771  -0.33024 
 H                     11.4013  -0.63307  -1.41725 
 H                     9.03405  -0.57964  -1.49422 
 H                     11.23576  -4.36727   0.70664 
 H                     4.32534  -3.82652  -1.46053 
 H                     4.11625   0.67488  -1.24761 
 H                     1.89086   1.74022  -0.86642 
 H                     2.68316  -2.92161   0.62889 
 H                    -2.47746   3.14988   0.77497 
 H                    -4.34615  -0.64877  -1.41191 
 H                    -6.67756  -0.983    -1.27862 
 H                    -4.64554   2.23716   1.78336 
 H                    -11.11852  -1.84175   0.96162 
 H                    -12.25737   2.28      1.53797 
 H                    -14.69765   2.84496   1.31141 
 H                    -12.76276  -0.88733  -1.36983 
 H                    -19.23756   3.63752  -0.34654 
 H                    -20.06863  -0.29806   1.76049 
 H                    -22.43573  -1.09676   1.80226 
 H                    -21.11659   2.01883  -1.80316 
 H                    -26.74331  -2.95222   0.24073 
 H                    -27.97508  -0.57212   0.28312 
 
 ITRead=  0  0  0  0  0  0  0  0  0  0  0  0  0  0  0  0  0  0  0  0
 ITRead=  0  0  0  0  0  0  0  0  0  0  0  0  0  0  0  0  0  0  0  0
 ITRead=  0  0  0  0  0  0  0  0  0  0  0  0  0  0  0  0  0  0  0  0
 ITRead=  0  0  0  0  0  0  0  0  0  0  0  0  0  0  0  0  0  0  0  0
 ITRead=  0  0  0  0  0  0  0  0  0  0  0  0  0  0  0  0  0  0  0  0
 ITRead=  0  0  0  0  0  0  0  0  0  0  0  0  0  0  0  0  0  0  0  0
 ITRead=  0
 MicOpt= -1 -1 -1 -1 -1 -1 -1 -1 -1 -1 -1 -1 -1 -1 -1 -1 -1 -1 -1 -1
 MicOpt= -1 -1 -1 -1 -1 -1 -1 -1 -1 -1 -1 -1 -1 -1 -1 -1 -1 -1 -1 -1
 MicOpt= -1 -1 -1 -1 -1 -1 -1 -1 -1 -1 -1 -1 -1 -1 -1 -1 -1 -1 -1 -1
 MicOpt= -1 -1 -1 -1 -1 -1 -1 -1 -1 -1 -1 -1 -1 -1 -1 -1 -1 -1 -1 -1
 MicOpt= -1 -1 -1 -1 -1 -1 -1 -1 -1 -1 -1 -1 -1 -1 -1 -1 -1 -1 -1 -1
 MicOpt= -1 -1 -1 -1 -1 -1 -1 -1 -1 -1 -1 -1 -1 -1 -1 -1 -1 -1 -1 -1
 MicOpt= -1
 NAtoms=    121 NQM=      121 NQMF=       0 NMMI=      0 NMMIF=      0
                NMic=       0 NMicF=      0.
                    Isotopes and Nuclear Properties:
 (Nuclear quadrupole moments (NQMom) in fm**2, nuclear magnetic moments (NMagM)
  in nuclear magnetons)

  Atom         1           2           3           4           5           6           7           8           9          10
 IAtWgt=          12          12          12          12          12          19          12          12          12          19
 AtmWgt=  12.0000000  12.0000000  12.0000000  12.0000000  12.0000000  18.9984033  12.0000000  12.0000000  12.0000000  18.9984033
 NucSpn=           0           0           0           0           0           1           0           0           0           1
 AtZEff=  -0.0000000  -0.0000000  -0.0000000  -0.0000000  -0.0000000  -0.0000000  -0.0000000  -0.0000000  -0.0000000  -0.0000000
 NQMom=    0.0000000   0.0000000   0.0000000   0.0000000   0.0000000   0.0000000   0.0000000   0.0000000   0.0000000   0.0000000
 NMagM=    0.0000000   0.0000000   0.0000000   0.0000000   0.0000000   2.6288670   0.0000000   0.0000000   0.0000000   2.6288670
 AtZNuc=   6.0000000   6.0000000   6.0000000   6.0000000   6.0000000   9.0000000   6.0000000   6.0000000   6.0000000   9.0000000

  Atom        11          12          13          14          15          16          17          18          19          20
 IAtWgt=          12          12          32          12          12          12          12          12          19          12
 AtmWgt=  12.0000000  12.0000000  31.9720718  12.0000000  12.0000000  12.0000000  12.0000000  12.0000000  18.9984033  12.0000000
 NucSpn=           0           0           0           0           0           0           0           0           1           0
 AtZEff=  -0.0000000  -0.0000000  -0.0000000  -0.0000000  -0.0000000  -0.0000000  -0.0000000  -0.0000000  -0.0000000  -0.0000000
 NQMom=    0.0000000   0.0000000   0.0000000   0.0000000   0.0000000   0.0000000   0.0000000   0.0000000   0.0000000   0.0000000
 NMagM=    0.0000000   0.0000000   0.0000000   0.0000000   0.0000000   0.0000000   0.0000000   0.0000000   2.6288670   0.0000000
 AtZNuc=   6.0000000   6.0000000  16.0000000   6.0000000   6.0000000   6.0000000   6.0000000   6.0000000   9.0000000   6.0000000

  Atom        21          22          23          24          25          26          27          28          29          30
 IAtWgt=          12          12          19          12          12          32          12          12          12          12
 AtmWgt=  12.0000000  12.0000000  18.9984033  12.0000000  12.0000000  31.9720718  12.0000000  12.0000000  12.0000000  12.0000000
 NucSpn=           0           0           1           0           0           0           0           0           0           0
 AtZEff=  -0.0000000  -0.0000000  -0.0000000  -0.0000000  -0.0000000  -0.0000000  -0.0000000  -0.0000000  -0.0000000  -0.0000000
 NQMom=    0.0000000   0.0000000   0.0000000   0.0000000   0.0000000   0.0000000   0.0000000   0.0000000   0.0000000   0.0000000
 NMagM=    0.0000000   0.0000000   2.6288670   0.0000000   0.0000000   0.0000000   0.0000000   0.0000000   0.0000000   0.0000000
 AtZNuc=   6.0000000   6.0000000   9.0000000   6.0000000   6.0000000  16.0000000   6.0000000   6.0000000   6.0000000   6.0000000

  Atom        31          32          33          34          35          36          37          38          39          40
 IAtWgt=          12          19          12          12          12          19          12          12          32          12
 AtmWgt=  12.0000000  18.9984033  12.0000000  12.0000000  12.0000000  18.9984033  12.0000000  12.0000000  31.9720718  12.0000000
 NucSpn=           0           1           0           0           0           1           0           0           0           0
 AtZEff=  -0.0000000  -0.0000000  -0.0000000  -0.0000000  -0.0000000  -0.0000000  -0.0000000  -0.0000000  -0.0000000  -0.0000000
 NQMom=    0.0000000   0.0000000   0.0000000   0.0000000   0.0000000   0.0000000   0.0000000   0.0000000   0.0000000   0.0000000
 NMagM=    0.0000000   2.6288670   0.0000000   0.0000000   0.0000000   2.6288670   0.0000000   0.0000000   0.0000000   0.0000000
 AtZNuc=   6.0000000   9.0000000   6.0000000   6.0000000   6.0000000   9.0000000   6.0000000   6.0000000  16.0000000   6.0000000

  Atom        41          42          43          44          45          46          47          48          49          50
 IAtWgt=          12          12          12          12          19          12          12          12          19          12
 AtmWgt=  12.0000000  12.0000000  12.0000000  12.0000000  18.9984033  12.0000000  12.0000000  12.0000000  18.9984033  12.0000000
 NucSpn=           0           0           0           0           1           0           0           0           1           0
 AtZEff=  -0.0000000  -0.0000000  -0.0000000  -0.0000000  -0.0000000  -0.0000000  -0.0000000  -0.0000000  -0.0000000  -0.0000000
 NQMom=    0.0000000   0.0000000   0.0000000   0.0000000   0.0000000   0.0000000   0.0000000   0.0000000   0.0000000   0.0000000
 NMagM=    0.0000000   0.0000000   0.0000000   0.0000000   2.6288670   0.0000000   0.0000000   0.0000000   2.6288670   0.0000000
 AtZNuc=   6.0000000   6.0000000   6.0000000   6.0000000   9.0000000   6.0000000   6.0000000   6.0000000   9.0000000   6.0000000

  Atom        51          52          53          54          55          56          57          58          59          60
 IAtWgt=          12          32          12          12          12          12          12          19          12          12
 AtmWgt=  12.0000000  31.9720718  12.0000000  12.0000000  12.0000000  12.0000000  12.0000000  18.9984033  12.0000000  12.0000000
 NucSpn=           0           0           0           0           0           0           0           1           0           0
 AtZEff=  -0.0000000  -0.0000000  -0.0000000  -0.0000000  -0.0000000  -0.0000000  -0.0000000  -0.0000000  -0.0000000  -0.0000000
 NQMom=    0.0000000   0.0000000   0.0000000   0.0000000   0.0000000   0.0000000   0.0000000   0.0000000   0.0000000   0.0000000
 NMagM=    0.0000000   0.0000000   0.0000000   0.0000000   0.0000000   0.0000000   0.0000000   2.6288670   0.0000000   0.0000000
 AtZNuc=   6.0000000  16.0000000   6.0000000   6.0000000   6.0000000   6.0000000   6.0000000   9.0000000   6.0000000   6.0000000

  Atom        61          62          63          64          65          66          67          68          69          70
 IAtWgt=          12          19          12          12          32          12          12          12          12          12
 AtmWgt=  12.0000000  18.9984033  12.0000000  12.0000000  31.9720718  12.0000000  12.0000000  12.0000000  12.0000000  12.0000000
 NucSpn=           0           1           0           0           0           0           0           0           0           0
 AtZEff=  -0.0000000  -0.0000000  -0.0000000  -0.0000000  -0.0000000  -0.0000000  -0.0000000  -0.0000000  -0.0000000  -0.0000000
 NQMom=    0.0000000   0.0000000   0.0000000   0.0000000   0.0000000   0.0000000   0.0000000   0.0000000   0.0000000   0.0000000
 NMagM=    0.0000000   2.6288670   0.0000000   0.0000000   0.0000000   0.0000000   0.0000000   0.0000000   0.0000000   0.0000000
 AtZNuc=   6.0000000   9.0000000   6.0000000   6.0000000  16.0000000   6.0000000   6.0000000   6.0000000   6.0000000   6.0000000

  Atom        71          72          73          74          75          76          77          78          79          80
 IAtWgt=          19          12          12          12          19          12          12          32          12          12
 AtmWgt=  18.9984033  12.0000000  12.0000000  12.0000000  18.9984033  12.0000000  12.0000000  31.9720718  12.0000000  12.0000000
 NucSpn=           1           0           0           0           1           0           0           0           0           0
 AtZEff=  -0.0000000  -0.0000000  -0.0000000  -0.0000000  -0.0000000  -0.0000000  -0.0000000  -0.0000000  -0.0000000  -0.0000000
 NQMom=    0.0000000   0.0000000   0.0000000   0.0000000   0.0000000   0.0000000   0.0000000   0.0000000   0.0000000   0.0000000
 NMagM=    2.6288670   0.0000000   0.0000000   0.0000000   2.6288670   0.0000000   0.0000000   0.0000000   0.0000000   0.0000000
 AtZNuc=   9.0000000   6.0000000   6.0000000   6.0000000   9.0000000   6.0000000   6.0000000  16.0000000   6.0000000   6.0000000

  Atom        81          82          83          84          85          86          87          88          89          90
 IAtWgt=          12          12          12          19          12          12          12          19          12          12
 AtmWgt=  12.0000000  12.0000000  12.0000000  18.9984033  12.0000000  12.0000000  12.0000000  18.9984033  12.0000000  12.0000000
 NucSpn=           0           0           0           1           0           0           0           1           0           0
 AtZEff=  -0.0000000  -0.0000000  -0.0000000  -0.0000000  -0.0000000  -0.0000000  -0.0000000  -0.0000000  -0.0000000  -0.0000000
 NQMom=    0.0000000   0.0000000   0.0000000   0.0000000   0.0000000   0.0000000   0.0000000   0.0000000   0.0000000   0.0000000
 NMagM=    0.0000000   0.0000000   0.0000000   2.6288670   0.0000000   0.0000000   0.0000000   2.6288670   0.0000000   0.0000000
 AtZNuc=   6.0000000   6.0000000   6.0000000   9.0000000   6.0000000   6.0000000   6.0000000   9.0000000   6.0000000   6.0000000

  Atom        91          92          93          94          95          96          97          98          99         100
 IAtWgt=          32           1           1           1           1           1           1           1           1           1
 AtmWgt=  31.9720718   1.0078250   1.0078250   1.0078250   1.0078250   1.0078250   1.0078250   1.0078250   1.0078250   1.0078250
 NucSpn=           0           1           1           1           1           1           1           1           1           1
 AtZEff=  -0.0000000  -0.0000000  -0.0000000  -0.0000000  -0.0000000  -0.0000000  -0.0000000  -0.0000000  -0.0000000  -0.0000000
 NQMom=    0.0000000   0.0000000   0.0000000   0.0000000   0.0000000   0.0000000   0.0000000   0.0000000   0.0000000   0.0000000
 NMagM=    0.0000000   2.7928460   2.7928460   2.7928460   2.7928460   2.7928460   2.7928460   2.7928460   2.7928460   2.7928460
 AtZNuc=  16.0000000   1.0000000   1.0000000   1.0000000   1.0000000   1.0000000   1.0000000   1.0000000   1.0000000   1.0000000

  Atom       101         102         103         104         105         106         107         108         109         110
 IAtWgt=           1           1           1           1           1           1           1           1           1           1
 AtmWgt=   1.0078250   1.0078250   1.0078250   1.0078250   1.0078250   1.0078250   1.0078250   1.0078250   1.0078250   1.0078250
 NucSpn=           1           1           1           1           1           1           1           1           1           1
 AtZEff=  -0.0000000  -0.0000000  -0.0000000  -0.0000000  -0.0000000  -0.0000000  -0.0000000  -0.0000000  -0.0000000  -0.0000000
 NQMom=    0.0000000   0.0000000   0.0000000   0.0000000   0.0000000   0.0000000   0.0000000   0.0000000   0.0000000   0.0000000
 NMagM=    2.7928460   2.7928460   2.7928460   2.7928460   2.7928460   2.7928460   2.7928460   2.7928460   2.7928460   2.7928460
 AtZNuc=   1.0000000   1.0000000   1.0000000   1.0000000   1.0000000   1.0000000   1.0000000   1.0000000   1.0000000   1.0000000

  Atom       111         112         113         114         115         116         117         118         119         120
 IAtWgt=           1           1           1           1           1           1           1           1           1           1
 AtmWgt=   1.0078250   1.0078250   1.0078250   1.0078250   1.0078250   1.0078250   1.0078250   1.0078250   1.0078250   1.0078250
 NucSpn=           1           1           1           1           1           1           1           1           1           1
 AtZEff=  -0.0000000  -0.0000000  -0.0000000  -0.0000000  -0.0000000  -0.0000000  -0.0000000  -0.0000000  -0.0000000  -0.0000000
 NQMom=    0.0000000   0.0000000   0.0000000   0.0000000   0.0000000   0.0000000   0.0000000   0.0000000   0.0000000   0.0000000
 NMagM=    2.7928460   2.7928460   2.7928460   2.7928460   2.7928460   2.7928460   2.7928460   2.7928460   2.7928460   2.7928460
 AtZNuc=   1.0000000   1.0000000   1.0000000   1.0000000   1.0000000   1.0000000   1.0000000   1.0000000   1.0000000   1.0000000

  Atom       121
 IAtWgt=           1
 AtmWgt=   1.0078250
 NucSpn=           1
 AtZEff=  -0.0000000
 NQMom=    0.0000000
 NMagM=    2.7928460
 AtZNuc=   1.0000000
 Leave Link  101 at Sun Jul 26 12:21:38 2020, MaxMem=  4026531840 cpu:               3.4 elap:               0.5
 (Enter /opt/ohpc/pub/libs/gaussian/g16-A.03/sandybridge/g16/l103.exe)

 GradGradGradGradGradGradGradGradGradGradGradGradGradGradGradGradGradGrad
 Berny optimization.
 Initialization pass.
                           ----------------------------
                           !    Initial Parameters    !
                           ! (Angstroms and Degrees)  !
 --------------------------                            --------------------------
 ! Name  Definition              Value          Derivative Info.                !
 --------------------------------------------------------------------------------
 ! R1    R(1,2)                  1.4431         estimate D2E/DX2                !
 ! R2    R(1,7)                  1.3981         estimate D2E/DX2                !
 ! R3    R(1,92)                 1.1175         estimate D2E/DX2                !
 ! R4    R(2,3)                  1.3899         estimate D2E/DX2                !
 ! R5    R(2,93)                 1.0813         estimate D2E/DX2                !
 ! R6    R(3,4)                  1.4884         estimate D2E/DX2                !
 ! R7    R(3,94)                 1.0854         estimate D2E/DX2                !
 ! R8    R(4,5)                  1.3547         estimate D2E/DX2                !
 ! R9    R(4,8)                  1.4191         estimate D2E/DX2                !
 ! R10   R(5,6)                  1.3748         estimate D2E/DX2                !
 ! R11   R(5,7)                  1.3929         estimate D2E/DX2                !
 ! R12   R(7,95)                 1.1031         estimate D2E/DX2                !
 ! R13   R(8,9)                  1.3756         estimate D2E/DX2                !
 ! R14   R(8,13)                 1.7658         estimate D2E/DX2                !
 ! R15   R(9,10)                 1.3319         estimate D2E/DX2                !
 ! R16   R(9,11)                 1.4066         estimate D2E/DX2                !
 ! R17   R(11,12)                1.4666         estimate D2E/DX2                !
 ! R18   R(11,96)                1.0918         estimate D2E/DX2                !
 ! R19   R(12,13)                1.6887         estimate D2E/DX2                !
 ! R20   R(12,14)                1.4123         estimate D2E/DX2                !
 ! R21   R(14,15)                1.4256         estimate D2E/DX2                !
 ! R22   R(14,20)                1.4526         estimate D2E/DX2                !
 ! R23   R(15,16)                1.4008         estimate D2E/DX2                !
 ! R24   R(15,97)                1.0907         estimate D2E/DX2                !
 ! R25   R(16,17)                1.3967         estimate D2E/DX2                !
 ! R26   R(16,98)                1.0708         estimate D2E/DX2                !
 ! R27   R(17,18)                1.4461         estimate D2E/DX2                !
 ! R28   R(17,21)                1.4056         estimate D2E/DX2                !
 ! R29   R(18,19)                1.3328         estimate D2E/DX2                !
 ! R30   R(18,20)                1.3835         estimate D2E/DX2                !
 ! R31   R(20,99)                1.0802         estimate D2E/DX2                !
 ! R32   R(21,22)                1.4248         estimate D2E/DX2                !
 ! R33   R(21,26)                1.6873         estimate D2E/DX2                !
 ! R34   R(22,23)                1.322          estimate D2E/DX2                !
 ! R35   R(22,24)                1.4885         estimate D2E/DX2                !
 ! R36   R(24,25)                1.3854         estimate D2E/DX2                !
 ! R37   R(24,100)               1.056          estimate D2E/DX2                !
 ! R38   R(25,26)                1.7204         estimate D2E/DX2                !
 ! R39   R(25,27)                1.4077         estimate D2E/DX2                !
 ! R40   R(27,28)                1.3779         estimate D2E/DX2                !
 ! R41   R(27,33)                1.4059         estimate D2E/DX2                !
 ! R42   R(28,29)                1.463          estimate D2E/DX2                !
 ! R43   R(28,101)               1.0969         estimate D2E/DX2                !
 ! R44   R(29,30)                1.4391         estimate D2E/DX2                !
 ! R45   R(29,102)               1.03           estimate D2E/DX2                !
 ! R46   R(30,31)                1.3309         estimate D2E/DX2                !
 ! R47   R(30,34)                1.458          estimate D2E/DX2                !
 ! R48   R(31,32)                1.3585         estimate D2E/DX2                !
 ! R49   R(31,33)                1.3963         estimate D2E/DX2                !
 ! R50   R(33,103)               1.0119         estimate D2E/DX2                !
 ! R51   R(34,35)                1.4132         estimate D2E/DX2                !
 ! R52   R(34,39)                1.751          estimate D2E/DX2                !
 ! R53   R(35,36)                1.3141         estimate D2E/DX2                !
 ! R54   R(35,37)                1.4266         estimate D2E/DX2                !
 ! R55   R(37,38)                1.3587         estimate D2E/DX2                !
 ! R56   R(37,104)               1.0718         estimate D2E/DX2                !
 ! R57   R(38,39)                1.7901         estimate D2E/DX2                !
 ! R58   R(38,40)                1.4373         estimate D2E/DX2                !
 ! R59   R(40,41)                1.4556         estimate D2E/DX2                !
 ! R60   R(40,46)                1.4087         estimate D2E/DX2                !
 ! R61   R(41,42)                1.3851         estimate D2E/DX2                !
 ! R62   R(41,105)               1.0984         estimate D2E/DX2                !
 ! R63   R(42,43)                1.3984         estimate D2E/DX2                !
 ! R64   R(42,106)               1.1653         estimate D2E/DX2                !
 ! R65   R(43,44)                1.3819         estimate D2E/DX2                !
 ! R66   R(43,47)                1.4635         estimate D2E/DX2                !
 ! R67   R(44,45)                1.303          estimate D2E/DX2                !
 ! R68   R(44,46)                1.4174         estimate D2E/DX2                !
 ! R69   R(46,107)               1.0491         estimate D2E/DX2                !
 ! R70   R(47,48)                1.4067         estimate D2E/DX2                !
 ! R71   R(47,52)                1.6962         estimate D2E/DX2                !
 ! R72   R(48,49)                1.3118         estimate D2E/DX2                !
 ! R73   R(48,50)                1.3695         estimate D2E/DX2                !
 ! R74   R(50,51)                1.3817         estimate D2E/DX2                !
 ! R75   R(50,108)               1.1562         estimate D2E/DX2                !
 ! R76   R(51,52)                1.6402         estimate D2E/DX2                !
 ! R77   R(51,53)                1.4687         estimate D2E/DX2                !
 ! R78   R(53,54)                1.3626         estimate D2E/DX2                !
 ! R79   R(53,59)                1.4264         estimate D2E/DX2                !
 ! R80   R(54,55)                1.4577         estimate D2E/DX2                !
 ! R81   R(54,109)               1.0928         estimate D2E/DX2                !
 ! R82   R(55,56)                1.4741         estimate D2E/DX2                !
 ! R83   R(55,110)               1.0094         estimate D2E/DX2                !
 ! R84   R(56,57)                1.3675         estimate D2E/DX2                !
 ! R85   R(56,60)                1.4756         estimate D2E/DX2                !
 ! R86   R(57,58)                1.3314         estimate D2E/DX2                !
 ! R87   R(57,59)                1.4234         estimate D2E/DX2                !
 ! R88   R(59,111)               1.0891         estimate D2E/DX2                !
 ! R89   R(60,61)                1.3594         estimate D2E/DX2                !
 ! R90   R(60,65)                1.6582         estimate D2E/DX2                !
 ! R91   R(61,62)                1.3376         estimate D2E/DX2                !
 ! R92   R(61,63)                1.4189         estimate D2E/DX2                !
 ! R93   R(63,64)                1.3376         estimate D2E/DX2                !
 ! R94   R(63,112)               1.0683         estimate D2E/DX2                !
 ! R95   R(64,65)                1.7075         estimate D2E/DX2                !
 ! R96   R(64,66)                1.5183         estimate D2E/DX2                !
 ! R97   R(66,67)                1.454          estimate D2E/DX2                !
 ! R98   R(66,72)                1.3565         estimate D2E/DX2                !
 ! R99   R(67,68)                1.3786         estimate D2E/DX2                !
 ! R100  R(67,113)               1.0784         estimate D2E/DX2                !
 ! R101  R(68,69)                1.4218         estimate D2E/DX2                !
 ! R102  R(68,114)               1.1107         estimate D2E/DX2                !
 ! R103  R(69,70)                1.3984         estimate D2E/DX2                !
 ! R104  R(69,73)                1.4595         estimate D2E/DX2                !
 ! R105  R(70,71)                1.3282         estimate D2E/DX2                !
 ! R106  R(70,72)                1.4619         estimate D2E/DX2                !
 ! R107  R(72,115)               1.0636         estimate D2E/DX2                !
 ! R108  R(73,74)                1.351          estimate D2E/DX2                !
 ! R109  R(73,78)                1.6975         estimate D2E/DX2                !
 ! R110  R(74,75)                1.4185         estimate D2E/DX2                !
 ! R111  R(74,76)                1.3976         estimate D2E/DX2                !
 ! R112  R(76,77)                1.3959         estimate D2E/DX2                !
 ! R113  R(76,116)               1.0936         estimate D2E/DX2                !
 ! R114  R(77,78)                1.6906         estimate D2E/DX2                !
 ! R115  R(77,79)                1.5083         estimate D2E/DX2                !
 ! R116  R(79,80)                1.3401         estimate D2E/DX2                !
 ! R117  R(79,85)                1.3172         estimate D2E/DX2                !
 ! R118  R(80,81)                1.4824         estimate D2E/DX2                !
 ! R119  R(80,117)               1.148          estimate D2E/DX2                !
 ! R120  R(81,82)                1.3826         estimate D2E/DX2                !
 ! R121  R(81,118)               1.043          estimate D2E/DX2                !
 ! R122  R(82,83)                1.3865         estimate D2E/DX2                !
 ! R123  R(82,86)                1.524          estimate D2E/DX2                !
 ! R124  R(83,84)                1.4207         estimate D2E/DX2                !
 ! R125  R(83,85)                1.3689         estimate D2E/DX2                !
 ! R126  R(85,119)               1.1181         estimate D2E/DX2                !
 ! R127  R(86,87)                1.3705         estimate D2E/DX2                !
 ! R128  R(86,91)                1.6584         estimate D2E/DX2                !
 ! R129  R(87,88)                1.292          estimate D2E/DX2                !
 ! R130  R(87,89)                1.4939         estimate D2E/DX2                !
 ! R131  R(89,90)                1.3729         estimate D2E/DX2                !
 ! R132  R(89,120)               1.0633         estimate D2E/DX2                !
 ! R133  R(90,91)                1.7405         estimate D2E/DX2                !
 ! R134  R(90,121)               1.083          estimate D2E/DX2                !
 ! A1    A(2,1,7)              119.2308         estimate D2E/DX2                !
 ! A2    A(2,1,92)             114.8316         estimate D2E/DX2                !
 ! A3    A(7,1,92)             125.3506         estimate D2E/DX2                !
 ! A4    A(1,2,3)              118.0209         estimate D2E/DX2                !
 ! A5    A(1,2,93)             122.5201         estimate D2E/DX2                !
 ! A6    A(3,2,93)             118.5079         estimate D2E/DX2                !
 ! A7    A(2,3,4)              121.3284         estimate D2E/DX2                !
 ! A8    A(2,3,94)             123.1238         estimate D2E/DX2                !
 ! A9    A(4,3,94)             114.9992         estimate D2E/DX2                !
 ! A10   A(3,4,5)              116.9834         estimate D2E/DX2                !
 ! A11   A(3,4,8)              119.2764         estimate D2E/DX2                !
 ! A12   A(5,4,8)              123.4138         estimate D2E/DX2                !
 ! A13   A(4,5,6)              122.1957         estimate D2E/DX2                !
 ! A14   A(4,5,7)              122.5141         estimate D2E/DX2                !
 ! A15   A(6,5,7)              115.2214         estimate D2E/DX2                !
 ! A16   A(1,7,5)              121.3215         estimate D2E/DX2                !
 ! A17   A(1,7,95)             113.3919         estimate D2E/DX2                !
 ! A18   A(5,7,95)             125.2307         estimate D2E/DX2                !
 ! A19   A(4,8,9)              131.2778         estimate D2E/DX2                !
 ! A20   A(4,8,13)             120.8091         estimate D2E/DX2                !
 ! A21   A(9,8,13)             107.0671         estimate D2E/DX2                !
 ! A22   A(8,9,10)             123.625          estimate D2E/DX2                !
 ! A23   A(8,9,11)             116.6771         estimate D2E/DX2                !
 ! A24   A(10,9,11)            119.5177         estimate D2E/DX2                !
 ! A25   A(9,11,12)            111.3303         estimate D2E/DX2                !
 ! A26   A(9,11,96)            128.4615         estimate D2E/DX2                !
 ! A27   A(12,11,96)           120.2074         estimate D2E/DX2                !
 ! A28   A(11,12,13)           108.6929         estimate D2E/DX2                !
 ! A29   A(11,12,14)           127.9743         estimate D2E/DX2                !
 ! A30   A(13,12,14)           123.3018         estimate D2E/DX2                !
 ! A31   A(8,13,12)             95.8735         estimate D2E/DX2                !
 ! A32   A(12,14,15)           123.7289         estimate D2E/DX2                !
 ! A33   A(12,14,20)           122.1258         estimate D2E/DX2                !
 ! A34   A(15,14,20)           114.1447         estimate D2E/DX2                !
 ! A35   A(14,15,16)           125.0132         estimate D2E/DX2                !
 ! A36   A(14,15,97)           118.297          estimate D2E/DX2                !
 ! A37   A(16,15,97)           116.6746         estimate D2E/DX2                !
 ! A38   A(15,16,17)           120.5593         estimate D2E/DX2                !
 ! A39   A(15,16,98)           118.5166         estimate D2E/DX2                !
 ! A40   A(17,16,98)           120.9078         estimate D2E/DX2                !
 ! A41   A(16,17,18)           115.6945         estimate D2E/DX2                !
 ! A42   A(16,17,21)           122.8055         estimate D2E/DX2                !
 ! A43   A(18,17,21)           121.492          estimate D2E/DX2                !
 ! A44   A(17,18,19)           116.4937         estimate D2E/DX2                !
 ! A45   A(17,18,20)           124.0411         estimate D2E/DX2                !
 ! A46   A(19,18,20)           119.1352         estimate D2E/DX2                !
 ! A47   A(14,20,18)           120.3456         estimate D2E/DX2                !
 ! A48   A(14,20,99)           117.1324         estimate D2E/DX2                !
 ! A49   A(18,20,99)           122.228          estimate D2E/DX2                !
 ! A50   A(17,21,22)           125.6507         estimate D2E/DX2                !
 ! A51   A(17,21,26)           123.7077         estimate D2E/DX2                !
 ! A52   A(22,21,26)           110.6101         estimate D2E/DX2                !
 ! A53   A(21,22,23)           125.496          estimate D2E/DX2                !
 ! A54   A(21,22,24)           109.7661         estimate D2E/DX2                !
 ! A55   A(23,22,24)           124.7119         estimate D2E/DX2                !
 ! A56   A(22,24,25)           114.3259         estimate D2E/DX2                !
 ! A57   A(22,24,100)          120.6021         estimate D2E/DX2                !
 ! A58   A(25,24,100)          125.0014         estimate D2E/DX2                !
 ! A59   A(24,25,26)           108.5511         estimate D2E/DX2                !
 ! A60   A(24,25,27)           128.0684         estimate D2E/DX2                !
 ! A61   A(26,25,27)           123.3692         estimate D2E/DX2                !
 ! A62   A(21,26,25)            96.576          estimate D2E/DX2                !
 ! A63   A(25,27,28)           121.6657         estimate D2E/DX2                !
 ! A64   A(25,27,33)           119.3704         estimate D2E/DX2                !
 ! A65   A(28,27,33)           118.8218         estimate D2E/DX2                !
 ! A66   A(27,28,29)           123.4205         estimate D2E/DX2                !
 ! A67   A(27,28,101)          126.1534         estimate D2E/DX2                !
 ! A68   A(29,28,101)          110.0814         estimate D2E/DX2                !
 ! A69   A(28,29,30)           114.4874         estimate D2E/DX2                !
 ! A70   A(28,29,102)          120.509          estimate D2E/DX2                !
 ! A71   A(30,29,102)          124.7914         estimate D2E/DX2                !
 ! A72   A(29,30,31)           119.9309         estimate D2E/DX2                !
 ! A73   A(29,30,34)           117.1608         estimate D2E/DX2                !
 ! A74   A(31,30,34)           122.8109         estimate D2E/DX2                !
 ! A75   A(30,31,32)           117.0482         estimate D2E/DX2                !
 ! A76   A(30,31,33)           125.6164         estimate D2E/DX2                !
 ! A77   A(32,31,33)           117.3341         estimate D2E/DX2                !
 ! A78   A(27,33,31)           117.4869         estimate D2E/DX2                !
 ! A79   A(27,33,103)          121.7063         estimate D2E/DX2                !
 ! A80   A(31,33,103)          120.7376         estimate D2E/DX2                !
 ! A81   A(30,34,35)           129.7057         estimate D2E/DX2                !
 ! A82   A(30,34,39)           120.5605         estimate D2E/DX2                !
 ! A83   A(35,34,39)           109.6195         estimate D2E/DX2                !
 ! A84   A(34,35,36)           122.8211         estimate D2E/DX2                !
 ! A85   A(34,35,37)           113.433          estimate D2E/DX2                !
 ! A86   A(36,35,37)           123.73           estimate D2E/DX2                !
 ! A87   A(35,37,38)           114.5433         estimate D2E/DX2                !
 ! A88   A(35,37,104)          119.9353         estimate D2E/DX2                !
 ! A89   A(38,37,104)          125.0764         estimate D2E/DX2                !
 ! A90   A(37,38,39)           109.9842         estimate D2E/DX2                !
 ! A91   A(37,38,40)           130.265          estimate D2E/DX2                !
 ! A92   A(39,38,40)           119.5832         estimate D2E/DX2                !
 ! A93   A(34,39,38)            92.3084         estimate D2E/DX2                !
 ! A94   A(38,40,41)           121.0142         estimate D2E/DX2                !
 ! A95   A(38,40,46)           121.2944         estimate D2E/DX2                !
 ! A96   A(41,40,46)           117.5529         estimate D2E/DX2                !
 ! A97   A(40,41,42)           117.5058         estimate D2E/DX2                !
 ! A98   A(40,41,105)          121.9322         estimate D2E/DX2                !
 ! A99   A(42,41,105)          119.6449         estimate D2E/DX2                !
 ! A100  A(41,42,43)           125.3289         estimate D2E/DX2                !
 ! A101  A(41,42,106)          118.7439         estimate D2E/DX2                !
 ! A102  A(43,42,106)          115.5361         estimate D2E/DX2                !
 ! A103  A(42,43,44)           116.2745         estimate D2E/DX2                !
 ! A104  A(42,43,47)           123.3501         estimate D2E/DX2                !
 ! A105  A(44,43,47)           120.1031         estimate D2E/DX2                !
 ! A106  A(43,44,45)           122.3499         estimate D2E/DX2                !
 ! A107  A(43,44,46)           121.7542         estimate D2E/DX2                !
 ! A108  A(45,44,46)           115.8206         estimate D2E/DX2                !
 ! A109  A(40,46,44)           121.1843         estimate D2E/DX2                !
 ! A110  A(40,46,107)          115.0642         estimate D2E/DX2                !
 ! A111  A(44,46,107)          123.4719         estimate D2E/DX2                !
 ! A112  A(43,47,48)           129.4432         estimate D2E/DX2                !
 ! A113  A(43,47,52)           122.2245         estimate D2E/DX2                !
 ! A114  A(48,47,52)           107.8295         estimate D2E/DX2                !
 ! A115  A(47,48,49)           122.9545         estimate D2E/DX2                !
 ! A116  A(47,48,50)           112.1311         estimate D2E/DX2                !
 ! A117  A(49,48,50)           124.1713         estimate D2E/DX2                !
 ! A118  A(48,50,51)           114.2038         estimate D2E/DX2                !
 ! A119  A(48,50,108)          120.9422         estimate D2E/DX2                !
 ! A120  A(51,50,108)          124.7568         estimate D2E/DX2                !
 ! A121  A(50,51,52)           109.6594         estimate D2E/DX2                !
 ! A122  A(50,51,53)           128.6347         estimate D2E/DX2                !
 ! A123  A(52,51,53)           121.6172         estimate D2E/DX2                !
 ! A124  A(47,52,51)            95.5891         estimate D2E/DX2                !
 ! A125  A(51,53,54)           122.2651         estimate D2E/DX2                !
 ! A126  A(51,53,59)           122.7847         estimate D2E/DX2                !
 ! A127  A(54,53,59)           114.9376         estimate D2E/DX2                !
 ! A128  A(53,54,55)           124.3907         estimate D2E/DX2                !
 ! A129  A(53,54,109)          125.2871         estimate D2E/DX2                !
 ! A130  A(55,54,109)          110.3207         estimate D2E/DX2                !
 ! A131  A(54,55,56)           116.8968         estimate D2E/DX2                !
 ! A132  A(54,55,110)          120.7796         estimate D2E/DX2                !
 ! A133  A(56,55,110)          122.2942         estimate D2E/DX2                !
 ! A134  A(55,56,57)           119.7134         estimate D2E/DX2                !
 ! A135  A(55,56,60)           117.0665         estimate D2E/DX2                !
 ! A136  A(57,56,60)           123.2094         estimate D2E/DX2                !
 ! A137  A(56,57,58)           124.1198         estimate D2E/DX2                !
 ! A138  A(56,57,59)           119.1348         estimate D2E/DX2                !
 ! A139  A(58,57,59)           116.737          estimate D2E/DX2                !
 ! A140  A(53,59,57)           124.6218         estimate D2E/DX2                !
 ! A141  A(53,59,111)          118.484          estimate D2E/DX2                !
 ! A142  A(57,59,111)          116.235          estimate D2E/DX2                !
 ! A143  A(56,60,61)           126.1384         estimate D2E/DX2                !
 ! A144  A(56,60,65)           121.6998         estimate D2E/DX2                !
 ! A145  A(61,60,65)           112.1465         estimate D2E/DX2                !
 ! A146  A(60,61,62)           125.5238         estimate D2E/DX2                !
 ! A147  A(60,61,63)           113.7472         estimate D2E/DX2                !
 ! A148  A(62,61,63)           120.6491         estimate D2E/DX2                !
 ! A149  A(61,63,64)           108.8243         estimate D2E/DX2                !
 ! A150  A(61,63,112)          121.0335         estimate D2E/DX2                !
 ! A151  A(64,63,112)          129.929          estimate D2E/DX2                !
 ! A152  A(63,64,65)           114.3842         estimate D2E/DX2                !
 ! A153  A(63,64,66)           125.6968         estimate D2E/DX2                !
 ! A154  A(65,64,66)           119.9088         estimate D2E/DX2                !
 ! A155  A(60,65,64)            90.863          estimate D2E/DX2                !
 ! A156  A(64,66,67)           118.2415         estimate D2E/DX2                !
 ! A157  A(64,66,72)           118.5161         estimate D2E/DX2                !
 ! A158  A(67,66,72)           122.6925         estimate D2E/DX2                !
 ! A159  A(66,67,68)           116.9945         estimate D2E/DX2                !
 ! A160  A(66,67,113)          122.5839         estimate D2E/DX2                !
 ! A161  A(68,67,113)          120.2539         estimate D2E/DX2                !
 ! A162  A(67,68,69)           123.9136         estimate D2E/DX2                !
 ! A163  A(67,68,114)          122.2294         estimate D2E/DX2                !
 ! A164  A(69,68,114)          113.8494         estimate D2E/DX2                !
 ! A165  A(68,69,70)           116.5336         estimate D2E/DX2                !
 ! A166  A(68,69,73)           121.7898         estimate D2E/DX2                !
 ! A167  A(70,69,73)           121.3786         estimate D2E/DX2                !
 ! A168  A(69,70,71)           125.4187         estimate D2E/DX2                !
 ! A169  A(69,70,72)           122.2547         estimate D2E/DX2                !
 ! A170  A(71,70,72)           112.3235         estimate D2E/DX2                !
 ! A171  A(66,72,70)           117.4342         estimate D2E/DX2                !
 ! A172  A(66,72,115)          121.0347         estimate D2E/DX2                !
 ! A173  A(70,72,115)          121.2828         estimate D2E/DX2                !
 ! A174  A(69,73,74)           130.7409         estimate D2E/DX2                !
 ! A175  A(69,73,78)           121.613          estimate D2E/DX2                !
 ! A176  A(74,73,78)           107.6427         estimate D2E/DX2                !
 ! A177  A(73,74,75)           119.8274         estimate D2E/DX2                !
 ! A178  A(73,74,76)           117.7684         estimate D2E/DX2                !
 ! A179  A(75,74,76)           122.3274         estimate D2E/DX2                !
 ! A180  A(74,76,77)           109.2119         estimate D2E/DX2                !
 ! A181  A(74,76,116)          123.4812         estimate D2E/DX2                !
 ! A182  A(77,76,116)          126.7359         estimate D2E/DX2                !
 ! A183  A(76,77,78)           110.7691         estimate D2E/DX2                !
 ! A184  A(76,77,79)           126.807          estimate D2E/DX2                !
 ! A185  A(78,77,79)           122.315          estimate D2E/DX2                !
 ! A186  A(73,78,77)            94.5748         estimate D2E/DX2                !
 ! A187  A(77,79,80)           119.8221         estimate D2E/DX2                !
 ! A188  A(77,79,85)           118.2477         estimate D2E/DX2                !
 ! A189  A(80,79,85)           121.9166         estimate D2E/DX2                !
 ! A190  A(79,80,81)           120.3884         estimate D2E/DX2                !
 ! A191  A(79,80,117)          125.5227         estimate D2E/DX2                !
 ! A192  A(81,80,117)          114.0753         estimate D2E/DX2                !
 ! A193  A(80,81,82)           116.0376         estimate D2E/DX2                !
 ! A194  A(80,81,118)          121.3613         estimate D2E/DX2                !
 ! A195  A(82,81,118)          122.5748         estimate D2E/DX2                !
 ! A196  A(81,82,83)           119.208          estimate D2E/DX2                !
 ! A197  A(81,82,86)           118.0067         estimate D2E/DX2                !
 ! A198  A(83,82,86)           122.6109         estimate D2E/DX2                !
 ! A199  A(82,83,84)           116.957          estimate D2E/DX2                !
 ! A200  A(82,83,85)           122.1248         estimate D2E/DX2                !
 ! A201  A(84,83,85)           120.6745         estimate D2E/DX2                !
 ! A202  A(79,85,83)           120.1739         estimate D2E/DX2                !
 ! A203  A(79,85,119)          126.533          estimate D2E/DX2                !
 ! A204  A(83,85,119)          113.2611         estimate D2E/DX2                !
 ! A205  A(82,86,87)           124.1993         estimate D2E/DX2                !
 ! A206  A(82,86,91)           120.2979         estimate D2E/DX2                !
 ! A207  A(87,86,91)           115.3491         estimate D2E/DX2                !
 ! A208  A(86,87,88)           128.2395         estimate D2E/DX2                !
 ! A209  A(86,87,89)           108.982          estimate D2E/DX2                !
 ! A210  A(88,87,89)           122.7768         estimate D2E/DX2                !
 ! A211  A(87,89,90)           112.0108         estimate D2E/DX2                !
 ! A212  A(87,89,120)          118.968          estimate D2E/DX2                !
 ! A213  A(90,89,120)          129.0211         estimate D2E/DX2                !
 ! A214  A(89,90,91)           110.8503         estimate D2E/DX2                !
 ! A215  A(89,90,121)          125.9224         estimate D2E/DX2                !
 ! A216  A(91,90,121)          122.5913         estimate D2E/DX2                !
 ! A217  A(86,91,90)            92.4518         estimate D2E/DX2                !
 ! D1    D(7,1,2,3)             -7.7005         estimate D2E/DX2                !
 ! D2    D(7,1,2,93)          -176.3651         estimate D2E/DX2                !
 ! D3    D(92,1,2,3)          -179.3853         estimate D2E/DX2                !
 ! D4    D(92,1,2,93)           11.9501         estimate D2E/DX2                !
 ! D5    D(2,1,7,5)              4.2683         estimate D2E/DX2                !
 ! D6    D(2,1,7,95)          -178.3142         estimate D2E/DX2                !
 ! D7    D(92,1,7,5)           175.0082         estimate D2E/DX2                !
 ! D8    D(92,1,7,95)           -7.5743         estimate D2E/DX2                !
 ! D9    D(1,2,3,4)              8.9745         estimate D2E/DX2                !
 ! D10   D(1,2,3,94)          -179.9487         estimate D2E/DX2                !
 ! D11   D(93,2,3,4)           178.1034         estimate D2E/DX2                !
 ! D12   D(93,2,3,94)          -10.8198         estimate D2E/DX2                !
 ! D13   D(2,3,4,5)             -6.7155         estimate D2E/DX2                !
 ! D14   D(2,3,4,8)            179.6194         estimate D2E/DX2                !
 ! D15   D(94,3,4,5)          -178.4748         estimate D2E/DX2                !
 ! D16   D(94,3,4,8)             7.8602         estimate D2E/DX2                !
 ! D17   D(3,4,5,6)           -173.8133         estimate D2E/DX2                !
 ! D18   D(3,4,5,7)              3.0249         estimate D2E/DX2                !
 ! D19   D(8,4,5,6)             -0.4346         estimate D2E/DX2                !
 ! D20   D(8,4,5,7)            176.4037         estimate D2E/DX2                !
 ! D21   D(3,4,8,9)             32.5308         estimate D2E/DX2                !
 ! D22   D(3,4,8,13)          -135.4783         estimate D2E/DX2                !
 ! D23   D(5,4,8,9)           -140.7041         estimate D2E/DX2                !
 ! D24   D(5,4,8,13)            51.2868         estimate D2E/DX2                !
 ! D25   D(4,5,7,1)             -2.0412         estimate D2E/DX2                !
 ! D26   D(4,5,7,95)          -179.1392         estimate D2E/DX2                !
 ! D27   D(6,5,7,1)            175.0014         estimate D2E/DX2                !
 ! D28   D(6,5,7,95)            -2.0966         estimate D2E/DX2                !
 ! D29   D(4,8,9,10)             9.2379         estimate D2E/DX2                !
 ! D30   D(4,8,9,11)          -175.6763         estimate D2E/DX2                !
 ! D31   D(13,8,9,10)          178.4801         estimate D2E/DX2                !
 ! D32   D(13,8,9,11)           -6.4341         estimate D2E/DX2                !
 ! D33   D(4,8,13,12)          174.5555         estimate D2E/DX2                !
 ! D34   D(9,8,13,12)            3.9555         estimate D2E/DX2                !
 ! D35   D(8,9,11,12)            6.2043         estimate D2E/DX2                !
 ! D36   D(8,9,11,96)         -173.4738         estimate D2E/DX2                !
 ! D37   D(10,9,11,12)        -178.4975         estimate D2E/DX2                !
 ! D38   D(10,9,11,96)           1.8244         estimate D2E/DX2                !
 ! D39   D(9,11,12,13)          -2.7313         estimate D2E/DX2                !
 ! D40   D(9,11,12,14)         179.262          estimate D2E/DX2                !
 ! D41   D(96,11,12,13)        176.9771         estimate D2E/DX2                !
 ! D42   D(96,11,12,14)         -1.0296         estimate D2E/DX2                !
 ! D43   D(11,12,13,8)          -0.7066         estimate D2E/DX2                !
 ! D44   D(14,12,13,8)         177.4134         estimate D2E/DX2                !
 ! D45   D(11,12,14,15)       -158.7736         estimate D2E/DX2                !
 ! D46   D(11,12,14,20)         21.5275         estimate D2E/DX2                !
 ! D47   D(13,12,14,15)         23.4857         estimate D2E/DX2                !
 ! D48   D(13,12,14,20)       -156.2132         estimate D2E/DX2                !
 ! D49   D(12,14,15,16)        179.637          estimate D2E/DX2                !
 ! D50   D(12,14,15,97)          1.1087         estimate D2E/DX2                !
 ! D51   D(20,14,15,16)         -0.6424         estimate D2E/DX2                !
 ! D52   D(20,14,15,97)       -179.1707         estimate D2E/DX2                !
 ! D53   D(12,14,20,18)        176.4342         estimate D2E/DX2                !
 ! D54   D(12,14,20,99)          2.5234         estimate D2E/DX2                !
 ! D55   D(15,14,20,18)         -3.2914         estimate D2E/DX2                !
 ! D56   D(15,14,20,99)       -177.2022         estimate D2E/DX2                !
 ! D57   D(14,15,16,17)          2.7578         estimate D2E/DX2                !
 ! D58   D(14,15,16,98)       -178.6994         estimate D2E/DX2                !
 ! D59   D(97,15,16,17)       -178.6924         estimate D2E/DX2                !
 ! D60   D(97,15,16,98)         -0.1496         estimate D2E/DX2                !
 ! D61   D(15,16,17,18)         -0.8671         estimate D2E/DX2                !
 ! D62   D(15,16,17,21)        178.1179         estimate D2E/DX2                !
 ! D63   D(98,16,17,18)       -179.3748         estimate D2E/DX2                !
 ! D64   D(98,16,17,21)         -0.3899         estimate D2E/DX2                !
 ! D65   D(16,17,18,19)       -176.5061         estimate D2E/DX2                !
 ! D66   D(16,17,18,20)         -3.1781         estimate D2E/DX2                !
 ! D67   D(21,17,18,19)          4.4944         estimate D2E/DX2                !
 ! D68   D(21,17,18,20)        177.8225         estimate D2E/DX2                !
 ! D69   D(16,17,21,22)        119.4526         estimate D2E/DX2                !
 ! D70   D(16,17,21,26)        -58.3109         estimate D2E/DX2                !
 ! D71   D(18,17,21,22)        -61.6201         estimate D2E/DX2                !
 ! D72   D(18,17,21,26)        120.6164         estimate D2E/DX2                !
 ! D73   D(17,18,20,14)          5.3964         estimate D2E/DX2                !
 ! D74   D(17,18,20,99)        178.989          estimate D2E/DX2                !
 ! D75   D(19,18,20,14)        178.5594         estimate D2E/DX2                !
 ! D76   D(19,18,20,99)         -7.848          estimate D2E/DX2                !
 ! D77   D(17,21,22,23)          1.8667         estimate D2E/DX2                !
 ! D78   D(17,21,22,24)       -179.9216         estimate D2E/DX2                !
 ! D79   D(26,21,22,23)        179.879          estimate D2E/DX2                !
 ! D80   D(26,21,22,24)         -1.9092         estimate D2E/DX2                !
 ! D81   D(17,21,26,25)        177.6189         estimate D2E/DX2                !
 ! D82   D(22,21,26,25)         -0.4396         estimate D2E/DX2                !
 ! D83   D(21,22,24,25)          4.1751         estimate D2E/DX2                !
 ! D84   D(21,22,24,100)      -178.7332         estimate D2E/DX2                !
 ! D85   D(23,22,24,25)       -177.596          estimate D2E/DX2                !
 ! D86   D(23,22,24,100)        -0.5043         estimate D2E/DX2                !
 ! D87   D(22,24,25,26)         -4.385          estimate D2E/DX2                !
 ! D88   D(22,24,25,27)        176.8219         estimate D2E/DX2                !
 ! D89   D(100,24,25,26)       178.671          estimate D2E/DX2                !
 ! D90   D(100,24,25,27)        -0.1221         estimate D2E/DX2                !
 ! D91   D(24,25,26,21)          2.8058         estimate D2E/DX2                !
 ! D92   D(27,25,26,21)       -178.3318         estimate D2E/DX2                !
 ! D93   D(24,25,27,28)       -151.4499         estimate D2E/DX2                !
 ! D94   D(24,25,27,33)         32.9353         estimate D2E/DX2                !
 ! D95   D(26,25,27,28)         29.9202         estimate D2E/DX2                !
 ! D96   D(26,25,27,33)       -145.6946         estimate D2E/DX2                !
 ! D97   D(25,27,28,29)        178.4408         estimate D2E/DX2                !
 ! D98   D(25,27,28,101)         5.8607         estimate D2E/DX2                !
 ! D99   D(33,27,28,29)         -5.921          estimate D2E/DX2                !
 ! D100  D(33,27,28,101)      -178.5012         estimate D2E/DX2                !
 ! D101  D(25,27,33,31)        178.6742         estimate D2E/DX2                !
 ! D102  D(25,27,33,103)         1.6787         estimate D2E/DX2                !
 ! D103  D(28,27,33,31)          2.9341         estimate D2E/DX2                !
 ! D104  D(28,27,33,103)      -174.0615         estimate D2E/DX2                !
 ! D105  D(27,28,29,30)          5.1781         estimate D2E/DX2                !
 ! D106  D(27,28,29,102)      -179.8675         estimate D2E/DX2                !
 ! D107  D(101,28,29,30)       178.8039         estimate D2E/DX2                !
 ! D108  D(101,28,29,102)       -6.2417         estimate D2E/DX2                !
 ! D109  D(28,29,30,31)         -1.6015         estimate D2E/DX2                !
 ! D110  D(28,29,30,34)       -178.1144         estimate D2E/DX2                !
 ! D111  D(102,29,30,31)      -176.3076         estimate D2E/DX2                !
 ! D112  D(102,29,30,34)         7.1796         estimate D2E/DX2                !
 ! D113  D(29,30,31,32)        179.3386         estimate D2E/DX2                !
 ! D114  D(29,30,31,33)         -1.0835         estimate D2E/DX2                !
 ! D115  D(34,30,31,32)         -4.3532         estimate D2E/DX2                !
 ! D116  D(34,30,31,33)        175.2247         estimate D2E/DX2                !
 ! D117  D(29,30,34,35)        126.6334         estimate D2E/DX2                !
 ! D118  D(29,30,34,39)        -57.6829         estimate D2E/DX2                !
 ! D119  D(31,30,34,35)        -49.7708         estimate D2E/DX2                !
 ! D120  D(31,30,34,39)        125.9129         estimate D2E/DX2                !
 ! D121  D(30,31,33,27)          0.5145         estimate D2E/DX2                !
 ! D122  D(30,31,33,103)       177.5407         estimate D2E/DX2                !
 ! D123  D(32,31,33,27)       -179.9087         estimate D2E/DX2                !
 ! D124  D(32,31,33,103)        -2.8825         estimate D2E/DX2                !
 ! D125  D(30,34,35,36)         -2.083          estimate D2E/DX2                !
 ! D126  D(30,34,35,37)        176.5152         estimate D2E/DX2                !
 ! D127  D(39,34,35,36)       -178.1378         estimate D2E/DX2                !
 ! D128  D(39,34,35,37)          0.4604         estimate D2E/DX2                !
 ! D129  D(30,34,39,38)       -178.4621         estimate D2E/DX2                !
 ! D130  D(35,34,39,38)         -1.9863         estimate D2E/DX2                !
 ! D131  D(34,35,37,38)          2.011          estimate D2E/DX2                !
 ! D132  D(34,35,37,104)       174.7404         estimate D2E/DX2                !
 ! D133  D(36,35,37,38)       -179.4054         estimate D2E/DX2                !
 ! D134  D(36,35,37,104)        -6.6761         estimate D2E/DX2                !
 ! D135  D(35,37,38,39)         -3.4314         estimate D2E/DX2                !
 ! D136  D(35,37,38,40)       -178.6066         estimate D2E/DX2                !
 ! D137  D(104,37,38,39)      -175.73           estimate D2E/DX2                !
 ! D138  D(104,37,38,40)         9.0949         estimate D2E/DX2                !
 ! D139  D(37,38,39,34)          3.1148         estimate D2E/DX2                !
 ! D140  D(40,38,39,34)        178.8824         estimate D2E/DX2                !
 ! D141  D(37,38,40,41)       -134.3532         estimate D2E/DX2                !
 ! D142  D(37,38,40,46)         41.2633         estimate D2E/DX2                !
 ! D143  D(39,38,40,41)         50.8619         estimate D2E/DX2                !
 ! D144  D(39,38,40,46)       -133.5216         estimate D2E/DX2                !
 ! D145  D(38,40,41,42)        172.6982         estimate D2E/DX2                !
 ! D146  D(38,40,41,105)         3.7053         estimate D2E/DX2                !
 ! D147  D(46,40,41,42)         -3.0772         estimate D2E/DX2                !
 ! D148  D(46,40,41,105)      -172.0701         estimate D2E/DX2                !
 ! D149  D(38,40,46,44)       -176.8463         estimate D2E/DX2                !
 ! D150  D(38,40,46,107)         9.0237         estimate D2E/DX2                !
 ! D151  D(41,40,46,44)         -1.0835         estimate D2E/DX2                !
 ! D152  D(41,40,46,107)      -175.2135         estimate D2E/DX2                !
 ! D153  D(40,41,42,43)          7.5412         estimate D2E/DX2                !
 ! D154  D(40,41,42,106)      -179.9776         estimate D2E/DX2                !
 ! D155  D(105,41,42,43)       176.7959         estimate D2E/DX2                !
 ! D156  D(105,41,42,106)      -10.7228         estimate D2E/DX2                !
 ! D157  D(41,42,43,44)         -7.1806         estimate D2E/DX2                !
 ! D158  D(41,42,43,47)        178.8214         estimate D2E/DX2                !
 ! D159  D(106,42,43,44)      -179.8758         estimate D2E/DX2                !
 ! D160  D(106,42,43,47)         6.1261         estimate D2E/DX2                !
 ! D161  D(42,43,44,45)        179.1414         estimate D2E/DX2                !
 ! D162  D(42,43,44,46)          2.4307         estimate D2E/DX2                !
 ! D163  D(47,43,44,45)         -6.6531         estimate D2E/DX2                !
 ! D164  D(47,43,44,46)        176.6361         estimate D2E/DX2                !
 ! D165  D(42,43,47,48)        -36.0084         estimate D2E/DX2                !
 ! D166  D(42,43,47,52)        134.8255         estimate D2E/DX2                !
 ! D167  D(44,43,47,48)        150.2134         estimate D2E/DX2                !
 ! D168  D(44,43,47,52)        -38.9527         estimate D2E/DX2                !
 ! D169  D(43,44,46,40)          1.4233         estimate D2E/DX2                !
 ! D170  D(43,44,46,107)       175.0468         estimate D2E/DX2                !
 ! D171  D(45,44,46,40)       -175.49           estimate D2E/DX2                !
 ! D172  D(45,44,46,107)        -1.8665         estimate D2E/DX2                !
 ! D173  D(43,47,48,49)         -9.5116         estimate D2E/DX2                !
 ! D174  D(43,47,48,50)        179.9982         estimate D2E/DX2                !
 ! D175  D(52,47,48,49)        178.6265         estimate D2E/DX2                !
 ! D176  D(52,47,48,50)          8.1363         estimate D2E/DX2                !
 ! D177  D(43,47,52,51)       -178.3235         estimate D2E/DX2                !
 ! D178  D(48,47,52,51)         -5.7483         estimate D2E/DX2                !
 ! D179  D(47,48,50,51)         -7.2286         estimate D2E/DX2                !
 ! D180  D(47,48,50,108)       176.1911         estimate D2E/DX2                !
 ! D181  D(49,48,50,51)       -177.5825         estimate D2E/DX2                !
 ! D182  D(49,48,50,108)         5.8371         estimate D2E/DX2                !
 ! D183  D(48,50,51,52)          2.7296         estimate D2E/DX2                !
 ! D184  D(48,50,51,53)        179.2999         estimate D2E/DX2                !
 ! D185  D(108,50,51,52)       179.1595         estimate D2E/DX2                !
 ! D186  D(108,50,51,53)        -4.2702         estimate D2E/DX2                !
 ! D187  D(50,51,52,47)          1.902          estimate D2E/DX2                !
 ! D188  D(53,51,52,47)       -174.9522         estimate D2E/DX2                !
 ! D189  D(50,51,53,54)        149.9831         estimate D2E/DX2                !
 ! D190  D(50,51,53,59)        -28.6596         estimate D2E/DX2                !
 ! D191  D(52,51,53,54)        -33.8102         estimate D2E/DX2                !
 ! D192  D(52,51,53,59)        147.5471         estimate D2E/DX2                !
 ! D193  D(51,53,54,55)        175.698          estimate D2E/DX2                !
 ! D194  D(51,53,54,109)        -3.8073         estimate D2E/DX2                !
 ! D195  D(59,53,54,55)         -5.5604         estimate D2E/DX2                !
 ! D196  D(59,53,54,109)       174.9343         estimate D2E/DX2                !
 ! D197  D(51,53,59,57)       -174.6292         estimate D2E/DX2                !
 ! D198  D(51,53,59,111)        -4.3058         estimate D2E/DX2                !
 ! D199  D(54,53,59,57)          6.6365         estimate D2E/DX2                !
 ! D200  D(54,53,59,111)       176.9599         estimate D2E/DX2                !
 ! D201  D(53,54,55,56)          1.8621         estimate D2E/DX2                !
 ! D202  D(53,54,55,110)       179.9344         estimate D2E/DX2                !
 ! D203  D(109,54,55,56)      -178.5686         estimate D2E/DX2                !
 ! D204  D(109,54,55,110)       -0.4963         estimate D2E/DX2                !
 ! D205  D(54,55,56,57)          1.4174         estimate D2E/DX2                !
 ! D206  D(54,55,56,60)       -179.7357         estimate D2E/DX2                !
 ! D207  D(110,55,56,57)      -176.6233         estimate D2E/DX2                !
 ! D208  D(110,55,56,60)         2.2236         estimate D2E/DX2                !
 ! D209  D(55,56,57,58)        178.4265         estimate D2E/DX2                !
 ! D210  D(55,56,57,59)         -0.486          estimate D2E/DX2                !
 ! D211  D(60,56,57,58)         -0.3463         estimate D2E/DX2                !
 ! D212  D(60,56,57,59)       -179.2587         estimate D2E/DX2                !
 ! D213  D(55,56,60,61)         64.4804         estimate D2E/DX2                !
 ! D214  D(55,56,60,65)       -113.9809         estimate D2E/DX2                !
 ! D215  D(57,56,60,61)       -116.7166         estimate D2E/DX2                !
 ! D216  D(57,56,60,65)         64.8221         estimate D2E/DX2                !
 ! D217  D(56,57,59,53)         -3.7541         estimate D2E/DX2                !
 ! D218  D(56,57,59,111)      -174.2739         estimate D2E/DX2                !
 ! D219  D(58,57,59,53)        177.2541         estimate D2E/DX2                !
 ! D220  D(58,57,59,111)         6.7343         estimate D2E/DX2                !
 ! D221  D(56,60,61,62)          2.9138         estimate D2E/DX2                !
 ! D222  D(56,60,61,63)        179.6614         estimate D2E/DX2                !
 ! D223  D(65,60,61,62)       -178.4996         estimate D2E/DX2                !
 ! D224  D(65,60,61,63)         -1.752          estimate D2E/DX2                !
 ! D225  D(56,60,65,64)       -179.572          estimate D2E/DX2                !
 ! D226  D(61,60,65,64)          1.7696         estimate D2E/DX2                !
 ! D227  D(60,61,63,64)          0.6631         estimate D2E/DX2                !
 ! D228  D(60,61,63,112)      -174.5329         estimate D2E/DX2                !
 ! D229  D(62,61,63,64)        177.5864         estimate D2E/DX2                !
 ! D230  D(62,61,63,112)         2.3904         estimate D2E/DX2                !
 ! D231  D(61,63,64,65)          0.6917         estimate D2E/DX2                !
 ! D232  D(61,63,64,66)        179.5184         estimate D2E/DX2                !
 ! D233  D(112,63,64,65)       175.3222         estimate D2E/DX2                !
 ! D234  D(112,63,64,66)        -5.8511         estimate D2E/DX2                !
 ! D235  D(63,64,65,60)         -1.4417         estimate D2E/DX2                !
 ! D236  D(66,64,65,60)        179.6576         estimate D2E/DX2                !
 ! D237  D(63,64,66,67)        118.7642         estimate D2E/DX2                !
 ! D238  D(63,64,66,72)        -52.9645         estimate D2E/DX2                !
 ! D239  D(65,64,66,67)        -62.4686         estimate D2E/DX2                !
 ! D240  D(65,64,66,72)        125.8027         estimate D2E/DX2                !
 ! D241  D(64,66,67,68)       -173.0218         estimate D2E/DX2                !
 ! D242  D(64,66,67,113)         2.2767         estimate D2E/DX2                !
 ! D243  D(72,66,67,68)         -1.6605         estimate D2E/DX2                !
 ! D244  D(72,66,67,113)       173.638          estimate D2E/DX2                !
 ! D245  D(64,66,72,70)        175.8366         estimate D2E/DX2                !
 ! D246  D(64,66,72,115)        -9.8162         estimate D2E/DX2                !
 ! D247  D(67,66,72,70)          4.4978         estimate D2E/DX2                !
 ! D248  D(67,66,72,115)       178.845          estimate D2E/DX2                !
 ! D249  D(66,67,68,69)         -1.9797         estimate D2E/DX2                !
 ! D250  D(66,67,68,114)       179.0895         estimate D2E/DX2                !
 ! D251  D(113,67,68,69)      -177.3938         estimate D2E/DX2                !
 ! D252  D(113,67,68,114)        3.6754         estimate D2E/DX2                !
 ! D253  D(67,68,69,70)          2.3286         estimate D2E/DX2                !
 ! D254  D(67,68,69,73)        176.1387         estimate D2E/DX2                !
 ! D255  D(114,68,69,70)      -178.6603         estimate D2E/DX2                !
 ! D256  D(114,68,69,73)        -4.8501         estimate D2E/DX2                !
 ! D257  D(68,69,70,71)       -178.5403         estimate D2E/DX2                !
 ! D258  D(68,69,70,72)          0.7714         estimate D2E/DX2                !
 ! D259  D(73,69,70,71)          7.6221         estimate D2E/DX2                !
 ! D260  D(73,69,70,72)       -173.0661         estimate D2E/DX2                !
 ! D261  D(68,69,73,74)         53.8628         estimate D2E/DX2                !
 ! D262  D(68,69,73,78)       -126.8977         estimate D2E/DX2                !
 ! D263  D(70,69,73,74)       -132.625          estimate D2E/DX2                !
 ! D264  D(70,69,73,78)         46.6145         estimate D2E/DX2                !
 ! D265  D(69,70,72,66)         -4.0852         estimate D2E/DX2                !
 ! D266  D(69,70,72,115)      -178.4175         estimate D2E/DX2                !
 ! D267  D(71,70,72,66)        175.3085         estimate D2E/DX2                !
 ! D268  D(71,70,72,115)         0.9762         estimate D2E/DX2                !
 ! D269  D(69,73,74,75)          0.5224         estimate D2E/DX2                !
 ! D270  D(69,73,74,76)        177.4102         estimate D2E/DX2                !
 ! D271  D(78,73,74,75)       -178.798          estimate D2E/DX2                !
 ! D272  D(78,73,74,76)         -1.9102         estimate D2E/DX2                !
 ! D273  D(69,73,78,77)       -177.741          estimate D2E/DX2                !
 ! D274  D(74,73,78,77)          1.6543         estimate D2E/DX2                !
 ! D275  D(73,74,76,77)          1.1562         estimate D2E/DX2                !
 ! D276  D(73,74,76,116)       173.0051         estimate D2E/DX2                !
 ! D277  D(75,74,76,77)        177.961          estimate D2E/DX2                !
 ! D278  D(75,74,76,116)       -10.1901         estimate D2E/DX2                !
 ! D279  D(74,76,77,78)          0.1959         estimate D2E/DX2                !
 ! D280  D(74,76,77,79)        176.4426         estimate D2E/DX2                !
 ! D281  D(116,76,77,78)      -171.3184         estimate D2E/DX2                !
 ! D282  D(116,76,77,79)         4.9283         estimate D2E/DX2                !
 ! D283  D(76,77,78,73)         -1.084          estimate D2E/DX2                !
 ! D284  D(79,77,78,73)       -177.5283         estimate D2E/DX2                !
 ! D285  D(76,77,79,80)       -132.1759         estimate D2E/DX2                !
 ! D286  D(76,77,79,85)         49.1408         estimate D2E/DX2                !
 ! D287  D(78,77,79,80)         43.6708         estimate D2E/DX2                !
 ! D288  D(78,77,79,85)       -135.0125         estimate D2E/DX2                !
 ! D289  D(77,79,80,81)       -177.5701         estimate D2E/DX2                !
 ! D290  D(77,79,80,117)         1.0057         estimate D2E/DX2                !
 ! D291  D(85,79,80,81)          1.0634         estimate D2E/DX2                !
 ! D292  D(85,79,80,117)       179.6391         estimate D2E/DX2                !
 ! D293  D(77,79,85,83)        177.736          estimate D2E/DX2                !
 ! D294  D(77,79,85,119)        -0.0613         estimate D2E/DX2                !
 ! D295  D(80,79,85,83)         -0.9182         estimate D2E/DX2                !
 ! D296  D(80,79,85,119)      -178.7155         estimate D2E/DX2                !
 ! D297  D(79,80,81,82)          1.5038         estimate D2E/DX2                !
 ! D298  D(79,80,81,118)       179.6837         estimate D2E/DX2                !
 ! D299  D(117,80,81,82)      -177.2267         estimate D2E/DX2                !
 ! D300  D(117,80,81,118)        0.9533         estimate D2E/DX2                !
 ! D301  D(80,81,82,83)         -4.1094         estimate D2E/DX2                !
 ! D302  D(80,81,82,86)       -179.4367         estimate D2E/DX2                !
 ! D303  D(118,81,82,83)       177.7349         estimate D2E/DX2                !
 ! D304  D(118,81,82,86)         2.4076         estimate D2E/DX2                !
 ! D305  D(81,82,83,84)        178.8739         estimate D2E/DX2                !
 ! D306  D(81,82,83,85)          4.5132         estimate D2E/DX2                !
 ! D307  D(86,82,83,84)         -6.0242         estimate D2E/DX2                !
 ! D308  D(86,82,83,85)        179.6151         estimate D2E/DX2                !
 ! D309  D(81,82,86,87)        -53.7242         estimate D2E/DX2                !
 ! D310  D(81,82,86,91)        121.5558         estimate D2E/DX2                !
[...]
  Beta virt. eigenvalues --    1.97457   1.97649   1.97841   1.98059   1.98268
  Beta virt. eigenvalues --    1.98467   1.98536   1.98669   1.98819   1.99107
  Beta virt. eigenvalues --    1.99374   1.99626   1.99839   1.99883   2.00540
  Beta virt. eigenvalues --    2.00592   2.00728   2.01162   2.01234   2.01502
  Beta virt. eigenvalues --    2.01546   2.01778   2.02000   2.02049   2.02134
  Beta virt. eigenvalues --    2.02431   2.02760   2.03213   2.03731   2.03862
  Beta virt. eigenvalues --    2.04003   2.05338   2.05649   2.05792   2.06146
  Beta virt. eigenvalues --    2.06948   2.07402   2.07570   2.07705   2.08110
  Beta virt. eigenvalues --    2.08439   2.08976   2.09097   2.09521   2.09962
  Beta virt. eigenvalues --    2.10323   2.10833   2.11261   2.11870   2.11893
  Beta virt. eigenvalues --    2.12039   2.12193   2.12527   2.12751   2.13083
  Beta virt. eigenvalues --    2.13613   2.13732   2.13863   2.14050   2.14779
  Beta virt. eigenvalues --    2.14875   2.15315   2.15633   2.15859   2.16034
  Beta virt. eigenvalues --    2.16401   2.16739   2.17062   2.17111   2.18590
  Beta virt. eigenvalues --    2.18730   2.19048   2.19136   2.19288   2.19462
  Beta virt. eigenvalues --    2.19638   2.20384   2.20976   2.21054   2.21469
  Beta virt. eigenvalues --    2.21503   2.21755   2.21786   2.22252   2.22332
  Beta virt. eigenvalues --    2.22883   2.23205   2.23631   2.24305   2.28793
  Beta virt. eigenvalues --    2.29382   2.29425   2.29656   2.29818   2.30450
  Beta virt. eigenvalues --    2.30748   2.31501   2.31610   2.31825   2.31893
  Beta virt. eigenvalues --    2.32287   2.32374   2.32532   2.33079   2.34667
  Beta virt. eigenvalues --    2.35232   2.35410   2.35631   2.35889   2.35954
  Beta virt. eigenvalues --    2.36092   2.36436   2.36598   2.36682   2.37775
  Beta virt. eigenvalues --    2.37998   2.41462   2.42412   2.42572   2.43217
  Beta virt. eigenvalues --    2.43306   2.43625   2.44294   2.44604   2.44931
  Beta virt. eigenvalues --    2.45225   2.45412   2.46395   2.46607   2.46699
  Beta virt. eigenvalues --    2.48901   2.49605   2.50040   2.50078   2.50505
  Beta virt. eigenvalues --    2.51214   2.51849   2.52718   2.53068   2.53384
  Beta virt. eigenvalues --    2.53906   2.54367   2.54631   2.55286   2.55495
  Beta virt. eigenvalues --    2.55613   2.56648   2.56937   2.57296   2.57576
  Beta virt. eigenvalues --    2.57892   2.58200   2.58691   2.60685   2.60756
  Beta virt. eigenvalues --    2.60788   2.60918   2.61143   2.61310   2.62988
  Beta virt. eigenvalues --    2.63073   2.63220   2.63745   2.63862   2.64123
  Beta virt. eigenvalues --    2.64453   2.65276   2.66182   2.66460   2.67242
  Beta virt. eigenvalues --    2.67693   2.68003   2.68596   2.69315   2.73171
  Beta virt. eigenvalues --    2.74110   2.74369   2.74859   2.75391   2.76117
  Beta virt. eigenvalues --    2.76761   2.77785   2.78545   2.79543   2.79617
  Beta virt. eigenvalues --    2.80297   2.81014   2.81205   2.81571   2.82133
  Beta virt. eigenvalues --    2.83071   2.83192   2.83516   2.84567   2.85562
  Beta virt. eigenvalues --    2.86654   2.87161   2.87669   2.88322   2.89465
  Beta virt. eigenvalues --    2.89660   2.89958   2.93334   2.93572   2.94013
  Beta virt. eigenvalues --    2.94550   2.95480   2.96750   2.97752   3.07800
  Beta virt. eigenvalues --    3.08989   3.09525   3.10635   3.10783   3.12117
  Beta virt. eigenvalues --    3.13566   3.46904   3.47293   3.47677   3.48168
  Beta virt. eigenvalues --    3.48508   3.48956   3.56027   3.65747   3.65813
  Beta virt. eigenvalues --    3.65822   3.65841   3.65884   3.65908   3.66070
  Beta virt. eigenvalues --    3.66199   3.66286   3.66518   3.66951   3.67061
  Beta virt. eigenvalues --    3.67223   3.67348   3.68736   3.68841   3.69151
  Beta virt. eigenvalues --    3.69214   3.69314   3.69321   3.69401   3.70666
  Beta virt. eigenvalues --    3.70806   3.70824   3.70866   3.71089   3.71205
  Beta virt. eigenvalues --    3.71543   3.85021   3.85042   3.85105   3.85327
  Beta virt. eigenvalues --    3.85588   3.86560   3.86645   3.86663   3.86692
  Beta virt. eigenvalues --    3.86787   3.86890   3.87031   3.87962   3.88054
  Beta virt. eigenvalues --    4.06018   4.06085   4.06261   4.06365   4.06437
  Beta virt. eigenvalues --    4.07527   4.07642   4.09030   4.09117   4.09151
  Beta virt. eigenvalues --    4.09306   4.09420   4.10407   4.10577   4.26909
  Beta virt. eigenvalues --    4.27001   4.27207   4.27413   4.27617   4.27909
  Beta virt. eigenvalues --    4.27972   4.29281   4.29515   4.29725   4.29893
  Beta virt. eigenvalues --    4.30127   4.31442   4.32052
          Condensed to atoms (all electrons):
          Atomic-Atomic Spin Densities.
 Mulliken charges and spin densities:
               1          2
     1  C    0.014044  -0.000000
     2  C    0.015676   0.000000
     3  C   -0.015824  -0.000000
     4  C   -0.006104   0.000000
     5  C    0.086223  -0.000000
     6  F   -0.130497  -0.000000
     7  C    0.006691   0.000000
     8  C   -0.167209   0.000000
     9  C    0.127523   0.000000
    10  F   -0.127017  -0.000000
    11  C    0.025063  -0.000000
    12  C   -0.158368   0.000000
    13  S    0.196012  -0.000000
    14  C    0.054464  -0.000000
    15  C   -0.003432   0.000000
    16  C    0.026155   0.000000
    17  C   -0.024087  -0.000000
    18  C    0.120084   0.000000
    19  F   -0.115014  -0.000000
    20  C   -0.011446   0.000000
    21  C   -0.205096   0.000000
    22  C    0.153211  -0.000000
    23  F   -0.113171   0.000000
    24  C    0.014593   0.000000
    25  C   -0.154247  -0.000000
    26  S    0.189314  -0.000000
    27  C    0.054349  -0.000000
    28  C   -0.003341  -0.000000
    29  C    0.025734  -0.000000
    30  C   -0.024075  -0.000000
    31  C    0.120896  -0.000000
    32  F   -0.114387   0.000000
    33  C   -0.011137   0.000000
    34  C   -0.205775   0.000000
    35  C    0.153545   0.000000
    36  F   -0.113149  -0.000000
    37  C    0.013093   0.000000
    38  C   -0.151771   0.000000
    39  S    0.190036  -0.000000
    40  C    0.055753  -0.000000
    41  C    0.005622   0.000000
    42  C   -0.006849  -0.000000
    43  C    0.006356   0.000000
    44  C    0.096746  -0.000000
    45  F   -0.126659  -0.000000
    46  C   -0.000164   0.000000
    47  C   -0.168299  -0.000000
    48  C    0.124172   0.000000
    49  F   -0.126510  -0.000000
    50  C    0.026995  -0.000000
    51  C   -0.155994   0.000000
    52  S    0.197915  -0.000000
    53  C    0.055370  -0.000000
    54  C    0.005169   0.000000
    55  C   -0.004890   0.000000
    56  C    0.006702  -0.000000
    57  C    0.096924   0.000000
    58  F   -0.127288   0.000000
    59  C   -0.001100   0.000000
    60  C   -0.169892  -0.000000
    61  C    0.123332   0.000000
    62  F   -0.126144  -0.000000
    63  C    0.027252  -0.000000
    64  C   -0.155642   0.000000
    65  S    0.200041   0.000000
    66  C    0.054136  -0.000000
    67  C    0.004952  -0.000000
    68  C   -0.006398   0.000000
    69  C    0.006753   0.000000
    70  C    0.096057   0.000000
    71  F   -0.126986  -0.000000
    72  C    0.000050   0.000000
    73  C   -0.168634  -0.000000
    74  C    0.124121  -0.000000
    75  F   -0.126466   0.000000
    76  C    0.026851  -0.000000
    77  C   -0.155286   0.000000
    78  S    0.197259   0.000000
    79  C    0.054232   0.000000
    80  C    0.003877  -0.000000
    81  C   -0.003145   0.000000
    82  C    0.009077  -0.000000
    83  C    0.099818   0.000000
    84  F   -0.127339  -0.000000
    85  C   -0.003091  -0.000000
    86  C   -0.176005   0.000000
    87  C    0.104169   0.000000
    88  F   -0.128725  -0.000000
    89  C    0.043659   0.000000
    90  C   -0.136617  -0.000000
    91  S    0.192779  -0.000000
    92  H    0.013941   0.000000
    93  H    0.009852   0.000000
    94  H    0.016947   0.000000
    95  H    0.023312   0.000000
    96  H    0.021111   0.000000
    97  H    0.013943   0.000000
    98  H    0.011611  -0.000000
    99  H    0.017795   0.000000
   100  H    0.023678  -0.000000
   101  H    0.010749  -0.000000
   102  H    0.012045  -0.000000
   103  H    0.019000   0.000000
   104  H    0.022734  -0.000000
   105  H    0.009341  -0.000000
   106  H    0.019479   0.000000
   107  H    0.018497   0.000000
   108  H    0.021124  -0.000000
   109  H    0.013058  -0.000000
   110  H    0.019640   0.000000
   111  H    0.017250   0.000000
   112  H    0.021251  -0.000000
   113  H    0.013335  -0.000000
   114  H    0.019789   0.000000
   115  H    0.016971   0.000000
   116  H    0.020881  -0.000000
   117  H    0.012436  -0.000000
   118  H    0.019407   0.000000
   119  H    0.016660   0.000000
   120  H    0.023915   0.000000
   121  H    0.050674   0.000000
 Sum of Mulliken charges =  -0.00000  -0.00000
 Mulliken charges and spin densities with hydrogens summed into heavy atoms:
               1          2
     1  C    0.027985  -0.000000
     2  C    0.025527   0.000000
     3  C    0.001122  -0.000000
     4  C   -0.006104   0.000000
     5  C    0.086223  -0.000000
     6  F   -0.130497  -0.000000
     7  C    0.030003   0.000000
     8  C   -0.167209   0.000000
     9  C    0.127523   0.000000
    10  F   -0.127017  -0.000000
    11  C    0.046175  -0.000000
    12  C   -0.158368   0.000000
    13  S    0.196012  -0.000000
    14  C    0.054464  -0.000000
    15  C    0.010511   0.000000
    16  C    0.037767   0.000000
    17  C   -0.024087  -0.000000
    18  C    0.120084   0.000000
    19  F   -0.115014  -0.000000
    20  C    0.006349   0.000000
    21  C   -0.205096   0.000000
    22  C    0.153211  -0.000000
    23  F   -0.113171   0.000000
    24  C    0.038271   0.000000
    25  C   -0.154247  -0.000000
    26  S    0.189314  -0.000000
    27  C    0.054349  -0.000000
    28  C    0.007408  -0.000000
    29  C    0.037779  -0.000000
    30  C   -0.024075  -0.000000
    31  C    0.120896  -0.000000
    32  F   -0.114387   0.000000
    33  C    0.007863   0.000000
    34  C   -0.205775   0.000000
    35  C    0.153545   0.000000
    36  F   -0.113149  -0.000000
    37  C    0.035827   0.000000
    38  C   -0.151771   0.000000
    39  S    0.190036  -0.000000
    40  C    0.055753  -0.000000
    41  C    0.014963   0.000000
    42  C    0.012630  -0.000000
    43  C    0.006356   0.000000
    44  C    0.096746  -0.000000
    45  F   -0.126659  -0.000000
    46  C    0.018333   0.000000
    47  C   -0.168299  -0.000000
    48  C    0.124172   0.000000
    49  F   -0.126510  -0.000000
    50  C    0.048119  -0.000000
    51  C   -0.155994   0.000000
    52  S    0.197915  -0.000000
    53  C    0.055370  -0.000000
    54  C    0.018228  -0.000000
    55  C    0.014749   0.000000
    56  C    0.006702  -0.000000
    57  C    0.096924   0.000000
    58  F   -0.127288   0.000000
    59  C    0.016149   0.000000
    60  C   -0.169892  -0.000000
    61  C    0.123332   0.000000
    62  F   -0.126144  -0.000000
    63  C    0.048503  -0.000000
    64  C   -0.155642   0.000000
    65  S    0.200041   0.000000
    66  C    0.054136  -0.000000
    67  C    0.018287  -0.000000
    68  C    0.013391   0.000000
    69  C    0.006753   0.000000
    70  C    0.096057   0.000000
    71  F   -0.126986  -0.000000
    72  C    0.017021   0.000000
    73  C   -0.168634  -0.000000
    74  C    0.124121  -0.000000
    75  F   -0.126466   0.000000
    76  C    0.047732  -0.000000
    77  C   -0.155286   0.000000
    78  S    0.197259   0.000000
    79  C    0.054232   0.000000
    80  C    0.016312  -0.000000
    81  C    0.016262   0.000000
    82  C    0.009077  -0.000000
    83  C    0.099818   0.000000
    84  F   -0.127339  -0.000000
    85  C    0.013570  -0.000000
    86  C   -0.176005   0.000000
    87  C    0.104169   0.000000
    88  F   -0.128725  -0.000000
    89  C    0.067574   0.000000
    90  C   -0.085943  -0.000000
    91  S    0.192779  -0.000000
 Electronic spatial extent (au):  <R**2>=         630698.8824
 Charge=              0.0000 electrons
 Dipole moment (field-independent basis, Debye):
    X=             -1.7712    Y=              2.1855    Z=             -1.6537  Tot=              3.2632
 Quadrupole moment (field-independent basis, Debye-Ang):
   XX=           -425.0224   YY=           -533.6329   ZZ=           -560.3372
   XY=             44.6929   XZ=            -36.1971   YZ=             -0.1193
 Traceless Quadrupole moment (field-independent basis, Debye-Ang):
   XX=             81.3084   YY=            -27.3020   ZZ=            -54.0064
   XY=             44.6929   XZ=            -36.1971   YZ=             -0.1193
 Octapole moment (field-independent basis, Debye-Ang**2):
  XXX=          -1931.7801  YYY=            132.3523  ZZZ=             29.0720  XYY=            209.7309
  XXY=            938.0896  XXZ=           -192.2478  XZZ=             24.6144  YZZ=            -15.2592
  YYZ=            -20.2669  XYZ=           -194.3843
 Hexadecapole moment (field-independent basis, Debye-Ang**3):
 XXXX=        -648407.6278 YYYY=         -22815.9382 ZZZZ=          -1609.3561 XXXY=          21851.4403
 XXXZ=         -12270.1940 YYYX=           3291.0263 YYYZ=           -229.5369 ZZZX=            710.1472
 ZZZY=             17.8747 XXYY=        -130252.5459 XXZZ=        -139877.2564 YYZZ=          -4457.9865
 XXYZ=          -1879.4905 YYXZ=           -645.4311 ZZXY=           -304.7329
 N-N= 1.333449894339D+04 E-N=-4.284751079817D+04  KE= 6.836880840998D+03
 Leave Link  601 at Sun Jul 26 20:09:28 2020, MaxMem=  4026531840 cpu:              13.5 elap:               2.0
 (Enter /opt/ohpc/pub/libs/gaussian/g16-A.03/sandybridge/g16/l9999.exe)

 Test job not archived.
 1\1\GINC-SKYLAKE032\FOpt\ULC-wPBE\CC-pVDZ\C70H30F14S7\RDU230\26-Jul-20
 20\0\\#P uLC-wPBE/cc-pVDZ iop(3/107=0392200000, 3/108=0392200000) opt\
 \H30 C70 S7 F14\\0,1\C,24.0515095091,6.9843355925,-1.1346043893\C,24.7
 486508141,5.7890033128,-1.0055931505\C,24.0755756574,4.6152663296,-0.7
 023751484\C,22.6874130971,4.5950084528,-0.5143561305\C,22.0261680164,5
 .8141848894,-0.6587614392\F,20.6892200473,5.8543917745,-0.5043480973\C
 ,22.6755568224,6.9958048739,-0.9617976206\C,21.9780542036,3.3500543523
 ,-0.1800402626\C,22.5007983927,2.2022313874,0.3510531487\F,23.79006410
 17,2.0607050627,0.689898043\C,21.5912460357,1.1346209362,0.5247140668\
 C,20.3361111092,1.4768322177,0.1102959859\S,20.2868034131,3.1004426471
 ,-0.4595881726\C,19.1216188146,0.6449386596,0.1331228385\C,18.10449990
 07,0.8143943943,-0.8093800552\C,16.9766217392,0.0110564624,-0.77882615
 39\C,16.815656713,-0.9882056626,0.1831803259\C,17.8390014867,-1.130417
 4972,1.1185162178\F,17.715503659,-2.0472227838,2.0855627993\C,18.97230
 66381,-0.3417385381,1.1074757806\C,15.6183171306,-1.83722723,0.2292168
 997\C,15.5314151421,-3.1899451322,0.3774966538\F,16.597239502,-3.98166
 68218,0.5010911308\C,14.2156862654,-3.7143057539,0.3506867753\C,13.283
 9462585,-2.7319444681,0.1726444034\S,14.0299374504,-1.1805684716,0.059
 5862819\C,11.8212824343,-2.878231535,0.0918113814\C,11.0425454326,-2.0
 075066431,-0.6741547311\C,9.6693113889,-2.1723706521,-0.7477659841\C,9
 .0187054357,-3.2040879446,-0.0679491592\C,9.8162351712,-4.0526040451,0
 .6978771896\F,9.2373623567,-5.0330391613,1.4006604176\C,11.1866689313,
 -3.9079563327,0.7859987581\C,7.5621605594,-3.3796383401,-0.1317496244\
 C,6.8442717183,-4.5214610918,-0.3326170649\F,7.4073959265,-5.715612736
 7,-0.5196666967\C,5.4388808975,-4.3488022253,-0.3714714295\C,5.0854650
 484,-3.040719306,-0.2000203013\S,6.4765484052,-2.0454282925,0.02462124
 46\C,3.7311986165,-2.4658310933,-0.1778712328\C,3.481017793,-1.1596275
 713,-0.6035308196\C,2.1995386404,-0.6366264251,-0.5833242686\C,1.10225
 66986,-1.3869658757,-0.1416578963\C,1.3852818296,-2.6896551299,0.26968
 61617\F,0.3795629978,-3.4713770491,0.7019536485\C,2.6540488988,-3.2308
 890388,0.2651446164\C,-0.2555772386,-0.8262279,-0.1137479521\C,-0.6221
 475296,0.4918594093,-0.1716066587\F,0.2537711034,1.5047206154,-0.23234
 70727\C,-2.0117780447,0.744935078,-0.172149424\C,-2.7298248164,-0.4154
 265879,-0.1160877807\S,-1.6950506992,-1.7886565971,-0.0403752817\C,-4.
 1930159971,-0.5698648997,-0.0947322116\C,-4.8190395589,-1.6999643179,-
 0.6249065551\C,-6.1974072559,-1.8260246049,-0.6044688608\C,-7.02189502
 2,-0.83411156,-0.0584189592\C,-6.3658034071,0.2843243201,0.456276121\F
 ,-7.0942653725,1.2802658836,0.992370832\C,-4.9942777789,0.4302374617,0
 .4529380154\C,-8.4838695278,-0.9754241412,-0.0303496758\C,-9.220592362
 9,-2.1198157395,-0.1804305439\F,-8.679094849,-3.3364289816,-0.33179839
 89\C,-10.6233529819,-1.9557335503,-0.1576554205\C,-10.9692811152,-0.64
 56451743,0.0142131046\S,-9.5770619611,0.3571484921,0.1471763166\C,-12.
 3229094408,-0.0750521372,0.0983062119\C,-12.5938666943,1.066433004,0.8
 558111678\C,-13.875221376,1.5852141116,0.9284751407\C,-14.9513821348,0
 .9943626408,0.2539507195\C,-14.6479509701,-0.1475374752,-0.4878347188\
 F,-15.6326803786,-0.7722118698,-1.1585639976\C,-13.3789326607,-0.67999
 97266,-0.5805990007\C,-16.3087454051,1.5520313591,0.3273080591\C,-16.6
 815592449,2.8068233635,0.7291086319\F,-15.8118532652,3.7577499497,1.09
 80427847\C,-18.0710544618,3.0605927092,0.7454530539\C,-18.7826612391,1
 .9652377313,0.3468342497\S,-17.7412745695,0.657288767,-0.0617567422\C,
 -20.2435151035,1.833036739,0.2279926827\C,-20.8854581636,0.6060541007,
 0.4071941356\C,-22.2617858444,0.5005747922,0.3001901365\C,-23.06739616
 53,1.6090623845,0.0124439616\C,-22.39623267,2.8203964749,-0.1540972103
 \F,-23.1067638303,3.9293066594,-0.4274133571\C,-21.0262112274,2.949985
 4985,-0.0583004665\C,-24.5276515685,1.4905784939,-0.1092635369\C,-25.2
 594412544,0.3549505704,-0.3316908119\F,-24.71289768,-0.8549270059,-0.5
 196662428\C,-26.6650180079,0.5252160829,-0.3557554699\C,-26.994199323,
 1.826805437,-0.1417643113\S,-25.6224241115,2.8222094913,0.0694264069\H
 ,24.5768016277,7.9102022673,-1.374101831\H,25.8302461662,5.7660730626,
 -1.1458090674\H,24.6327273611,3.6850184416,-0.6090578003\H,22.08435920
 63,7.9069452361,-1.0558251618\H,21.8816694499,0.1619978121,0.917003514
 6\H,18.2069123931,1.5677549486,-1.592094224\H,16.1989695357,0.14360714
 35,-1.5333454541\H,19.7175807054,-0.4924411158,1.8884470583\H,13.99449
 23752,-4.7773655754,0.4255317642\H,11.5186560933,-1.2052868727,-1.2403
 175788\H,9.0765149966,-1.494926592,-1.3652219988\H,11.741539752,-4.592
 4663865,1.4276078511\H,4.7420026944,-5.1644650548,-0.554850416\H,4.299
 8914658,-0.5428958468,-0.9778184496\H,2.0374220545,0.3818522839,-0.929
 6018913\H,2.7831724495,-4.2485787679,0.6333124048\H,-2.4346950069,1.74
 54793641,-0.2363936436\H,-4.2206163446,-2.4899564563,-1.0817475348\H,-
 6.6547202783,-2.7153857517,-1.0330035959\H,-4.5692640187,1.326721921,0
 .9041404049\H,-11.3218509855,-2.7866802143,-0.2333528443\H,-11.7930700
 579,1.5496090962,1.4180768437\H,-14.0544607018,2.4705812853,1.53473935
 47\H,-13.2322827325,-1.5591221528,-1.2079772086\H,-18.4995565356,4.008
 58927,1.0644416713\H,-20.3024207026,-0.2824392365,0.6554014281\H,-22.7
 332321048,-0.4681187271,0.4529206955\H,-20.5867929384,3.9320611762,-0.
 2326542211\H,-27.3669183463,-0.2879339309,-0.5284288674\H,-27.99052646
 78,2.2628635249,-0.1109762136\\Version=EM64L-G16RevA.03\State=1-A\HF=-
 6867.2039876\S2=0.\S2-1=0.\S2A=0.\RMSD=6.300e-09\RMSF=9.031e-07\Dipole
 =-0.6908391,0.8322822,-0.6915995\Quadrupole=60.901826,-20.8855967,-40.
 0162293,31.1651892,-28.6760572,-0.8766896\PG=C01 [X(C70H30F14S7)]\\@


 IT IS BY EATING THE LIGHT OF A STAR THAT WE EXIST, 
 IN THE FINAL ANALYSIS, 
 JUST AS IT IS BY PERCEIVING THE LIGHT OF STARS
 THAT WE DEFINE THE WORLD AROUND US.

                                    -- GILBERT GROSVENOR
 Job cpu time:       2 days 13 hours 13 minutes 43.3 seconds.
 Elapsed time:       0 days  7 hours 47 minutes 47.2 seconds.
 File lengths (MBytes):  RWF=   2348 Int=      0 D2E=      0 Chk=    212 Scr=      8
 Normal termination of Gaussian 16 at Sun Jul 26 20:09:29 2020.
