 Entering Gaussian System, Link 0=g16
 Input=mols_55_7_06_CF-COC_opt_0.gjf
 Output=mols_55_7_06_CF-COC_opt_0.log
 Initial command:
 /opt/ohpc/pub/libs/gaussian/g16-A.03/sandybridge/g16/l1.exe "/mnt/gpfs2_4m/scratch/rdu230/ondemand/projects/dihedral_energies/7trial/wtuning/mols_55_7_06_CF-COC/Gau-220031.inp" -scrdir="/mnt/gpfs2_4m/scratch/rdu230/ondemand/projects/dihedral_energies/7trial/wtuning/mols_55_7_06_CF-COC/"
 Entering Link 1 = /opt/ohpc/pub/libs/gaussian/g16-A.03/sandybridge/g16/l1.exe PID=    220047.
  
 Copyright (c) 1988,1990,1992,1993,1995,1998,2003,2009,2016,
            Gaussian, Inc.  All Rights Reserved.
  
 This is part of the Gaussian(R) 16 program.  It is based on
 the Gaussian(R) 09 system (copyright 2009, Gaussian, Inc.),
 the Gaussian(R) 03 system (copyright 2003, Gaussian, Inc.),
 the Gaussian(R) 98 system (copyright 1998, Gaussian, Inc.),
 the Gaussian(R) 94 system (copyright 1995, Gaussian, Inc.),
 the Gaussian 92(TM) system (copyright 1992, Gaussian, Inc.),
 the Gaussian 90(TM) system (copyright 1990, Gaussian, Inc.),
 the Gaussian 88(TM) system (copyright 1988, Gaussian, Inc.),
 the Gaussian 86(TM) system (copyright 1986, Carnegie Mellon
 University), and the Gaussian 82(TM) system (copyright 1983,
 Carnegie Mellon University). Gaussian is a federally registered
 trademark of Gaussian, Inc.
  
 This software contains proprietary and confidential information,
 including trade secrets, belonging to Gaussian, Inc.
  
 This software is provided under written license and may be
 used, copied, transmitted, or stored only in accord with that
 written license.
  
 The following legend is applicable only to US Government
 contracts under FAR:
  
                    RESTRICTED RIGHTS LEGEND
  
 Use, reproduction and disclosure by the US Government is
 subject to restrictions as set forth in subparagraphs (a)
 and (c) of the Commercial Computer Software - Restricted
 Rights clause in FAR 52.227-19.
  
 Gaussian, Inc.
 340 Quinnipiac St., Bldg. 40, Wallingford CT 06492
  
  
 ---------------------------------------------------------------
 Warning -- This program may not be used in any manner that
 competes with the business of Gaussian, Inc. or will provide
 assistance to any competitor of Gaussian, Inc.  The licensee
 of this program is prohibited from giving any competitor of
 Gaussian, Inc. access to this program.  By using this program,
 the user acknowledges that Gaussian, Inc. is engaged in the
 business of creating and licensing software in the field of
 computational chemistry and represents and warrants to the
 licensee that it is not a competitor of Gaussian, Inc. and that
 it will not use this program in any manner prohibited above.
 ---------------------------------------------------------------
  

 Cite this work as:
 Gaussian 16, Revision A.03,
 M. J. Frisch, G. W. Trucks, H. B. Schlegel, G. E. Scuseria, 
 M. A. Robb, J. R. Cheeseman, G. Scalmani, V. Barone, 
 G. A. Petersson, H. Nakatsuji, X. Li, M. Caricato, A. V. Marenich, 
 J. Bloino, B. G. Janesko, R. Gomperts, B. Mennucci, H. P. Hratchian, 
 J. V. Ortiz, A. F. Izmaylov, J. L. Sonnenberg, D. Williams-Young, 
 F. Ding, F. Lipparini, F. Egidi, J. Goings, B. Peng, A. Petrone, 
 T. Henderson, D. Ranasinghe, V. G. Zakrzewski, J. Gao, N. Rega, 
 G. Zheng, W. Liang, M. Hada, M. Ehara, K. Toyota, R. Fukuda, 
 J. Hasegawa, M. Ishida, T. Nakajima, Y. Honda, O. Kitao, H. Nakai, 
 T. Vreven, K. Throssell, J. A. Montgomery, Jr., J. E. Peralta, 
 F. Ogliaro, M. J. Bearpark, J. J. Heyd, E. N. Brothers, K. N. Kudin, 
 V. N. Staroverov, T. A. Keith, R. Kobayashi, J. Normand, 
 K. Raghavachari, A. P. Rendell, J. C. Burant, S. S. Iyengar, 
 J. Tomasi, M. Cossi, J. M. Millam, M. Klene, C. Adamo, R. Cammi, 
 J. W. Ochterski, R. L. Martin, K. Morokuma, O. Farkas, 
 J. B. Foresman, and D. J. Fox, Gaussian, Inc., Wallingford CT, 2016.
 
 ******************************************
 Gaussian 16:  EM64L-G16RevA.03 25-Dec-2016
                24-Jul-2020 
 ******************************************
 %mem=30GB
 %nproc=8
 Will use up to    8 processors via shared memory.
 ---------------------------------------------------------------
 #P uLC-wPBE/cc-pVDZ iop(3/107=0297700000, 3/108=0297700000) opt
 ---------------------------------------------------------------
 1/18=20,19=15,26=3,38=1/1,3;
 2/9=110,12=2,17=6,18=5,40=1/2;
 3/5=16,11=2,25=1,30=1,71=1,74=-41,107=297700000,108=297700000,116=2/1,2,3;
 4//1;
 5/5=2,38=5/2;
 6/7=2,8=2,9=2,10=2,28=1/1;
 7//1,2,3,16;
 1/18=20,19=15,26=3/3(2);
 2/9=110/2;
 99//99;
 2/9=110/2;
 3/5=16,11=2,25=1,30=1,71=1,74=-41,107=297700000,108=297700000,116=2/1,2,3;
 4/5=5,16=3,69=1/1;
 5/5=2,38=5/2;
 7//1,2,3,16;
 1/18=20,19=15,26=3/3(-5);
 2/9=110/2;
 6/7=2,8=2,9=2,10=2,19=2,28=1/1;
 99/9=1/99;
 Leave Link    1 at Fri Jul 24 12:28:09 2020, MaxMem=  4026531840 cpu:               1.9 elap:               0.3
 (Enter /opt/ohpc/pub/libs/gaussian/g16-A.03/sandybridge/g16/l101.exe)
 -----------------
 H37 C63 S14 O7 F7
 -----------------
 Symbolic Z-matrix:
 Charge =  0 Multiplicity = 1
 C                     25.95064  -2.38069  -1.08028 
 C                     25.7651  -2.49406   0.26352 
 C                     24.49589  -1.95576   0.69232 
 F                     24.0782  -2.0708    1.88986 
 C                     23.76549  -1.34998  -0.31011 
 S                     24.70515  -1.44774  -1.78325 
 C                     22.5556  -0.72749  -0.26553 
 C                     22.13692   0.50518  -0.63659 
 O                     23.066    1.34131  -1.25791 
 C                     22.62128   2.63258  -1.5089 
 C                     20.76074   0.80755  -0.42274 
 C                     20.1317  -0.30251   0.14128 
 S                     21.21293  -1.58559   0.4464 
 C                     18.65838  -0.32643   0.47056 
 C                     18.09055  -1.12633   1.47949 
 C                     16.71771  -0.98358   1.56223 
 F                     15.93022  -1.55678   2.45042 
 C                     16.22943   0.02948   0.66606 
 S                     17.54779   0.59602  -0.29168 
 C                     14.81518   0.44032   0.43361 
 C                     14.35086   1.7259    0.1018 
 O                     15.1952   2.70343  -0.1139 
 C                     14.57753   3.92985  -0.47876 
 C                     12.93671   1.7669    0.04436 
 C                     12.38646   0.55541   0.41381 
 S                     13.50052  -0.66264   0.77053 
 C                     10.93065   0.28858   0.55177 
 C                     10.37125  -0.77565   1.29895 
 C                     8.89041  -0.72107   1.24581 
 F                     8.1881   -1.52082   1.90183 
 C                     8.4276    0.41253   0.48748 
 S                     9.69527   1.24471  -0.18965 
 C                     7.05817   0.75602   0.37128 
 C                     6.51074   2.05739   0.08569 
 O                     7.34196   3.06566  -0.0606 
 C                     6.64056   4.39875  -0.14911 
 C                     5.09176   2.02251  -0.02985 
 C                     4.56514   0.68137   0.21474 
 S                     5.75283  -0.4118    0.44383 
 C                     3.18461   0.34187   0.29475 
 C                     2.64159  -0.8374    0.84446 
 C                     1.17692  -0.83297   0.75503 
 F                     0.47633  -1.92428   1.20696 
 C                     0.65889   0.26033   0.09969 
 S                     1.93411   1.31825  -0.34935 
 C                    -0.75719   0.55344  -0.11197 
 C                    -1.44307   1.67778  -0.06202 
 O                    -0.80484   2.88368   0.27472 
 C                    -1.56951   4.11311   0.03117 
 C                    -2.83224   1.51865  -0.26227 
 C                    -3.23797   0.27765  -0.51853 
 S                    -1.82406  -0.8211   -0.45729 
 C                    -4.52729  -0.33386  -0.74943 
 C                    -4.88825  -1.47352  -1.31477 
 C                    -6.25646  -1.63351  -1.3742 
 F                    -6.88613  -2.76019  -1.88831 
 C                    -7.00867  -0.6345   -0.9207 
 S                    -5.92266   0.57613  -0.34008 
 C                    -8.45697  -0.49941  -0.83626 
 C                    -9.25717   0.69299  -0.97988 
 O                    -8.57761   1.84827  -1.31576 
 C                    -9.47414   2.92642  -1.52196 
 C                    -10.63599   0.47262  -0.89547 
 C                    -10.91118  -0.94977  -0.64313 
 S                    -9.47011  -1.75912  -0.4904 
 C                    -12.20593  -1.57027  -0.56403 
 C                    -12.5468  -2.89236  -0.79964 
 C                    -13.8713  -3.08146  -0.70584 
 F                    -14.47163  -4.29736  -1.02051 
 C                    -14.71184  -1.96569  -0.36389 
 S                    -13.59008  -0.66752  -0.0866 
 C                    -16.11621  -1.81155  -0.18485 
 C                    -16.99449  -2.84878   0.24966 
 O                    -16.55444  -4.01158   0.58519 
 C                    -17.49923  -5.14337   0.39812 
 C                    -18.38684  -2.35526   0.25865 
 C                    -18.42047  -1.03482  -0.12992 
 S                    -16.88756  -0.36376  -0.60169 
 C                    -19.66389  -0.15767  -0.14279 
 C                    -19.76791   1.14583  -0.70677 
 C                    -21.06122   1.68053  -0.49643 
 F                    -21.42975   2.85865  -0.83025 
 C                    -21.87974   0.79945   0.15345 
 S                    -21.13886  -0.75491   0.44263 
 C                    -23.23039   1.0358    0.56673 
 C                    -23.71088   2.07223   1.34231 
 O                    -22.81379   3.04271   1.82 
 C                    -23.3673   4.08201   2.60998 
 C                    -25.17989   2.03431   1.53334 
 C                    -25.70314   0.93145   0.89235 
 S                    -24.58204   0.00456   0.06018 
 H                     26.85664  -2.6227   -1.68156 
 H                     26.43973  -3.04841   0.95288 
 H                     23.4513   3.18389  -1.96371 
 H                     22.18641   3.18922  -0.65099 
 H                     21.85099   2.57134  -2.30909 
 H                     20.2414   1.7467   -0.75337 
 H                     18.60536  -1.8469    2.04625 
 H                     14.04545   3.86069  -1.36096 
 H                     15.3971   4.69297  -0.6812 
 H                     14.01087   4.31239   0.29247 
 H                     12.38892   2.57848  -0.25526 
 H                     10.89681  -1.4952    1.81497 
 H                     7.4082    5.12616  -0.22432 
 H                     6.03382   4.54688   0.70854 
 H                     6.02953   4.46844  -1.06177 
 H                     4.49206   2.85725  -0.22594 
 H                     3.16565  -1.64137   1.24756 
 H                    -1.95766   4.15446  -1.02585 
 H                    -0.8735    4.87556   0.19181 
 H                    -2.41131   4.11787   0.76089 
 H                    -3.5279    2.38261  -0.26307 
 H                    -4.20645  -2.29384  -1.62596 
 H                    -8.87948   3.85791  -1.82793 
 H                    -10.02086   3.25119  -0.58117 
 H                    -10.1954   2.78138  -2.29347 
 H                    -11.3793   1.22321  -0.99737 
 H                    -11.76907  -3.58997  -1.07862 
 H                    -18.38382  -5.04722   1.13808 
 H                    -17.86076  -5.11649  -0.57795 
 H                    -16.97425  -6.08993   0.59012 
 H                    -19.19022  -2.98131   0.54652 
 H                    -18.93242   1.62846  -1.12679 
 H                    -22.62871   4.70501   2.88703 
 H                    -24.09393   4.62765   2.05448 
 H                    -23.8655   3.64206   3.55802 
 H                    -25.77522   2.7963    2.09627 
 H                    -26.7596   0.73616   0.86655 
 
 ITRead=  0  0  0  0  0  0  0  0  0  0  0  0  0  0  0  0  0  0  0  0
 ITRead=  0  0  0  0  0  0  0  0  0  0  0  0  0  0  0  0  0  0  0  0
 ITRead=  0  0  0  0  0  0  0  0  0  0  0  0  0  0  0  0  0  0  0  0
 ITRead=  0  0  0  0  0  0  0  0  0  0  0  0  0  0  0  0  0  0  0  0
 ITRead=  0  0  0  0  0  0  0  0  0  0  0  0  0  0  0  0  0  0  0  0
 ITRead=  0  0  0  0  0  0  0  0  0  0  0  0  0  0  0  0  0  0  0  0
 ITRead=  0  0  0  0  0  0  0  0
 MicOpt= -1 -1 -1 -1 -1 -1 -1 -1 -1 -1 -1 -1 -1 -1 -1 -1 -1 -1 -1 -1
 MicOpt= -1 -1 -1 -1 -1 -1 -1 -1 -1 -1 -1 -1 -1 -1 -1 -1 -1 -1 -1 -1
 MicOpt= -1 -1 -1 -1 -1 -1 -1 -1 -1 -1 -1 -1 -1 -1 -1 -1 -1 -1 -1 -1
 MicOpt= -1 -1 -1 -1 -1 -1 -1 -1 -1 -1 -1 -1 -1 -1 -1 -1 -1 -1 -1 -1
 MicOpt= -1 -1 -1 -1 -1 -1 -1 -1 -1 -1 -1 -1 -1 -1 -1 -1 -1 -1 -1 -1
 MicOpt= -1 -1 -1 -1 -1 -1 -1 -1 -1 -1 -1 -1 -1 -1 -1 -1 -1 -1 -1 -1
 MicOpt= -1 -1 -1 -1 -1 -1 -1 -1
 NAtoms=    128 NQM=      128 NQMF=       0 NMMI=      0 NMMIF=      0
                NMic=       0 NMicF=      0.
                    Isotopes and Nuclear Properties:
 (Nuclear quadrupole moments (NQMom) in fm**2, nuclear magnetic moments (NMagM)
  in nuclear magnetons)

  Atom         1           2           3           4           5           6           7           8           9          10
 IAtWgt=          12          12          12          19          12          32          12          12          16          12
 AtmWgt=  12.0000000  12.0000000  12.0000000  18.9984033  12.0000000  31.9720718  12.0000000  12.0000000  15.9949146  12.0000000
 NucSpn=           0           0           0           1           0           0           0           0           0           0
 AtZEff=  -0.0000000  -0.0000000  -0.0000000  -0.0000000  -0.0000000  -0.0000000  -0.0000000  -0.0000000  -0.0000000  -0.0000000
 NQMom=    0.0000000   0.0000000   0.0000000   0.0000000   0.0000000   0.0000000   0.0000000   0.0000000   0.0000000   0.0000000
 NMagM=    0.0000000   0.0000000   0.0000000   2.6288670   0.0000000   0.0000000   0.0000000   0.0000000   0.0000000   0.0000000
 AtZNuc=   6.0000000   6.0000000   6.0000000   9.0000000   6.0000000  16.0000000   6.0000000   6.0000000   8.0000000   6.0000000

  Atom        11          12          13          14          15          16          17          18          19          20
 IAtWgt=          12          12          32          12          12          12          19          12          32          12
 AtmWgt=  12.0000000  12.0000000  31.9720718  12.0000000  12.0000000  12.0000000  18.9984033  12.0000000  31.9720718  12.0000000
 NucSpn=           0           0           0           0           0           0           1           0           0           0
 AtZEff=  -0.0000000  -0.0000000  -0.0000000  -0.0000000  -0.0000000  -0.0000000  -0.0000000  -0.0000000  -0.0000000  -0.0000000
 NQMom=    0.0000000   0.0000000   0.0000000   0.0000000   0.0000000   0.0000000   0.0000000   0.0000000   0.0000000   0.0000000
 NMagM=    0.0000000   0.0000000   0.0000000   0.0000000   0.0000000   0.0000000   2.6288670   0.0000000   0.0000000   0.0000000
 AtZNuc=   6.0000000   6.0000000  16.0000000   6.0000000   6.0000000   6.0000000   9.0000000   6.0000000  16.0000000   6.0000000

  Atom        21          22          23          24          25          26          27          28          29          30
 IAtWgt=          12          16          12          12          12          32          12          12          12          19
 AtmWgt=  12.0000000  15.9949146  12.0000000  12.0000000  12.0000000  31.9720718  12.0000000  12.0000000  12.0000000  18.9984033
 NucSpn=           0           0           0           0           0           0           0           0           0           1
 AtZEff=  -0.0000000  -0.0000000  -0.0000000  -0.0000000  -0.0000000  -0.0000000  -0.0000000  -0.0000000  -0.0000000  -0.0000000
 NQMom=    0.0000000   0.0000000   0.0000000   0.0000000   0.0000000   0.0000000   0.0000000   0.0000000   0.0000000   0.0000000
 NMagM=    0.0000000   0.0000000   0.0000000   0.0000000   0.0000000   0.0000000   0.0000000   0.0000000   0.0000000   2.6288670
 AtZNuc=   6.0000000   8.0000000   6.0000000   6.0000000   6.0000000  16.0000000   6.0000000   6.0000000   6.0000000   9.0000000

  Atom        31          32          33          34          35          36          37          38          39          40
 IAtWgt=          12          32          12          12          16          12          12          12          32          12
 AtmWgt=  12.0000000  31.9720718  12.0000000  12.0000000  15.9949146  12.0000000  12.0000000  12.0000000  31.9720718  12.0000000
 NucSpn=           0           0           0           0           0           0           0           0           0           0
 AtZEff=  -0.0000000  -0.0000000  -0.0000000  -0.0000000  -0.0000000  -0.0000000  -0.0000000  -0.0000000  -0.0000000  -0.0000000
 NQMom=    0.0000000   0.0000000   0.0000000   0.0000000   0.0000000   0.0000000   0.0000000   0.0000000   0.0000000   0.0000000
 NMagM=    0.0000000   0.0000000   0.0000000   0.0000000   0.0000000   0.0000000   0.0000000   0.0000000   0.0000000   0.0000000
 AtZNuc=   6.0000000  16.0000000   6.0000000   6.0000000   8.0000000   6.0000000   6.0000000   6.0000000  16.0000000   6.0000000

  Atom        41          42          43          44          45          46          47          48          49          50
 IAtWgt=          12          12          19          12          32          12          12          16          12          12
 AtmWgt=  12.0000000  12.0000000  18.9984033  12.0000000  31.9720718  12.0000000  12.0000000  15.9949146  12.0000000  12.0000000
 NucSpn=           0           0           1           0           0           0           0           0           0           0
 AtZEff=  -0.0000000  -0.0000000  -0.0000000  -0.0000000  -0.0000000  -0.0000000  -0.0000000  -0.0000000  -0.0000000  -0.0000000
 NQMom=    0.0000000   0.0000000   0.0000000   0.0000000   0.0000000   0.0000000   0.0000000   0.0000000   0.0000000   0.0000000
 NMagM=    0.0000000   0.0000000   2.6288670   0.0000000   0.0000000   0.0000000   0.0000000   0.0000000   0.0000000   0.0000000
 AtZNuc=   6.0000000   6.0000000   9.0000000   6.0000000  16.0000000   6.0000000   6.0000000   8.0000000   6.0000000   6.0000000

  Atom        51          52          53          54          55          56          57          58          59          60
 IAtWgt=          12          32          12          12          12          19          12          32          12          12
 AtmWgt=  12.0000000  31.9720718  12.0000000  12.0000000  12.0000000  18.9984033  12.0000000  31.9720718  12.0000000  12.0000000
 NucSpn=           0           0           0           0           0           1           0           0           0           0
 AtZEff=  -0.0000000  -0.0000000  -0.0000000  -0.0000000  -0.0000000  -0.0000000  -0.0000000  -0.0000000  -0.0000000  -0.0000000
 NQMom=    0.0000000   0.0000000   0.0000000   0.0000000   0.0000000   0.0000000   0.0000000   0.0000000   0.0000000   0.0000000
 NMagM=    0.0000000   0.0000000   0.0000000   0.0000000   0.0000000   2.6288670   0.0000000   0.0000000   0.0000000   0.0000000
 AtZNuc=   6.0000000  16.0000000   6.0000000   6.0000000   6.0000000   9.0000000   6.0000000  16.0000000   6.0000000   6.0000000

  Atom        61          62          63          64          65          66          67          68          69          70
 IAtWgt=          16          12          12          12          32          12          12          12          19          12
 AtmWgt=  15.9949146  12.0000000  12.0000000  12.0000000  31.9720718  12.0000000  12.0000000  12.0000000  18.9984033  12.0000000
 NucSpn=           0           0           0           0           0           0           0           0           1           0
 AtZEff=  -0.0000000  -0.0000000  -0.0000000  -0.0000000  -0.0000000  -0.0000000  -0.0000000  -0.0000000  -0.0000000  -0.0000000
 NQMom=    0.0000000   0.0000000   0.0000000   0.0000000   0.0000000   0.0000000   0.0000000   0.0000000   0.0000000   0.0000000
 NMagM=    0.0000000   0.0000000   0.0000000   0.0000000   0.0000000   0.0000000   0.0000000   0.0000000   2.6288670   0.0000000
 AtZNuc=   8.0000000   6.0000000   6.0000000   6.0000000  16.0000000   6.0000000   6.0000000   6.0000000   9.0000000   6.0000000

  Atom        71          72          73          74          75          76          77          78          79          80
 IAtWgt=          32          12          12          16          12          12          12          32          12          12
 AtmWgt=  31.9720718  12.0000000  12.0000000  15.9949146  12.0000000  12.0000000  12.0000000  31.9720718  12.0000000  12.0000000
 NucSpn=           0           0           0           0           0           0           0           0           0           0
 AtZEff=  -0.0000000  -0.0000000  -0.0000000  -0.0000000  -0.0000000  -0.0000000  -0.0000000  -0.0000000  -0.0000000  -0.0000000
 NQMom=    0.0000000   0.0000000   0.0000000   0.0000000   0.0000000   0.0000000   0.0000000   0.0000000   0.0000000   0.0000000
 NMagM=    0.0000000   0.0000000   0.0000000   0.0000000   0.0000000   0.0000000   0.0000000   0.0000000   0.0000000   0.0000000
 AtZNuc=  16.0000000   6.0000000   6.0000000   8.0000000   6.0000000   6.0000000   6.0000000  16.0000000   6.0000000   6.0000000

  Atom        81          82          83          84          85          86          87          88          89          90
 IAtWgt=          12          19          12          32          12          12          16          12          12          12
 AtmWgt=  12.0000000  18.9984033  12.0000000  31.9720718  12.0000000  12.0000000  15.9949146  12.0000000  12.0000000  12.0000000
 NucSpn=           0           1           0           0           0           0           0           0           0           0
 AtZEff=  -0.0000000  -0.0000000  -0.0000000  -0.0000000  -0.0000000  -0.0000000  -0.0000000  -0.0000000  -0.0000000  -0.0000000
 NQMom=    0.0000000   0.0000000   0.0000000   0.0000000   0.0000000   0.0000000   0.0000000   0.0000000   0.0000000   0.0000000
 NMagM=    0.0000000   2.6288670   0.0000000   0.0000000   0.0000000   0.0000000   0.0000000   0.0000000   0.0000000   0.0000000
 AtZNuc=   6.0000000   9.0000000   6.0000000  16.0000000   6.0000000   6.0000000   8.0000000   6.0000000   6.0000000   6.0000000

  Atom        91          92          93          94          95          96          97          98          99         100
 IAtWgt=          32           1           1           1           1           1           1           1           1           1
 AtmWgt=  31.9720718   1.0078250   1.0078250   1.0078250   1.0078250   1.0078250   1.0078250   1.0078250   1.0078250   1.0078250
 NucSpn=           0           1           1           1           1           1           1           1           1           1
 AtZEff=  -0.0000000  -0.0000000  -0.0000000  -0.0000000  -0.0000000  -0.0000000  -0.0000000  -0.0000000  -0.0000000  -0.0000000
 NQMom=    0.0000000   0.0000000   0.0000000   0.0000000   0.0000000   0.0000000   0.0000000   0.0000000   0.0000000   0.0000000
 NMagM=    0.0000000   2.7928460   2.7928460   2.7928460   2.7928460   2.7928460   2.7928460   2.7928460   2.7928460   2.7928460
 AtZNuc=  16.0000000   1.0000000   1.0000000   1.0000000   1.0000000   1.0000000   1.0000000   1.0000000   1.0000000   1.0000000

  Atom       101         102         103         104         105         106         107         108         109         110
 IAtWgt=           1           1           1           1           1           1           1           1           1           1
 AtmWgt=   1.0078250   1.0078250   1.0078250   1.0078250   1.0078250   1.0078250   1.0078250   1.0078250   1.0078250   1.0078250
 NucSpn=           1           1           1           1           1           1           1           1           1           1
 AtZEff=  -0.0000000  -0.0000000  -0.0000000  -0.0000000  -0.0000000  -0.0000000  -0.0000000  -0.0000000  -0.0000000  -0.0000000
 NQMom=    0.0000000   0.0000000   0.0000000   0.0000000   0.0000000   0.0000000   0.0000000   0.0000000   0.0000000   0.0000000
 NMagM=    2.7928460   2.7928460   2.7928460   2.7928460   2.7928460   2.7928460   2.7928460   2.7928460   2.7928460   2.7928460
 AtZNuc=   1.0000000   1.0000000   1.0000000   1.0000000   1.0000000   1.0000000   1.0000000   1.0000000   1.0000000   1.0000000

  Atom       111         112         113         114         115         116         117         118         119         120
 IAtWgt=           1           1           1           1           1           1           1           1           1           1
 AtmWgt=   1.0078250   1.0078250   1.0078250   1.0078250   1.0078250   1.0078250   1.0078250   1.0078250   1.0078250   1.0078250
 NucSpn=           1           1           1           1           1           1           1           1           1           1
 AtZEff=  -0.0000000  -0.0000000  -0.0000000  -0.0000000  -0.0000000  -0.0000000  -0.0000000  -0.0000000  -0.0000000  -0.0000000
 NQMom=    0.0000000   0.0000000   0.0000000   0.0000000   0.0000000   0.0000000   0.0000000   0.0000000   0.0000000   0.0000000
 NMagM=    2.7928460   2.7928460   2.7928460   2.7928460   2.7928460   2.7928460   2.7928460   2.7928460   2.7928460   2.7928460
 AtZNuc=   1.0000000   1.0000000   1.0000000   1.0000000   1.0000000   1.0000000   1.0000000   1.0000000   1.0000000   1.0000000

  Atom       121         122         123         124         125         126         127         128
 IAtWgt=           1           1           1           1           1           1           1           1
 AtmWgt=   1.0078250   1.0078250   1.0078250   1.0078250   1.0078250   1.0078250   1.0078250   1.0078250
 NucSpn=           1           1           1           1           1           1           1           1
 AtZEff=  -0.0000000  -0.0000000  -0.0000000  -0.0000000  -0.0000000  -0.0000000  -0.0000000  -0.0000000
 NQMom=    0.0000000   0.0000000   0.0000000   0.0000000   0.0000000   0.0000000   0.0000000   0.0000000
 NMagM=    2.7928460   2.7928460   2.7928460   2.7928460   2.7928460   2.7928460   2.7928460   2.7928460
 AtZNuc=   1.0000000   1.0000000   1.0000000   1.0000000   1.0000000   1.0000000   1.0000000   1.0000000
 Leave Link  101 at Fri Jul 24 12:28:09 2020, MaxMem=  4026531840 cpu:               3.2 elap:               0.4
 (Enter /opt/ohpc/pub/libs/gaussian/g16-A.03/sandybridge/g16/l103.exe)

 GradGradGradGradGradGradGradGradGradGradGradGradGradGradGradGradGradGrad
 Berny optimization.
 Initialization pass.
                           ----------------------------
                           !    Initial Parameters    !
                           ! (Angstroms and Degrees)  !
 --------------------------                            --------------------------
 ! Name  Definition              Value          Derivative Info.                !
 --------------------------------------------------------------------------------
 ! R1    R(1,2)                  1.3613         estimate D2E/DX2                !
 ! R2    R(1,6)                  1.7076         estimate D2E/DX2                !
 ! R3    R(1,92)                 1.114          estimate D2E/DX2                !
 ! R4    R(2,3)                  1.4438         estimate D2E/DX2                !
 ! R5    R(2,93)                 1.1125         estimate D2E/DX2                !
 ! R6    R(3,4)                  1.2735         estimate D2E/DX2                !
 ! R7    R(3,5)                  1.3803         estimate D2E/DX2                !
 ! R8    R(5,6)                  1.75           estimate D2E/DX2                !
 ! R9    R(5,7)                  1.3614         estimate D2E/DX2                !
 ! R10   R(7,8)                  1.3537         estimate D2E/DX2                !
 ! R11   R(7,13)                 1.7453         estimate D2E/DX2                !
 ! R12   R(8,9)                  1.3958         estimate D2E/DX2                !
 ! R13   R(8,11)                 1.4251         estimate D2E/DX2                !
 ! R14   R(9,10)                 1.3886         estimate D2E/DX2                !
 ! R15   R(10,94)                1.0953         estimate D2E/DX2                !
 ! R16   R(10,95)                1.1113         estimate D2E/DX2                !
 ! R17   R(10,96)                1.1124         estimate D2E/DX2                !
 ! R18   R(11,12)                1.395          estimate D2E/DX2                !
 ! R19   R(11,97)                1.123          estimate D2E/DX2                !
 ! R20   R(12,13)                1.7054         estimate D2E/DX2                !
 ! R21   R(12,14)                1.5099         estimate D2E/DX2                !
 ! R22   R(14,15)                1.4072         estimate D2E/DX2                !
 ! R23   R(14,19)                1.6326         estimate D2E/DX2                !
 ! R24   R(15,16)                1.3827         estimate D2E/DX2                !
 ! R25   R(15,98)                1.0514         estimate D2E/DX2                !
 ! R26   R(16,17)                1.3182         estimate D2E/DX2                !
 ! R27   R(16,18)                1.438          estimate D2E/DX2                !
 ! R28   R(18,19)                1.7252         estimate D2E/DX2                !
 ! R29   R(18,20)                1.491          estimate D2E/DX2                !
 ! R30   R(20,21)                1.4066         estimate D2E/DX2                !
 ! R31   R(20,26)                1.7488         estimate D2E/DX2                !
 ! R32   R(21,22)                1.3096         estimate D2E/DX2                !
 ! R33   R(21,24)                1.4159         estimate D2E/DX2                !
 ! R34   R(22,23)                1.4208         estimate D2E/DX2                !
 ! R35   R(23,99)                1.0326         estimate D2E/DX2                !
 ! R36   R(23,100)               1.138          estimate D2E/DX2                !
 ! R37   R(23,101)               1.0307         estimate D2E/DX2                !
 ! R38   R(24,25)                1.3809         estimate D2E/DX2                !
 ! R39   R(24,102)               1.024          estimate D2E/DX2                !
 ! R40   R(25,26)                1.6888         estimate D2E/DX2                !
 ! R41   R(25,27)                1.4865         estimate D2E/DX2                !
 ! R42   R(27,28)                1.4155         estimate D2E/DX2                !
 ! R43   R(27,32)                1.7292         estimate D2E/DX2                !
 ! R44   R(28,29)                1.4828         estimate D2E/DX2                !
 ! R45   R(28,103)               1.0297         estimate D2E/DX2                !
 ! R46   R(29,30)                1.2503         estimate D2E/DX2                !
 ! R47   R(29,31)                1.4403         estimate D2E/DX2                !
 ! R48   R(31,32)                1.6607         estimate D2E/DX2                !
 ! R49   R(31,33)                1.4166         estimate D2E/DX2                !
 ! R50   R(33,34)                1.4404         estimate D2E/DX2                !
 ! R51   R(33,39)                1.753          estimate D2E/DX2                !
 ! R52   R(34,35)                1.3149         estimate D2E/DX2                !
 ! R53   R(34,37)                1.4241         estimate D2E/DX2                !
 ! R54   R(35,36)                1.5089         estimate D2E/DX2                !
 ! R55   R(36,104)               1.0602         estimate D2E/DX2                !
 ! R56   R(36,105)               1.061          estimate D2E/DX2                !
 ! R57   R(36,106)               1.1005         estimate D2E/DX2                !
 ! R58   R(37,38)                1.4614         estimate D2E/DX2                !
 ! R59   R(37,107)               1.0464         estimate D2E/DX2                !
 ! R60   R(38,39)                1.6304         estimate D2E/DX2                !
 ! R61   R(38,40)                1.4239         estimate D2E/DX2                !
 ! R62   R(40,41)                1.4099         estimate D2E/DX2                !
 ! R63   R(40,45)                1.7123         estimate D2E/DX2                !
 ! R64   R(41,42)                1.4674         estimate D2E/DX2                !
 ! R65   R(41,108)               1.0409         estimate D2E/DX2                !
 ! R66   R(42,43)                1.3733         estimate D2E/DX2                !
 ! R67   R(42,44)                1.3759         estimate D2E/DX2                !
 ! R68   R(44,45)                1.7167         estimate D2E/DX2                !
 ! R69   R(44,46)                1.4615         estimate D2E/DX2                !
 ! R70   R(46,47)                1.318          estimate D2E/DX2                !
 ! R71   R(46,52)                1.7739         estimate D2E/DX2                !
 ! R72   R(47,48)                1.4053         estimate D2E/DX2                !
 ! R73   R(47,50)                1.4125         estimate D2E/DX2                !
 ! R74   R(48,49)                1.4682         estimate D2E/DX2                !
 ! R75   R(49,109)               1.1268         estimate D2E/DX2                !
 ! R76   R(49,110)               1.0448         estimate D2E/DX2                !
 ! R77   R(49,111)               1.1141         estimate D2E/DX2                !
 ! R78   R(50,51)                1.3305         estimate D2E/DX2                !
 ! R79   R(50,112)               1.1092         estimate D2E/DX2                !
 ! R80   R(51,52)                1.7917         estimate D2E/DX2                !
 ! R81   R(51,53)                1.4456         estimate D2E/DX2                !
 ! R82   R(53,54)                1.3224         estimate D2E/DX2                !
 ! R83   R(53,58)                1.7154         estimate D2E/DX2                !
 ! R84   R(54,55)                1.3788         estimate D2E/DX2                !
 ! R85   R(54,113)               1.1111         estimate D2E/DX2                !
 ! R86   R(55,56)                1.3893         estimate D2E/DX2                !
 ! R87   R(55,57)                1.3302         estimate D2E/DX2                !
 ! R88   R(57,58)                1.7269         estimate D2E/DX2                !
 ! R89   R(57,59)                1.457          estimate D2E/DX2                !
 ! R90   R(59,60)                1.4432         estimate D2E/DX2                !
 ! R91   R(59,65)                1.6532         estimate D2E/DX2                !
 ! R92   R(60,61)                1.3818         estimate D2E/DX2                !
 ! R93   R(60,63)                1.3989         estimate D2E/DX2                !
 ! R94   R(61,62)                1.4173         estimate D2E/DX2                !
 ! R95   R(62,114)               1.1467         estimate D2E/DX2                !
 ! R96   R(62,115)               1.1355         estimate D2E/DX2                !
 ! R97   R(62,116)               1.0661         estimate D2E/DX2                !
 ! R98   R(63,64)                1.4706         estimate D2E/DX2                !
 ! R99   R(63,117)               1.0613         estimate D2E/DX2                !
 ! R100  R(64,65)                1.6598         estimate D2E/DX2                !
 ! R101  R(64,66)                1.4379         estimate D2E/DX2                !
 ! R102  R(66,67)                1.3855         estimate D2E/DX2                !
 ! R103  R(66,71)                1.7201         estimate D2E/DX2                !
 ! R104  R(67,68)                1.3412         estimate D2E/DX2                !
 ! R105  R(67,118)               1.0814         estimate D2E/DX2                !
 ! R106  R(68,69)                1.3921         estimate D2E/DX2                !
 ! R107  R(68,70)                1.4382         estimate D2E/DX2                !
 ! R108  R(70,71)                1.7379         estimate D2E/DX2                !
 ! R109  R(70,72)                1.4241         estimate D2E/DX2                !
 ! R110  R(72,73)                1.4269         estimate D2E/DX2                !
 ! R111  R(72,78)                1.6926         estimate D2E/DX2                !
 ! R112  R(73,74)                1.2878         estimate D2E/DX2                !
 ! R113  R(73,76)                1.4773         estimate D2E/DX2                !
 ! R114  R(74,75)                1.4861         estimate D2E/DX2                !
 ! R115  R(75,119)               1.1573         estimate D2E/DX2                !
 ! R116  R(75,120)               1.0412         estimate D2E/DX2                !
 ! R117  R(75,121)               1.0993         estimate D2E/DX2                !
 ! R118  R(76,77)                1.3768         estimate D2E/DX2                !
 ! R119  R(76,122)               1.0584         estimate D2E/DX2                !
 ! R120  R(77,78)                1.7386         estimate D2E/DX2                !
 ! R121  R(77,79)                1.5217         estimate D2E/DX2                !
 ! R122  R(79,80)                1.4241         estimate D2E/DX2                !
 ! R123  R(79,84)                1.6956         estimate D2E/DX2                !
 ! R124  R(80,81)                1.4152         estimate D2E/DX2                !
 ! R125  R(80,123)               1.0523         estimate D2E/DX2                !
 ! R126  R(81,82)                1.2788         estimate D2E/DX2                !
 ! R127  R(81,83)                1.367          estimate D2E/DX2                !
 ! R128  R(83,84)                1.746          estimate D2E/DX2                !
 ! R129  R(83,85)                1.4321         estimate D2E/DX2                !
 ! R130  R(85,86)                1.3808         estimate D2E/DX2                !
 ! R131  R(85,91)                1.774          estimate D2E/DX2                !
 ! R132  R(86,87)                1.4053         estimate D2E/DX2                !
 ! R133  R(86,89)                1.4819         estimate D2E/DX2                !
 ! R134  R(87,88)                1.4179         estimate D2E/DX2                !
 ! R135  R(88,124)               1.0052         estimate D2E/DX2                !
 ! R136  R(88,125)               1.065          estimate D2E/DX2                !
 ! R137  R(88,126)               1.1578         estimate D2E/DX2                !
 ! R138  R(89,90)                1.3788         estimate D2E/DX2                !
 ! R139  R(89,127)               1.1189         estimate D2E/DX2                !
 ! R140  R(90,91)                1.6759         estimate D2E/DX2                !
 ! R141  R(90,128)               1.0747         estimate D2E/DX2                !
 ! A1    A(2,1,6)              110.6391         estimate D2E/DX2                !
 ! A2    A(2,1,92)             128.7252         estimate D2E/DX2                !
 ! A3    A(6,1,92)             119.3215         estimate D2E/DX2                !
 ! A4    A(1,2,3)              112.4542         estimate D2E/DX2                !
 ! A5    A(1,2,93)             124.7877         estimate D2E/DX2                !
 ! A6    A(3,2,93)             122.3332         estimate D2E/DX2                !
 ! A7    A(2,3,4)              122.2708         estimate D2E/DX2                !
 ! A8    A(2,3,5)              114.4002         estimate D2E/DX2                !
 ! A9    A(4,3,5)              123.2986         estimate D2E/DX2                !
 ! A10   A(3,5,6)              107.6189         estimate D2E/DX2                !
 ! A11   A(3,5,7)              130.3279         estimate D2E/DX2                !
 ! A12   A(6,5,7)              122.0257         estimate D2E/DX2                !
 ! A13   A(1,6,5)               94.3366         estimate D2E/DX2                !
 ! A14   A(5,7,8)              133.022          estimate D2E/DX2                !
 ! A15   A(5,7,13)             118.1812         estimate D2E/DX2                !
 ! A16   A(8,7,13)             108.7591         estimate D2E/DX2                !
 ! A17   A(7,8,9)              117.4916         estimate D2E/DX2                !
 ! A18   A(7,8,11)             116.7908         estimate D2E/DX2                !
 ! A19   A(9,8,11)             125.6225         estimate D2E/DX2                !
 ! A20   A(8,9,10)             115.1081         estimate D2E/DX2                !
 ! A21   A(9,10,94)            107.4828         estimate D2E/DX2                !
 ! A22   A(9,10,95)            116.8455         estimate D2E/DX2                !
 ! A23   A(9,10,96)            107.494          estimate D2E/DX2                !
 ! A24   A(94,10,95)           111.406          estimate D2E/DX2                !
 ! A25   A(94,10,96)           104.6997         estimate D2E/DX2                !
 ! A26   A(95,10,96)           108.1753         estimate D2E/DX2                !
 ! A27   A(8,11,12)            109.103          estimate D2E/DX2                !
 ! A28   A(8,11,97)            125.4396         estimate D2E/DX2                !
 ! A29   A(12,11,97)           125.1692         estimate D2E/DX2                !
 ! A30   A(11,12,13)           112.652          estimate D2E/DX2                !
 ! A31   A(11,12,14)           122.7375         estimate D2E/DX2                !
 ! A32   A(13,12,14)           124.5912         estimate D2E/DX2                !
 ! A33   A(7,13,12)             92.5708         estimate D2E/DX2                !
 ! A34   A(12,14,15)           123.9953         estimate D2E/DX2                !
 ! A35   A(12,14,19)           123.5754         estimate D2E/DX2                !
 ! A36   A(15,14,19)           112.4218         estimate D2E/DX2                !
 ! A37   A(14,15,16)           112.6348         estimate D2E/DX2                !
 ! A38   A(14,15,98)           125.3432         estimate D2E/DX2                !
 ! A39   A(16,15,98)           121.6436         estimate D2E/DX2                !
 ! A40   A(15,16,17)           126.0554         estimate D2E/DX2                !
 ! A41   A(15,16,18)           111.8741         estimate D2E/DX2                !
 ! A42   A(17,16,18)           121.5616         estimate D2E/DX2                !
 ! A43   A(16,18,19)           108.5322         estimate D2E/DX2                !
 ! A44   A(16,18,20)           127.834          estimate D2E/DX2                !
 ! A45   A(19,18,20)           123.2184         estimate D2E/DX2                !
 ! A46   A(14,19,18)            94.3076         estimate D2E/DX2                !
 ! A47   A(18,20,21)           126.9963         estimate D2E/DX2                !
 ! A48   A(18,20,26)           120.6136         estimate D2E/DX2                !
 ! A49   A(21,20,26)           111.946          estimate D2E/DX2                !
 ! A50   A(20,21,22)           120.548          estimate D2E/DX2                !
 ! A51   A(20,21,24)           111.4531         estimate D2E/DX2                !
 ! A52   A(22,21,24)           127.9986         estimate D2E/DX2                !
 ! A53   A(21,22,23)           113.9738         estimate D2E/DX2                !
 ! A54   A(22,23,99)           112.6817         estimate D2E/DX2                !
 ! A55   A(22,23,100)          108.1455         estimate D2E/DX2                !
 ! A56   A(22,23,101)          111.5454         estimate D2E/DX2                !
 ! A57   A(99,23,100)          105.31           estimate D2E/DX2                !
 ! A58   A(99,23,101)          112.3875         estimate D2E/DX2                !
 ! A59   A(100,23,101)         106.271          estimate D2E/DX2                !
 ! A60   A(21,24,25)           111.2051         estimate D2E/DX2                !
 ! A61   A(21,24,102)          124.6894         estimate D2E/DX2                !
 ! A62   A(25,24,102)          124.0869         estimate D2E/DX2                !
 ! A63   A(24,25,26)           115.2399         estimate D2E/DX2                !
 ! A64   A(24,25,27)           124.9285         estimate D2E/DX2                !
 ! A65   A(26,25,27)           119.8012         estimate D2E/DX2                !
 ! A66   A(20,26,25)            90.0187         estimate D2E/DX2                !
 ! A67   A(25,27,28)           124.8182         estimate D2E/DX2                !
 ! A68   A(25,27,32)           124.1            estimate D2E/DX2                !
 ! A69   A(28,27,32)           111.0817         estimate D2E/DX2                !
 ! A70   A(27,28,29)           110.3695         estimate D2E/DX2                !
 ! A71   A(27,28,103)          126.0289         estimate D2E/DX2                !
 ! A72   A(29,28,103)          123.6015         estimate D2E/DX2                !
 ! A73   A(28,29,30)           121.2409         estimate D2E/DX2                !
 ! A74   A(28,29,31)           111.6388         estimate D2E/DX2                !
 ! A75   A(30,29,31)           126.8146         estimate D2E/DX2                !
 ! A76   A(29,31,32)           111.3339         estimate D2E/DX2                !
 ! A77   A(29,31,33)           123.002          estimate D2E/DX2                !
 ! A78   A(32,31,33)           125.6582         estimate D2E/DX2                !
 ! A79   A(27,32,31)            95.3616         estimate D2E/DX2                !
 ! A80   A(31,33,34)           127.0647         estimate D2E/DX2                !
 ! A81   A(31,33,39)           123.7042         estimate D2E/DX2                !
 ! A82   A(34,33,39)           109.0917         estimate D2E/DX2                !
 ! A83   A(33,34,35)           118.3324         estimate D2E/DX2                !
 ! A84   A(33,34,37)           111.8787         estimate D2E/DX2                !
 ! A85   A(35,34,37)           129.7653         estimate D2E/DX2                !
 ! A86   A(34,35,36)           112.9621         estimate D2E/DX2                !
 ! A87   A(35,36,104)          105.8876         estimate D2E/DX2                !
 ! A88   A(35,36,105)          109.9838         estimate D2E/DX2                !
 ! A89   A(35,36,106)          111.2642         estimate D2E/DX2                !
 ! A90   A(104,36,105)         112.0623         estimate D2E/DX2                !
 ! A91   A(104,36,106)         107.4415         estimate D2E/DX2                !
 ! A92   A(105,36,106)         110.1211         estimate D2E/DX2                !
 ! A93   A(34,37,38)           111.5891         estimate D2E/DX2                !
 ! A94   A(34,37,107)          124.523          estimate D2E/DX2                !
 ! A95   A(38,37,107)          123.8427         estimate D2E/DX2                !
 ! A96   A(37,38,39)           112.1063         estimate D2E/DX2                !
 ! A97   A(37,38,40)           125.2799         estimate D2E/DX2                !
 ! A98   A(39,38,40)           122.5828         estimate D2E/DX2                !
 ! A99   A(33,39,38)            95.1608         estimate D2E/DX2                !
 ! A100  A(38,40,41)           126.4955         estimate D2E/DX2                !
 ! A101  A(38,40,45)           123.4334         estimate D2E/DX2                !
 ! A102  A(41,40,45)           110.0194         estimate D2E/DX2                !
 ! A103  A(40,41,42)           110.9867         estimate D2E/DX2                !
 ! A104  A(40,41,108)          127.0942         estimate D2E/DX2                !
 ! A105  A(42,41,108)          121.9009         estimate D2E/DX2                !
 ! A106  A(41,42,43)           119.1267         estimate D2E/DX2                !
 ! A107  A(41,42,44)           114.0303         estimate D2E/DX2                !
 ! A108  A(43,42,44)           126.5907         estimate D2E/DX2                !
 ! A109  A(42,44,45)           109.5476         estimate D2E/DX2                !
 ! A110  A(42,44,46)           126.3795         estimate D2E/DX2                !
 ! A111  A(45,44,46)           123.9367         estimate D2E/DX2                !
 ! A112  A(40,45,44)            95.3192         estimate D2E/DX2                !
 ! A113  A(44,46,47)           132.0535         estimate D2E/DX2                !
 ! A114  A(44,46,52)           117.0983         estimate D2E/DX2                !
 ! A115  A(47,46,52)           110.8189         estimate D2E/DX2                !
 ! A116  A(46,47,48)           120.3158         estimate D2E/DX2                !
 ! A117  A(46,47,50)           114.2249         estimate D2E/DX2                !
 ! A118  A(48,47,50)           125.2598         estimate D2E/DX2                !
 ! A119  A(47,48,49)           116.2492         estimate D2E/DX2                !
 ! A120  A(48,49,109)          111.4544         estimate D2E/DX2                !
 ! A121  A(48,49,110)          103.8058         estimate D2E/DX2                !
 ! A122  A(48,49,111)          106.7661         estimate D2E/DX2                !
 ! A123  A(109,49,110)         110.2998         estimate D2E/DX2                !
 ! A124  A(109,49,111)         110.7325         estimate D2E/DX2                !
 ! A125  A(110,49,111)         113.5493         estimate D2E/DX2                !
 ! A126  A(47,50,51)           115.6117         estimate D2E/DX2                !
 ! A127  A(47,50,112)          121.9479         estimate D2E/DX2                !
 ! A128  A(51,50,112)          122.3498         estimate D2E/DX2                !
 ! A129  A(50,51,52)           108.9507         estimate D2E/DX2                !
 ! A130  A(50,51,53)           134.2105         estimate D2E/DX2                !
 ! A131  A(52,51,53)           116.7374         estimate D2E/DX2                !
 ! A132  A(46,52,51)            90.3484         estimate D2E/DX2                !
 ! A133  A(51,53,54)           132.5565         estimate D2E/DX2                !
 ! A134  A(51,53,58)           117.5801         estimate D2E/DX2                !
 ! A135  A(54,53,58)           109.7039         estimate D2E/DX2                !
 ! A136  A(53,54,55)           112.9101         estimate D2E/DX2                !
 ! A137  A(53,54,113)          126.0505         estimate D2E/DX2                !
 ! A138  A(55,54,113)          120.7406         estimate D2E/DX2                !
 ! A139  A(54,55,56)           124.0409         estimate D2E/DX2                !
 ! A140  A(54,55,57)           117.3411         estimate D2E/DX2                !
 ! A141  A(56,55,57)           118.6142         estimate D2E/DX2                !
 ! A142  A(55,57,58)           106.5889         estimate D2E/DX2                !
 ! A143  A(55,57,59)           130.6529         estimate D2E/DX2                !
 ! A144  A(58,57,59)           122.7258         estimate D2E/DX2                !
 ! A145  A(53,58,57)            93.4066         estimate D2E/DX2                !
 ! A146  A(57,59,60)           128.4612         estimate D2E/DX2                !
 ! A147  A(57,59,65)           123.4114         estimate D2E/DX2                !
 ! A148  A(60,59,65)           108.0958         estimate D2E/DX2                !
 ! A149  A(59,60,61)           116.2507         estimate D2E/DX2                !
 ! A150  A(59,60,63)           114.2275         estimate D2E/DX2                !
 ! A151  A(61,60,63)           129.134          estimate D2E/DX2                !
 ! A152  A(60,61,62)           111.118          estimate D2E/DX2                !
 ! A153  A(61,62,114)          109.1922         estimate D2E/DX2                !
 ! A154  A(61,62,115)          113.6777         estimate D2E/DX2                !
 ! A155  A(61,62,116)          115.4533         estimate D2E/DX2                !
 ! A156  A(114,62,115)         103.7925         estimate D2E/DX2                !
 ! A157  A(114,62,116)         105.5612         estimate D2E/DX2                !
 ! A158  A(115,62,116)         108.2247         estimate D2E/DX2                !
 ! A159  A(60,63,64)           110.3147         estimate D2E/DX2                !
 ! A160  A(60,63,117)          124.9709         estimate D2E/DX2                !
 ! A161  A(64,63,117)          124.7144         estimate D2E/DX2                !
 ! A162  A(63,64,65)           108.9624         estimate D2E/DX2                !
 ! A163  A(63,64,66)           126.5356         estimate D2E/DX2                !
 ! A164  A(65,64,66)           124.4907         estimate D2E/DX2                !
 ! A165  A(59,65,64)            98.1211         estimate D2E/DX2                !
 ! A166  A(64,66,67)           128.6049         estimate D2E/DX2                !
 ! A167  A(64,66,71)           120.8873         estimate D2E/DX2                !
 ! A168  A(67,66,71)           110.489          estimate D2E/DX2                !
 ! A169  A(66,67,68)           111.4449         estimate D2E/DX2                !
 ! A170  A(66,67,118)          118.8502         estimate D2E/DX2                !
 ! A171  A(68,67,118)          129.5931         estimate D2E/DX2                !
 ! A172  A(67,68,69)           122.2232         estimate D2E/DX2                !
 ! A173  A(67,68,70)           118.9732         estimate D2E/DX2                !
 ! A174  A(69,68,70)           118.643          estimate D2E/DX2                !
 ! A175  A(68,70,71)           103.8989         estimate D2E/DX2                !
 ! A176  A(68,70,72)           133.6464         estimate D2E/DX2                !
 ! A177  A(71,70,72)           122.3847         estimate D2E/DX2                !
 ! A178  A(66,71,70)            94.7658         estimate D2E/DX2                !
 ! A179  A(70,72,73)           124.5135         estimate D2E/DX2                !
 ! A180  A(70,72,78)           120.7325         estimate D2E/DX2                !
 ! A181  A(73,72,78)           114.5991         estimate D2E/DX2                !
 ! A182  A(72,73,74)           121.6942         estimate D2E/DX2                !
 ! A183  A(72,73,76)           109.8254         estimate D2E/DX2                !
 ! A184  A(74,73,76)           128.4732         estimate D2E/DX2                !
 ! A185  A(73,74,75)           115.9527         estimate D2E/DX2                !
 ! A186  A(74,75,119)          110.0097         estimate D2E/DX2                !
 ! A187  A(74,75,120)          108.6073         estimate D2E/DX2                !
 ! A188  A(74,75,121)          109.2787         estimate D2E/DX2                !
 ! A189  A(119,75,120)         109.3809         estimate D2E/DX2                !
 ! A190  A(119,75,121)         108.9599         estimate D2E/DX2                !
 ! A191  A(120,75,121)         110.596          estimate D2E/DX2                !
 ! A192  A(73,76,77)           109.9804         estimate D2E/DX2                !
 ! A193  A(73,76,122)          121.297          estimate D2E/DX2                !
 ! A194  A(77,76,122)          128.7178         estimate D2E/DX2                !
 ! A195  A(76,77,78)           115.164          estimate D2E/DX2                !
 ! A196  A(76,77,79)           125.1108         estimate D2E/DX2                !
 ! A197  A(78,77,79)           119.7132         estimate D2E/DX2                !
 ! A198  A(72,78,77)            90.2766         estimate D2E/DX2                !
 ! A199  A(77,79,80)           126.203          estimate D2E/DX2                !
 ! A200  A(77,79,84)           120.3208         estimate D2E/DX2                !
 ! A201  A(80,79,84)           113.304          estimate D2E/DX2                !
 ! A202  A(79,80,81)           110.7152         estimate D2E/DX2                !
 ! A203  A(79,80,123)          121.3239         estimate D2E/DX2                !
 ! A204  A(81,80,123)          127.7055         estimate D2E/DX2                !
 ! A205  A(80,81,82)           124.936          estimate D2E/DX2                !
 ! A206  A(80,81,83)           111.9835         estimate D2E/DX2                !
 ! A207  A(82,81,83)           123.05           estimate D2E/DX2                !
 ! A208  A(81,83,84)           113.4819         estimate D2E/DX2                !
 ! A209  A(81,83,85)           126.5512         estimate D2E/DX2                !
 ! A210  A(84,83,85)           119.9553         estimate D2E/DX2                !
 ! A211  A(79,84,83)            89.9062         estimate D2E/DX2                !
 ! A212  A(83,85,86)           127.8913         estimate D2E/DX2                !
 ! A213  A(83,85,91)           122.701          estimate D2E/DX2                !
 ! A214  A(86,85,91)           109.3649         estimate D2E/DX2                !
 ! A215  A(85,86,87)           119.1542         estimate D2E/DX2                !
 ! A216  A(85,86,89)           113.4636         estimate D2E/DX2                !
 ! A217  A(87,86,89)           127.3502         estimate D2E/DX2                !
 ! A218  A(86,87,88)           116.5111         estimate D2E/DX2                !
 ! A219  A(87,88,124)          108.7241         estimate D2E/DX2                !
 ! A220  A(87,88,125)          110.564          estimate D2E/DX2                !
 ! A221  A(87,88,126)          110.2213         estimate D2E/DX2                !
 ! A222  A(124,88,125)         109.1196         estimate D2E/DX2                !
 ! A223  A(124,88,126)         109.0253         estimate D2E/DX2                !
 ! A224  A(125,88,126)         109.1581         estimate D2E/DX2                !
 ! A225  A(86,89,90)           109.6793         estimate D2E/DX2                !
 ! A226  A(86,89,127)          125.0913         estimate D2E/DX2                !
 ! A227  A(90,89,127)          125.2201         estimate D2E/DX2                !
 ! A228  A(89,90,91)           114.7957         estimate D2E/DX2                !
 ! A229  A(89,90,128)          121.9783         estimate D2E/DX2                !
 ! A230  A(91,90,128)          123.0391         estimate D2E/DX2                !
 ! A231  A(85,91,90)            92.66           estimate D2E/DX2                !
 ! D1    D(6,1,2,3)              7.6049         estimate D2E/DX2                !
 ! D2    D(6,1,2,93)          -179.7536         estimate D2E/DX2                !
 ! D3    D(92,1,2,3)           174.2075         estimate D2E/DX2                !
 ! D4    D(92,1,2,93)          -13.1509         estimate D2E/DX2                !
 ! D5    D(2,1,6,5)             -7.0178         estimate D2E/DX2                !
 ! D6    D(92,1,6,5)          -175.0521         estimate D2E/DX2                !
 ! D7    D(1,2,3,4)            173.6126         estimate D2E/DX2                !
 ! D8    D(1,2,3,5)             -4.4407         estimate D2E/DX2                !
 ! D9    D(93,2,3,4)             0.7637         estimate D2E/DX2                !
 ! D10   D(93,2,3,5)          -177.2896         estimate D2E/DX2                !
 ! D11   D(2,3,5,6)             -0.8081         estimate D2E/DX2                !
 ! D12   D(2,3,5,7)           -178.8879         estimate D2E/DX2                !
 ! D13   D(4,3,5,6)           -178.8387         estimate D2E/DX2                !
 ! D14   D(4,3,5,7)              3.0814         estimate D2E/DX2                !
 ! D15   D(3,5,6,1)              4.3763         estimate D2E/DX2                !
 ! D16   D(7,5,6,1)           -177.3502         estimate D2E/DX2                !
 ! D17   D(3,5,7,8)            125.1419         estimate D2E/DX2                !
 ! D18   D(3,5,7,13)           -52.3401         estimate D2E/DX2                !
 ! D19   D(6,5,7,8)            -52.6994         estimate D2E/DX2                !
 ! D20   D(6,5,7,13)           129.8185         estimate D2E/DX2                !
 ! D21   D(5,7,8,9)              3.7148         estimate D2E/DX2                !
 ! D22   D(5,7,8,11)          -179.6291         estimate D2E/DX2                !
 ! D23   D(13,7,8,9)          -178.6291         estimate D2E/DX2                !
 ! D24   D(13,7,8,11)           -1.973          estimate D2E/DX2                !
 ! D25   D(5,7,13,12)         -178.9731         estimate D2E/DX2                !
 ! D26   D(8,7,13,12)            2.9707         estimate D2E/DX2                !
 ! D27   D(7,8,9,10)          -174.4692         estimate D2E/DX2                !
 ! D28   D(11,8,9,10)            9.2033         estimate D2E/DX2                !
 ! D29   D(7,8,11,12)           -0.4354         estimate D2E/DX2                !
 ! D30   D(7,8,11,97)         -174.5171         estimate D2E/DX2                !
 ! D31   D(9,8,11,12)          175.915          estimate D2E/DX2                !
 ! D32   D(9,8,11,97)            1.8334         estimate D2E/DX2                !
 ! D33   D(8,9,10,94)          178.1909         estimate D2E/DX2                !
 ! D34   D(8,9,10,95)           52.1553         estimate D2E/DX2                !
 ! D35   D(8,9,10,96)          -69.5858         estimate D2E/DX2                !
 ! D36   D(8,11,12,13)           2.7511         estimate D2E/DX2                !
 ! D37   D(8,11,12,14)        -178.7824         estimate D2E/DX2                !
 ! D38   D(97,11,12,13)        176.8525         estimate D2E/DX2                !
 ! D39   D(97,11,12,14)         -4.6809         estimate D2E/DX2                !
 ! D40   D(11,12,13,7)          -3.3577         estimate D2E/DX2                !
 ! D41   D(14,12,13,7)         178.2092         estimate D2E/DX2                !
 ! D42   D(11,12,14,15)       -153.0748         estimate D2E/DX2                !
 ! D43   D(11,12,14,19)         25.8478         estimate D2E/DX2                !
 ! D44   D(13,12,14,15)         25.2061         estimate D2E/DX2                !
 ! D45   D(13,12,14,19)       -155.8713         estimate D2E/DX2                !
 ! D46   D(12,14,15,16)       -178.8129         estimate D2E/DX2                !
 ! D47   D(12,14,15,98)         -5.8116         estimate D2E/DX2                !
 ! D48   D(19,14,15,16)          2.1581         estimate D2E/DX2                !
 ! D49   D(19,14,15,98)        175.1595         estimate D2E/DX2                !
 ! D50   D(12,14,19,18)       -178.2605         estimate D2E/DX2                !
 ! D51   D(15,14,19,18)          0.7732         estimate D2E/DX2                !
 ! D52   D(14,15,16,17)       -176.5615         estimate D2E/DX2                !
 ! D53   D(14,15,16,18)         -4.6959         estimate D2E/DX2                !
 ! D54   D(98,15,16,17)         10.1428         estimate D2E/DX2                !
 ! D55   D(98,15,16,18)       -177.9915         estimate D2E/DX2                !
 ! D56   D(15,16,18,19)          5.0596         estimate D2E/DX2                !
 ! D57   D(15,16,18,20)        177.7714         estimate D2E/DX2                !
 ! D58   D(17,16,18,19)        177.3443         estimate D2E/DX2                !
 ! D59   D(17,16,18,20)         -9.9439         estimate D2E/DX2                !
 ! D60   D(16,18,19,14)         -3.3138         estimate D2E/DX2                !
 ! D61   D(20,18,19,14)       -176.4353         estimate D2E/DX2                !
 ! D62   D(16,18,20,21)        147.8233         estimate D2E/DX2                !
 ! D63   D(16,18,20,26)        -23.8888         estimate D2E/DX2                !
 ! D64   D(19,18,20,21)        -40.4431         estimate D2E/DX2                !
 ! D65   D(19,18,20,26)        147.8448         estimate D2E/DX2                !
 ! D66   D(18,20,21,22)          4.0982         estimate D2E/DX2                !
 ! D67   D(18,20,21,24)       -176.0732         estimate D2E/DX2                !
 ! D68   D(26,20,21,22)        176.412          estimate D2E/DX2                !
 ! D69   D(26,20,21,24)         -3.7594         estimate D2E/DX2                !
 ! D70   D(18,20,26,25)        174.9297         estimate D2E/DX2                !
 ! D71   D(21,20,26,25)          2.0597         estimate D2E/DX2                !
 ! D72   D(20,21,22,23)        178.1592         estimate D2E/DX2                !
 ! D73   D(24,21,22,23)         -1.6384         estimate D2E/DX2                !
 ! D74   D(20,21,24,25)          3.8828         estimate D2E/DX2                !
 ! D75   D(20,21,24,102)      -174.6012         estimate D2E/DX2                !
 ! D76   D(22,21,24,25)       -176.3046         estimate D2E/DX2                !
 ! D77   D(22,21,24,102)         5.2114         estimate D2E/DX2                !
 ! D78   D(21,22,23,99)        -61.8152         estimate D2E/DX2                !
 ! D79   D(21,22,23,100)      -177.7991         estimate D2E/DX2                !
 ! D80   D(21,22,23,101)        65.6886         estimate D2E/DX2                !
 ! D81   D(21,24,25,26)         -2.3942         estimate D2E/DX2                !
 ! D82   D(21,24,25,27)        175.5888         estimate D2E/DX2                !
 ! D83   D(102,24,25,26)       176.1007         estimate D2E/DX2                !
 ! D84   D(102,24,25,27)        -5.9164         estimate D2E/DX2                !
 ! D85   D(24,25,26,20)          0.2079         estimate D2E/DX2                !
 ! D86   D(27,25,26,20)       -177.8864         estimate D2E/DX2                !
 ! D87   D(24,25,27,28)       -159.7126         estimate D2E/DX2                !
 ! D88   D(24,25,27,32)         20.4464         estimate D2E/DX2                !
 ! D89   D(26,25,27,28)         18.1849         estimate D2E/DX2                !
 ! D90   D(26,25,27,32)       -161.6562         estimate D2E/DX2                !
 ! D91   D(25,27,28,29)        178.6022         estimate D2E/DX2                !
 ! D92   D(25,27,28,103)        -1.2874         estimate D2E/DX2                !
 ! D93   D(32,27,28,29)         -1.5389         estimate D2E/DX2                !
 ! D94   D(32,27,28,103)       178.5715         estimate D2E/DX2                !
 ! D95   D(25,27,32,31)       -176.5912         estimate D2E/DX2                !
 ! D96   D(28,27,32,31)          3.5487         estimate D2E/DX2                !
 ! D97   D(27,28,29,30)       -175.7383         estimate D2E/DX2                !
 ! D98   D(27,28,29,31)         -1.6756         estimate D2E/DX2                !
 ! D99   D(103,28,29,30)         4.1545         estimate D2E/DX2                !
 ! D100  D(103,28,29,31)       178.2171         estimate D2E/DX2                !
 ! D101  D(28,29,31,32)          4.2849         estimate D2E/DX2                !
 ! D102  D(28,29,31,33)       -174.8681         estimate D2E/DX2                !
 ! D103  D(30,29,31,32)        177.9425         estimate D2E/DX2                !
 ! D104  D(30,29,31,33)         -1.2105         estimate D2E/DX2                !
 ! D105  D(29,31,32,27)         -4.4992         estimate D2E/DX2                !
 ! D106  D(33,31,32,27)        174.6265         estimate D2E/DX2                !
 ! D107  D(29,31,33,34)        155.5817         estimate D2E/DX2                !
 ! D108  D(29,31,33,39)        -29.1878         estimate D2E/DX2                !
 ! D109  D(32,31,33,34)        -23.4472         estimate D2E/DX2                !
 ! D110  D(32,31,33,39)        151.7832         estimate D2E/DX2                !
 ! D111  D(31,33,34,35)         -1.6065         estimate D2E/DX2                !
 ! D112  D(31,33,34,37)        176.7972         estimate D2E/DX2                !
 ! D113  D(39,33,34,35)       -177.4088         estimate D2E/DX2                !
 ! D114  D(39,33,34,37)          0.9949         estimate D2E/DX2                !
 ! D115  D(31,33,39,38)       -178.9224         estimate D2E/DX2                !
 ! D116  D(34,33,39,38)         -2.9485         estimate D2E/DX2                !
 ! D117  D(33,34,35,36)       -171.3828         estimate D2E/DX2                !
 ! D118  D(37,34,35,36)         10.5444         estimate D2E/DX2                !
 ! D119  D(33,34,37,38)          1.8188         estimate D2E/DX2                !
 ! D120  D(33,34,37,107)       179.4489         estimate D2E/DX2                !
 ! D121  D(35,34,37,38)        179.9909         estimate D2E/DX2                !
 ! D122  D(35,34,37,107)        -2.3791         estimate D2E/DX2                !
 ! D123  D(34,35,36,104)       177.7596         estimate D2E/DX2                !
 ! D124  D(34,35,36,105)        56.4906         estimate D2E/DX2                !
 ! D125  D(34,35,36,106)       -65.8063         estimate D2E/DX2                !
 ! D126  D(34,37,38,39)         -4.0869         estimate D2E/DX2                !
 ! D127  D(34,37,38,40)        173.9264         estimate D2E/DX2                !
 ! D128  D(107,37,38,39)       178.264          estimate D2E/DX2                !
 ! D129  D(107,37,38,40)        -3.7227         estimate D2E/DX2                !
 ! D130  D(37,38,39,33)          4.0288         estimate D2E/DX2                !
 ! D131  D(40,38,39,33)       -174.0465         estimate D2E/DX2                !
 ! D132  D(37,38,40,41)       -163.1589         estimate D2E/DX2                !
 ! D133  D(37,38,40,45)         19.7223         estimate D2E/DX2                !
 ! D134  D(39,38,40,41)         14.6565         estimate D2E/DX2                !
 ! D135  D(39,38,40,45)       -162.4623         estimate D2E/DX2                !
 ! D136  D(38,40,41,42)        179.7613         estimate D2E/DX2                !
 ! D137  D(38,40,41,108)        -1.7796         estimate D2E/DX2                !
 ! D138  D(45,40,41,42)         -2.7976         estimate D2E/DX2                !
 ! D139  D(45,40,41,108)       175.6615         estimate D2E/DX2                !
 ! D140  D(38,40,45,44)        178.8234         estimate D2E/DX2                !
 ! D141  D(41,40,45,44)          1.2883         estimate D2E/DX2                !
 ! D142  D(40,41,42,43)        178.0757         estimate D2E/DX2                !
 ! D143  D(40,41,42,44)          3.4667         estimate D2E/DX2                !
 ! D144  D(108,41,42,43)        -0.4766         estimate D2E/DX2                !
 ! D145  D(108,41,42,44)      -175.0855         estimate D2E/DX2                !
 ! D146  D(41,42,44,45)         -2.4485         estimate D2E/DX2                !
 ! D147  D(41,42,44,46)       -178.3188         estimate D2E/DX2                !
 ! D148  D(43,42,44,45)       -176.5817         estimate D2E/DX2                !
 ! D149  D(43,42,44,46)          7.5481         estimate D2E/DX2                !
 ! D150  D(42,44,45,40)          0.682          estimate D2E/DX2                !
 ! D151  D(46,44,45,40)        176.6747         estimate D2E/DX2                !
 ! D152  D(42,44,46,47)        140.074          estimate D2E/DX2                !
 ! D153  D(42,44,46,52)        -37.7467         estimate D2E/DX2                !
 ! D154  D(45,44,46,47)        -35.2341         estimate D2E/DX2                !
 ! D155  D(45,44,46,52)        146.9453         estimate D2E/DX2                !
 ! D156  D(44,46,47,48)         -1.5472         estimate D2E/DX2                !
 ! D157  D(44,46,47,50)       -176.6795         estimate D2E/DX2                !
 ! D158  D(52,46,47,48)        176.3772         estimate D2E/DX2                !
 ! D159  D(52,46,47,50)          1.2448         estimate D2E/DX2                !
 ! D160  D(44,46,52,51)        178.2412         estimate D2E/DX2                !
 ! D161  D(47,46,52,51)         -0.0277         estimate D2E/DX2                !
 ! D162  D(46,47,48,49)        167.4941         estimate D2E/DX2                !
 ! D163  D(50,47,48,49)        -17.9439         estimate D2E/DX2                !
 ! D164  D(46,47,50,51)         -2.3507         estimate D2E/DX2                !
 ! D165  D(46,47,50,112)      -178.965          estimate D2E/DX2                !
 ! D166  D(48,47,50,51)       -177.2038         estimate D2E/DX2                !
 ! D167  D(48,47,50,112)         6.1819         estimate D2E/DX2                !
 ! D168  D(47,48,49,109)       -52.2105         estimate D2E/DX2                !
 ! D169  D(47,48,49,110)      -170.9234         estimate D2E/DX2                !
 ! D170  D(47,48,49,111)        68.8301         estimate D2E/DX2                !
 ! D171  D(47,50,51,52)          2.191          estimate D2E/DX2                !
 ! D172  D(47,50,51,53)        178.2803         estimate D2E/DX2                !
 ! D173  D(112,50,51,52)       178.7904         estimate D2E/DX2                !
 ! D174  D(112,50,51,53)        -5.1204         estimate D2E/DX2                !
 ! D175  D(50,51,52,46)         -1.2251         estimate D2E/DX2                !
 ! D176  D(53,51,52,46)       -178.0872         estimate D2E/DX2                !
 ! D177  D(50,51,53,54)        160.528          estimate D2E/DX2                !
 ! D178  D(50,51,53,58)        -14.3393         estimate D2E/DX2                !
 ! D179  D(52,51,53,54)        -23.614          estimate D2E/DX2                !
 ! D180  D(52,51,53,58)        161.5186         estimate D2E/DX2                !
 ! D181  D(51,53,54,55)       -177.3112         estimate D2E/DX2                !
 ! D182  D(51,53,54,113)         8.9733         estimate D2E/DX2                !
 ! D183  D(58,53,54,55)         -2.1428         estimate D2E/DX2                !
 ! D184  D(58,53,54,113)      -175.8583         estimate D2E/DX2                !
 ! D185  D(51,53,58,57)        177.1054         estimate D2E/DX2                !
 ! D186  D(54,53,58,57)          1.1192         estimate D2E/DX2                !
 ! D187  D(53,54,55,56)       -178.1905         estimate D2E/DX2                !
 ! D188  D(53,54,55,57)          2.5259         estimate D2E/DX2                !
 ! D189  D(113,54,55,56)        -4.1007         estimate D2E/DX2                !
 ! D190  D(113,54,55,57)       176.6157         estimate D2E/DX2                !
 ! D191  D(54,55,57,58)         -1.5416         estimate D2E/DX2                !
 ! D192  D(54,55,57,59)       -179.4709         estimate D2E/DX2                !
 ! D193  D(56,55,57,58)        179.1347         estimate D2E/DX2                !
 ! D194  D(56,55,57,59)          1.2053         estimate D2E/DX2                !
 ! D195  D(55,57,58,53)          0.2216         estimate D2E/DX2                !
 ! D196  D(59,57,58,53)        178.3543         estimate D2E/DX2                !
 ! D197  D(55,57,59,60)       -146.4179         estimate D2E/DX2                !
 ! D198  D(55,57,59,65)         35.8785         estimate D2E/DX2                !
 ! D199  D(58,57,59,60)         35.9412         estimate D2E/DX2                !
 ! D200  D(58,57,59,65)       -141.7624         estimate D2E/DX2                !
 ! D201  D(57,59,60,61)          4.039          estimate D2E/DX2                !
 ! D202  D(57,59,60,63)        177.553          estimate D2E/DX2                !
 ! D203  D(65,59,60,61)       -177.9775         estimate D2E/DX2                !
 ! D204  D(65,59,60,63)         -4.4636         estimate D2E/DX2                !
 ! D205  D(57,59,65,64)       -176.8071         estimate D2E/DX2                !
 ! D206  D(60,59,65,64)          5.0845         estimate D2E/DX2                !
 ! D207  D(59,60,61,62)        175.8041         estimate D2E/DX2                !
 ! D208  D(63,60,61,62)          3.4357         estimate D2E/DX2                !
 ! D209  D(59,60,63,64)          1.4134         estimate D2E/DX2                !
 ! D210  D(59,60,63,117)      -178.6601         estimate D2E/DX2                !
 ! D211  D(61,60,63,64)        173.9085         estimate D2E/DX2                !
 ! D212  D(61,60,63,117)        -6.165          estimate D2E/DX2                !
 ! D213  D(60,61,62,114)      -178.3668         estimate D2E/DX2                !
 ! D214  D(60,61,62,115)        66.2749         estimate D2E/DX2                !
 ! D215  D(60,61,62,116)       -59.6637         estimate D2E/DX2                !
 ! D216  D(60,63,64,65)          2.2777         estimate D2E/DX2                !
 ! D217  D(60,63,64,66)       -176.5374         estimate D2E/DX2                !
 ! D218  D(117,63,64,65)      -177.649          estimate D2E/DX2                !
 ! D219  D(117,63,64,66)         3.5359         estimate D2E/DX2                !
 ! D220  D(63,64,65,59)         -4.3734         estimate D2E/DX2                !
 ! D221  D(66,64,65,59)        174.4715         estimate D2E/DX2                !
 ! D222  D(63,64,66,67)        154.8495         estimate D2E/DX2                !
 ! D223  D(63,64,66,71)        -26.8825         estimate D2E/DX2                !
 ! D224  D(65,64,66,67)        -23.7909         estimate D2E/DX2                !
 ! D225  D(65,64,66,71)        154.4772         estimate D2E/DX2                !
 ! D226  D(64,66,67,68)       -176.2052         estimate D2E/DX2                !
 ! D227  D(64,66,67,118)         0.3151         estimate D2E/DX2                !
 ! D228  D(71,66,67,68)          5.3814         estimate D2E/DX2                !
 ! D229  D(71,66,67,118)      -178.0982         estimate D2E/DX2                !
 ! D230  D(64,66,71,70)        175.095          estimate D2E/DX2                !
 ! D231  D(67,66,71,70)         -6.3497         estimate D2E/DX2                !
 ! D232  D(66,67,68,69)        173.9804         estimate D2E/DX2                !
 ! D233  D(66,67,68,70)         -1.3482         estimate D2E/DX2                !
 ! D234  D(118,67,68,69)        -2.0638         estimate D2E/DX2                !
 ! D235  D(118,67,68,70)      -177.3924         estimate D2E/DX2                !
 ! D236  D(67,68,70,71)         -3.1855         estimate D2E/DX2                !
 ! D237  D(67,68,70,72)        179.9211         estimate D2E/DX2                !
 ! D238  D(69,68,70,71)       -178.6829         estimate D2E/DX2                !
 ! D239  D(69,68,70,72)          4.4237         estimate D2E/DX2                !
 ! D240  D(68,70,71,66)          5.182          estimate D2E/DX2                !
 ! D241  D(72,70,71,66)       -177.4796         estimate D2E/DX2                !
 ! D242  D(68,70,72,73)         28.7231         estimate D2E/DX2                !
 ! D243  D(68,70,72,78)       -146.5033         estimate D2E/DX2                !
 ! D244  D(71,70,72,73)       -147.7053         estimate D2E/DX2                !
 ! D245  D(71,70,72,78)         37.0683         estimate D2E/DX2                !
 ! D246  D(70,72,73,74)          3.7081         estimate D2E/DX2                !
 ! D247  D(70,72,73,76)       -177.1927         estimate D2E/DX2                !
 ! D248  D(78,72,73,74)        179.196          estimate D2E/DX2                !
 ! D249  D(78,72,73,76)         -1.7049         estimate D2E/DX2                !
 ! D250  D(70,72,78,77)        178.7555         estimate D2E/DX2                !
 ! D251  D(73,72,78,77)          3.0806         estimate D2E/DX2                !
 ! D252  D(72,73,74,75)       -152.183          estimate D2E/DX2                !
 ! D253  D(76,73,74,75)         28.8994         estimate D2E/DX2                !
 ! D254  D(72,73,76,77)         -1.146          estimate D2E/DX2                !
 ! D255  D(72,73,76,122)       179.5826         estimate D2E/DX2                !
 ! D256  D(74,73,76,77)        177.875          estimate D2E/DX2                !
 ! D257  D(74,73,76,122)        -1.3965         estimate D2E/DX2                !
 ! D258  D(73,74,75,119)       -67.7895         estimate D2E/DX2                !
 ! D259  D(73,74,75,120)        51.8967         estimate D2E/DX2                !
 ! D260  D(73,74,75,121)       172.6266         estimate D2E/DX2                !
 ! D261  D(73,76,77,78)          3.509          estimate D2E/DX2                !
 ! D262  D(73,76,77,79)       -175.2226         estimate D2E/DX2                !
 ! D263  D(122,76,77,78)      -177.2888         estimate D2E/DX2                !
 ! D264  D(122,76,77,79)         3.9796         estimate D2E/DX2                !
 ! D265  D(76,77,78,72)         -3.8648         estimate D2E/DX2                !
 ! D266  D(79,77,78,72)        174.9405         estimate D2E/DX2                !
 ! D267  D(76,77,79,80)       -170.8324         estimate D2E/DX2                !
 ! D268  D(76,77,79,84)          4.0676         estimate D2E/DX2                !
 ! D269  D(78,77,79,80)         10.4895         estimate D2E/DX2                !
 ! D270  D(78,77,79,84)       -174.6106         estimate D2E/DX2                !
 ! D271  D(77,79,80,81)       -178.0721         estimate D2E/DX2                !
 ! D272  D(77,79,80,123)        -3.4522         estimate D2E/DX2                !
 ! D273  D(84,79,80,81)          6.7206         estimate D2E/DX2                !
 ! D274  D(84,79,80,123)      -178.6595         estimate D2E/DX2                !
 ! D275  D(77,79,84,83)        177.0914         estimate D2E/DX2                !
 ! D276  D(80,79,84,83)         -7.3882         estimate D2E/DX2                !
[...]
  Beta virt. eigenvalues --    2.01471   2.01705   2.02522   2.02944   2.03304
  Beta virt. eigenvalues --    2.04595   2.04803   2.05404   2.05609   2.05963
  Beta virt. eigenvalues --    2.06124   2.06601   2.07329   2.07760   2.08033
  Beta virt. eigenvalues --    2.08093   2.08256   2.08270   2.08912   2.09110
  Beta virt. eigenvalues --    2.09335   2.09778   2.10207   2.10256   2.10483
  Beta virt. eigenvalues --    2.11030   2.11101   2.11408   2.11782   2.12130
  Beta virt. eigenvalues --    2.12398   2.13028   2.13505   2.13772   2.14010
  Beta virt. eigenvalues --    2.14252   2.14459   2.14469   2.14581   2.14620
  Beta virt. eigenvalues --    2.14672   2.14811   2.14981   2.15118   2.15251
  Beta virt. eigenvalues --    2.15678   2.15949   2.16530   2.16938   2.17540
  Beta virt. eigenvalues --    2.17704   2.17898   2.17997   2.18243   2.18473
  Beta virt. eigenvalues --    2.19239   2.19637   2.19813   2.19910   2.19995
  Beta virt. eigenvalues --    2.20161   2.20316   2.21106   2.21265   2.21651
  Beta virt. eigenvalues --    2.21774   2.22158   2.22564   2.22812   2.26038
  Beta virt. eigenvalues --    2.26599   2.26749   2.26909   2.27055   2.27335
  Beta virt. eigenvalues --    2.27880   2.28302   2.29246   2.29769   2.30417
  Beta virt. eigenvalues --    2.31123   2.31720   2.33324   2.33717   2.34066
  Beta virt. eigenvalues --    2.34443   2.34561   2.34889   2.35205   2.35808
  Beta virt. eigenvalues --    2.36067   2.36408   2.36667   2.36804   2.37570
  Beta virt. eigenvalues --    2.38163   2.39255   2.43312   2.44395   2.44472
  Beta virt. eigenvalues --    2.44761   2.45065   2.45140   2.45167   2.45202
  Beta virt. eigenvalues --    2.45245   2.45393   2.45483   2.45534   2.45689
  Beta virt. eigenvalues --    2.46488   2.48046   2.48430   2.48718   2.48795
  Beta virt. eigenvalues --    2.49103   2.49397   2.49786   2.50580   2.50809
  Beta virt. eigenvalues --    2.50944   2.51009   2.51155   2.51283   2.51408
  Beta virt. eigenvalues --    2.51519   2.52301   2.52561   2.52804   2.53062
  Beta virt. eigenvalues --    2.53229   2.53349   2.53624   2.53786   2.54162
  Beta virt. eigenvalues --    2.54287   2.54473   2.54902   2.55091   2.55595
  Beta virt. eigenvalues --    2.57336   2.57804   2.57948   2.58192   2.58534
  Beta virt. eigenvalues --    2.58966   2.59323   2.60574   2.61096   2.61595
  Beta virt. eigenvalues --    2.61987   2.62119   2.62319   2.62431   2.63002
  Beta virt. eigenvalues --    2.63267   2.63587   2.63869   2.64146   2.64767
  Beta virt. eigenvalues --    2.66219   2.68451   2.68998   2.69309   2.69489
  Beta virt. eigenvalues --    2.69623   2.69709   2.93635   2.93676   2.93739
  Beta virt. eigenvalues --    2.93836   2.94147   2.95194   2.95443   2.98006
  Beta virt. eigenvalues --    2.99285   2.99337   2.99437   2.99487   2.99656
  Beta virt. eigenvalues --    3.00091   3.01295   3.01670   3.02097   3.02466
  Beta virt. eigenvalues --    3.02871   3.05481   3.07187   3.07245   3.07294
  Beta virt. eigenvalues --    3.07395   3.07710   3.07756   3.08522   3.08593
  Beta virt. eigenvalues --    3.09744   3.09852   3.09971   3.10077   3.10242
  Beta virt. eigenvalues --    3.10243   3.10696   3.41354   3.41419   3.41474
  Beta virt. eigenvalues --    3.41567   3.41845   3.41940   3.42343   3.49547
  Beta virt. eigenvalues --    3.49620   3.49693   3.49780   3.49998   3.50402
  Beta virt. eigenvalues --    3.50493   3.62090   3.62169   3.62226   3.62332
  Beta virt. eigenvalues --    3.62609   3.63316   3.63331   3.65000   3.65098
  Beta virt. eigenvalues --    3.65195   3.65292   3.65352   3.65420   3.65532
  Beta virt. eigenvalues --    3.82203   3.82276   3.82334   3.82431   3.82624
  Beta virt. eigenvalues --    3.83779   3.83809   4.01691   4.01737   4.01808
  Beta virt. eigenvalues --    4.01866   4.01957   4.03229   4.03383   4.22673
  Beta virt. eigenvalues --    4.22983   4.23085   4.23171   4.23278   4.24068
  Beta virt. eigenvalues --    4.24200
          Condensed to atoms (all electrons):
          Atomic-Atomic Spin Densities.
 Mulliken charges and spin densities:
               1          2
     1  C   -0.135388  -0.000000
     2  C    0.059841   0.000000
     3  C    0.091683   0.000000
     4  F   -0.128124  -0.000000
     5  C   -0.139432  -0.000000
     6  S    0.181731   0.000000
     7  C   -0.144488   0.000000
     8  C    0.150507  -0.000000
     9  O   -0.256530   0.000000
    10  C    0.056684   0.000000
    11  C    0.008206  -0.000000
    12  C   -0.123536  -0.000000
    13  S    0.185509  -0.000000
    14  C   -0.128096  -0.000000
    15  C    0.043737  -0.000000
    16  C    0.109645   0.000000
    17  F   -0.124320  -0.000000
    18  C   -0.127626  -0.000000
    19  S    0.184757   0.000000
    20  C   -0.154269  -0.000000
    21  C    0.148055   0.000000
    22  O   -0.256942   0.000000
    23  C    0.057170  -0.000000
    24  C    0.009667  -0.000000
    25  C   -0.121970   0.000000
    26  S    0.187962  -0.000000
    27  C   -0.129548   0.000000
    28  C    0.043900  -0.000000
    29  C    0.109873  -0.000000
    30  F   -0.123938  -0.000000
    31  C   -0.127095   0.000000
    32  S    0.185111  -0.000000
    33  C   -0.154600  -0.000000
    34  C    0.148273   0.000000
    35  O   -0.257071   0.000000
    36  C    0.057107   0.000000
    37  C    0.009694  -0.000000
    38  C   -0.121684   0.000000
    39  S    0.188321  -0.000000
    40  C   -0.129693  -0.000000
    41  C    0.043969   0.000000
    42  C    0.109893   0.000000
    43  F   -0.123874  -0.000000
    44  C   -0.126985  -0.000000
    45  S    0.185427  -0.000000
    46  C   -0.154531   0.000000
    47  C    0.148321  -0.000000
    48  O   -0.257123  -0.000000
    49  C    0.057037   0.000000
    50  C    0.009716   0.000000
    51  C   -0.121646   0.000000
    52  S    0.188327   0.000000
    53  C   -0.129386  -0.000000
    54  C    0.043940  -0.000000
    55  C    0.110073   0.000000
    56  F   -0.123814   0.000000
    57  C   -0.127028  -0.000000
    58  S    0.185790   0.000000
    59  C   -0.154088   0.000000
    60  C    0.147957   0.000000
    61  O   -0.257081   0.000000
    62  C    0.056492   0.000000
    63  C    0.010931   0.000000
    64  C   -0.122286  -0.000000
    65  S    0.189477  -0.000000
    66  C   -0.121621   0.000000
    67  C    0.024952  -0.000000
    68  C    0.144806  -0.000000
    69  F   -0.110149   0.000000
    70  C   -0.167601   0.000000
    71  S    0.182264  -0.000000
    72  C   -0.183148  -0.000000
    73  C    0.174240   0.000000
    74  O   -0.232417   0.000000
    75  C    0.051116  -0.000000
    76  C   -0.004861  -0.000000
    77  C   -0.115457   0.000000
    78  S    0.184199  -0.000000
    79  C   -0.124944  -0.000000
    80  C    0.024327   0.000000
    81  C    0.145669  -0.000000
    82  F   -0.111824   0.000000
    83  C   -0.157147  -0.000000
    84  S    0.184119  -0.000000
    85  C   -0.198900   0.000000
    86  C    0.160123  -0.000000
    87  O   -0.232807   0.000000
    88  C    0.051107   0.000000
    89  C    0.008534   0.000000
    90  C   -0.126276  -0.000000
    91  S    0.177728   0.000000
    92  H    0.033078   0.000000
    93  H    0.007169   0.000000
    94  H    0.058147   0.000000
    95  H    0.049293  -0.000000
    96  H    0.047627  -0.000000
    97  H    0.002032   0.000000
    98  H    0.010950   0.000000
    99  H    0.049014   0.000000
   100  H    0.057445   0.000000
   101  H    0.049660   0.000000
   102  H    0.002516   0.000000
   103  H    0.011441  -0.000000
   104  H    0.057440  -0.000000
   105  H    0.049728  -0.000000
   106  H    0.049389   0.000000
   107  H    0.002702  -0.000000
   108  H    0.011518   0.000000
   109  H    0.051095   0.000000
   110  H    0.057514  -0.000000
   111  H    0.048433  -0.000000
   112  H    0.003042   0.000000
   113  H    0.011911   0.000000
   114  H    0.057622   0.000000
   115  H    0.050874  -0.000000
   116  H    0.050292  -0.000000
   117  H    0.003709  -0.000000
   118  H    0.012886   0.000000
   119  H    0.046389  -0.000000
   120  H    0.048606   0.000000
   121  H    0.058745   0.000000
   122  H    0.006013  -0.000000
   123  H    0.010386  -0.000000
   124  H    0.057238   0.000000
   125  H    0.046299   0.000000
   126  H    0.044476  -0.000000
   127  H    0.004283  -0.000000
   128  H    0.032421   0.000000
 Sum of Mulliken charges =  -0.00000   0.00000
 Mulliken charges and spin densities with hydrogens summed into heavy atoms:
               1          2
     1  C   -0.102310  -0.000000
     2  C    0.067010   0.000000
     3  C    0.091683   0.000000
     4  F   -0.128124  -0.000000
     5  C   -0.139432  -0.000000
     6  S    0.181731   0.000000
     7  C   -0.144488   0.000000
     8  C    0.150507  -0.000000
     9  O   -0.256530   0.000000
    10  C    0.211750  -0.000000
    11  C    0.010238   0.000000
    12  C   -0.123536  -0.000000
    13  S    0.185509  -0.000000
    14  C   -0.128096  -0.000000
    15  C    0.054687   0.000000
    16  C    0.109645   0.000000
    17  F   -0.124320  -0.000000
    18  C   -0.127626  -0.000000
    19  S    0.184757   0.000000
    20  C   -0.154269  -0.000000
    21  C    0.148055   0.000000
    22  O   -0.256942   0.000000
    23  C    0.213288  -0.000000
    24  C    0.012184  -0.000000
    25  C   -0.121970   0.000000
    26  S    0.187962  -0.000000
    27  C   -0.129548   0.000000
    28  C    0.055340  -0.000000
    29  C    0.109873  -0.000000
    30  F   -0.123938  -0.000000
    31  C   -0.127095   0.000000
    32  S    0.185111  -0.000000
    33  C   -0.154600  -0.000000
    34  C    0.148273   0.000000
    35  O   -0.257071   0.000000
    36  C    0.213663   0.000000
    37  C    0.012396  -0.000000
    38  C   -0.121684   0.000000
    39  S    0.188321  -0.000000
    40  C   -0.129693  -0.000000
    41  C    0.055487   0.000000
    42  C    0.109893   0.000000
    43  F   -0.123874  -0.000000
    44  C   -0.126985  -0.000000
    45  S    0.185427  -0.000000
    46  C   -0.154531   0.000000
    47  C    0.148321  -0.000000
    48  O   -0.257123  -0.000000
    49  C    0.214079   0.000000
    50  C    0.012757   0.000000
    51  C   -0.121646   0.000000
    52  S    0.188327   0.000000
    53  C   -0.129386  -0.000000
    54  C    0.055851  -0.000000
    55  C    0.110073   0.000000
    56  F   -0.123814   0.000000
    57  C   -0.127028  -0.000000
    58  S    0.185790   0.000000
    59  C   -0.154088   0.000000
    60  C    0.147957   0.000000
    61  O   -0.257081   0.000000
    62  C    0.215279   0.000000
    63  C    0.014640   0.000000
    64  C   -0.122286  -0.000000
    65  S    0.189477  -0.000000
    66  C   -0.121621   0.000000
    67  C    0.037838  -0.000000
    68  C    0.144806  -0.000000
    69  F   -0.110149   0.000000
    70  C   -0.167601   0.000000
    71  S    0.182264  -0.000000
    72  C   -0.183148  -0.000000
    73  C    0.174240   0.000000
    74  O   -0.232417   0.000000
    75  C    0.204856   0.000000
    76  C    0.001152  -0.000000
    77  C   -0.115457   0.000000
    78  S    0.184199  -0.000000
    79  C   -0.124944  -0.000000
    80  C    0.034713   0.000000
    81  C    0.145669  -0.000000
    82  F   -0.111824   0.000000
    83  C   -0.157147  -0.000000
    84  S    0.184119  -0.000000
    85  C   -0.198900   0.000000
    86  C    0.160123  -0.000000
    87  O   -0.232807   0.000000
    88  C    0.199120  -0.000000
    89  C    0.012817   0.000000
    90  C   -0.093856  -0.000000
    91  S    0.177728   0.000000
 Electronic spatial extent (au):  <R**2>=         671716.5112
 Charge=             -0.0000 electrons
 Dipole moment (field-independent basis, Debye):
    X=             -5.1213    Y=             11.3529    Z=              1.7333  Tot=             12.5746
 Quadrupole moment (field-independent basis, Debye-Ang):
   XX=           -461.5462   YY=           -546.6071   ZZ=           -605.2403
   XY=             25.0284   XZ=             14.2768   YZ=             -2.4589
 Traceless Quadrupole moment (field-independent basis, Debye-Ang):
   XX=             76.2516   YY=             -8.8092   ZZ=            -67.4424
   XY=             25.0284   XZ=             14.2768   YZ=             -2.4589
 Octapole moment (field-independent basis, Debye-Ang**2):
  XXX=          -3150.3247  YYY=            195.3816  ZZZ=            -13.9054  XYY=           -292.8326
  XXY=           2361.9490  XXZ=           1648.4940  XZZ=             64.8941  YZZ=             14.0356
  YYZ=             49.8517  XYZ=            326.5444
 Hexadecapole moment (field-independent basis, Debye-Ang**3):
 XXXX=        -705687.1596 YYYY=         -11765.8745 ZZZZ=          -3637.4420 XXXY=          -4694.5513
 XXXZ=          -8748.5608 YYYX=          -1543.0998 YYYZ=            -51.3861 ZZZX=            348.8380
 ZZZY=            -75.2025 XXYY=        -130636.0602 XXZZ=        -146748.3796 YYZZ=          -2676.8038
 XXYZ=           3744.5529 YYXZ=            150.4181 ZZXY=            500.4137
 N-N= 1.603143810036D+04 E-N=-5.383603971733D+04  KE= 9.183904265908D+03
 Leave Link  601 at Fri Jul 24 22:06:04 2020, MaxMem=  4026531840 cpu:              14.6 elap:               2.1
 (Enter /opt/ohpc/pub/libs/gaussian/g16-A.03/sandybridge/g16/l9999.exe)

 Test job not archived.
 1\1\GINC-SKYLAKE017\FOpt\ULC-wPBE\CC-pVDZ\C63H37F7O7S14\RDU230\24-Jul-
 2020\0\\#P uLC-wPBE/cc-pVDZ iop(3/107=0297700000, 3/108=0297700000) op
 t\\H37 C63 S14 O7 F7\\0,1\C,26.4429551418,0.5204355302,-1.6174314626\C
 ,25.8371308264,-0.468541679,-2.3397972839\C,24.4500355437,-0.520501394
 3,-2.0511310679\F,23.6290534519,-1.4139998444,-2.6385166565\C,23.99660
 76137,0.398572318,-1.134486056\S,25.3405068655,1.370049746,-0.60534484
 25\C,22.6373671161,0.5767514035,-0.6492650537\C,22.1832594954,1.502942
 7898,0.2722144589\O,23.0597651538,2.3790032071,0.8272294567\C,22.54279
 0149,3.297082418,1.7735343307\C,20.7884817353,1.4057945976,0.541035594
 6\C,20.1875587642,0.4035776173,-0.1847028757\S,21.3197254046,-0.411562
 9973,-1.2040783302\C,18.7844849167,0.0042146321,-0.1720712845\C,18.248
 4937199,-1.2307057077,-0.446049535\C,16.8404286699,-1.2166227148,-0.32
 15846605\F,16.094291797,-2.3178510743,-0.5333228701\C,16.2809367717,-0
 .013819728,0.0416729792\S,17.5521489302,1.1625947782,0.2190087574\C,14
 .8765039539,0.2888599016,0.2527193398\C,14.3175113411,1.506087025,0.60
 01851101\O,15.1233016851,2.5838190436,0.781117076\C,14.497699369,3.806
 2496138,1.128559713\C,12.901834067,1.4658355503,0.7413116272\C,12.3900
 806368,0.2126382395,0.4952327675\S,13.6328402673,-0.9133675757,0.07918
 07051\C,10.995737675,-0.2126756934,0.5460998202\C,10.497358741,-1.4656
 468058,0.8092320743\C,9.0843649156,-1.4726714288,0.7717730141\F,8.3697
 802129,-2.5894958809,1.0083252999\C,8.4843879314,-0.266902323,0.492136
 5382\S,9.7241753383,0.9298497336,0.2438759381\C,7.0644823608,0.0224934
 362,0.400344347\C,6.4670632844,1.2338265225,0.0992299943\O,7.244780797
 2,2.3188536142,-0.1481226114\C,6.5813115073,3.5300981006,-0.4634215812
 \C,5.044642039,1.1856866143,0.0996567888\C,4.5669092702,-0.0693735297,
 0.3989552838\S,5.8511942888,-1.1937298172,0.6668685678\C,3.1767566369,
 -0.5001920241,0.4964648499\C,2.6543065157,-1.525116824,1.247575689\C,1
 .2546706944,-1.6231369555,1.076342109\F,0.5199629383,-2.5493679547,1.7
 214093109\C,0.687937428,-0.7062982612,0.221727245\S,1.9454358278,0.314
 3724278,-0.4167084357\C,-0.712836423,-0.5657659031,-0.1337102415\C,-1.
 2749647585,0.3479689345,-1.0078424513\O,-0.4769232664,1.2474146112,-1.
 6380922983\C,-1.1000914533,2.1377389706,-2.5469377497\C,-2.6848531967,
 0.2127902984,-1.1476219944\C,-3.1890448122,-0.8054765515,-0.3717862891
 \S,-1.9469156912,-1.5893346566,0.5381500831\C,-4.5756474481,-1.2433691
 302,-0.2568181568\C,-5.0495237872,-2.4911691289,0.0689081552\C,-6.4627
 189662,-2.5171341211,0.0713253311\F,-7.1555237056,-3.6370170698,0.3535
 004647\C,-7.0862400095,-1.3324767971,-0.2446851367\S,-5.870283733,-0.1
 222743635,-0.5403533472\C,-8.5118607543,-1.0701252165,-0.3289734183\C,
 -9.1335721197,0.128395218,-0.6326474536\O,-8.3781975936,1.2251397572,-
 0.8951240383\C,-9.0669143824,2.4300112249,-1.1812527135\C,-10.55450927
 3,0.0487543594,-0.641054068\C,-11.0057750937,-1.2150882227,-0.33913115
 35\S,-9.7001514208,-2.3037067312,-0.0325088153\C,-12.3872350727,-1.678
 1864533,-0.2576908146\C,-12.8745600447,-2.947618748,-0.4515571114\C,-1
 4.2848376516,-2.9958468675,-0.3079878536\F,-14.9727357374,-4.128247326
 3,-0.4960315159\C,-14.8837365826,-1.7991791311,-0.0025009236\S,-13.661
 8175679,-0.5696529411,0.1369670812\C,-16.2978289011,-1.5211160087,0.20
 59867062\C,-17.1950177106,-2.254435744,0.9597344007\O,-16.7820877526,-
 3.3592155109,1.6213945109\C,-17.7633949418,-4.0707382124,2.3537532113\
 C,-18.5133122608,-1.7072544816,0.9484397385\C,-18.6015094387,-0.557873
 7108,0.19843116\S,-17.0787668785,-0.1418581323,-0.5024260415\C,-19.778
 3589097,0.2747140945,-0.0347247433\C,-20.0562866166,1.0754167413,-1.11
 51252149\C,-21.3174926556,1.7120328244,-0.9855174773\F,-21.8054187922,
 2.5090179308,-1.9442020762\C,-22.0036133915,1.4224827865,0.1669064547\
 S,-21.0508528325,0.3437685362,1.1416694613\C,-23.3100345459,1.91024441
 41,0.5907956619\C,-23.7674905042,3.2136324897,0.5554723435\O,-22.96156
 42373,4.2054067391,0.1081867468\C,-23.5119778972,5.5087947769,0.075545
 7545\C,-25.1049420663,3.3488146621,1.0469268405\C,-25.6259358381,2.150
 0002884,1.4508584848\S,-24.5286739478,0.8525233402,1.2303204123\H,27.4
 9702542,0.8021047215,-1.6247992813\H,26.334651077,-1.1356513831,-3.045
 9100867\H,23.3934602847,3.9129572125,2.0994385935\H,22.1150461356,2.77
 66750946,2.6508756586\H,21.7728058256,3.9515418825,1.3236672112\H,20.2
 45702419,2.0254975713,1.2571226622\H,18.8249610505,-2.1215047872,-0.70
 33017581\H,13.7876695351,4.1335324569,0.3462356156\H,15.3037540106,4.5
 489181707,1.2169832923\H,13.9678990756,3.7290417562,2.0964362594\H,12.
 2791145037,2.3120332415,1.0371256794\H,11.1012347754,-2.344729502,1.04
 29109169\H,7.3706138803,4.2745785989,-0.641861486\H,5.9430894736,3.871
 5062494,0.3729425228\H,5.9662968639,3.4279241788,-1.3769501128\H,4.390
 4820765,2.0396321464,-0.0851799867\H,3.2294494781,-2.1711146278,1.9138
 794476\H,-1.5856848485,1.5928670876,-3.3778757892\H,-0.2990175743,2.77
 27410178,-2.952047726\H,-1.8474283903,2.7759908809,-2.0394828332\H,-3.
 3077989381,0.8168253979,-1.8097472215\H,-4.4275312403,-3.3641431801,0.
 2765330637\H,-8.2930802483,3.1933313389,-1.3471404489\H,-9.706715763,2
 .7404346736,-0.3342923898\H,-9.6847874274,2.3357503288,-2.0937293766\H
 ,-11.2251257564,0.8756204033,-0.8819121063\H,-12.2661156327,-3.8126968
 614,-0.723681764\H,-18.2055397199,-3.4485069046,3.1546954909\H,-18.568
 5666555,-4.447364806,1.69529047\H,-17.243484923,-4.925838904,2.8093404
 448\H,-19.3741587322,-2.1442323384,1.458129681\H,-19.412601862,1.18371
 07092,-1.9906873145\H,-22.7242449791,6.1634285652,-0.3248924657\H,-24.
 3957749759,5.5615188422,-0.5879636398\H,-23.7924100108,5.8599095813,1.
 0868556696\H,-25.6554490275,4.2891466497,1.1077222531\H,-26.6159193061
 ,1.9649650514,1.8705027705\\Version=EM64L-G16RevA.03\State=1-A\HF=-921
 8.647628\S2=0.\S2-1=0.\S2A=0.\RMSD=7.431e-09\RMSF=1.336e-06\Dipole=-2.
 0401397,4.486049,0.4339138\Quadrupole=56.6464499,-6.6696379,-49.976812
 ,19.5939678,8.1715796,-4.6440624\PG=C01 [X(C63H37F7O7S14)]\\@


 THE CHYMISTS ARE A STRANGE CLASS OF MORTALS IMPELLED
 BY AN ALMOST INSANE IMPULSE TO SEEK THEIR PLEASURE
 AMONG SMOKE AND VAPOR, SOOT AND FLAME, POISONS AND
 POVERTY; YET AMONG ALL THESE EVILS I SEEM TO LIVE
 SO SWEETLY, THAT I MAY DIE IF I WOULD CHANGE PLACES
 WITH THE PERSIAN KING.
   --  JOHANN JOACHIM BECHER, 1635-1682
 ACTA LABORATORII CHYMICA MONACENSIS, 1669
 Job cpu time:       3 days  3 hours 42 minutes 49.3 seconds.
 Elapsed time:       0 days  9 hours 37 minutes 52.2 seconds.
 File lengths (MBytes):  RWF=   2552 Int=      0 D2E=      0 Chk=    228 Scr=      8
 Normal termination of Gaussian 16 at Fri Jul 24 22:06:05 2020.
