 Entering Gaussian System, Link 0=g16
 Input=mols_65_5_10_c-cF-CF_opt_0.gjf
 Output=mols_65_5_10_c-cF-CF_opt_0.log
 Initial command:
 /opt/ohpc/pub/libs/gaussian/g16-A.03/sandybridge/g16/l1.exe "/mnt/gpfs2_4m/scratch/rdu230/ondemand/projects/dihedral_energies/7trial/wtuning/mols_65_5_10_c-cF-CF/Gau-160659.inp" -scrdir="/mnt/gpfs2_4m/scratch/rdu230/ondemand/projects/dihedral_energies/7trial/wtuning/mols_65_5_10_c-cF-CF/"
 Entering Link 1 = /opt/ohpc/pub/libs/gaussian/g16-A.03/sandybridge/g16/l1.exe PID=    160660.
  
 Copyright (c) 1988,1990,1992,1993,1995,1998,2003,2009,2016,
            Gaussian, Inc.  All Rights Reserved.
  
 This is part of the Gaussian(R) 16 program.  It is based on
 the Gaussian(R) 09 system (copyright 2009, Gaussian, Inc.),
 the Gaussian(R) 03 system (copyright 2003, Gaussian, Inc.),
 the Gaussian(R) 98 system (copyright 1998, Gaussian, Inc.),
 the Gaussian(R) 94 system (copyright 1995, Gaussian, Inc.),
 the Gaussian 92(TM) system (copyright 1992, Gaussian, Inc.),
 the Gaussian 90(TM) system (copyright 1990, Gaussian, Inc.),
 the Gaussian 88(TM) system (copyright 1988, Gaussian, Inc.),
 the Gaussian 86(TM) system (copyright 1986, Carnegie Mellon
 University), and the Gaussian 82(TM) system (copyright 1983,
 Carnegie Mellon University). Gaussian is a federally registered
 trademark of Gaussian, Inc.
  
 This software contains proprietary and confidential information,
 including trade secrets, belonging to Gaussian, Inc.
  
 This software is provided under written license and may be
 used, copied, transmitted, or stored only in accord with that
 written license.
  
 The following legend is applicable only to US Government
 contracts under FAR:
  
                    RESTRICTED RIGHTS LEGEND
  
 Use, reproduction and disclosure by the US Government is
 subject to restrictions as set forth in subparagraphs (a)
 and (c) of the Commercial Computer Software - Restricted
 Rights clause in FAR 52.227-19.
  
 Gaussian, Inc.
 340 Quinnipiac St., Bldg. 40, Wallingford CT 06492
  
  
 ---------------------------------------------------------------
 Warning -- This program may not be used in any manner that
 competes with the business of Gaussian, Inc. or will provide
 assistance to any competitor of Gaussian, Inc.  The licensee
 of this program is prohibited from giving any competitor of
 Gaussian, Inc. access to this program.  By using this program,
 the user acknowledges that Gaussian, Inc. is engaged in the
 business of creating and licensing software in the field of
 computational chemistry and represents and warrants to the
 licensee that it is not a competitor of Gaussian, Inc. and that
 it will not use this program in any manner prohibited above.
 ---------------------------------------------------------------
  

 Cite this work as:
 Gaussian 16, Revision A.03,
 M. J. Frisch, G. W. Trucks, H. B. Schlegel, G. E. Scuseria, 
 M. A. Robb, J. R. Cheeseman, G. Scalmani, V. Barone, 
 G. A. Petersson, H. Nakatsuji, X. Li, M. Caricato, A. V. Marenich, 
 J. Bloino, B. G. Janesko, R. Gomperts, B. Mennucci, H. P. Hratchian, 
 J. V. Ortiz, A. F. Izmaylov, J. L. Sonnenberg, D. Williams-Young, 
 F. Ding, F. Lipparini, F. Egidi, J. Goings, B. Peng, A. Petrone, 
 T. Henderson, D. Ranasinghe, V. G. Zakrzewski, J. Gao, N. Rega, 
 G. Zheng, W. Liang, M. Hada, M. Ehara, K. Toyota, R. Fukuda, 
 J. Hasegawa, M. Ishida, T. Nakajima, Y. Honda, O. Kitao, H. Nakai, 
 T. Vreven, K. Throssell, J. A. Montgomery, Jr., J. E. Peralta, 
 F. Ogliaro, M. J. Bearpark, J. J. Heyd, E. N. Brothers, K. N. Kudin, 
 V. N. Staroverov, T. A. Keith, R. Kobayashi, J. Normand, 
 K. Raghavachari, A. P. Rendell, J. C. Burant, S. S. Iyengar, 
 J. Tomasi, M. Cossi, J. M. Millam, M. Klene, C. Adamo, R. Cammi, 
 J. W. Ochterski, R. L. Martin, K. Morokuma, O. Farkas, 
 J. B. Foresman, and D. J. Fox, Gaussian, Inc., Wallingford CT, 2016.
 
 ******************************************
 Gaussian 16:  EM64L-G16RevA.03 25-Dec-2016
                24-Jul-2020 
 ******************************************
 %mem=30GB
 %nproc=8
 Will use up to    8 processors via shared memory.
 ---------------------------------------------------------------
 #P uLC-wPBE/cc-pVDZ iop(3/107=0095600000, 3/108=0095600000) opt
 ---------------------------------------------------------------
 1/18=20,19=15,26=3,38=1/1,3;
 2/9=110,12=2,17=6,18=5,40=1/2;
 3/5=16,11=2,25=1,30=1,71=1,74=-41,107=95600000,108=95600000,116=2/1,2,3;
 4//1;
 5/5=2,38=5/2;
 6/7=2,8=2,9=2,10=2,28=1/1;
 7//1,2,3,16;
 1/18=20,19=15,26=3/3(2);
 2/9=110/2;
 99//99;
 2/9=110/2;
 3/5=16,11=2,25=1,30=1,71=1,74=-41,107=95600000,108=95600000,116=2/1,2,3;
 4/5=5,16=3,69=1/1;
 5/5=2,38=5/2;
 7//1,2,3,16;
 1/18=20,19=15,26=3/3(-5);
 2/9=110/2;
 6/7=2,8=2,9=2,10=2,19=2,28=1/1;
 99/9=1/99;
 Leave Link    1 at Fri Jul 24 21:46:37 2020, MaxMem=  4026531840 cpu:               0.9 elap:               0.1
 (Enter /opt/ohpc/pub/libs/gaussian/g16-A.03/sandybridge/g16/l101.exe)
 --------------
 H22 C50 S5 F10
 --------------
 Symbolic Z-matrix:
 Charge =  0 Multiplicity = 1
 C                    -19.15679  -1.76649  -0.22219 
 C                    -18.88158  -0.52898  -0.64879 
 C                    -17.6382  -0.01066  -0.55933 
 C                    -16.62635  -0.7263    0.08149 
 C                    -16.92328  -2.02298   0.4809 
 F                    -15.96424  -2.80282   1.17311 
 C                    -18.17928  -2.56788   0.42641 
 C                    -15.28008  -0.182     0.20361 
 C                    -14.8376   1.12146   0.56267 
 F                    -15.69214   2.00796   0.93474 
 C                    -13.46298   1.33329   0.53724 
 C                    -12.79119   0.15683   0.18148 
 S                    -13.86151  -1.04585  -0.2826 
 C                    -11.2922   0.01599  -0.009 
 C                    -10.61817   0.85591  -0.78887 
 C                    -9.15778   0.68432  -0.95845 
 C                    -8.50866  -0.34017  -0.3766 
 C                    -9.24955  -1.25007   0.4084 
 F                    -8.71218  -2.3164    1.09229 
 C                    -10.70122  -1.12357   0.58681 
 C                    -7.09685  -0.59776  -0.4693 
 C                    -6.45552  -1.73099  -0.83538 
 F                    -6.96472  -2.86844  -1.11134 
 C                    -5.05375  -1.56865  -0.88666 
 C                    -4.62608  -0.28316  -0.52835 
 S                    -6.02646   0.70558  -0.23588 
 C                    -3.29893   0.26217  -0.45283 
 C                    -2.96      1.51521  -0.96143 
 C                    -1.57157   2.06846  -0.84469 
 C                    -0.63747   1.32487  -0.17454 
 C                    -0.90817   0.03623   0.26575 
 F                    -0.00319  -0.70677   0.95541 
 C                    -2.28484  -0.4634    0.18663 
 C                     0.71904   1.84     -0.08602 
 C                     1.13464   3.09734   0.36078 
 F                     0.2218    4.1101    0.71249 
 C                     2.46726   3.33227   0.38193 
 C                     3.22227   2.2139   -0.01021 
 S                     2.1812    0.9781   -0.42459 
 C                     4.61701   2.0122   -0.0273 
 C                     5.45956   3.07113  -0.56281 
 C                     6.87462   2.9582   -0.59244 
 C                     7.5126    1.83574  -0.04864 
 C                     6.69332   0.7744    0.53509 
 F                     7.24516  -0.26119   1.08154 
 C                     5.26802   0.92025   0.46532 
 C                     8.91751   1.71141  -0.04383 
 C                     9.83054   2.72785   0.26869 
 F                     9.52668   3.97839   0.59793 
 C                     11.2452   2.26189   0.28078 
 C                     11.28178   0.95076  -0.06647 
 S                     9.8033    0.31544  -0.42802 
 C                     12.53296   0.09303  -0.06973 
 C                     13.74825   0.6492   -0.63846 
 C                     14.90698  -0.05093  -0.69148 
 C                     14.97201  -1.3994   -0.15226 
 C                     13.81115  -1.86637   0.45161 
 F                     13.75178  -3.08523   0.99984 
 C                     12.62836  -1.16617   0.45763 
 C                     16.17297  -2.1664   -0.08424 
 C                     17.41654  -1.70057   0.29266 
 F                     17.72353  -0.45774   0.75014 
 C                     18.43341  -2.68094   0.19677 
 C                     17.92308  -3.84913  -0.2815 
 S                     16.30401  -3.77882  -0.60402 
 H                    -20.19574  -2.20761  -0.27527 
 H                    -19.69896   0.07322  -1.16353 
 H                    -17.40166   1.03816  -0.86956 
 H                    -18.39657  -3.50437   0.75048 
 H                    -12.99275   2.25384   0.83556 
 H                    -11.04943   1.76993  -1.27825 
 H                    -8.61043   1.44553  -1.55678 
 H                    -11.18923  -1.84137   1.23396 
 H                    -4.31224  -2.37362  -1.17126 
 H                    -3.70412   2.16655  -1.45477 
 H                    -1.43242   3.04023  -1.27195 
 H                    -2.40906  -1.46158   0.58964 
 H                     2.99274   4.25151   0.75825 
 H                     5.00045   3.95722  -1.0857 
 H                     7.40653   3.69505  -1.03794 
 H                     4.72604   0.10855   1.02398 
 H                     12.06237   2.97481   0.55198 
 H                     13.70324   1.69091  -1.12241 
 H                     15.83467   0.3183   -1.12705 
 H                     11.71351  -1.62255   0.91179 
 H                     19.45537  -2.55464   0.42734 
 H                     18.42045  -4.81844  -0.48389 
 
 ITRead=  0  0  0  0  0  0  0  0  0  0  0  0  0  0  0  0  0  0  0  0
 ITRead=  0  0  0  0  0  0  0  0  0  0  0  0  0  0  0  0  0  0  0  0
 ITRead=  0  0  0  0  0  0  0  0  0  0  0  0  0  0  0  0  0  0  0  0
 ITRead=  0  0  0  0  0  0  0  0  0  0  0  0  0  0  0  0  0  0  0  0
 ITRead=  0  0  0  0  0  0  0
 MicOpt= -1 -1 -1 -1 -1 -1 -1 -1 -1 -1 -1 -1 -1 -1 -1 -1 -1 -1 -1 -1
 MicOpt= -1 -1 -1 -1 -1 -1 -1 -1 -1 -1 -1 -1 -1 -1 -1 -1 -1 -1 -1 -1
 MicOpt= -1 -1 -1 -1 -1 -1 -1 -1 -1 -1 -1 -1 -1 -1 -1 -1 -1 -1 -1 -1
 MicOpt= -1 -1 -1 -1 -1 -1 -1 -1 -1 -1 -1 -1 -1 -1 -1 -1 -1 -1 -1 -1
 MicOpt= -1 -1 -1 -1 -1 -1 -1
 NAtoms=     87 NQM=       87 NQMF=       0 NMMI=      0 NMMIF=      0
                NMic=       0 NMicF=      0.
                    Isotopes and Nuclear Properties:
 (Nuclear quadrupole moments (NQMom) in fm**2, nuclear magnetic moments (NMagM)
  in nuclear magnetons)

  Atom         1           2           3           4           5           6           7           8           9          10
 IAtWgt=          12          12          12          12          12          19          12          12          12          19
 AtmWgt=  12.0000000  12.0000000  12.0000000  12.0000000  12.0000000  18.9984033  12.0000000  12.0000000  12.0000000  18.9984033
 NucSpn=           0           0           0           0           0           1           0           0           0           1
 AtZEff=  -0.0000000  -0.0000000  -0.0000000  -0.0000000  -0.0000000  -0.0000000  -0.0000000  -0.0000000  -0.0000000  -0.0000000
 NQMom=    0.0000000   0.0000000   0.0000000   0.0000000   0.0000000   0.0000000   0.0000000   0.0000000   0.0000000   0.0000000
 NMagM=    0.0000000   0.0000000   0.0000000   0.0000000   0.0000000   2.6288670   0.0000000   0.0000000   0.0000000   2.6288670
 AtZNuc=   6.0000000   6.0000000   6.0000000   6.0000000   6.0000000   9.0000000   6.0000000   6.0000000   6.0000000   9.0000000

  Atom        11          12          13          14          15          16          17          18          19          20
 IAtWgt=          12          12          32          12          12          12          12          12          19          12
 AtmWgt=  12.0000000  12.0000000  31.9720718  12.0000000  12.0000000  12.0000000  12.0000000  12.0000000  18.9984033  12.0000000
 NucSpn=           0           0           0           0           0           0           0           0           1           0
 AtZEff=  -0.0000000  -0.0000000  -0.0000000  -0.0000000  -0.0000000  -0.0000000  -0.0000000  -0.0000000  -0.0000000  -0.0000000
 NQMom=    0.0000000   0.0000000   0.0000000   0.0000000   0.0000000   0.0000000   0.0000000   0.0000000   0.0000000   0.0000000
 NMagM=    0.0000000   0.0000000   0.0000000   0.0000000   0.0000000   0.0000000   0.0000000   0.0000000   2.6288670   0.0000000
 AtZNuc=   6.0000000   6.0000000  16.0000000   6.0000000   6.0000000   6.0000000   6.0000000   6.0000000   9.0000000   6.0000000

  Atom        21          22          23          24          25          26          27          28          29          30
 IAtWgt=          12          12          19          12          12          32          12          12          12          12
 AtmWgt=  12.0000000  12.0000000  18.9984033  12.0000000  12.0000000  31.9720718  12.0000000  12.0000000  12.0000000  12.0000000
 NucSpn=           0           0           1           0           0           0           0           0           0           0
 AtZEff=  -0.0000000  -0.0000000  -0.0000000  -0.0000000  -0.0000000  -0.0000000  -0.0000000  -0.0000000  -0.0000000  -0.0000000
 NQMom=    0.0000000   0.0000000   0.0000000   0.0000000   0.0000000   0.0000000   0.0000000   0.0000000   0.0000000   0.0000000
 NMagM=    0.0000000   0.0000000   2.6288670   0.0000000   0.0000000   0.0000000   0.0000000   0.0000000   0.0000000   0.0000000
 AtZNuc=   6.0000000   6.0000000   9.0000000   6.0000000   6.0000000  16.0000000   6.0000000   6.0000000   6.0000000   6.0000000

  Atom        31          32          33          34          35          36          37          38          39          40
 IAtWgt=          12          19          12          12          12          19          12          12          32          12
 AtmWgt=  12.0000000  18.9984033  12.0000000  12.0000000  12.0000000  18.9984033  12.0000000  12.0000000  31.9720718  12.0000000
 NucSpn=           0           1           0           0           0           1           0           0           0           0
 AtZEff=  -0.0000000  -0.0000000  -0.0000000  -0.0000000  -0.0000000  -0.0000000  -0.0000000  -0.0000000  -0.0000000  -0.0000000
 NQMom=    0.0000000   0.0000000   0.0000000   0.0000000   0.0000000   0.0000000   0.0000000   0.0000000   0.0000000   0.0000000
 NMagM=    0.0000000   2.6288670   0.0000000   0.0000000   0.0000000   2.6288670   0.0000000   0.0000000   0.0000000   0.0000000
 AtZNuc=   6.0000000   9.0000000   6.0000000   6.0000000   6.0000000   9.0000000   6.0000000   6.0000000  16.0000000   6.0000000

  Atom        41          42          43          44          45          46          47          48          49          50
 IAtWgt=          12          12          12          12          19          12          12          12          19          12
 AtmWgt=  12.0000000  12.0000000  12.0000000  12.0000000  18.9984033  12.0000000  12.0000000  12.0000000  18.9984033  12.0000000
 NucSpn=           0           0           0           0           1           0           0           0           1           0
 AtZEff=  -0.0000000  -0.0000000  -0.0000000  -0.0000000  -0.0000000  -0.0000000  -0.0000000  -0.0000000  -0.0000000  -0.0000000
 NQMom=    0.0000000   0.0000000   0.0000000   0.0000000   0.0000000   0.0000000   0.0000000   0.0000000   0.0000000   0.0000000
 NMagM=    0.0000000   0.0000000   0.0000000   0.0000000   2.6288670   0.0000000   0.0000000   0.0000000   2.6288670   0.0000000
 AtZNuc=   6.0000000   6.0000000   6.0000000   6.0000000   9.0000000   6.0000000   6.0000000   6.0000000   9.0000000   6.0000000

  Atom        51          52          53          54          55          56          57          58          59          60
 IAtWgt=          12          32          12          12          12          12          12          19          12          12
 AtmWgt=  12.0000000  31.9720718  12.0000000  12.0000000  12.0000000  12.0000000  12.0000000  18.9984033  12.0000000  12.0000000
 NucSpn=           0           0           0           0           0           0           0           1           0           0
 AtZEff=  -0.0000000  -0.0000000  -0.0000000  -0.0000000  -0.0000000  -0.0000000  -0.0000000  -0.0000000  -0.0000000  -0.0000000
 NQMom=    0.0000000   0.0000000   0.0000000   0.0000000   0.0000000   0.0000000   0.0000000   0.0000000   0.0000000   0.0000000
 NMagM=    0.0000000   0.0000000   0.0000000   0.0000000   0.0000000   0.0000000   0.0000000   2.6288670   0.0000000   0.0000000
 AtZNuc=   6.0000000  16.0000000   6.0000000   6.0000000   6.0000000   6.0000000   6.0000000   9.0000000   6.0000000   6.0000000

  Atom        61          62          63          64          65          66          67          68          69          70
 IAtWgt=          12          19          12          12          32           1           1           1           1           1
 AtmWgt=  12.0000000  18.9984033  12.0000000  12.0000000  31.9720718   1.0078250   1.0078250   1.0078250   1.0078250   1.0078250
 NucSpn=           0           1           0           0           0           1           1           1           1           1
 AtZEff=  -0.0000000  -0.0000000  -0.0000000  -0.0000000  -0.0000000  -0.0000000  -0.0000000  -0.0000000  -0.0000000  -0.0000000
 NQMom=    0.0000000   0.0000000   0.0000000   0.0000000   0.0000000   0.0000000   0.0000000   0.0000000   0.0000000   0.0000000
 NMagM=    0.0000000   2.6288670   0.0000000   0.0000000   0.0000000   2.7928460   2.7928460   2.7928460   2.7928460   2.7928460
 AtZNuc=   6.0000000   9.0000000   6.0000000   6.0000000  16.0000000   1.0000000   1.0000000   1.0000000   1.0000000   1.0000000

  Atom        71          72          73          74          75          76          77          78          79          80
 IAtWgt=           1           1           1           1           1           1           1           1           1           1
 AtmWgt=   1.0078250   1.0078250   1.0078250   1.0078250   1.0078250   1.0078250   1.0078250   1.0078250   1.0078250   1.0078250
 NucSpn=           1           1           1           1           1           1           1           1           1           1
 AtZEff=  -0.0000000  -0.0000000  -0.0000000  -0.0000000  -0.0000000  -0.0000000  -0.0000000  -0.0000000  -0.0000000  -0.0000000
 NQMom=    0.0000000   0.0000000   0.0000000   0.0000000   0.0000000   0.0000000   0.0000000   0.0000000   0.0000000   0.0000000
 NMagM=    2.7928460   2.7928460   2.7928460   2.7928460   2.7928460   2.7928460   2.7928460   2.7928460   2.7928460   2.7928460
 AtZNuc=   1.0000000   1.0000000   1.0000000   1.0000000   1.0000000   1.0000000   1.0000000   1.0000000   1.0000000   1.0000000

  Atom        81          82          83          84          85          86          87
 IAtWgt=           1           1           1           1           1           1           1
 AtmWgt=   1.0078250   1.0078250   1.0078250   1.0078250   1.0078250   1.0078250   1.0078250
 NucSpn=           1           1           1           1           1           1           1
 AtZEff=  -0.0000000  -0.0000000  -0.0000000  -0.0000000  -0.0000000  -0.0000000  -0.0000000
 NQMom=    0.0000000   0.0000000   0.0000000   0.0000000   0.0000000   0.0000000   0.0000000
 NMagM=    2.7928460   2.7928460   2.7928460   2.7928460   2.7928460   2.7928460   2.7928460
 AtZNuc=   1.0000000   1.0000000   1.0000000   1.0000000   1.0000000   1.0000000   1.0000000
 Leave Link  101 at Fri Jul 24 21:46:38 2020, MaxMem=  4026531840 cpu:               3.0 elap:               0.4
 (Enter /opt/ohpc/pub/libs/gaussian/g16-A.03/sandybridge/g16/l103.exe)

 GradGradGradGradGradGradGradGradGradGradGradGradGradGradGradGradGradGrad
 Berny optimization.
 Initialization pass.
                           ----------------------------
                           !    Initial Parameters    !
                           ! (Angstroms and Degrees)  !
 --------------------------                            --------------------------
 ! Name  Definition              Value          Derivative Info.                !
 --------------------------------------------------------------------------------
 ! R1    R(1,2)                  1.3376         estimate D2E/DX2                !
 ! R2    R(1,7)                  1.4207         estimate D2E/DX2                !
 ! R3    R(1,66)                 1.13           estimate D2E/DX2                !
 ! R4    R(2,3)                  1.3501         estimate D2E/DX2                !
 ! R5    R(2,67)                 1.1383         estimate D2E/DX2                !
 ! R6    R(3,4)                  1.3952         estimate D2E/DX2                !
 ! R7    R(3,68)                 1.119          estimate D2E/DX2                !
 ! R8    R(4,5)                  1.3889         estimate D2E/DX2                !
 ! R9    R(4,8)                  1.4573         estimate D2E/DX2                !
 ! R10   R(5,6)                  1.4167         estimate D2E/DX2                !
 ! R11   R(5,7)                  1.3702         estimate D2E/DX2                !
 ! R12   R(7,69)                 1.0145         estimate D2E/DX2                !
 ! R13   R(8,9)                  1.4226         estimate D2E/DX2                !
 ! R14   R(8,13)                 1.7306         estimate D2E/DX2                !
 ! R15   R(9,10)                 1.2863         estimate D2E/DX2                !
 ! R16   R(9,11)                 1.3911         estimate D2E/DX2                !
 ! R17   R(11,12)                1.4007         estimate D2E/DX2                !
 ! R18   R(11,70)                1.0759         estimate D2E/DX2                !
 ! R19   R(12,13)                1.6755         estimate D2E/DX2                !
 ! R20   R(12,14)                1.5176         estimate D2E/DX2                !
 ! R21   R(14,15)                1.3296         estimate D2E/DX2                !
 ! R22   R(14,20)                1.4152         estimate D2E/DX2                !
 ! R23   R(15,16)                1.4802         estimate D2E/DX2                !
 ! R24   R(15,71)                1.1229         estimate D2E/DX2                !
 ! R25   R(16,17)                1.3452         estimate D2E/DX2                !
 ! R26   R(16,72)                1.1122         estimate D2E/DX2                !
 ! R27   R(17,18)                1.4118         estimate D2E/DX2                !
 ! R28   R(17,21)                1.4381         estimate D2E/DX2                !
 ! R29   R(18,19)                1.3761         estimate D2E/DX2                !
 ! R30   R(18,20)                1.468          estimate D2E/DX2                !
 ! R31   R(20,73)                1.0827         estimate D2E/DX2                !
 ! R32   R(21,22)                1.3526         estimate D2E/DX2                !
 ! R33   R(21,26)                1.7026         estimate D2E/DX2                !
 ! R34   R(22,23)                1.2764         estimate D2E/DX2                !
 ! R35   R(22,24)                1.4121         estimate D2E/DX2                !
 ! R36   R(24,25)                1.4013         estimate D2E/DX2                !
 ! R37   R(24,74)                1.1308         estimate D2E/DX2                !
 ! R38   R(25,26)                1.739          estimate D2E/DX2                !
 ! R39   R(25,27)                1.4368         estimate D2E/DX2                !
 ! R40   R(27,28)                1.3941         estimate D2E/DX2                !
 ! R41   R(27,33)                1.4013         estimate D2E/DX2                !
 ! R42   R(28,29)                1.4991         estimate D2E/DX2                !
 ! R43   R(28,75)                1.1051         estimate D2E/DX2                !
 ! R44   R(29,30)                1.3692         estimate D2E/DX2                !
 ! R45   R(29,76)                1.0706         estimate D2E/DX2                !
 ! R46   R(30,31)                1.3884         estimate D2E/DX2                !
 ! R47   R(30,34)                1.4537         estimate D2E/DX2                !
 ! R48   R(31,32)                1.3589         estimate D2E/DX2                !
 ! R49   R(31,33)                1.4667         estimate D2E/DX2                !
 ! R50   R(33,77)                1.0836         estimate D2E/DX2                !
 ! R51   R(34,35)                1.3976         estimate D2E/DX2                !
 ! R52   R(34,39)                1.7307         estimate D2E/DX2                !
 ! R53   R(35,36)                1.4081         estimate D2E/DX2                !
 ! R54   R(35,37)                1.3533         estimate D2E/DX2                !
 ! R55   R(37,38)                1.4052         estimate D2E/DX2                !
 ! R56   R(37,78)                1.1237         estimate D2E/DX2                !
 ! R57   R(38,39)                1.6682         estimate D2E/DX2                !
 ! R58   R(38,40)                1.4094         estimate D2E/DX2                !
 ! R59   R(40,41)                1.4553         estimate D2E/DX2                !
 ! R60   R(40,46)                1.3634         estimate D2E/DX2                !
 ! R61   R(41,42)                1.4199         estimate D2E/DX2                !
 ! R62   R(41,79)                1.1267         estimate D2E/DX2                !
 ! R63   R(42,43)                1.401          estimate D2E/DX2                !
 ! R64   R(42,80)                1.0121         estimate D2E/DX2                !
 ! R65   R(43,44)                1.4623         estimate D2E/DX2                !
 ! R66   R(43,47)                1.4104         estimate D2E/DX2                !
 ! R67   R(44,45)                1.2944         estimate D2E/DX2                !
 ! R68   R(44,46)                1.4344         estimate D2E/DX2                !
 ! R69   R(46,81)                1.1246         estimate D2E/DX2                !
 ! R70   R(47,48)                1.4016         estimate D2E/DX2                !
 ! R71   R(47,52)                1.6973         estimate D2E/DX2                !
 ! R72   R(48,49)                1.3284         estimate D2E/DX2                !
 ! R73   R(48,50)                1.4895         estimate D2E/DX2                !
 ! R74   R(50,51)                1.3568         estimate D2E/DX2                !
 ! R75   R(50,82)                1.1178         estimate D2E/DX2                !
 ! R76   R(51,52)                1.6493         estimate D2E/DX2                !
 ! R77   R(51,53)                1.517          estimate D2E/DX2                !
 ! R78   R(53,54)                1.4525         estimate D2E/DX2                !
 ! R79   R(53,59)                1.3685         estimate D2E/DX2                !
 ! R80   R(54,55)                1.3549         estimate D2E/DX2                !
 ! R81   R(54,83)                1.1495         estimate D2E/DX2                !
 ! R82   R(55,56)                1.4537         estimate D2E/DX2                !
 ! R83   R(55,84)                1.0893         estimate D2E/DX2                !
 ! R84   R(56,57)                1.3894         estimate D2E/DX2                !
 ! R85   R(56,60)                1.4266         estimate D2E/DX2                !
 ! R86   R(57,58)                1.3378         estimate D2E/DX2                !
 ! R87   R(57,59)                1.3745         estimate D2E/DX2                !
 ! R88   R(59,85)                1.1187         estimate D2E/DX2                !
 ! R89   R(60,61)                1.3804         estimate D2E/DX2                !
 ! R90   R(60,65)                1.6992         estimate D2E/DX2                !
 ! R91   R(61,62)                1.3595         estimate D2E/DX2                !
 ! R92   R(61,63)                1.4158         estimate D2E/DX2                !
 ! R93   R(63,64)                1.3616         estimate D2E/DX2                !
 ! R94   R(63,86)                1.0552         estimate D2E/DX2                !
 ! R95   R(64,65)                1.6524         estimate D2E/DX2                !
 ! R96   R(64,87)                1.1081         estimate D2E/DX2                !
 ! A1    A(2,1,7)              121.7291         estimate D2E/DX2                !
 ! A2    A(2,1,66)             122.3693         estimate D2E/DX2                !
 ! A3    A(7,1,66)             115.7127         estimate D2E/DX2                !
 ! A4    A(1,2,3)              121.5713         estimate D2E/DX2                !
 ! A5    A(1,2,67)             119.0731         estimate D2E/DX2                !
 ! A6    A(3,2,67)             119.2218         estimate D2E/DX2                !
 ! A7    A(2,3,4)              120.0949         estimate D2E/DX2                !
 ! A8    A(2,3,68)             122.4217         estimate D2E/DX2                !
 ! A9    A(4,3,68)             117.0505         estimate D2E/DX2                !
 ! A10   A(3,4,5)              117.1227         estimate D2E/DX2                !
 ! A11   A(3,4,8)              121.1244         estimate D2E/DX2                !
 ! A12   A(5,4,8)              121.474          estimate D2E/DX2                !
 ! A13   A(4,5,6)              120.6432         estimate D2E/DX2                !
 ! A14   A(4,5,7)              123.7666         estimate D2E/DX2                !
 ! A15   A(6,5,7)              114.9012         estimate D2E/DX2                !
 ! A16   A(1,7,5)              115.1209         estimate D2E/DX2                !
 ! A17   A(1,7,69)             121.2754         estimate D2E/DX2                !
 ! A18   A(5,7,69)             123.417          estimate D2E/DX2                !
 ! A19   A(4,8,9)              130.5975         estimate D2E/DX2                !
 ! A20   A(4,8,13)             123.1806         estimate D2E/DX2                !
 ! A21   A(9,8,13)             105.8613         estimate D2E/DX2                !
 ! A22   A(8,9,10)             119.8577         estimate D2E/DX2                !
 ! A23   A(8,9,11)             116.2496         estimate D2E/DX2                !
 ! A24   A(10,9,11)            123.836          estimate D2E/DX2                !
 ! A25   A(9,11,12)            110.529          estimate D2E/DX2                !
 ! A26   A(9,11,70)            123.8573         estimate D2E/DX2                !
 ! A27   A(12,11,70)           125.4117         estimate D2E/DX2                !
 ! A28   A(11,12,13)           111.522          estimate D2E/DX2                !
 ! A29   A(11,12,14)           125.7016         estimate D2E/DX2                !
 ! A30   A(13,12,14)           121.9774         estimate D2E/DX2                !
 ! A31   A(8,13,12)             95.0204         estimate D2E/DX2                !
 ! A32   A(12,14,15)           121.0446         estimate D2E/DX2                !
 ! A33   A(12,14,20)           115.744          estimate D2E/DX2                !
 ! A34   A(15,14,20)           122.9485         estimate D2E/DX2                !
 ! A35   A(14,15,16)           119.6112         estimate D2E/DX2                !
 ! A36   A(14,15,71)           125.1069         estimate D2E/DX2                !
 ! A37   A(16,15,71)           115.0465         estimate D2E/DX2                !
 ! A38   A(15,16,17)           120.9867         estimate D2E/DX2                !
 ! A39   A(15,16,72)           117.8937         estimate D2E/DX2                !
 ! A40   A(17,16,72)           121.0955         estimate D2E/DX2                !
 ! A41   A(16,17,18)           118.5636         estimate D2E/DX2                !
 ! A42   A(16,17,21)           125.6104         estimate D2E/DX2                !
 ! A43   A(18,17,21)           115.8235         estimate D2E/DX2                !
 ! A44   A(17,18,19)           124.8093         estimate D2E/DX2                !
 ! A45   A(17,18,20)           122.0721         estimate D2E/DX2                !
 ! A46   A(19,18,20)           113.1123         estimate D2E/DX2                !
 ! A47   A(14,20,18)           115.5402         estimate D2E/DX2                !
 ! A48   A(14,20,73)           126.6746         estimate D2E/DX2                !
 ! A49   A(18,20,73)           117.4664         estimate D2E/DX2                !
 ! A50   A(17,21,22)           129.2709         estimate D2E/DX2                !
 ! A51   A(17,21,26)           118.1138         estimate D2E/DX2                !
 ! A52   A(22,21,26)           112.3563         estimate D2E/DX2                !
 ! A53   A(21,22,23)           128.0223         estimate D2E/DX2                !
 ! A54   A(21,22,24)           112.5936         estimate D2E/DX2                !
 ! A55   A(23,22,24)           119.3812         estimate D2E/DX2                !
 ! A56   A(22,24,25)           113.524          estimate D2E/DX2                !
 ! A57   A(22,24,74)           125.3264         estimate D2E/DX2                !
 ! A58   A(25,24,74)           121.1458         estimate D2E/DX2                !
 ! A59   A(24,25,26)           108.5905         estimate D2E/DX2                !
 ! A60   A(24,25,27)           130.0528         estimate D2E/DX2                !
 ! A61   A(26,25,27)           121.2772         estimate D2E/DX2                !
 ! A62   A(21,26,25)            92.7493         estimate D2E/DX2                !
 ! A63   A(25,27,28)           123.1278         estimate D2E/DX2                !
 ! A64   A(25,27,33)           119.7289         estimate D2E/DX2                !
 ! A65   A(28,27,33)           117.1232         estimate D2E/DX2                !
 ! A66   A(27,28,29)           121.8998         estimate D2E/DX2                !
 ! A67   A(27,28,75)           121.93           estimate D2E/DX2                !
 ! A68   A(29,28,75)           116.1582         estimate D2E/DX2                !
 ! A69   A(28,29,30)           118.0053         estimate D2E/DX2                !
 ! A70   A(28,29,76)           115.1037         estimate D2E/DX2                !
 ! A71   A(30,29,76)           126.842          estimate D2E/DX2                !
 ! A72   A(29,30,31)           121.7533         estimate D2E/DX2                !
 ! A73   A(29,30,34)           118.2929         estimate D2E/DX2                !
 ! A74   A(31,30,34)           119.4402         estimate D2E/DX2                !
 ! A75   A(30,31,32)           122.5849         estimate D2E/DX2                !
 ! A76   A(30,31,33)           118.821          estimate D2E/DX2                !
 ! A77   A(32,31,33)           117.7893         estimate D2E/DX2                !
 ! A78   A(27,33,31)           121.8361         estimate D2E/DX2                !
 ! A79   A(27,33,77)           124.313          estimate D2E/DX2                !
 ! A80   A(31,33,77)           113.6613         estimate D2E/DX2                !
 ! A81   A(30,34,35)           128.006          estimate D2E/DX2                !
 ! A82   A(30,34,39)           126.866          estimate D2E/DX2                !
 ! A83   A(35,34,39)           105.0311         estimate D2E/DX2                !
 ! A84   A(34,35,36)           122.2862         estimate D2E/DX2                !
 ! A85   A(34,35,37)           116.9994         estimate D2E/DX2                !
 ! A86   A(36,35,37)           120.6379         estimate D2E/DX2                !
 ! A87   A(35,37,38)           112.7403         estimate D2E/DX2                !
 ! A88   A(35,37,78)           127.4237         estimate D2E/DX2                !
 ! A89   A(38,37,78)           119.5551         estimate D2E/DX2                !
 ! A90   A(37,38,39)           108.8811         estimate D2E/DX2                !
 ! A91   A(37,38,40)           130.4674         estimate D2E/DX2                !
 ! A92   A(39,38,40)           120.5694         estimate D2E/DX2                !
 ! A93   A(34,39,38)            96.2993         estimate D2E/DX2                !
 ! A94   A(38,40,41)           118.2464         estimate D2E/DX2                !
 ! A95   A(38,40,46)           125.6464         estimate D2E/DX2                !
 ! A96   A(41,40,46)           116.0572         estimate D2E/DX2                !
 ! A97   A(40,41,42)           121.7887         estimate D2E/DX2                !
 ! A98   A(40,41,79)           120.472          estimate D2E/DX2                !
 ! A99   A(42,41,79)           117.3215         estimate D2E/DX2                !
 ! A100  A(41,42,43)           120.6286         estimate D2E/DX2                !
 ! A101  A(41,42,80)           118.3631         estimate D2E/DX2                !
 ! A102  A(43,42,80)           120.9869         estimate D2E/DX2                !
 ! A103  A(42,43,44)           118.7717         estimate D2E/DX2                !
 ! A104  A(42,43,47)           121.7061         estimate D2E/DX2                !
 ! A105  A(44,43,47)           119.5209         estimate D2E/DX2                !
 ! A106  A(43,44,45)           120.6846         estimate D2E/DX2                !
 ! A107  A(43,44,46)           117.6118         estimate D2E/DX2                !
 ! A108  A(45,44,46)           121.7006         estimate D2E/DX2                !
 ! A109  A(40,46,44)           124.9917         estimate D2E/DX2                !
 ! A110  A(40,46,81)           121.833          estimate D2E/DX2                !
 ! A111  A(44,46,81)           112.4151         estimate D2E/DX2                !
 ! A112  A(43,47,48)           125.8543         estimate D2E/DX2                !
 ! A113  A(43,47,52)           126.2675         estimate D2E/DX2                !
 ! A114  A(48,47,52)           107.8757         estimate D2E/DX2                !
 ! A115  A(47,48,49)           126.0839         estimate D2E/DX2                !
 ! A116  A(47,48,50)           113.1819         estimate D2E/DX2                !
 ! A117  A(49,48,50)           120.6467         estimate D2E/DX2                !
 ! A118  A(48,50,51)           109.0157         estimate D2E/DX2                !
 ! A119  A(48,50,82)           119.7863         estimate D2E/DX2                !
 ! A120  A(51,50,82)           131.1979         estimate D2E/DX2                !
 ! A121  A(50,51,52)           113.8384         estimate D2E/DX2                !
 ! A122  A(50,51,53)           124.6928         estimate D2E/DX2                !
 ! A123  A(52,51,53)           121.405          estimate D2E/DX2                !
 ! A124  A(47,52,51)            95.819          estimate D2E/DX2                !
 ! A125  A(51,53,54)           118.3225         estimate D2E/DX2                !
 ! A126  A(51,53,59)           125.2354         estimate D2E/DX2                !
 ! A127  A(54,53,59)           116.4165         estimate D2E/DX2                !
 ! A128  A(53,54,55)           122.2103         estimate D2E/DX2                !
 ! A129  A(53,54,83)           118.6259         estimate D2E/DX2                !
 ! A130  A(55,54,83)           119.032          estimate D2E/DX2                !
 ! A131  A(54,55,56)           120.2038         estimate D2E/DX2                !
 ! A132  A(54,55,84)           124.668          estimate D2E/DX2                !
 ! A133  A(56,55,84)           115.1267         estimate D2E/DX2                !
 ! A134  A(55,56,57)           115.8236         estimate D2E/DX2                !
 ! A135  A(55,56,60)           123.6451         estimate D2E/DX2                !
 ! A136  A(57,56,60)           120.1296         estimate D2E/DX2                !
 ! A137  A(56,57,58)           121.4272         estimate D2E/DX2                !
 ! A138  A(56,57,59)           123.3449         estimate D2E/DX2                !
 ! A139  A(58,57,59)           115.0964         estimate D2E/DX2                !
 ! A140  A(53,59,57)           121.8046         estimate D2E/DX2                !
 ! A141  A(53,59,85)           118.3472         estimate D2E/DX2                !
 ! A142  A(57,59,85)           119.8454         estimate D2E/DX2                !
 ! A143  A(56,60,61)           126.1548         estimate D2E/DX2                !
 ! A144  A(56,60,65)           124.0916         estimate D2E/DX2                !
 ! A145  A(61,60,65)           109.5284         estimate D2E/DX2                !
 ! A146  A(60,61,62)           127.1437         estimate D2E/DX2                !
 ! A147  A(60,61,63)           113.2588         estimate D2E/DX2                !
 ! A148  A(62,61,63)           119.5814         estimate D2E/DX2                !
 ! A149  A(61,63,64)           110.408          estimate D2E/DX2                !
 ! A150  A(61,63,86)           126.7217         estimate D2E/DX2                !
 ! A151  A(64,63,86)           122.85           estimate D2E/DX2                !
 ! A152  A(63,64,65)           113.5353         estimate D2E/DX2                !
 ! A153  A(63,64,87)           130.2731         estimate D2E/DX2                !
 ! A154  A(65,64,87)           116.1915         estimate D2E/DX2                !
 ! A155  A(60,65,64)            93.2238         estimate D2E/DX2                !
 ! D1    D(7,1,2,3)              4.2053         estimate D2E/DX2                !
 ! D2    D(7,1,2,67)           179.9662         estimate D2E/DX2                !
 ! D3    D(66,1,2,3)           178.9935         estimate D2E/DX2                !
 ! D4    D(66,1,2,67)           -5.2456         estimate D2E/DX2                !
 ! D5    D(2,1,7,5)             -5.0447         estimate D2E/DX2                !
 ! D6    D(2,1,7,69)           179.7576         estimate D2E/DX2                !
 ! D7    D(66,1,7,5)           179.8403         estimate D2E/DX2                !
 ! D8    D(66,1,7,69)            4.6425         estimate D2E/DX2                !
 ! D9    D(1,2,3,4)             -4.9938         estimate D2E/DX2                !
 ! D10   D(1,2,3,68)          -177.2172         estimate D2E/DX2                !
 ! D11   D(67,2,3,4)           179.2515         estimate D2E/DX2                !
 ! D12   D(67,2,3,68)            7.028          estimate D2E/DX2                !
 ! D13   D(2,3,4,5)              6.6497         estimate D2E/DX2                !
 ! D14   D(2,3,4,8)           -179.3294         estimate D2E/DX2                !
 ! D15   D(68,3,4,5)           179.2814         estimate D2E/DX2                !
 ! D16   D(68,3,4,8)            -6.6977         estimate D2E/DX2                !
 ! D17   D(3,4,5,6)           -178.12           estimate D2E/DX2                !
 ! D18   D(3,4,5,7)             -8.1253         estimate D2E/DX2                !
 ! D19   D(8,4,5,6)              7.8814         estimate D2E/DX2                !
 ! D20   D(8,4,5,7)            177.8761         estimate D2E/DX2                !
 ! D21   D(3,4,8,9)             44.3455         estimate D2E/DX2                !
 ! D22   D(3,4,8,13)          -127.7438         estimate D2E/DX2                !
 ! D23   D(5,4,8,9)           -141.895          estimate D2E/DX2                !
 ! D24   D(5,4,8,13)            46.0156         estimate D2E/DX2                !
 ! D25   D(4,5,7,1)              7.1864         estimate D2E/DX2                !
 ! D26   D(4,5,7,69)          -177.7311         estimate D2E/DX2                !
 ! D27   D(6,5,7,1)            177.7009         estimate D2E/DX2                !
 ! D28   D(6,5,7,69)            -7.2167         estimate D2E/DX2                !
 ! D29   D(4,8,9,10)             4.9563         estimate D2E/DX2                !
 ! D30   D(4,8,9,11)          -177.6767         estimate D2E/DX2                !
 ! D31   D(13,8,9,10)          178.0788         estimate D2E/DX2                !
 ! D32   D(13,8,9,11)           -4.5542         estimate D2E/DX2                !
 ! D33   D(4,8,13,12)         -178.8162         estimate D2E/DX2                !
 ! D34   D(9,8,13,12)            7.4205         estimate D2E/DX2                !
 ! D35   D(8,9,11,12)           -1.5545         estimate D2E/DX2                !
 ! D36   D(8,9,11,70)         -176.6304         estimate D2E/DX2                !
 ! D37   D(10,9,11,12)         175.6963         estimate D2E/DX2                !
 ! D38   D(10,9,11,70)           0.6204         estimate D2E/DX2                !
 ! D39   D(9,11,12,13)           7.304          estimate D2E/DX2                !
 ! D40   D(9,11,12,14)         177.1738         estimate D2E/DX2                !
 ! D41   D(70,11,12,13)       -177.7135         estimate D2E/DX2                !
 ! D42   D(70,11,12,14)         -7.8438         estimate D2E/DX2                !
 ! D43   D(11,12,13,8)          -8.7772         estimate D2E/DX2                !
 ! D44   D(14,12,13,8)        -179.0834         estimate D2E/DX2                !
 ! D45   D(11,12,14,15)        -50.8349         estimate D2E/DX2                !
 ! D46   D(11,12,14,20)        134.8861         estimate D2E/DX2                !
 ! D47   D(13,12,14,15)        118.0434         estimate D2E/DX2                !
 ! D48   D(13,12,14,20)        -56.2356         estimate D2E/DX2                !
 ! D49   D(12,14,15,16)       -179.6365         estimate D2E/DX2                !
 ! D50   D(12,14,15,71)          6.2243         estimate D2E/DX2                !
 ! D51   D(20,14,15,16)         -5.7789         estimate D2E/DX2                !
 ! D52   D(20,14,15,71)       -179.9182         estimate D2E/DX2                !
 ! D53   D(12,14,20,18)       -179.5573         estimate D2E/DX2                !
 ! D54   D(12,14,20,73)         -6.2487         estimate D2E/DX2                !
 ! D55   D(15,14,20,18)          6.2842         estimate D2E/DX2                !
 ! D56   D(15,14,20,73)        179.5928         estimate D2E/DX2                !
 ! D57   D(14,15,16,17)          2.5963         estimate D2E/DX2                !
 ! D58   D(14,15,16,72)       -175.6344         estimate D2E/DX2                !
 ! D59   D(71,15,16,17)        177.3058         estimate D2E/DX2                !
 ! D60   D(71,15,16,72)         -0.9249         estimate D2E/DX2                !
 ! D61   D(15,16,17,18)         -0.2986         estimate D2E/DX2                !
 ! D62   D(15,16,17,21)       -179.6947         estimate D2E/DX2                !
 ! D63   D(72,16,17,18)        177.8752         estimate D2E/DX2                !
 ! D64   D(72,16,17,21)         -1.5209         estimate D2E/DX2                !
 ! D65   D(16,17,18,19)       -177.9423         estimate D2E/DX2                !
 ! D66   D(16,17,18,20)          1.0808         estimate D2E/DX2                !
 ! D67   D(21,17,18,19)          1.5123         estimate D2E/DX2                !
 ! D68   D(21,17,18,20)       -179.4647         estimate D2E/DX2                !
 ! D69   D(16,17,21,22)       -127.2821         estimate D2E/DX2                !
 ! D70   D(16,17,21,26)         46.3772         estimate D2E/DX2                !
 ! D71   D(18,17,21,22)         53.3071         estimate D2E/DX2                !
 ! D72   D(18,17,21,26)       -133.0336         estimate D2E/DX2                !
 ! D73   D(17,18,20,14)         -3.8486         estimate D2E/DX2                !
 ! D74   D(17,18,20,73)       -177.8025         estimate D2E/DX2                !
 ! D75   D(19,18,20,14)        175.2793         estimate D2E/DX2                !
 ! D76   D(19,18,20,73)          1.3254         estimate D2E/DX2                !
 ! D77   D(17,21,22,23)         -4.5025         estimate D2E/DX2                !
 ! D78   D(17,21,22,24)        176.1224         estimate D2E/DX2                !
 ! D79   D(26,21,22,23)       -178.4565         estimate D2E/DX2                !
 ! D80   D(26,21,22,24)          2.1684         estimate D2E/DX2                !
 ! D81   D(17,21,26,25)       -178.3212         estimate D2E/DX2                !
 ! D82   D(22,21,26,25)         -3.6256         estimate D2E/DX2                !
 ! D83   D(21,22,24,25)          0.9953         estimate D2E/DX2                !
 ! D84   D(21,22,24,74)       -179.7197         estimate D2E/DX2                !
 ! D85   D(23,22,24,25)       -178.4398         estimate D2E/DX2                !
 ! D86   D(23,22,24,74)          0.8453         estimate D2E/DX2                !
 ! D87   D(22,24,25,26)         -3.553          estimate D2E/DX2                !
 ! D88   D(22,24,25,27)        179.7226         estimate D2E/DX2                !
 ! D89   D(74,24,25,26)        177.1285         estimate D2E/DX2                !
 ! D90   D(74,24,25,27)          0.4041         estimate D2E/DX2                !
 ! D91   D(24,25,26,21)          4.0124         estimate D2E/DX2                !
 ! D92   D(27,25,26,21)       -178.921          estimate D2E/DX2                !
 ! D93   D(24,25,27,28)        135.0562         estimate D2E/DX2                !
 ! D94   D(24,25,27,33)        -46.6189         estimate D2E/DX2                !
 ! D95   D(26,25,27,28)        -41.3107         estimate D2E/DX2                !
 ! D96   D(26,25,27,33)        137.0142         estimate D2E/DX2                !
 ! D97   D(25,27,28,29)        178.8275         estimate D2E/DX2                !
 ! D98   D(25,27,28,75)          0.1414         estimate D2E/DX2                !
 ! D99   D(33,27,28,29)          0.4619         estimate D2E/DX2                !
 ! D100  D(33,27,28,75)       -178.2243         estimate D2E/DX2                !
 ! D101  D(25,27,33,31)        178.6904         estimate D2E/DX2                !
 ! D102  D(25,27,33,77)          4.016          estimate D2E/DX2                !
 ! D103  D(28,27,33,31)         -2.8857         estimate D2E/DX2                !
 ! D104  D(28,27,33,77)       -177.5601         estimate D2E/DX2                !
 ! D105  D(27,28,29,30)         -2.3042         estimate D2E/DX2                !
 ! D106  D(27,28,29,76)       -179.9353         estimate D2E/DX2                !
 ! D107  D(75,28,29,30)        176.4535         estimate D2E/DX2                !
 ! D108  D(75,28,29,76)         -1.1776         estimate D2E/DX2                !
 ! D109  D(28,29,30,31)          6.7778         estimate D2E/DX2                !
 ! D110  D(28,29,30,34)        178.5075         estimate D2E/DX2                !
 ! D111  D(76,29,30,31)       -175.9029         estimate D2E/DX2                !
 ! D112  D(76,29,30,34)         -4.1732         estimate D2E/DX2                !
 ! D113  D(29,30,31,32)       -178.6571         estimate D2E/DX2                !
 ! D114  D(29,30,31,33)         -9.1647         estimate D2E/DX2                !
 ! D115  D(34,30,31,32)          9.7056         estimate D2E/DX2                !
 ! D116  D(34,30,31,33)        179.1981         estimate D2E/DX2                !
 ! D117  D(29,30,34,35)         52.6323         estimate D2E/DX2                !
 ! D118  D(29,30,34,39)       -131.4941         estimate D2E/DX2                !
 ! D119  D(31,30,34,35)       -135.4416         estimate D2E/DX2                !
 ! D120  D(31,30,34,39)         40.432          estimate D2E/DX2                !
 ! D121  D(30,31,33,27)          7.1969         estimate D2E/DX2                !
 ! D122  D(30,31,33,77)       -177.6043         estimate D2E/DX2                !
 ! D123  D(32,31,33,27)        177.1944         estimate D2E/DX2                !
 ! D124  D(32,31,33,77)         -7.6069         estimate D2E/DX2                !
 ! D125  D(30,34,35,36)         -4.8311         estimate D2E/DX2                !
 ! D126  D(30,34,35,37)        178.3318         estimate D2E/DX2                !
 ! D127  D(39,34,35,36)        178.5862         estimate D2E/DX2                !
 ! D128  D(39,34,35,37)          1.7491         estimate D2E/DX2                !
 ! D129  D(30,34,39,38)       -177.0593         estimate D2E/DX2                !
 ! D130  D(35,34,39,38)         -0.4248         estimate D2E/DX2                !
 ! D131  D(34,35,37,38)         -2.5319         estimate D2E/DX2                !
 ! D132  D(34,35,37,78)       -176.3498         estimate D2E/DX2                !
 ! D133  D(36,35,37,38)       -179.4242         estimate D2E/DX2                !
 ! D134  D(36,35,37,78)          6.7578         estimate D2E/DX2                !
 ! D135  D(35,37,38,39)          2.0047         estimate D2E/DX2                !
 ! D136  D(35,37,38,40)       -174.6412         estimate D2E/DX2                !
 ! D137  D(78,37,38,39)        176.3626         estimate D2E/DX2                !
 ! D138  D(78,37,38,40)         -0.2833         estimate D2E/DX2                !
 ! D139  D(37,38,39,34)         -0.8652         estimate D2E/DX2                !
 ! D140  D(40,38,39,34)        176.1715         estimate D2E/DX2                !
 ! D141  D(37,38,40,41)        -45.1664         estimate D2E/DX2                !
 ! D142  D(37,38,40,46)        132.1553         estimate D2E/DX2                !
 ! D143  D(39,38,40,41)        138.52           estimate D2E/DX2                !
 ! D144  D(39,38,40,46)        -44.1583         estimate D2E/DX2                !
 ! D145  D(38,40,41,42)        178.7666         estimate D2E/DX2                !
 ! D146  D(38,40,41,79)         -8.8517         estimate D2E/DX2                !
 ! D147  D(46,40,41,42)          1.1892         estimate D2E/DX2                !
 ! D148  D(46,40,41,79)        173.5708         estimate D2E/DX2                !
 ! D149  D(38,40,46,44)       -174.8886         estimate D2E/DX2                !
 ! D150  D(38,40,46,81)         -5.646          estimate D2E/DX2                !
 ! D151  D(41,40,46,44)          2.4851         estimate D2E/DX2                !
 ! D152  D(41,40,46,81)        171.7276         estimate D2E/DX2                !
 ! D153  D(40,41,42,43)         -2.7786         estimate D2E/DX2                !
 ! D154  D(40,41,42,80)        175.5587         estimate D2E/DX2                !
 ! D155  D(79,41,42,43)       -175.3893         estimate D2E/DX2                !
 ! D156  D(79,41,42,80)          2.9479         estimate D2E/DX2                !
 ! D157  D(41,42,43,44)          0.763          estimate D2E/DX2                !
 ! D158  D(41,42,43,47)       -178.8204         estimate D2E/DX2                !
 ! D159  D(80,42,43,44)       -177.5302         estimate D2E/DX2                !
 ! D160  D(80,42,43,47)          2.8863         estimate D2E/DX2                !
 ! D161  D(42,43,44,45)       -178.0343         estimate D2E/DX2                !
 ! D162  D(42,43,44,46)          2.5956         estimate D2E/DX2                !
 ! D163  D(47,43,44,45)          1.5585         estimate D2E/DX2                !
 ! D164  D(47,43,44,46)       -177.8117         estimate D2E/DX2                !
 ! D165  D(42,43,47,48)         42.8317         estimate D2E/DX2                !
 ! D166  D(42,43,47,52)       -136.5355         estimate D2E/DX2                !
 ! D167  D(44,43,47,48)       -136.7487         estimate D2E/DX2                !
 ! D168  D(44,43,47,52)         43.8841         estimate D2E/DX2                !
 ! D169  D(43,44,46,40)         -4.4094         estimate D2E/DX2                !
 ! D170  D(43,44,46,81)       -174.5322         estimate D2E/DX2                !
 ! D171  D(45,44,46,40)        176.2272         estimate D2E/DX2                !
 ! D172  D(45,44,46,81)          6.1044         estimate D2E/DX2                !
 ! D173  D(43,47,48,49)         -0.7573         estimate D2E/DX2                !
 ! D174  D(43,47,48,50)        175.8359         estimate D2E/DX2                !
 ! D175  D(52,47,48,49)        178.7066         estimate D2E/DX2                !
 ! D176  D(52,47,48,50)         -4.7002         estimate D2E/DX2                !
 ! D177  D(43,47,52,51)       -175.5978         estimate D2E/DX2                !
 ! D178  D(48,47,52,51)          4.9411         estimate D2E/DX2                !
 ! D179  D(47,48,50,51)          2.0406         estimate D2E/DX2                !
 ! D180  D(47,48,50,82)       -177.8769         estimate D2E/DX2                !
 ! D181  D(49,48,50,51)        178.8406         estimate D2E/DX2                !
 ! D182  D(49,48,50,82)         -1.0769         estimate D2E/DX2                !
 ! D183  D(48,50,51,52)          1.7772         estimate D2E/DX2                !
 ! D184  D(48,50,51,53)       -175.3438         estimate D2E/DX2                !
 ! D185  D(82,50,51,52)       -178.318          estimate D2E/DX2                !
 ! D186  D(82,50,51,53)          4.5611         estimate D2E/DX2                !
 ! D187  D(50,51,52,47)         -4.0315         estimate D2E/DX2                !
 ! D188  D(53,51,52,47)        173.1951         estimate D2E/DX2                !
 ! D189  D(50,51,53,54)        -44.383          estimate D2E/DX2                !
 ! D190  D(50,51,53,59)        133.7046         estimate D2E/DX2                !
 ! D191  D(52,51,53,54)        138.7027         estimate D2E/DX2                !
 ! D192  D(52,51,53,59)        -43.2098         estimate D2E/DX2                !
 ! D193  D(51,53,54,55)       -179.4785         estimate D2E/DX2                !
 ! D194  D(51,53,54,83)         -3.6952         estimate D2E/DX2                !
 ! D195  D(59,53,54,55)          2.2656         estimate D2E/DX2                !
 ! D196  D(59,53,54,83)        178.0489         estimate D2E/DX2                !
 ! D197  D(51,53,59,57)       -178.0133         estimate D2E/DX2                !
 ! D198  D(51,53,59,85)          1.3892         estimate D2E/DX2                !
 ! D199  D(54,53,59,57)          0.107          estimate D2E/DX2                !
 ! D200  D(54,53,59,85)        179.5094         estimate D2E/DX2                !
 ! D201  D(53,54,55,56)         -0.8863         estimate D2E/DX2                !
 ! D202  D(53,54,55,84)        178.6548         estimate D2E/DX2                !
 ! D203  D(83,54,55,56)       -176.6531         estimate D2E/DX2                !
 ! D204  D(83,54,55,84)          2.8879         estimate D2E/DX2                !
 ! D205  D(54,55,56,57)         -2.7308         estimate D2E/DX2                !
 ! D206  D(54,55,56,60)       -175.4447         estimate D2E/DX2                !
 ! D207  D(84,55,56,57)        177.6861         estimate D2E/DX2                !
 ! D208  D(84,55,56,60)          4.9723         estimate D2E/DX2                !
 ! D209  D(55,56,57,58)       -179.155          estimate D2E/DX2                !
 ! D210  D(55,56,57,59)          5.2199         estimate D2E/DX2                !
 ! D211  D(60,56,57,58)         -6.1668         estimate D2E/DX2                !
 ! D212  D(60,56,57,59)        178.2081         estimate D2E/DX2                !
 ! D213  D(55,56,60,61)         42.1531         estimate D2E/DX2                !
 ! D214  D(55,56,60,65)       -131.8148         estimate D2E/DX2                !
 ! D215  D(57,56,60,61)       -130.2621         estimate D2E/DX2                !
 ! D216  D(57,56,60,65)         55.77           estimate D2E/DX2                !
 ! D217  D(56,57,59,53)         -4.0199         estimate D2E/DX2                !
 ! D218  D(56,57,59,85)        176.5865         estimate D2E/DX2                !
 ! D219  D(58,57,59,53)       -179.898          estimate D2E/DX2                !
 ! D220  D(58,57,59,85)          0.7083         estimate D2E/DX2                !
 ! D221  D(56,60,61,62)          4.5396         estimate D2E/DX2                !
 ! D222  D(56,60,61,63)       -176.9389         estimate D2E/DX2                !
 ! D223  D(65,60,61,62)        179.2415         estimate D2E/DX2                !
 ! D224  D(65,60,61,63)         -2.237          estimate D2E/DX2                !
 ! D225  D(56,60,65,64)        176.7739         estimate D2E/DX2                !
 ! D226  D(61,60,65,64)          1.9391         estimate D2E/DX2                !
 ! D227  D(60,61,63,64)          1.4216         estimate D2E/DX2                !
 ! D228  D(60,61,63,86)        179.8073         estimate D2E/DX2                !
 ! D229  D(62,61,63,64)       -179.9335         estimate D2E/DX2                !
 ! D230  D(62,61,63,86)         -1.5478         estimate D2E/DX2                !
 ! D231  D(61,63,64,65)          0.0908         estimate D2E/DX2                !
 ! D232  D(61,63,64,87)        179.9876         estimate D2E/DX2                !
 ! D233  D(86,63,64,65)       -178.3689         estimate D2E/DX2                !
 ! D234  D(86,63,64,87)          1.5279         estimate D2E/DX2                !
 ! D235  D(63,64,65,60)         -1.1847         estimate D2E/DX2                !
 ! D236  D(87,64,65,60)        178.903          estimate D2E/DX2                !
 --------------------------------------------------------------------------------
 Trust Radius=3.00D-01 FncErr=1.00D-07 GrdErr=1.00D-06 EigMax=2.50D+02 EigMin=1.00D-04
 Number of steps in this run=    497 maximum allowed number of steps=    522.
 GradGradGradGradGradGradGradGradGradGradGradGradGradGradGradGradGradGrad

 Leave Link  103 at Fri Jul 24 21:46:38 2020, MaxMem=  4026531840 cpu:               0.1 elap:               0.0
 (Enter /opt/ohpc/pub/libs/gaussian/g16-A.03/sandybridge/g16/l202.exe)
 Stoichiometry    C50H22F10S5
 Framework group  C1[X(C50H22F10S5)]
 Deg. of freedom   255
 Full point group                 C1      NOp   1
 Largest Abelian subgroup         C1      NOp   1
 Largest concise Abelian subgroup C1      NOp   1
                         Standard orientation:                         
 ---------------------------------------------------------------------
 Center     Atomic      Atomic             Coordinates (Angstroms)
 Number     Number       Type             X           Y           Z
 ---------------------------------------------------------------------
      1          6           0      -19.161608   -1.759767   -0.226031
      2          6           0      -18.886067   -0.520380   -0.646922
      3          6           0      -17.642505   -0.002887   -0.555280
      4          6           0      -16.630776   -0.721822    0.082035
      5          6           0      -16.928062   -2.020244    0.475476
      6          9           0      -15.969154   -2.803601    1.163890
      7          6           0      -18.184242   -2.564479    0.418677
      8          6           0      -15.284312   -0.178531    0.206449
      9          6           0      -14.841340    1.123101    0.571474
     10          9           0      -15.695527    2.008141    0.947808
     11          6           0      -13.466663    1.334604    0.546793
     12          6           0      -12.795317    0.159596    0.185455
     13         16           0      -13.866105   -1.040572   -0.284012
     14          6           0      -11.296400    0.019158   -0.005943
     15          6           0      -10.622233    0.862468   -0.782018
     16          6           0       -9.161928    0.691193   -0.952648
     17          6           0       -8.513040   -0.336195   -0.375678
     18          6           0       -9.254094   -1.249490    0.405218
     19          9           0       -8.716942   -2.319156    1.084058
     20          6           0      -10.705689   -1.123354    0.584468
     21          6           0       -7.101333   -0.593812   -0.469815
     22          6           0       -6.460437   -1.725536   -0.841270
     23          9           0       -6.970052   -2.861530   -1.122421
     24          6           0       -5.058617   -1.563411   -0.892039
     25          6           0       -4.630472   -0.279735   -0.527843
     26         16           0       -6.030482    0.708085   -0.230536
     27          6           0       -3.303134    0.264808   -0.450026
     28          6           0       -2.963884    1.520085   -0.952855
     29          6           0       -1.575256    2.072334   -0.833789
     30          6           0       -0.641272    1.325336   -0.167268
     31          6           0       -0.912322    0.034756    0.267087
     32          9           0       -0.007456   -0.711726    0.953122
     33          6           0       -2.289167   -0.464055    0.185881
     34          6           0        0.715418    1.839617   -0.076596
     35          6           0        1.131500    3.094736    0.375965
     36          9           0        0.219050    4.106145    0.732534
     37          6           0        2.464202    3.329131    0.397970
     38          6           0        3.218780    2.212346    0.000511
     39         16           0        2.177233    0.978824   -0.419418
     40          6           0        4.613454    2.010275   -0.017760
     41          6           0        5.456255    3.071410   -0.548490
     42          6           0        6.871267    2.958165   -0.578890
     43          6           0        7.508977    1.832979   -0.040422
     44          6           0        6.689452    0.769211    0.538511
     45          9           0        7.241057   -0.269085    1.080050
     46          6           0        5.264190    0.915847    0.469670
     47          6           0        8.913855    1.708182   -0.036433
     48          6           0        9.827267    2.722859    0.280636
     49          9           0        9.523872    3.971961    0.615738
     50          6           0       11.241775    2.256396    0.290322
     51          6           0       11.277875    0.946879   -0.063022
     52         16           0        9.799124    0.313723   -0.427262
     53          6           0       12.528773    0.088764   -0.070484
     54          6           0       13.744138    0.647176   -0.636839
     55          6           0       14.902633   -0.053076   -0.693312
     56          6           0       14.967323   -1.404054   -0.160367
     57          6           0       13.806412   -1.873444    0.441531
     58          9           0       13.746743   -3.094819    0.984101
     59          6           0       12.623850   -1.172900    0.451002
     60          6           0       16.168049   -2.171748   -0.096123
     61          6           0       17.411832   -1.708078    0.282716
     62          9           0       17.719302   -0.467488    0.745907
     63          6           0       18.428370   -2.688321    0.182100
     64          6           0       17.917570   -3.854114   -0.301499
     65         16           0       16.298473   -3.781778   -0.623407
     66          1           0      -20.200708   -2.200301   -0.280977
     67          1           0      -19.703345    0.084469   -1.158721
     68          1           0      -17.405677    1.047284   -0.860675
     69          1           0      -18.401785   -3.502395    0.738429
     70          1           0      -12.996074    2.253604    0.849304
     71          1           0      -11.053280    1.778891   -1.267070
     72          1           0       -8.614438    1.454999   -1.547532
     73          1           0      -11.193820   -1.843990    1.228369
     74          1           0       -4.317417   -2.367287   -1.180504
     75          1           0       -3.707872    2.173952   -1.443035
     76          1           0       -1.435864    3.046040   -1.256560
     77          1           0       -2.413633   -1.464052    0.584275
     78          1           0        2.990047    4.246443    0.778468
     79          1           0        4.997341    3.960073   -1.067182
     80          1           0        7.403346    3.696902   -1.021063
     81          1           0        4.722042    0.101736    1.024652
     82          1           0       12.059224    2.967783    0.564678
     83          1           0       13.699387    1.691141   -1.115942
     84          1           0       15.830371    0.317879   -1.127324
     85          1           0       11.708933   -1.631092    0.903203
     86          1           0       19.450407   -2.563423    0.413077
     87          1           0       18.414592   -4.822637   -0.508476
 ---------------------------------------------------------------------
 Rotational constants (GHZ):           0.1234156           0.0040264           0.0039209
 Leave Link  202 at Fri Jul 24 21:46:38 2020, MaxMem=  4026531840 cpu:               0.1 elap:               0.0
 (Enter /opt/ohpc/pub/libs/gaussian/g16-A.03/sandybridge/g16/l301.exe)
 Standard basis: CC-pVDZ (5D, 7F)
 Ernie: Thresh=  0.10000D-02 Tol=  0.10000D-05 Strict=F.
 Ernie:  170 primitive shells out of 1680 were deleted.
 There are  1105 symmetry adapted cartesian basis functions of A   symmetry.
 There are  1040 symmetry adapted basis functions of A   symmetry.
  1040 basis functions,  2489 primitive gaussians,  1105 cartesian basis functions
   246 alpha electrons      246 beta electrons
       nuclear repulsion energy      8518.6742014029 Hartrees.
 IExCor=32609 DFT=T Ex+Corr=LC-wPBE ExCW=0 ScaHFX=  1.000000
 ScaDFX=  1.000000  0.000000  1.000000  1.000000 ScalE2=  1.000000  1.000000
 IRadAn=      5 IRanWt=     -1 IRanGd=            0 ICorTp=0 IEmpDi=  4
 HFx  wShort=  0.000000 wLong=  0.095600 cFull=  0.000000 cShort=  0.000000 cLong=  1.000000
 DFx  wShort=  0.000000 wLong=  0.095600 cFull=  0.000000 cShort=  0.000000 cLong=  1.000000
 NAtoms=   87 NActive=   87 NUniq=   87 SFac= 1.00D+00 NAtFMM=   60 NAOKFM=T Big=T
 Integral buffers will be    131072 words long.
 Raffenetti 2 integral format.
 Two-electron integral symmetry is turned on.
 Leave Link  301 at Fri Jul 24 21:46:38 2020, MaxMem=  4026531840 cpu:               0.5 elap:               0.1
 (Enter /opt/ohpc/pub/libs/gaussian/g16-A.03/sandybridge/g16/l302.exe)
 NPDir=0 NMtPBC=     1 NCelOv=     1 NCel=       1 NClECP=     1 NCelD=      1
         NCelK=      1 NCelE2=     1 NClLst=     1 CellRange=     0.0.
 One-electron integrals computed using PRISM.
 One-electron integral symmetry used in STVInt
 NBasis=  1040 RedAO= T EigKep=  2.98D-04  NBF=  1040
 NBsUse=  1040 1.00D-06 EigRej= -1.00D+00 NBFU=  1040
 Precomputing XC quadrature grid using
 IXCGrd= 4 IRadAn=           5 IRanWt=          -1 IRanGd=           0 AccXCQ= 0.00D+00.
 Generated NRdTot=       0 NPtTot=           0 NUsed=           0 NTot=          32
 NSgBfM=   641   641   641   641   641 MxSgAt=    87 MxSgA2=    77.
 Leave Link  302 at Fri Jul 24 21:46:42 2020, MaxMem=  4026531840 cpu:              30.0 elap:               3.8
 (Enter /opt/ohpc/pub/libs/gaussian/g16-A.03/sandybridge/g16/l303.exe)
 DipDrv:  MaxL=1.
 Leave Link  303 at Fri Jul 24 21:46:42 2020, MaxMem=  4026531840 cpu:               1.8 elap:               0.3
 (Enter /opt/ohpc/pub/libs/gaussian/g16-A.03/sandybridge/g16/l401.exe)
 ExpMin= 1.22D-01 ExpMax= 1.11D+05 ExpMxC= 1.07D+03 IAcc=3 IRadAn=         5 AccDes= 0.00D+00
 Harris functional with IExCor=32609 and IRadAn=       5 diagonalized for initial guess.
 HarFok:  IExCor=32609 AccDes= 0.00D+00 IRadAn=         5 IDoV= 1 UseB2=F ITyADJ=14
 ICtDFT=  3500011 ScaDFX=  1.000000  1.000000  1.000000  1.000000
 FoFCou: FMM=F IPFlag=           0 FMFlag=      100000 FMFlg1=        2001
         NFxFlg=           0 DoJE=T BraDBF=F KetDBF=T FulRan=T
         wScrn=  0.000000 ICntrl=       500 IOpCl=  0 I1Cent=   200000004 NGrid=           0
         NMat0=    1 NMatS0=      1 NMatT0=    0 NMatD0=    1 NMtDS0=    0 NMtDT0=    0
 Petite list used in FoFCou.
 Harris En= -4904.61675292581    
 JPrj=0 DoOrth=F DoCkMO=F.
 Initial guess <Sx>= 0.0000 <Sy>= 0.0000 <Sz>= 0.0000 <S**2>=-0.0000 S=-0.0000
 Leave Link  401 at Fri Jul 24 21:46:53 2020, MaxMem=  4026531840 cpu:              89.0 elap:              11.2
 (Enter /opt/ohpc/pub/libs/gaussian/g16-A.03/sandybridge/g16/l502.exe)
 Integral symmetry usage will be decided dynamically.
 UHF open shell SCF:
 Using DIIS extrapolation, IDIIS=  1040.
 NGot=  4026531840 LenX=  4024070119 LenY=  4022847989
 Requested convergence on RMS density matrix=1.00D-08 within 128 cycles.
 Requested convergence on MAX density matrix=1.00D-06.
 Requested convergence on             energy=1.00D-06.
 No special actions if energy rises.
 Fock matrices will be formed incrementally for  20 cycles.
 Integral accuracy reduced to 1.0D-05 until final iterations.

 Cycle   1  Pass 0  IDiag  1:
 FoFJK:  IHMeth= 1 ICntrl=       0 DoSepK=T KAlg= 0 I1Cent=           0 FoldK=F
 IRaf=         1 NMat=       1 IRICut=       1 DoRegI=T DoRafI=F ISym2E= 0 IDoP0=0 IntGTp=1.
 FoFCou: FMM=T IPFlag=           0 FMFlag=      100000 FMFlg1=        2001
         NFxFlg=           0 DoJE=T BraDBF=F KetDBF=F FulRan=T
         wScrn=  0.000000 ICntrl=       500 IOpCl=  0 I1Cent=           0 NGrid=           0
         NMat0=    1 NMatS0=      1 NMatT0=    0 NMatD0=    1 NMtDS0=    0 NMtDT0=    0
 Symmetry not used in FoFCou.
 FMM levels:  10  Number of levels for PrismC:   9
 E= -4903.31573745021    
 DIIS: error= 1.54D-02 at cycle   1 NSaved=   1.
 NSaved= 1 IEnMin= 1 EnMin= -4903.31573745021     IErMin= 1 ErrMin= 1.54D-02
 ErrMax= 1.54D-02  0.00D+00 EMaxC= 1.00D-01 BMatC= 4.04D+00 BMatP= 4.04D+00
 IDIUse=3 WtCom= 8.46D-01 WtEn= 1.54D-01
 Coeff-Com:  0.100D+01
 Coeff-En:   0.100D+01
 Coeff:      0.100D+01
 Gap=     0.226 Goal=   None    Shift=    0.000
 Gap=     0.226 Goal=   None    Shift=    0.000
 GapD=    0.226 DampG=1.000 DampE=0.500 DampFc=0.5000 IDamp=-1.
 Damping current iteration by 5.00D-01
 RMSDP=2.63D-03 MaxDP=1.76D-01              OVMax= 2.29D-01

 Cycle   2  Pass 0  IDiag  1:
 RMSU=  1.31D-03    CP:  9.93D-01
 E= -4903.72582937802     Delta-E=       -0.410091927810 Rises=F Damp=T
 DIIS: error= 4.00D-03 at cycle   2 NSaved=   2.
 NSaved= 2 IEnMin= 2 EnMin= -4903.72582937802     IErMin= 2 ErrMin= 4.00D-03
 ErrMax= 4.00D-03  0.00D+00 EMaxC= 1.00D-01 BMatC= 3.43D-01 BMatP= 4.04D+00
 IDIUse=3 WtCom= 9.60D-01 WtEn= 4.00D-02
 Coeff-Com:  0.164D+00 0.836D+00
 Coeff-En:   0.271D+00 0.729D+00
 Coeff:      0.168D+00 0.832D+00
 Gap=     0.218 Goal=   None    Shift=    0.000
 Gap=     0.218 Goal=   None    Shift=    0.000
 RMSDP=7.99D-04 MaxDP=4.80D-02 DE=-4.10D-01 OVMax= 1.98D-01

 Cycle   3  Pass 0  IDiag  1:
 RMSU=  7.64D-04    CP:  9.95D-01  8.24D-01
 E= -4904.40532841552     Delta-E=       -0.679499037500 Rises=F Damp=F
 DIIS: error= 4.22D-03 at cycle   3 NSaved=   3.
 NSaved= 3 IEnMin= 3 EnMin= -4904.40532841552     IErMin= 2 ErrMin= 4.00D-03
 ErrMax= 4.22D-03  0.00D+00 EMaxC= 1.00D-01 BMatC= 2.25D-01 BMatP= 3.43D-01
 IDIUse=3 WtCom= 9.58D-01 WtEn= 4.22D-02
 Coeff-Com:  0.610D-01 0.451D+00 0.488D+00
 Coeff-En:   0.000D+00 0.000D+00 0.100D+01
 Coeff:      0.584D-01 0.432D+00 0.510D+00
 Gap=     0.183 Goal=   None    Shift=    0.000
 Gap=     0.183 Goal=   None    Shift=    0.000
 RMSDP=3.58D-04 MaxDP=2.80D-02 DE=-6.79D-01 OVMax= 5.82D-02

 Cycle   4  Pass 0  IDiag  1:
 RMSU=  2.47D-04    CP:  9.95D-01  8.74D-01  6.71D-01
 E= -4904.45496452820     Delta-E=       -0.049636112677 Rises=F Damp=F
 DIIS: error= 1.77D-03 at cycle   4 NSaved=   4.
 NSaved= 4 IEnMin= 4 EnMin= -4904.45496452820     IErMin= 4 ErrMin= 1.77D-03
 ErrMax= 1.77D-03  0.00D+00 EMaxC= 1.00D-01 BMatC= 3.99D-02 BMatP= 2.25D-01
 IDIUse=3 WtCom= 9.82D-01 WtEn= 1.77D-02
 Coeff-Com:  0.189D-01 0.132D+00 0.306D+00 0.543D+00
 Coeff-En:   0.000D+00 0.000D+00 0.157D+00 0.843D+00
 Coeff:      0.186D-01 0.130D+00 0.303D+00 0.548D+00
 Gap=     0.182 Goal=   None    Shift=    0.000
 Gap=     0.182 Goal=   None    Shift=    0.000
 RMSDP=1.26D-04 MaxDP=1.29D-02 DE=-4.96D-02 OVMax= 2.20D-02

 Cycle   5  Pass 0  IDiag  1:
 RMSU=  8.35D-05    CP:  9.95D-01  8.58D-01  7.19D-01  6.60D-01
 E= -4904.46409488815     Delta-E=       -0.009130359947 Rises=F Damp=F
 DIIS: error= 6.20D-04 at cycle   5 NSaved=   5.
 NSaved= 5 IEnMin= 5 EnMin= -4904.46409488815     IErMin= 5 ErrMin= 6.20D-04
 ErrMax= 6.20D-04  0.00D+00 EMaxC= 1.00D-01 BMatC= 5.99D-03 BMatP= 3.99D-02
 IDIUse=3 WtCom= 9.94D-01 WtEn= 6.20D-03
 Coeff-Com:  0.705D-02 0.273D-01 0.133D+00 0.347D+00 0.485D+00
 Coeff-En:   0.000D+00 0.000D+00 0.000D+00 0.882D-01 0.912D+00
 Coeff:      0.701D-02 0.272D-01 0.133D+00 0.345D+00 0.488D+00
 Gap=     0.183 Goal=   None    Shift=    0.000
 Gap=     0.183 Goal=   None    Shift=    0.000
 RMSDP=5.03D-05 MaxDP=4.58D-03 DE=-9.13D-03 OVMax= 7.60D-03

 Cycle   6  Pass 0  IDiag  1:
 RMSU=  3.41D-05    CP:  9.95D-01  8.57D-01  7.34D-01  7.26D-01  6.28D-01
 E= -4904.46547246666     Delta-E=       -0.001377578516 Rises=F Damp=F
 DIIS: error= 2.01D-04 at cycle   6 NSaved=   6.
 NSaved= 6 IEnMin= 6 EnMin= -4904.46547246666     IErMin= 6 ErrMin= 2.01D-04
 ErrMax= 2.01D-04  0.00D+00 EMaxC= 1.00D-01 BMatC= 6.45D-04 BMatP= 5.99D-03
 IDIUse=3 WtCom= 9.98D-01 WtEn= 2.01D-03
 Coeff-Com:  0.242D-02-0.768D-02 0.279D-01 0.114D+00 0.285D+00 0.579D+00
 Coeff-En:   0.000D+00 0.000D+00 0.000D+00 0.000D+00 0.532D-01 0.947D+00
 Coeff:      0.241D-02-0.766D-02 0.278D-01 0.114D+00 0.284D+00 0.580D+00
 Gap=     0.183 Goal=   None    Shift=    0.000
 Gap=     0.183 Goal=   None    Shift=    0.000
 RMSDP=2.26D-05 MaxDP=1.36D-03 DE=-1.38D-03 OVMax= 2.61D-03

 Cycle   7  Pass 0  IDiag  1:
 RMSU=  1.96D-05    CP:  9.95D-01  8.55D-01  7.38D-01  7.37D-01  7.39D-01
                    CP:  8.75D-01
 E= -4904.46562529455     Delta-E=       -0.000152827886 Rises=F Damp=F
 DIIS: error= 7.10D-05 at cycle   7 NSaved=   7.
 NSaved= 7 IEnMin= 7 EnMin= -4904.46562529455     IErMin= 7 ErrMin= 7.10D-05
 ErrMax= 7.10D-05  0.00D+00 EMaxC= 1.00D-01 BMatC= 9.09D-05 BMatP= 6.45D-04
 IDIUse=1 WtCom= 1.00D+00 WtEn= 0.00D+00
 Coeff-Com:  0.957D-03-0.829D-02 0.158D-02 0.272D-01 0.107D+00 0.333D+00
 Coeff-Com:  0.538D+00
 Coeff:      0.957D-03-0.829D-02 0.158D-02 0.272D-01 0.107D+00 0.333D+00
 Coeff:      0.538D+00
 Gap=     0.183 Goal=   None    Shift=    0.000
 Gap=     0.183 Goal=   None    Shift=    0.000
 RMSDP=1.80D-05 MaxDP=6.18D-04 DE=-1.53D-04 OVMax= 9.99D-04

 Cycle   8  Pass 0  IDiag  1:
 RMSU=  1.63D-05    CP:  9.95D-01  8.54D-01  7.39D-01  7.43D-01  7.55D-01
                    CP:  1.04D+00  1.21D+00
 E= -4904.46565252175     Delta-E=       -0.000027227197 Rises=F Damp=F
 DIIS: error= 6.93D-05 at cycle   8 NSaved=   8.
 NSaved= 8 IEnMin= 8 EnMin= -4904.46565252175     IErMin= 8 ErrMin= 6.93D-05
 ErrMax= 6.93D-05  0.00D+00 EMaxC= 1.00D-01 BMatC= 2.45D-05 BMatP= 9.09D-05
 IDIUse=1 WtCom= 1.00D+00 WtEn= 0.00D+00
 Coeff-Com:  0.584D-03-0.517D-02-0.948D-04 0.118D-01 0.525D-01 0.184D+00
 Coeff-Com:  0.352D+00 0.405D+00
 Coeff:      0.584D-03-0.517D-02-0.948D-04 0.118D-01 0.525D-01 0.184D+00
 Coeff:      0.352D+00 0.405D+00
 Gap=     0.183 Goal=   None    Shift=    0.000
 Gap=     0.183 Goal=   None    Shift=    0.000
 RMSDP=1.68D-05 MaxDP=4.81D-04 DE=-2.72D-05 OVMax= 2.71D-04

 Cycle   9  Pass 0  IDiag  1:
 RMSU=  1.07D-05    CP:  9.95D-01  8.54D-01  7.40D-01  7.46D-01  7.68D-01
                    CP:  1.14D+00  1.69D+00  1.50D+00
 E= -4904.46565286278     Delta-E=       -0.000000341028 Rises=F Damp=F
 DIIS: error= 9.18D-05 at cycle   9 NSaved=   9.
 NSaved= 9 IEnMin= 9 EnMin= -4904.46565286278     IErMin= 8 ErrMin= 6.93D-05
 ErrMax= 9.18D-05  0.00D+00 EMaxC= 1.00D-01 BMatC= 3.44D-05 BMatP= 2.45D-05
 IDIUse=1 WtCom= 1.00D+00 WtEn= 0.00D+00
 Coeff-Com:  0.596D-03-0.562D-02-0.803D-03 0.104D-01 0.517D-01 0.192D+00
 Coeff-Com:  0.401D+00 0.633D+00-0.282D+00
 Coeff:      0.596D-03-0.562D-02-0.803D-03 0.104D-01 0.517D-01 0.192D+00
 Coeff:      0.401D+00 0.633D+00-0.282D+00
 Gap=     0.183 Goal=   None    Shift=    0.000
 Gap=     0.183 Goal=   None    Shift=    0.000
 RMSDP=1.13D-05 MaxDP=4.56D-04 DE=-3.41D-07 OVMax= 5.41D-05

 Cycle  10  Pass 0  IDiag  1:
 RMSU=  7.33D-06    CP:  9.95D-01  8.54D-01  7.40D-01  7.45D-01  7.63D-01
                    CP:  1.09D+00  1.50D+00  1.10D+00  6.60D-01
 E= -4904.46565525513     Delta-E=       -0.000002392359 Rises=F Damp=F
 DIIS: error= 8.99D-05 at cycle  10 NSaved=  10.
 NSaved=10 IEnMin=10 EnMin= -4904.46565525513     IErMin= 8 ErrMin= 6.93D-05
 ErrMax= 8.99D-05  0.00D+00 EMaxC= 1.00D-01 BMatC= 3.06D-05 BMatP= 2.45D-05
 IDIUse=1 WtCom= 1.00D+00 WtEn= 0.00D+00
 Coeff-Com:  0.518D-03-0.495D-02-0.113D-02 0.719D-02 0.403D-01 0.160D+00
 Coeff-Com:  0.357D+00 0.695D+00-0.635D+00 0.381D+00
 Coeff:      0.518D-03-0.495D-02-0.113D-02 0.719D-02 0.403D-01 0.160D+00
 Coeff:      0.357D+00 0.695D+00-0.635D+00 0.381D+00
 Gap=     0.183 Goal=   None    Shift=    0.000
 Gap=     0.183 Goal=   None    Shift=    0.000
 RMSDP=1.14D-05 MaxDP=4.40D-04 DE=-2.39D-06 OVMax= 4.77D-05

 Cycle  11  Pass 0  IDiag  1:
 RMSU=  9.51D-06    CP:  9.95D-01  8.54D-01  7.40D-01  7.45D-01  7.62D-01
                    CP:  1.08D+00  1.41D+00  1.03D+00  1.25D-01  1.15D+00
 E= -4904.46565660684     Delta-E=       -0.000001351704 Rises=F Damp=F
[...]
 
              Baa    -0.0000    -0.000    -0.000    -0.000 -0.2176 -0.0062  0.9760
    29 C(13)  Bbb    -0.0000    -0.000    -0.000    -0.000 -0.5093  0.8537 -0.1082
              Bcc     0.0000     0.000     0.000     0.000  0.8326  0.5207  0.1889
 
              Baa    -0.0000    -0.000    -0.000    -0.000  0.8032  0.5859  0.1075
    30 C(13)  Bbb    -0.0000    -0.000    -0.000    -0.000 -0.5927  0.8041  0.0463
              Bcc     0.0000     0.000     0.000     0.000 -0.0593 -0.1008  0.9931
 
              Baa    -0.0000    -0.000    -0.000    -0.000 -0.0283 -0.2291  0.9730
    31 C(13)  Bbb     0.0000     0.000     0.000     0.000  0.8793 -0.4686 -0.0848
              Bcc     0.0000     0.000     0.000     0.000  0.4754  0.8532  0.2147
 
              Baa    -0.0000    -0.000    -0.000    -0.000  0.3377  0.9282  0.1560
    32 F(19)  Bbb     0.0000     0.000     0.000     0.000  0.0454 -0.1816  0.9823
              Bcc     0.0000     0.000     0.000     0.000  0.9401 -0.3247 -0.1035
 
              Baa    -0.0000    -0.000    -0.000    -0.000 -0.6733  0.7350  0.0804
    33 C(13)  Bbb    -0.0000    -0.000    -0.000    -0.000 -0.1573 -0.2487  0.9557
              Bcc     0.0000     0.000     0.000     0.000  0.7224  0.6308  0.2831
 
              Baa    -0.0000    -0.000    -0.000    -0.000  0.1299  0.9733  0.1891
    34 C(13)  Bbb    -0.0000    -0.000    -0.000    -0.000  0.9886 -0.1123 -0.1007
              Bcc     0.0000     0.000     0.000     0.000  0.0768 -0.2000  0.9768
 
              Baa    -0.0000    -0.000    -0.000    -0.000 -0.0242  0.9622  0.2712
    35 C(13)  Bbb    -0.0000    -0.000    -0.000    -0.000  0.9997  0.0251 -0.0001
              Bcc     0.0000     0.000     0.000     0.000  0.0069 -0.2711  0.9625
 
              Baa    -0.0000    -0.000    -0.000    -0.000  0.0746 -0.2491  0.9656
    36 F(19)  Bbb    -0.0000    -0.000    -0.000    -0.000  0.9221 -0.3516 -0.1619
              Bcc     0.0000     0.000     0.000     0.000  0.3798  0.9024  0.2034
 
              Baa    -0.0000    -0.000    -0.000    -0.000  0.0329  0.9121 -0.4086
    37 C(13)  Bbb     0.0000     0.000     0.000     0.000  0.0031  0.4087  0.9127
              Bcc     0.0000     0.000     0.000     0.000  0.9995 -0.0313  0.0106
 
              Baa    -0.0000    -0.000    -0.000    -0.000  0.9561  0.2881  0.0543
    38 C(13)  Bbb     0.0000     0.000     0.000     0.000  0.0391 -0.3089  0.9503
              Bcc     0.0000     0.000     0.000     0.000 -0.2905  0.9064  0.3066
 
              Baa    -0.0000    -0.000    -0.000    -0.000  0.7687 -0.6334  0.0885
    39 S(33)  Bbb    -0.0000    -0.000    -0.000    -0.000 -0.0753  0.0478  0.9960
              Bcc     0.0000     0.000     0.000     0.000  0.6351  0.7723  0.0110
 
              Baa    -0.0000    -0.000    -0.000    -0.000  0.9890  0.0106 -0.1476
    40 C(13)  Bbb    -0.0000    -0.000    -0.000    -0.000  0.1463  0.0776  0.9862
              Bcc     0.0000     0.000     0.000     0.000 -0.0219  0.9969 -0.0752
 
              Baa    -0.0000    -0.000    -0.000    -0.000  0.9343 -0.2854  0.2135
    41 C(13)  Bbb     0.0000     0.000     0.000     0.000 -0.1061  0.3491  0.9311
              Bcc     0.0000     0.000     0.000     0.000  0.3403  0.8926 -0.2958
 
              Baa    -0.0000    -0.000    -0.000    -0.000  0.9282 -0.3686  0.0519
    42 C(13)  Bbb     0.0000     0.000     0.000     0.000 -0.1061 -0.1285  0.9860
              Bcc     0.0000     0.000     0.000     0.000  0.3567  0.9207  0.1584
 
              Baa    -0.0000    -0.000    -0.000    -0.000  0.9396  0.3351 -0.0691
    43 C(13)  Bbb     0.0000     0.000     0.000     0.000  0.0227  0.1407  0.9898
              Bcc     0.0000     0.000     0.000     0.000 -0.3414  0.9316 -0.1246
 
              Baa    -0.0000    -0.000    -0.000    -0.000  0.3950  0.9124 -0.1073
    44 C(13)  Bbb     0.0000     0.000     0.000     0.000  0.2798 -0.0083  0.9600
              Bcc     0.0000     0.000     0.000     0.000  0.8750 -0.4092 -0.2585
 
              Baa    -0.0000    -0.000    -0.000    -0.000  0.0600  0.0395  0.9974
    45 F(19)  Bbb    -0.0000    -0.000    -0.000    -0.000  0.8526 -0.5216 -0.0306
              Bcc     0.0000     0.000     0.000     0.000  0.5190  0.8523 -0.0650
 
              Baa    -0.0000    -0.000    -0.000    -0.000  0.0068  0.0958  0.9954
    46 C(13)  Bbb    -0.0000    -0.000    -0.000    -0.000  0.6939  0.7163 -0.0736
              Bcc     0.0000     0.000     0.000     0.000  0.7200 -0.6912  0.0616
 
              Baa    -0.0000    -0.000    -0.000    -0.000 -0.4094  0.7237 -0.5556
    47 C(13)  Bbb    -0.0000    -0.000    -0.000    -0.000 -0.1910  0.5275  0.8278
              Bcc     0.0000     0.000     0.000     0.000  0.8921  0.4450 -0.0778
 
              Baa    -0.0000    -0.000    -0.000    -0.000 -0.0376 -0.0469  0.9982
    48 C(13)  Bbb    -0.0000    -0.000    -0.000    -0.000  0.4466  0.8928  0.0588
              Bcc     0.0000     0.000     0.000     0.000  0.8939 -0.4480  0.0126
 
              Baa    -0.0000    -0.000    -0.000    -0.000  0.5979  0.8016 -0.0053
    49 F(19)  Bbb    -0.0000    -0.000    -0.000    -0.000 -0.0081  0.0127  0.9999
              Bcc     0.0000     0.000     0.000     0.000  0.8016 -0.5977  0.0141
 
              Baa    -0.0000    -0.000    -0.000    -0.000  0.4182  0.8407 -0.3441
    50 C(13)  Bbb     0.0000     0.000     0.000     0.000  0.2160  0.2759  0.9366
              Bcc     0.0000     0.000     0.000     0.000  0.8823 -0.4660 -0.0662
 
              Baa    -0.0000    -0.000    -0.000    -0.000  0.8591  0.4683 -0.2064
    51 C(13)  Bbb     0.0000     0.000     0.000     0.000 -0.0585  0.4905  0.8695
              Bcc     0.0000     0.000     0.000     0.000 -0.5084  0.7349 -0.4488
 
              Baa    -0.0000    -0.000    -0.000    -0.000 -0.3660  0.9242 -0.1086
    52 S(33)  Bbb    -0.0000    -0.000    -0.000    -0.000 -0.1123  0.0720  0.9911
              Bcc     0.0000     0.000     0.000     0.000  0.9238  0.3749  0.0774
 
              Baa    -0.0000    -0.000    -0.000    -0.000 -0.0756  0.9510 -0.2998
    53 C(13)  Bbb    -0.0000    -0.000    -0.000    -0.000  0.9943  0.0493 -0.0944
              Bcc     0.0000     0.000     0.000     0.000  0.0750  0.3052  0.9493
 
              Baa    -0.0000    -0.000    -0.000    -0.000  0.9009 -0.2054  0.3824
    54 C(13)  Bbb    -0.0000    -0.000    -0.000    -0.000 -0.2601  0.4500  0.8543
              Bcc     0.0000     0.000     0.000     0.000  0.3475  0.8691 -0.3519
 
              Baa    -0.0000    -0.000    -0.000    -0.000  0.6875 -0.6782  0.2595
    55 C(13)  Bbb     0.0000     0.000     0.000     0.000  0.1524  0.4841  0.8616
              Bcc     0.0000     0.000     0.000     0.000  0.7100  0.5529 -0.4362
 
              Baa    -0.0000    -0.000    -0.000    -0.000 -0.3090  0.9069 -0.2865
    56 C(13)  Bbb     0.0000     0.000     0.000     0.000  0.2576  0.3698  0.8927
              Bcc     0.0000     0.000     0.000     0.000  0.9155  0.2020 -0.3478
 
              Baa    -0.0000    -0.000    -0.000    -0.000  0.8341 -0.5428  0.0982
    57 C(13)  Bbb    -0.0000    -0.000    -0.000    -0.000  0.0948  0.3165  0.9438
              Bcc     0.0000     0.000     0.000     0.000  0.5434  0.7779 -0.3155
 
              Baa    -0.0000    -0.000    -0.000    -0.000  0.4972  0.7420  0.4496
    58 F(19)  Bbb    -0.0000    -0.000    -0.000    -0.000 -0.3077 -0.3337  0.8910
              Bcc     0.0000     0.000     0.000     0.000  0.8112 -0.5814  0.0624
 
              Baa    -0.0000    -0.000    -0.000    -0.000 -0.1252 -0.2040  0.9709
    59 C(13)  Bbb    -0.0000    -0.000    -0.000    -0.000  0.7168  0.6581  0.2307
              Bcc     0.0000     0.000     0.000     0.000 -0.6860  0.7248  0.0638
 
              Baa    -0.0000    -0.000    -0.000    -0.000  0.0192  0.9932  0.1151
    60 C(13)  Bbb     0.0000     0.000     0.000     0.000  0.0782 -0.1162  0.9901
              Bcc     0.0000     0.000     0.000     0.000  0.9968 -0.0101 -0.0799
 
              Baa    -0.0000    -0.000    -0.000    -0.000  0.5689 -0.5510  0.6105
    61 C(13)  Bbb    -0.0000    -0.000    -0.000    -0.000 -0.1314  0.6719  0.7289
              Bcc     0.0000     0.000     0.000     0.000  0.8119  0.4948 -0.3099
 
              Baa    -0.0000    -0.000    -0.000    -0.000  0.7307  0.6068 -0.3129
    62 F(19)  Bbb     0.0000     0.000     0.000     0.000 -0.6214  0.7809  0.0630
              Bcc     0.0000     0.000     0.000     0.000  0.2826  0.1484  0.9477
 
              Baa    -0.0000    -0.000    -0.000    -0.000  0.8785 -0.4676 -0.0977
    63 C(13)  Bbb     0.0000     0.000     0.000     0.000  0.3531  0.7735 -0.5263
              Bcc     0.0000     0.000     0.000     0.000  0.3217  0.4279  0.8447
 
              Baa    -0.0000    -0.000    -0.000    -0.000 -0.4353 -0.3646  0.8231
    64 C(13)  Bbb    -0.0000    -0.000    -0.000    -0.000  0.6138  0.5487  0.5677
              Bcc     0.0000     0.000     0.000     0.000 -0.6586  0.7523 -0.0151
 
              Baa    -0.0000    -0.000    -0.000    -0.000  0.5484  0.7276 -0.4122
    65 S(33)  Bbb     0.0000     0.000     0.000     0.000  0.0760  0.4475  0.8910
              Bcc     0.0000     0.000     0.000     0.000  0.8327 -0.5200  0.1902
 
              Baa    -0.0000    -0.000    -0.000    -0.000  0.1249 -0.2404  0.9626
    66 H(1)   Bbb    -0.0000    -0.000    -0.000    -0.000 -0.4894  0.8290  0.2705
              Bcc     0.0000     0.000     0.000     0.000  0.8630  0.5049  0.0141
 
              Baa    -0.0000    -0.000    -0.000    -0.000 -0.2327 -0.4178  0.8782
    67 H(1)   Bbb    -0.0000    -0.000    -0.000    -0.000  0.7502  0.4975  0.4354
              Bcc     0.0000     0.000     0.000     0.000 -0.6189  0.7602  0.1977
 
              Baa    -0.0000    -0.000    -0.000    -0.000  0.0672 -0.2155  0.9742
    68 H(1)   Bbb    -0.0000    -0.000    -0.000    -0.000  0.7619 -0.6193 -0.1896
              Bcc     0.0000     0.000     0.000     0.000  0.6442  0.7550  0.1226
 
              Baa    -0.0000    -0.000    -0.000    -0.000 -0.1108  0.9370 -0.3314
    69 H(1)   Bbb    -0.0000    -0.000    -0.000    -0.000  0.0416  0.3376  0.9404
              Bcc     0.0000     0.000     0.000     0.000  0.9930  0.0904 -0.0764
 
              Baa    -0.0000    -0.000    -0.000    -0.000  0.5947  0.7392  0.3161
    70 H(1)   Bbb     0.0000     0.000     0.000     0.000 -0.6322  0.1871  0.7518
              Bcc     0.0000     0.000     0.000     0.000 -0.4966  0.6470 -0.5786
 
              Baa    -0.0000    -0.000    -0.000    -0.000 -0.6457  0.7537 -0.1222
    71 H(1)   Bbb     0.0000     0.000     0.000     0.000  0.7327  0.5666 -0.3769
              Bcc     0.0000     0.000     0.000     0.000  0.2149  0.3329  0.9181
 
              Baa    -0.0000    -0.000    -0.000    -0.000 -0.3524  0.9350 -0.0402
    72 H(1)   Bbb     0.0000     0.000     0.000     0.000  0.3025  0.1544  0.9406
              Bcc     0.0000     0.000     0.000     0.000  0.8856  0.3193 -0.3372
 
              Baa    -0.0000    -0.000    -0.000    -0.000  0.9861  0.0491 -0.1588
    73 H(1)   Bbb    -0.0000    -0.000    -0.000    -0.000  0.1292  0.3754  0.9178
              Bcc     0.0000     0.000     0.000     0.000 -0.1047  0.9256 -0.3638
 
              Baa    -0.0000    -0.000    -0.000    -0.000  0.2370  0.7627  0.6018
    74 H(1)   Bbb    -0.0000    -0.000    -0.000    -0.000  0.9707 -0.1608 -0.1784
              Bcc     0.0000     0.000     0.000     0.000  0.0393 -0.6264  0.7785
 
              Baa    -0.0000    -0.000    -0.000    -0.000  0.1832  0.1133  0.9765
    75 H(1)   Bbb    -0.0000    -0.000    -0.000    -0.000  0.7162  0.6651 -0.2115
              Bcc     0.0000     0.000     0.000     0.000 -0.6735  0.7381  0.0407
 
              Baa    -0.0000    -0.000    -0.000    -0.000 -0.0180 -0.3735  0.9274
    76 H(1)   Bbb     0.0000     0.000     0.000     0.000 -0.6208  0.7313  0.2825
              Bcc     0.0000     0.000     0.000     0.000  0.7838  0.5706  0.2450
 
              Baa    -0.0000    -0.000    -0.000    -0.000  0.6661  0.6337  0.3934
    77 H(1)   Bbb     0.0000     0.000     0.000     0.000 -0.3378 -0.2140  0.9166
              Bcc     0.0000     0.000     0.000     0.000 -0.6650  0.7434 -0.0715
 
              Baa    -0.0000    -0.000    -0.000    -0.000  0.1876  0.9311  0.3127
    78 H(1)   Bbb     0.0000     0.000     0.000     0.000  0.9798 -0.1550 -0.1264
              Bcc     0.0000     0.000     0.000     0.000  0.0693 -0.3301  0.9414
 
              Baa    -0.0000    -0.000    -0.000    -0.000  0.9789  0.2038 -0.0136
    79 H(1)   Bbb    -0.0000    -0.000    -0.000    -0.000 -0.2035  0.9678 -0.1481
              Bcc     0.0000     0.000     0.000     0.000 -0.0170  0.1477  0.9889
 
              Baa    -0.0000    -0.000    -0.000    -0.000  0.2661  0.9638  0.0189
    80 H(1)   Bbb     0.0000     0.000     0.000     0.000  0.4051 -0.1296  0.9051
              Bcc     0.0000     0.000     0.000     0.000  0.8747 -0.2332 -0.4249
 
              Baa    -0.0000    -0.000    -0.000    -0.000  0.4111 -0.3403  0.8457
    81 H(1)   Bbb    -0.0000    -0.000    -0.000    -0.000 -0.4826  0.7057  0.5186
              Bcc     0.0000     0.000     0.000     0.000  0.7733  0.6214 -0.1259
 
              Baa    -0.0000    -0.000    -0.000    -0.000  0.7961  0.6045  0.0277
    82 H(1)   Bbb     0.0000     0.000     0.000     0.000  0.0905 -0.1642  0.9823
              Bcc     0.0000     0.000     0.000     0.000 -0.5983  0.7795  0.1854
 
              Baa    -0.0000    -0.000    -0.000    -0.000  0.0014  0.9332 -0.3595
    83 H(1)   Bbb     0.0000     0.000     0.000     0.000  0.9981  0.0206  0.0574
              Bcc     0.0000     0.000     0.000     0.000 -0.0609  0.3589  0.9314
 
              Baa    -0.0000    -0.000    -0.000    -0.000  0.4297  0.8121 -0.3947
    84 H(1)   Bbb    -0.0000    -0.000    -0.000    -0.000  0.8856 -0.4644  0.0088
              Bcc     0.0000     0.000     0.000     0.000  0.1762  0.3533  0.9188
 
              Baa    -0.0000    -0.000    -0.000    -0.000  0.9168  0.3958 -0.0533
    85 H(1)   Bbb    -0.0000    -0.000    -0.000    -0.000 -0.0937  0.3430  0.9346
              Bcc     0.0000     0.000     0.000     0.000 -0.3882  0.8519 -0.3516
 
              Baa    -0.0000    -0.000    -0.000    -0.000  0.8199  0.5724 -0.0102
    86 H(1)   Bbb     0.0000     0.000     0.000     0.000  0.0620 -0.0712  0.9955
              Bcc     0.0000     0.000     0.000     0.000 -0.5691  0.8169  0.0938
 
              Baa    -0.0000    -0.000    -0.000    -0.000  0.9154 -0.2978 -0.2708
    87 H(1)   Bbb     0.0000     0.000     0.000     0.000  0.3953  0.5383  0.7443
              Bcc     0.0000     0.000     0.000     0.000  0.0759  0.7884 -0.6104
 

 ---------------------------------------------------------------------------------

 No NMR shielding tensors so no spin-rotation constants.
 Leave Link  601 at Sat Jul 25 02:37:39 2020, MaxMem=  4026531840 cpu:              13.6 elap:               1.8
 (Enter /opt/ohpc/pub/libs/gaussian/g16-A.03/sandybridge/g16/l9999.exe)

 Test job not archived.
 1\1\GINC-SKYLAKE018\FOpt\ULC-wPBE\CC-pVDZ\C50H22F10S5\RDU230\25-Jul-20
 20\0\\#P uLC-wPBE/cc-pVDZ iop(3/107=0095600000, 3/108=0095600000) opt\
 \H22 C50 S5 F10\\0,1\C,-19.363749114,-1.9737061006,0.5189424212\C,-19.
 1538208397,-0.5914243208,0.6369123101\C,-17.8645191896,-0.0568614483,0
 .5537230547\C,-16.7261706273,-0.8815668997,0.3485830426\C,-16.98815421
 74,-2.2661202815,0.2351489192\F,-15.9448585701,-3.1216079755,0.0351320
 451\C,-18.2655978041,-2.8183148681,0.3155218494\C,-15.373369172,-0.324
 0490105,0.2626930138\C,-14.9642627678,1.0047441609,0.3682971647\F,-15.
 8190731038,2.034769974,0.5919606659\C,-13.5776590145,1.2482147778,0.23
 87845419\C,-12.8620693784,0.0794009327,0.0263152253\S,-13.9354859301,-
 1.3041331722,-0.0203163127\C,-11.4159319222,-0.0824755106,-0.153911795
 8\C,-10.6080703562,1.0121350936,-0.5441593089\C,-9.2330692475,0.859093
 4812,-0.719917412\C,-8.5850538674,-0.3836890562,-0.5217916122\C,-9.409
 6053127,-1.4573489791,-0.119657036\F,-8.8463385704,-2.6594464269,0.142
 2288671\C,-10.7845298544,-1.3273099364,0.0587889617\C,-7.139368894,-0.
 5384052316,-0.6923418787\C,-6.4076963611,-1.5752979896,-1.2565432217\F
 ,-6.9817603502,-2.6747674852,-1.7830426715\C,-5.004128853,-1.380470895
 2,-1.2999623895\C,-4.6225670747,-0.1588030435,-0.7640689235\S,-6.02767
 51994,0.7243128334,-0.190214735\C,-3.2760965604,0.4019463151,-0.629205
 7293\C,-3.0526235907,1.7839307348,-0.4300188124\C,-1.765415893,2.30443
 25476,-0.3073560875\C,-0.6091389828,1.482256263,-0.3828213054\C,-0.867
 6360977,0.1064207319,-0.5861198594\F,0.1841746186,-0.7569471255,-0.664
 3803643\C,-2.1421037229,-0.4353301592,-0.7020377179\C,0.7416919624,2.0
 268315276,-0.2568170978\C,1.1374064818,3.3464739609,-0.0370591759\F,0.
 2615844982,4.3717376916,0.1132009703\C,2.5287576479,3.5818545133,0.034
 6975829\C,3.2633103947,2.416351485,-0.1307311362\S,2.2014934127,1.0456
 376376,-0.3844126233\C,4.7186806047,2.2496294361,-0.1189202565\C,5.581
 3157729,3.3549676486,-0.3092819873\C,6.9668441522,3.2070568927,-0.2935
 074569\C,7.5906213819,1.9455532004,-0.0938147559\C,6.7002918307,0.8619
 001961,0.0863663809\F,7.2115390871,-0.3851192385,0.2874122106\C,5.3159
 164321,0.9871967684,0.0822910803\C,9.0441726343,1.7913176877,-0.077899
 2801\C,10.0305963712,2.7679977413,-0.216807015\F,9.7557809024,4.086344
 7124,-0.3831992035\C,11.3699452009,2.3204628016,-0.1662919867\C,11.453
 6182149,0.9481218915,0.0200511784\S,9.8550425803,0.2374182815,0.118108
 5446\C,12.6554680028,0.1165295384,0.1257349774\C,13.9069546747,0.58055
 70523,-0.3428561421\C,15.05661322,-0.2009679094,-0.2402698058\C,15.038
 2977077,-1.502111849,0.3299122147\C,13.7716922787,-1.9372122329,0.7817
 852218\F,13.6617094985,-3.1723953744,1.3469393419\C,12.6135133955,-1.1
 726978341,0.6971397186\C,16.24598354,-2.3224952463,0.4360362612\C,17.5
 492320239,-2.0127135273,0.0497696503\F,17.9012992345,-0.8281949493,-0.
 511897721\C,18.5258148887,-3.0175705806,0.2747810049\C,17.9621586901,-
 4.1343083857,0.850632884\S,16.2598708444,-3.9528694193,1.1123410773\H,
 -20.375848666,-2.396341492,0.5839138067\H,-20.0051902504,0.084705031,0
 .7963172266\H,-17.7211651918,1.0244921702,0.6482949799\H,-18.372822935
 9,-3.9065353532,0.2158157549\H,-13.1408914032,2.2486709001,0.332516630
 2\H,-11.0702431742,1.9877925481,-0.7448922557\H,-8.6294983341,1.717339
 2812,-1.0486522323\H,-11.3470985068,-2.207578678,0.3996077237\H,-4.317
 6031075,-2.1066493902,-1.7498130498\H,-3.9081100494,2.4733855176,-0.38
 74307006\H,-1.6380248916,3.3813844977,-0.157265648\H,-2.2300218958,-1.
 521833291,-0.8299549135\H,2.9522236927,4.5731344124,0.2303202161\H,5.1
 581670719,4.3512491137,-0.4948553483\H,7.5982124557,4.087877779,-0.449
 1811236\H,4.7169984767,0.0826583028,0.2565012447\H,12.225188829,3.0015
 346318,-0.2366082077\H,13.9792508787,1.5680105731,-0.8181298974\H,16.0
 047571775,0.1942147922,-0.6192923585\H,11.6850562339,-1.5982670766,1.1
 022721313\H,19.583793125,-2.8976000723,0.0163576185\H,18.4558287235,-5
 .0672252457,1.1420328377\\Version=EM64L-G16RevA.03\State=1-A\HF=-4904.
 6375398\S2=0.\S2-1=0.\S2A=0.\RMSD=4.262e-09\RMSF=2.141e-06\Dipole=0.32
 9527,0.7015182,-0.0138401\Quadrupole=49.8127328,-12.9937729,-36.818959
 9,-11.0385669,-2.9087233,-2.6263948\PG=C01 [X(C50H22F10S5)]\\@


 WHEN A MATHEMATICIAN ENGAGED IN INVESTIGATING
 PHYSICAL ACTIONS AND RESULTS HAS ARRIVED AT HIS
 CONCLUSIONS, MAY THEY NOT BE EXPRESSED IN COMMON
 LANGUAGE AS FULLY, CLEARLY, AND DEFINITELY AS IN
 MATHEMATICAL FORMULAE?
           - LETTER FROM M. FARADAY TO J.C. MAXWELL, 1857.
 Job cpu time:       1 days 13 hours 58 minutes 37.3 seconds.
 Elapsed time:       0 days  4 hours 50 minutes 59.6 seconds.
 File lengths (MBytes):  RWF=   1236 Int=      0 D2E=      0 Chk=    112 Scr=      8
 Normal termination of Gaussian 16 at Sat Jul 25 02:37:39 2020.
