 Entering Gaussian System, Link 0=g16
 Input=mols_66_3_16_c-n-cOC-cOC_opt_0.gjf
 Output=mols_66_3_16_c-n-cOC-cOC_opt_0.log
 Initial command:
 /opt/ohpc/pub/libs/gaussian/g16-A.03/sandybridge/g16/l1.exe "/mnt/gpfs2_4m/scratch/rdu230/ondemand/projects/dihedral_energies/7trial/wtuning/mols_66_3_16_c-n-cOC-cOC/Gau-435543.inp" -scrdir="/mnt/gpfs2_4m/scratch/rdu230/ondemand/projects/dihedral_energies/7trial/wtuning/mols_66_3_16_c-n-cOC-cOC/"
 Entering Link 1 = /opt/ohpc/pub/libs/gaussian/g16-A.03/sandybridge/g16/l1.exe PID=    435546.
  
 Copyright (c) 1988,1990,1992,1993,1995,1998,2003,2009,2016,
            Gaussian, Inc.  All Rights Reserved.
  
 This is part of the Gaussian(R) 16 program.  It is based on
 the Gaussian(R) 09 system (copyright 2009, Gaussian, Inc.),
 the Gaussian(R) 03 system (copyright 2003, Gaussian, Inc.),
 the Gaussian(R) 98 system (copyright 1998, Gaussian, Inc.),
 the Gaussian(R) 94 system (copyright 1995, Gaussian, Inc.),
 the Gaussian 92(TM) system (copyright 1992, Gaussian, Inc.),
 the Gaussian 90(TM) system (copyright 1990, Gaussian, Inc.),
 the Gaussian 88(TM) system (copyright 1988, Gaussian, Inc.),
 the Gaussian 86(TM) system (copyright 1986, Carnegie Mellon
 University), and the Gaussian 82(TM) system (copyright 1983,
 Carnegie Mellon University). Gaussian is a federally registered
 trademark of Gaussian, Inc.
  
 This software contains proprietary and confidential information,
 including trade secrets, belonging to Gaussian, Inc.
  
 This software is provided under written license and may be
 used, copied, transmitted, or stored only in accord with that
 written license.
  
 The following legend is applicable only to US Government
 contracts under FAR:
  
                    RESTRICTED RIGHTS LEGEND
  
 Use, reproduction and disclosure by the US Government is
 subject to restrictions as set forth in subparagraphs (a)
 and (c) of the Commercial Computer Software - Restricted
 Rights clause in FAR 52.227-19.
  
 Gaussian, Inc.
 340 Quinnipiac St., Bldg. 40, Wallingford CT 06492
  
  
 ---------------------------------------------------------------
 Warning -- This program may not be used in any manner that
 competes with the business of Gaussian, Inc. or will provide
 assistance to any competitor of Gaussian, Inc.  The licensee
 of this program is prohibited from giving any competitor of
 Gaussian, Inc. access to this program.  By using this program,
 the user acknowledges that Gaussian, Inc. is engaged in the
 business of creating and licensing software in the field of
 computational chemistry and represents and warrants to the
 licensee that it is not a competitor of Gaussian, Inc. and that
 it will not use this program in any manner prohibited above.
 ---------------------------------------------------------------
  

 Cite this work as:
 Gaussian 16, Revision A.03,
 M. J. Frisch, G. W. Trucks, H. B. Schlegel, G. E. Scuseria, 
 M. A. Robb, J. R. Cheeseman, G. Scalmani, V. Barone, 
 G. A. Petersson, H. Nakatsuji, X. Li, M. Caricato, A. V. Marenich, 
 J. Bloino, B. G. Janesko, R. Gomperts, B. Mennucci, H. P. Hratchian, 
 J. V. Ortiz, A. F. Izmaylov, J. L. Sonnenberg, D. Williams-Young, 
 F. Ding, F. Lipparini, F. Egidi, J. Goings, B. Peng, A. Petrone, 
 T. Henderson, D. Ranasinghe, V. G. Zakrzewski, J. Gao, N. Rega, 
 G. Zheng, W. Liang, M. Hada, M. Ehara, K. Toyota, R. Fukuda, 
 J. Hasegawa, M. Ishida, T. Nakajima, Y. Honda, O. Kitao, H. Nakai, 
 T. Vreven, K. Throssell, J. A. Montgomery, Jr., J. E. Peralta, 
 F. Ogliaro, M. J. Bearpark, J. J. Heyd, E. N. Brothers, K. N. Kudin, 
 V. N. Staroverov, T. A. Keith, R. Kobayashi, J. Normand, 
 K. Raghavachari, A. P. Rendell, J. C. Burant, S. S. Iyengar, 
 J. Tomasi, M. Cossi, J. M. Millam, M. Klene, C. Adamo, R. Cammi, 
 J. W. Ochterski, R. L. Martin, K. Morokuma, O. Farkas, 
 J. B. Foresman, and D. J. Fox, Gaussian, Inc., Wallingford CT, 2016.
 
 ******************************************
 Gaussian 16:  EM64L-G16RevA.03 25-Dec-2016
                23-Jul-2020 
 ******************************************
 %mem=30GB
 %nproc=8
 Will use up to    8 processors via shared memory.
 ---------------------------------------------------------------
 #P uLC-wPBE/cc-pVDZ iop(3/107=0448700000, 3/108=0448700000) opt
 ---------------------------------------------------------------
 1/18=20,19=15,26=3,38=1/1,3;
 2/9=110,12=2,17=6,18=5,40=1/2;
 3/5=16,11=2,25=1,30=1,71=1,74=-41,107=448700000,108=448700000,116=2/1,2,3;
 4//1;
 5/5=2,38=5/2;
 6/7=2,8=2,9=2,10=2,28=1/1;
 7//1,2,3,16;
 1/18=20,19=15,26=3/3(2);
 2/9=110/2;
 99//99;
 2/9=110/2;
 3/5=16,11=2,25=1,30=1,71=1,74=-41,107=448700000,108=448700000,116=2/1,2,3;
 4/5=5,16=3,69=1/1;
 5/5=2,38=5/2;
 7//1,2,3,16;
 1/18=20,19=15,26=3/3(-5);
 2/9=110/2;
 6/7=2,8=2,9=2,10=2,19=2,28=1/1;
 99/9=1/99;
 Leave Link    1 at Thu Jul 23 12:58:29 2020, MaxMem=  4026531840 cpu:               1.8 elap:               0.3
 (Enter /opt/ohpc/pub/libs/gaussian/g16-A.03/sandybridge/g16/l101.exe)
 -------------
 H35 C39 N3 O6
 -------------
 Symbolic Z-matrix:
 Charge =  0 Multiplicity = 1
 C                    -11.99567   0.74611  -0.09612 
 C                    -11.4647  -0.28076   0.5657 
 C                    -10.07549  -0.50157   0.57718 
 O                    -9.51314  -1.55965   1.28308 
 C                    -10.31002  -2.47565   2.0251 
 C                    -9.32563   0.38635  -0.04939 
 N                    -9.86173   1.52545  -0.71293 
 C                    -11.19757   1.67811  -0.69099 
 C                    -7.83685   0.35975  -0.11975 
 C                    -7.08027   0.93425   0.93303 
 C                    -5.7543    0.94504   0.95575 
 C                    -5.02702   0.27812  -0.02345 
 C                    -5.78208  -0.39374  -1.0646 
 C                    -7.1731   -0.34032  -1.12963 
 O                    -7.94349  -0.98067  -2.05044 
 C                    -7.38194  -0.98055  -3.34197 
 C                    -3.50102   0.27998  -0.05639 
 C                    -2.77591   1.44521   0.15477 
 C                    -1.39067   1.3486    0.11374 
 O                    -0.59185   2.40902   0.35271 
 C                    -1.2214    3.66718   0.72933 
 C                    -0.78185   0.14333  -0.05702 
 N                    -1.47312  -1.06435  -0.33537 
 C                    -2.82733  -0.94466  -0.34255 
 C                     0.72901  -0.03284  -0.1869 
 C                     1.48368   0.60128  -1.19419 
 C                     2.86608   0.51562  -1.2479 
 C                     3.55722  -0.2737   -0.20669 
 C                     2.86394  -0.91859   0.7583 
 C                     1.45672  -0.83227   0.78467 
 O                     0.80752  -1.36538   1.86089 
 C                     0.62842  -2.77227   1.56037 
 C                     5.0753   -0.32869  -0.31561 
 C                     5.80943  -0.19471   0.85634 
 C                     7.22928  -0.26466   0.82082 
 O                     7.99599  -0.10907   1.87382 
 C                     7.40775   0.21973   3.15753 
 C                     7.83602  -0.45917  -0.40126 
 N                     7.09203  -0.6864   -1.6172 
 C                     5.71055  -0.57099  -1.42831 
 C                     9.25196  -0.52092  -0.66483 
 C                     9.84106  -1.81153  -1.00267 
 C                     11.17149  -1.97801  -1.18085 
 C                     12.07524  -0.88399  -0.9291 
 C                     11.53814   0.39933  -0.54482 
 C                     10.18002   0.53299  -0.41359 
 O                     9.57699   1.73905  -0.04407 
 C                     10.42163   2.83164   0.12417 
 H                    -13.12792   0.98205  -0.17127 
 H                    -12.14265  -0.99557   1.06437 
 H                    -10.86941  -1.95005   2.77765 
 H                    -9.67499  -3.17854   2.49334 
 H                    -10.92762  -2.98148   1.3327 
 H                    -11.54293   2.50944  -1.27348 
 H                    -7.61156   1.46129   1.73726 
 H                    -5.141     1.45201   1.78184 
 H                    -5.19498  -0.86133  -1.88394 
 H                    -6.94849  -0.03845  -3.61268 
 H                    -8.09953  -1.23242  -4.02926 
 H                    -6.5818   -1.82976  -3.45259 
 H                    -3.25633   2.36547   0.32587 
 H                    -1.73303   3.62052   1.65076 
 H                    -1.7812    4.02303  -0.08083 
 H                    -0.38726   4.44774   0.84005 
 H                    -3.29571  -1.84256  -0.50464 
 H                     0.98585   1.21395  -1.92375 
 H                     3.36139   1.0556   -2.03223 
 H                     3.36201  -1.48383   1.5561 
 H                     0.1616   -3.02948   0.60603 
 H                     1.54289  -3.28723   1.6908 
 H                    -0.08575  -3.21717   2.37663 
 H                     5.34007   0.06024   1.84151 
 H                     8.28474   0.2915    3.87473 
 H                     6.75704  -0.56811   3.44125 
 H                     6.90501   1.19559   3.14986 
 H                     5.23245  -0.74542  -2.38584 
 H                     9.18625  -2.63237  -1.27658 
 H                     11.6391  -2.93062  -1.51867 
 H                     13.10109  -1.02165  -1.08475 
 H                     12.22347   1.19283  -0.47148 
 H                     10.91723   3.07679  -0.75681 
 H                     9.72679   3.75018   0.40974 
 H                     11.08603   2.71856   0.99927 
 
 ITRead=  0  0  0  0  0  0  0  0  0  0  0  0  0  0  0  0  0  0  0  0
 ITRead=  0  0  0  0  0  0  0  0  0  0  0  0  0  0  0  0  0  0  0  0
 ITRead=  0  0  0  0  0  0  0  0  0  0  0  0  0  0  0  0  0  0  0  0
 ITRead=  0  0  0  0  0  0  0  0  0  0  0  0  0  0  0  0  0  0  0  0
 ITRead=  0  0  0
 MicOpt= -1 -1 -1 -1 -1 -1 -1 -1 -1 -1 -1 -1 -1 -1 -1 -1 -1 -1 -1 -1
 MicOpt= -1 -1 -1 -1 -1 -1 -1 -1 -1 -1 -1 -1 -1 -1 -1 -1 -1 -1 -1 -1
 MicOpt= -1 -1 -1 -1 -1 -1 -1 -1 -1 -1 -1 -1 -1 -1 -1 -1 -1 -1 -1 -1
 MicOpt= -1 -1 -1 -1 -1 -1 -1 -1 -1 -1 -1 -1 -1 -1 -1 -1 -1 -1 -1 -1
 MicOpt= -1 -1 -1
 NAtoms=     83 NQM=       83 NQMF=       0 NMMI=      0 NMMIF=      0
                NMic=       0 NMicF=      0.
                    Isotopes and Nuclear Properties:
 (Nuclear quadrupole moments (NQMom) in fm**2, nuclear magnetic moments (NMagM)
  in nuclear magnetons)

  Atom         1           2           3           4           5           6           7           8           9          10
 IAtWgt=          12          12          12          16          12          12          14          12          12          12
 AtmWgt=  12.0000000  12.0000000  12.0000000  15.9949146  12.0000000  12.0000000  14.0030740  12.0000000  12.0000000  12.0000000
 NucSpn=           0           0           0           0           0           0           2           0           0           0
 AtZEff=  -0.0000000  -0.0000000  -0.0000000  -0.0000000  -0.0000000  -0.0000000  -0.0000000  -0.0000000  -0.0000000  -0.0000000
 NQMom=    0.0000000   0.0000000   0.0000000   0.0000000   0.0000000   0.0000000   2.0440000   0.0000000   0.0000000   0.0000000
 NMagM=    0.0000000   0.0000000   0.0000000   0.0000000   0.0000000   0.0000000   0.4037610   0.0000000   0.0000000   0.0000000
 AtZNuc=   6.0000000   6.0000000   6.0000000   8.0000000   6.0000000   6.0000000   7.0000000   6.0000000   6.0000000   6.0000000

  Atom        11          12          13          14          15          16          17          18          19          20
 IAtWgt=          12          12          12          12          16          12          12          12          12          16
 AtmWgt=  12.0000000  12.0000000  12.0000000  12.0000000  15.9949146  12.0000000  12.0000000  12.0000000  12.0000000  15.9949146
 NucSpn=           0           0           0           0           0           0           0           0           0           0
 AtZEff=  -0.0000000  -0.0000000  -0.0000000  -0.0000000  -0.0000000  -0.0000000  -0.0000000  -0.0000000  -0.0000000  -0.0000000
 NQMom=    0.0000000   0.0000000   0.0000000   0.0000000   0.0000000   0.0000000   0.0000000   0.0000000   0.0000000   0.0000000
 NMagM=    0.0000000   0.0000000   0.0000000   0.0000000   0.0000000   0.0000000   0.0000000   0.0000000   0.0000000   0.0000000
 AtZNuc=   6.0000000   6.0000000   6.0000000   6.0000000   8.0000000   6.0000000   6.0000000   6.0000000   6.0000000   8.0000000

  Atom        21          22          23          24          25          26          27          28          29          30
 IAtWgt=          12          12          14          12          12          12          12          12          12          12
 AtmWgt=  12.0000000  12.0000000  14.0030740  12.0000000  12.0000000  12.0000000  12.0000000  12.0000000  12.0000000  12.0000000
 NucSpn=           0           0           2           0           0           0           0           0           0           0
 AtZEff=  -0.0000000  -0.0000000  -0.0000000  -0.0000000  -0.0000000  -0.0000000  -0.0000000  -0.0000000  -0.0000000  -0.0000000
 NQMom=    0.0000000   0.0000000   2.0440000   0.0000000   0.0000000   0.0000000   0.0000000   0.0000000   0.0000000   0.0000000
 NMagM=    0.0000000   0.0000000   0.4037610   0.0000000   0.0000000   0.0000000   0.0000000   0.0000000   0.0000000   0.0000000
 AtZNuc=   6.0000000   6.0000000   7.0000000   6.0000000   6.0000000   6.0000000   6.0000000   6.0000000   6.0000000   6.0000000

  Atom        31          32          33          34          35          36          37          38          39          40
 IAtWgt=          16          12          12          12          12          16          12          12          14          12
 AtmWgt=  15.9949146  12.0000000  12.0000000  12.0000000  12.0000000  15.9949146  12.0000000  12.0000000  14.0030740  12.0000000
 NucSpn=           0           0           0           0           0           0           0           0           2           0
 AtZEff=  -0.0000000  -0.0000000  -0.0000000  -0.0000000  -0.0000000  -0.0000000  -0.0000000  -0.0000000  -0.0000000  -0.0000000
 NQMom=    0.0000000   0.0000000   0.0000000   0.0000000   0.0000000   0.0000000   0.0000000   0.0000000   2.0440000   0.0000000
 NMagM=    0.0000000   0.0000000   0.0000000   0.0000000   0.0000000   0.0000000   0.0000000   0.0000000   0.4037610   0.0000000
 AtZNuc=   8.0000000   6.0000000   6.0000000   6.0000000   6.0000000   8.0000000   6.0000000   6.0000000   7.0000000   6.0000000

  Atom        41          42          43          44          45          46          47          48          49          50
 IAtWgt=          12          12          12          12          12          12          16          12           1           1
 AtmWgt=  12.0000000  12.0000000  12.0000000  12.0000000  12.0000000  12.0000000  15.9949146  12.0000000   1.0078250   1.0078250
 NucSpn=           0           0           0           0           0           0           0           0           1           1
 AtZEff=  -0.0000000  -0.0000000  -0.0000000  -0.0000000  -0.0000000  -0.0000000  -0.0000000  -0.0000000  -0.0000000  -0.0000000
 NQMom=    0.0000000   0.0000000   0.0000000   0.0000000   0.0000000   0.0000000   0.0000000   0.0000000   0.0000000   0.0000000
 NMagM=    0.0000000   0.0000000   0.0000000   0.0000000   0.0000000   0.0000000   0.0000000   0.0000000   2.7928460   2.7928460
 AtZNuc=   6.0000000   6.0000000   6.0000000   6.0000000   6.0000000   6.0000000   8.0000000   6.0000000   1.0000000   1.0000000

  Atom        51          52          53          54          55          56          57          58          59          60
 IAtWgt=           1           1           1           1           1           1           1           1           1           1
 AtmWgt=   1.0078250   1.0078250   1.0078250   1.0078250   1.0078250   1.0078250   1.0078250   1.0078250   1.0078250   1.0078250
 NucSpn=           1           1           1           1           1           1           1           1           1           1
 AtZEff=  -0.0000000  -0.0000000  -0.0000000  -0.0000000  -0.0000000  -0.0000000  -0.0000000  -0.0000000  -0.0000000  -0.0000000
 NQMom=    0.0000000   0.0000000   0.0000000   0.0000000   0.0000000   0.0000000   0.0000000   0.0000000   0.0000000   0.0000000
 NMagM=    2.7928460   2.7928460   2.7928460   2.7928460   2.7928460   2.7928460   2.7928460   2.7928460   2.7928460   2.7928460
 AtZNuc=   1.0000000   1.0000000   1.0000000   1.0000000   1.0000000   1.0000000   1.0000000   1.0000000   1.0000000   1.0000000

  Atom        61          62          63          64          65          66          67          68          69          70
 IAtWgt=           1           1           1           1           1           1           1           1           1           1
 AtmWgt=   1.0078250   1.0078250   1.0078250   1.0078250   1.0078250   1.0078250   1.0078250   1.0078250   1.0078250   1.0078250
 NucSpn=           1           1           1           1           1           1           1           1           1           1
 AtZEff=  -0.0000000  -0.0000000  -0.0000000  -0.0000000  -0.0000000  -0.0000000  -0.0000000  -0.0000000  -0.0000000  -0.0000000
 NQMom=    0.0000000   0.0000000   0.0000000   0.0000000   0.0000000   0.0000000   0.0000000   0.0000000   0.0000000   0.0000000
 NMagM=    2.7928460   2.7928460   2.7928460   2.7928460   2.7928460   2.7928460   2.7928460   2.7928460   2.7928460   2.7928460
 AtZNuc=   1.0000000   1.0000000   1.0000000   1.0000000   1.0000000   1.0000000   1.0000000   1.0000000   1.0000000   1.0000000

  Atom        71          72          73          74          75          76          77          78          79          80
 IAtWgt=           1           1           1           1           1           1           1           1           1           1
 AtmWgt=   1.0078250   1.0078250   1.0078250   1.0078250   1.0078250   1.0078250   1.0078250   1.0078250   1.0078250   1.0078250
 NucSpn=           1           1           1           1           1           1           1           1           1           1
 AtZEff=  -0.0000000  -0.0000000  -0.0000000  -0.0000000  -0.0000000  -0.0000000  -0.0000000  -0.0000000  -0.0000000  -0.0000000
 NQMom=    0.0000000   0.0000000   0.0000000   0.0000000   0.0000000   0.0000000   0.0000000   0.0000000   0.0000000   0.0000000
 NMagM=    2.7928460   2.7928460   2.7928460   2.7928460   2.7928460   2.7928460   2.7928460   2.7928460   2.7928460   2.7928460
 AtZNuc=   1.0000000   1.0000000   1.0000000   1.0000000   1.0000000   1.0000000   1.0000000   1.0000000   1.0000000   1.0000000

  Atom        81          82          83
 IAtWgt=           1           1           1
 AtmWgt=   1.0078250   1.0078250   1.0078250
 NucSpn=           1           1           1
 AtZEff=  -0.0000000  -0.0000000  -0.0000000
 NQMom=    0.0000000   0.0000000   0.0000000
 NMagM=    2.7928460   2.7928460   2.7928460
 AtZNuc=   1.0000000   1.0000000   1.0000000
 Leave Link  101 at Thu Jul 23 12:58:29 2020, MaxMem=  4026531840 cpu:               3.3 elap:               0.5
 (Enter /opt/ohpc/pub/libs/gaussian/g16-A.03/sandybridge/g16/l103.exe)

 GradGradGradGradGradGradGradGradGradGradGradGradGradGradGradGradGradGrad
 Berny optimization.
 Initialization pass.
                           ----------------------------
                           !    Initial Parameters    !
                           ! (Angstroms and Degrees)  !
 --------------------------                            --------------------------
 ! Name  Definition              Value          Derivative Info.                !
 --------------------------------------------------------------------------------
 ! R1    R(1,2)                  1.3321         estimate D2E/DX2                !
 ! R2    R(1,8)                  1.3636         estimate D2E/DX2                !
 ! R3    R(1,49)                 1.159          estimate D2E/DX2                !
 ! R4    R(2,3)                  1.4067         estimate D2E/DX2                !
 ! R5    R(2,50)                 1.1042         estimate D2E/DX2                !
 ! R6    R(3,4)                  1.3907         estimate D2E/DX2                !
 ! R7    R(3,6)                  1.3203         estimate D2E/DX2                !
 ! R8    R(4,5)                  1.4229         estimate D2E/DX2                !
 ! R9    R(5,51)                 1.0749         estimate D2E/DX2                !
 ! R10   R(5,52)                 1.0567         estimate D2E/DX2                !
 ! R11   R(5,53)                 1.0567         estimate D2E/DX2                !
 ! R12   R(6,7)                  1.4231         estimate D2E/DX2                !
 ! R13   R(6,9)                  1.4907         estimate D2E/DX2                !
 ! R14   R(7,8)                  1.3447         estimate D2E/DX2                !
 ! R15   R(8,54)                 1.0722         estimate D2E/DX2                !
 ! R16   R(9,10)                 1.418          estimate D2E/DX2                !
 ! R17   R(9,14)                 1.3966         estimate D2E/DX2                !
 ! R18   R(10,11)                1.3262         estimate D2E/DX2                !
 ! R19   R(10,55)                1.0985         estimate D2E/DX2                !
 ! R20   R(11,12)                1.3902         estimate D2E/DX2                !
 ! R21   R(11,56)                1.147          estimate D2E/DX2                !
 ! R22   R(12,13)                1.451          estimate D2E/DX2                !
 ! R23   R(12,17)                1.5263         estimate D2E/DX2                !
 ! R24   R(13,14)                1.3936         estimate D2E/DX2                !
 ! R25   R(13,57)                1.1112         estimate D2E/DX2                !
 ! R26   R(14,15)                1.3607         estimate D2E/DX2                !
 ! R27   R(15,16)                1.4083         estimate D2E/DX2                !
 ! R28   R(16,58)                1.0718         estimate D2E/DX2                !
 ! R29   R(16,59)                1.0251         estimate D2E/DX2                !
 ! R30   R(16,60)                1.172          estimate D2E/DX2                !
 ! R31   R(17,18)                1.3886         estimate D2E/DX2                !
 ! R32   R(17,24)                1.4267         estimate D2E/DX2                !
 ! R33   R(18,19)                1.3892         estimate D2E/DX2                !
 ! R34   R(18,61)                1.0521         estimate D2E/DX2                !
 ! R35   R(19,20)                1.349          estimate D2E/DX2                !
 ! R36   R(19,22)                1.3611         estimate D2E/DX2                !
 ! R37   R(20,21)                1.4564         estimate D2E/DX2                !
 ! R38   R(21,62)                1.055          estimate D2E/DX2                !
 ! R39   R(21,63)                1.0471         estimate D2E/DX2                !
 ! R40   R(21,64)                1.1477         estimate D2E/DX2                !
 ! R41   R(22,23)                1.4191         estimate D2E/DX2                !
 ! R42   R(22,25)                1.5266         estimate D2E/DX2                !
 ! R43   R(23,24)                1.3595         estimate D2E/DX2                !
 ! R44   R(24,65)                1.0256         estimate D2E/DX2                !
 ! R45   R(25,26)                1.4093         estimate D2E/DX2                !
 ! R46   R(25,30)                1.4535         estimate D2E/DX2                !
 ! R47   R(26,27)                1.3861         estimate D2E/DX2                !
 ! R48   R(26,66)                1.0749         estimate D2E/DX2                !
 ! R49   R(27,28)                1.4781         estimate D2E/DX2                !
 ! R50   R(27,67)                1.0733         estimate D2E/DX2                !
 ! R51   R(28,29)                1.3519         estimate D2E/DX2                !
 ! R52   R(28,33)                1.523          estimate D2E/DX2                !
 ! R53   R(29,30)                1.4101         estimate D2E/DX2                !
 ! R54   R(29,68)                1.0973         estimate D2E/DX2                !
 ! R55   R(30,31)                1.3653         estimate D2E/DX2                !
 ! R56   R(31,32)                1.4497         estimate D2E/DX2                !
 ! R57   R(32,69)                1.0931         estimate D2E/DX2                !
 ! R58   R(32,70)                1.0576         estimate D2E/DX2                !
 ! R59   R(32,71)                1.1723         estimate D2E/DX2                !
 ! R60   R(33,34)                1.3894         estimate D2E/DX2                !
 ! R61   R(33,40)                1.304          estimate D2E/DX2                !
 ! R62   R(34,35)                1.422          estimate D2E/DX2                !
 ! R63   R(34,72)                1.1206         estimate D2E/DX2                !
 ! R64   R(35,36)                1.3118         estimate D2E/DX2                !
 ! R65   R(35,38)                1.3782         estimate D2E/DX2                !
 ! R66   R(36,37)                1.4498         estimate D2E/DX2                !
 ! R67   R(37,73)                1.1352         estimate D2E/DX2                !
 ! R68   R(37,74)                1.0605         estimate D2E/DX2                !
 ! R69   R(37,75)                1.0978         estimate D2E/DX2                !
 ! R70   R(38,39)                1.4435         estimate D2E/DX2                !
 ! R71   R(38,41)                1.4416         estimate D2E/DX2                !
 ! R72   R(39,40)                1.3991         estimate D2E/DX2                !
 ! R73   R(40,76)                1.0844         estimate D2E/DX2                !
 ! R74   R(41,42)                1.4584         estimate D2E/DX2                !
 ! R75   R(41,46)                1.4266         estimate D2E/DX2                !
 ! R76   R(42,43)                1.3526         estimate D2E/DX2                !
 ! R77   R(42,77)                1.0852         estimate D2E/DX2                !
 ! R78   R(43,44)                1.4412         estimate D2E/DX2                !
 ! R79   R(43,78)                1.1137         estimate D2E/DX2                !
 ! R80   R(44,45)                1.4433         estimate D2E/DX2                !
 ! R81   R(44,79)                1.0467         estimate D2E/DX2                !
 ! R82   R(45,46)                1.371          estimate D2E/DX2                !
 ! R83   R(45,80)                1.051          estimate D2E/DX2                !
 ! R84   R(46,47)                1.3981         estimate D2E/DX2                !
 ! R85   R(47,48)                1.3912         estimate D2E/DX2                !
 ! R86   R(48,81)                1.0401         estimate D2E/DX2                !
 ! R87   R(48,82)                1.1866         estimate D2E/DX2                !
 ! R88   R(48,83)                1.1045         estimate D2E/DX2                !
 ! A1    A(2,1,8)              120.6859         estimate D2E/DX2                !
 ! A2    A(2,1,49)             125.3479         estimate D2E/DX2                !
 ! A3    A(8,1,49)             113.8504         estimate D2E/DX2                !
 ! A4    A(1,2,3)              121.2457         estimate D2E/DX2                !
 ! A5    A(1,2,50)             118.5996         estimate D2E/DX2                !
 ! A6    A(3,2,50)             120.0692         estimate D2E/DX2                !
 ! A7    A(2,3,4)              121.5275         estimate D2E/DX2                !
 ! A8    A(2,3,6)              116.8358         estimate D2E/DX2                !
 ! A9    A(4,3,6)              121.5253         estimate D2E/DX2                !
 ! A10   A(3,4,5)              121.8713         estimate D2E/DX2                !
 ! A11   A(4,5,51)             109.984          estimate D2E/DX2                !
 ! A12   A(4,5,52)             108.8277         estimate D2E/DX2                !
 ! A13   A(4,5,53)             107.083          estimate D2E/DX2                !
 ! A14   A(51,5,52)            109.1333         estimate D2E/DX2                !
 ! A15   A(51,5,53)            112.869          estimate D2E/DX2                !
 ! A16   A(52,5,53)            108.8545         estimate D2E/DX2                !
 ! A17   A(3,6,7)              123.0663         estimate D2E/DX2                !
 ! A18   A(3,6,9)              125.2822         estimate D2E/DX2                !
 ! A19   A(7,6,9)              111.6236         estimate D2E/DX2                !
 ! A20   A(6,7,8)              117.2253         estimate D2E/DX2                !
 ! A21   A(1,8,7)              120.7264         estimate D2E/DX2                !
 ! A22   A(1,8,54)             125.3376         estimate D2E/DX2                !
 ! A23   A(7,8,54)             113.5236         estimate D2E/DX2                !
 ! A24   A(6,9,10)             119.3793         estimate D2E/DX2                !
 ! A25   A(6,9,14)             121.1801         estimate D2E/DX2                !
 ! A26   A(10,9,14)            119.1013         estimate D2E/DX2                !
 ! A27   A(9,10,11)            123.3299         estimate D2E/DX2                !
 ! A28   A(9,10,55)            118.6755         estimate D2E/DX2                !
 ! A29   A(11,10,55)           117.8459         estimate D2E/DX2                !
 ! A30   A(10,11,12)           120.471          estimate D2E/DX2                !
 ! A31   A(10,11,56)           123.4043         estimate D2E/DX2                !
 ! A32   A(12,11,56)           116.0794         estimate D2E/DX2                !
 ! A33   A(11,12,13)           117.084          estimate D2E/DX2                !
 ! A34   A(11,12,17)           122.5243         estimate D2E/DX2                !
 ! A35   A(13,12,17)           120.3529         estimate D2E/DX2                !
 ! A36   A(12,13,14)           122.354          estimate D2E/DX2                !
 ! A37   A(12,13,57)           116.6784         estimate D2E/DX2                !
 ! A38   A(14,13,57)           120.6062         estimate D2E/DX2                !
 ! A39   A(9,14,13)            117.3783         estimate D2E/DX2                !
 ! A40   A(9,14,15)            117.1395         estimate D2E/DX2                !
 ! A41   A(13,14,15)           125.3582         estimate D2E/DX2                !
 ! A42   A(14,15,16)           113.2539         estimate D2E/DX2                !
 ! A43   A(15,16,58)           113.139          estimate D2E/DX2                !
 ! A44   A(15,16,59)           109.6162         estimate D2E/DX2                !
 ! A45   A(15,16,60)           111.021          estimate D2E/DX2                !
 ! A46   A(58,16,59)           109.254          estimate D2E/DX2                !
 ! A47   A(58,16,60)           109.6921         estimate D2E/DX2                !
 ! A48   A(59,16,60)           103.6864         estimate D2E/DX2                !
 ! A49   A(12,17,18)           121.3203         estimate D2E/DX2                !
 ! A50   A(12,17,24)           118.3834         estimate D2E/DX2                !
 ! A51   A(18,17,24)           120.2797         estimate D2E/DX2                !
 ! A52   A(17,18,19)           117.2487         estimate D2E/DX2                !
 ! A53   A(17,18,61)           121.3499         estimate D2E/DX2                !
 ! A54   A(19,18,61)           121.3964         estimate D2E/DX2                !
 ! A55   A(18,19,20)           122.0444         estimate D2E/DX2                !
 ! A56   A(18,19,22)           120.7524         estimate D2E/DX2                !
 ! A57   A(20,19,22)           116.9655         estimate D2E/DX2                !
 ! A58   A(19,20,21)           117.9643         estimate D2E/DX2                !
 ! A59   A(20,21,62)           113.409          estimate D2E/DX2                !
 ! A60   A(20,21,63)           108.9417         estimate D2E/DX2                !
 ! A61   A(20,21,64)           107.3554         estimate D2E/DX2                !
 ! A62   A(62,21,63)           115.5654         estimate D2E/DX2                !
 ! A63   A(62,21,64)           107.3544         estimate D2E/DX2                !
 ! A64   A(63,21,64)           103.4183         estimate D2E/DX2                !
 ! A65   A(19,22,23)           124.0783         estimate D2E/DX2                !
 ! A66   A(19,22,25)           123.7491         estimate D2E/DX2                !
 ! A67   A(23,22,25)           111.5423         estimate D2E/DX2                !
 ! A68   A(22,23,24)           114.2884         estimate D2E/DX2                !
 ! A69   A(17,24,23)           123.016          estimate D2E/DX2                !
 ! A70   A(17,24,65)           124.5788         estimate D2E/DX2                !
 ! A71   A(23,24,65)           112.2504         estimate D2E/DX2                !
 ! A72   A(22,25,26)           122.6036         estimate D2E/DX2                !
 ! A73   A(22,25,30)           120.1388         estimate D2E/DX2                !
 ! A74   A(26,25,30)           117.202          estimate D2E/DX2                !
 ! A75   A(25,26,27)           122.272          estimate D2E/DX2                !
 ! A76   A(25,26,66)           119.574          estimate D2E/DX2                !
 ! A77   A(27,26,66)           118.0871         estimate D2E/DX2                !
 ! A78   A(26,27,28)           118.1667         estimate D2E/DX2                !
 ! A79   A(26,27,67)           117.2235         estimate D2E/DX2                !
 ! A80   A(28,27,67)           124.584          estimate D2E/DX2                !
 ! A81   A(27,28,29)           121.1814         estimate D2E/DX2                !
 ! A82   A(27,28,33)           115.7844         estimate D2E/DX2                !
 ! A83   A(29,28,33)           123.0233         estimate D2E/DX2                !
 ! A84   A(28,29,30)           119.7291         estimate D2E/DX2                !
 ! A85   A(28,29,68)           122.1349         estimate D2E/DX2                !
 ! A86   A(30,29,68)           118.0941         estimate D2E/DX2                !
 ! A87   A(25,30,29)           121.3868         estimate D2E/DX2                !
 ! A88   A(25,30,31)           120.2402         estimate D2E/DX2                !
 ! A89   A(29,30,31)           117.7346         estimate D2E/DX2                !
 ! A90   A(30,31,32)           105.9193         estimate D2E/DX2                !
 ! A91   A(31,32,69)           117.5219         estimate D2E/DX2                !
 ! A92   A(31,32,70)           109.8857         estimate D2E/DX2                !
 ! A93   A(31,32,71)           107.4106         estimate D2E/DX2                !
 ! A94   A(69,32,70)           111.2463         estimate D2E/DX2                !
 ! A95   A(69,32,71)           104.9782         estimate D2E/DX2                !
 ! A96   A(70,32,71)           104.8395         estimate D2E/DX2                !
 ! A97   A(28,33,34)           117.5733         estimate D2E/DX2                !
 ! A98   A(28,33,40)           123.5956         estimate D2E/DX2                !
 ! A99   A(34,33,40)           118.7044         estimate D2E/DX2                !
 ! A100  A(33,34,35)           120.1168         estimate D2E/DX2                !
 ! A101  A(33,34,72)           122.8319         estimate D2E/DX2                !
 ! A102  A(35,34,72)           116.8295         estimate D2E/DX2                !
 ! A103  A(34,35,36)           123.896          estimate D2E/DX2                !
 ! A104  A(34,35,38)           117.9473         estimate D2E/DX2                !
 ! A105  A(36,35,38)           118.113          estimate D2E/DX2                !
 ! A106  A(35,36,37)           120.0323         estimate D2E/DX2                !
 ! A107  A(36,37,73)           105.0872         estimate D2E/DX2                !
 ! A108  A(36,37,74)           108.5035         estimate D2E/DX2                !
 ! A109  A(36,37,75)           112.4093         estimate D2E/DX2                !
 ! A110  A(73,37,74)           110.6082         estimate D2E/DX2                !
 ! A111  A(73,37,75)           107.5784         estimate D2E/DX2                !
 ! A112  A(74,37,75)           112.4123         estimate D2E/DX2                !
 ! A113  A(35,38,39)           122.8373         estimate D2E/DX2                !
 ! A114  A(35,38,41)           126.9107         estimate D2E/DX2                !
 ! A115  A(39,38,41)           110.2115         estimate D2E/DX2                !
 ! A116  A(38,39,40)           112.4702         estimate D2E/DX2                !
 ! A117  A(33,40,39)           127.7023         estimate D2E/DX2                !
 ! A118  A(33,40,76)           124.6523         estimate D2E/DX2                !
 ! A119  A(39,40,76)           107.6298         estimate D2E/DX2                !
 ! A120  A(38,41,42)           118.4907         estimate D2E/DX2                !
 ! A121  A(38,41,46)           125.109          estimate D2E/DX2                !
 ! A122  A(42,41,46)           115.5815         estimate D2E/DX2                !
 ! A123  A(41,42,43)           122.4636         estimate D2E/DX2                !
 ! A124  A(41,42,77)           118.9558         estimate D2E/DX2                !
 ! A125  A(43,42,77)           117.8513         estimate D2E/DX2                !
 ! A126  A(42,43,44)           120.0243         estimate D2E/DX2                !
 ! A127  A(42,43,78)           123.9347         estimate D2E/DX2                !
 ! A128  A(44,43,78)           116.041          estimate D2E/DX2                !
 ! A129  A(43,44,45)           119.2171         estimate D2E/DX2                !
 ! A130  A(43,44,79)           119.2613         estimate D2E/DX2                !
 ! A131  A(45,44,79)           121.4176         estimate D2E/DX2                !
 ! A132  A(44,45,46)           118.7392         estimate D2E/DX2                !
 ! A133  A(44,45,80)           116.5648         estimate D2E/DX2                !
 ! A134  A(46,45,80)           124.4477         estimate D2E/DX2                !
 ! A135  A(41,46,45)           123.7499         estimate D2E/DX2                !
 ! A136  A(41,46,47)           113.7805         estimate D2E/DX2                !
 ! A137  A(45,46,47)           122.4565         estimate D2E/DX2                !
 ! A138  A(46,47,48)           116.5878         estimate D2E/DX2                !
 ! A139  A(47,48,81)           111.8369         estimate D2E/DX2                !
 ! A140  A(47,48,82)           106.3511         estimate D2E/DX2                !
 ! A141  A(47,48,83)           112.3707         estimate D2E/DX2                !
 ! A142  A(81,48,82)           107.4819         estimate D2E/DX2                !
 ! A143  A(81,48,83)           114.1151         estimate D2E/DX2                !
 ! A144  A(82,48,83)           103.9338         estimate D2E/DX2                !
 ! D1    D(8,1,2,3)             -5.4855         estimate D2E/DX2                !
 ! D2    D(8,1,2,50)           177.8745         estimate D2E/DX2                !
 ! D3    D(49,1,2,3)           178.6749         estimate D2E/DX2                !
 ! D4    D(49,1,2,50)            2.0349         estimate D2E/DX2                !
 ! D5    D(2,1,8,7)              5.2646         estimate D2E/DX2                !
 ! D6    D(2,1,8,54)           177.4044         estimate D2E/DX2                !
 ! D7    D(49,1,8,7)          -178.445          estimate D2E/DX2                !
 ! D8    D(49,1,8,54)           -6.3053         estimate D2E/DX2                !
 ! D9    D(1,2,3,4)            178.9917         estimate D2E/DX2                !
 ! D10   D(1,2,3,6)              2.7737         estimate D2E/DX2                !
 ! D11   D(50,2,3,4)            -4.4172         estimate D2E/DX2                !
 ! D12   D(50,2,3,6)           179.3648         estimate D2E/DX2                !
 ! D13   D(2,3,4,5)              0.2366         estimate D2E/DX2                !
 ! D14   D(6,3,4,5)            176.2774         estimate D2E/DX2                !
 ! D15   D(2,3,6,7)              0.1235         estimate D2E/DX2                !
 ! D16   D(2,3,6,9)            178.0399         estimate D2E/DX2                !
 ! D17   D(4,3,6,7)           -176.0946         estimate D2E/DX2                !
 ! D18   D(4,3,6,9)              1.8218         estimate D2E/DX2                !
 ! D19   D(3,4,5,51)           -59.2942         estimate D2E/DX2                !
 ! D20   D(3,4,5,52)          -178.7978         estimate D2E/DX2                !
 ! D21   D(3,4,5,53)            63.6873         estimate D2E/DX2                !
 ! D22   D(3,6,7,8)             -0.3029         estimate D2E/DX2                !
 ! D23   D(9,6,7,8)           -178.4733         estimate D2E/DX2                !
 ! D24   D(3,6,9,10)           -85.1439         estimate D2E/DX2                !
 ! D25   D(3,6,9,14)            88.1063         estimate D2E/DX2                !
 ! D26   D(7,6,9,10)            92.9779         estimate D2E/DX2                !
 ! D27   D(7,6,9,14)           -93.7719         estimate D2E/DX2                !
 ! D28   D(6,7,8,1)             -2.3383         estimate D2E/DX2                !
 ! D29   D(6,7,8,54)          -175.3497         estimate D2E/DX2                !
 ! D30   D(6,9,10,11)          179.4703         estimate D2E/DX2                !
 ! D31   D(6,9,10,55)           -5.0629         estimate D2E/DX2                !
 ! D32   D(14,9,10,11)           6.0787         estimate D2E/DX2                !
 ! D33   D(14,9,10,55)        -178.4545         estimate D2E/DX2                !
 ! D34   D(6,9,14,13)         -175.4305         estimate D2E/DX2                !
 ! D35   D(6,9,14,15)            0.7397         estimate D2E/DX2                !
 ! D36   D(10,9,14,13)          -2.1619         estimate D2E/DX2                !
 ! D37   D(10,9,14,15)         174.0083         estimate D2E/DX2                !
 ! D38   D(9,10,11,12)          -5.4973         estimate D2E/DX2                !
 ! D39   D(9,10,11,56)         177.0476         estimate D2E/DX2                !
 ! D40   D(55,10,11,12)        179.0007         estimate D2E/DX2                !
 ! D41   D(55,10,11,56)          1.5456         estimate D2E/DX2                !
 ! D42   D(10,11,12,13)          1.1715         estimate D2E/DX2                !
 ! D43   D(10,11,12,17)        178.9117         estimate D2E/DX2                !
 ! D44   D(56,11,12,13)        178.8063         estimate D2E/DX2                !
 ! D45   D(56,11,12,17)         -3.4535         estimate D2E/DX2                !
 ! D46   D(11,12,13,14)          2.5408         estimate D2E/DX2                !
 ! D47   D(11,12,13,57)        175.6718         estimate D2E/DX2                !
 ! D48   D(17,12,13,14)       -175.2511         estimate D2E/DX2                !
 ! D49   D(17,12,13,57)         -2.1202         estimate D2E/DX2                !
 ! D50   D(11,12,17,18)        -44.2462         estimate D2E/DX2                !
 ! D51   D(11,12,17,24)        137.2278         estimate D2E/DX2                !
 ! D52   D(13,12,17,18)        133.4222         estimate D2E/DX2                !
 ! D53   D(13,12,17,24)        -45.1038         estimate D2E/DX2                !
 ! D54   D(12,13,14,9)          -1.9192         estimate D2E/DX2                !
 ! D55   D(12,13,14,15)       -177.7397         estimate D2E/DX2                !
 ! D56   D(57,13,14,9)        -174.7866         estimate D2E/DX2                !
 ! D57   D(57,13,14,15)          9.3929         estimate D2E/DX2                !
 ! D58   D(9,14,15,16)         145.3369         estimate D2E/DX2                !
 ! D59   D(13,14,15,16)        -38.8337         estimate D2E/DX2                !
 ! D60   D(14,15,16,58)        -42.0995         estimate D2E/DX2                !
 ! D61   D(14,15,16,59)       -164.3082         estimate D2E/DX2                !
 ! D62   D(14,15,16,60)         81.7346         estimate D2E/DX2                !
 ! D63   D(12,17,18,19)        179.6348         estimate D2E/DX2                !
 ! D64   D(12,17,18,61)         -1.1676         estimate D2E/DX2                !
 ! D65   D(24,17,18,19)         -1.8668         estimate D2E/DX2                !
 ! D66   D(24,17,18,61)        177.3308         estimate D2E/DX2                !
 ! D67   D(12,17,24,23)       -176.8926         estimate D2E/DX2                !
 ! D68   D(12,17,24,65)         -1.7684         estimate D2E/DX2                !
 ! D69   D(18,17,24,23)          4.5654         estimate D2E/DX2                !
 ! D70   D(18,17,24,65)        179.6897         estimate D2E/DX2                !
 ! D71   D(17,18,19,20)       -177.5852         estimate D2E/DX2                !
 ! D72   D(17,18,19,22)         -3.3582         estimate D2E/DX2                !
 ! D73   D(61,18,19,20)          3.2176         estimate D2E/DX2                !
 ! D74   D(61,18,19,22)        177.4445         estimate D2E/DX2                !
 ! D75   D(18,19,20,21)          3.1344         estimate D2E/DX2                !
 ! D76   D(22,19,20,21)       -171.2998         estimate D2E/DX2                !
 ! D77   D(18,19,22,23)          6.4828         estimate D2E/DX2                !
 ! D78   D(18,19,22,25)        176.6049         estimate D2E/DX2                !
 ! D79   D(20,19,22,23)       -179.0067         estimate D2E/DX2                !
 ! D80   D(20,19,22,25)         -8.8846         estimate D2E/DX2                !
 ! D81   D(19,20,21,62)         64.1408         estimate D2E/DX2                !
 ! D82   D(19,20,21,63)        -66.0806         estimate D2E/DX2                !
 ! D83   D(19,20,21,64)       -177.4453         estimate D2E/DX2                !
 ! D84   D(19,22,23,24)         -3.742          estimate D2E/DX2                !
 ! D85   D(25,22,23,24)       -174.9208         estimate D2E/DX2                !
 ! D86   D(19,22,25,26)        -58.2494         estimate D2E/DX2                !
 ! D87   D(19,22,25,30)        118.9625         estimate D2E/DX2                !
 ! D88   D(23,22,25,26)        112.9637         estimate D2E/DX2                !
 ! D89   D(23,22,25,30)        -69.8244         estimate D2E/DX2                !
 ! D90   D(22,23,24,17)         -1.7548         estimate D2E/DX2                !
 ! D91   D(22,23,24,65)       -177.4186         estimate D2E/DX2                !
 ! D92   D(22,25,26,27)        175.1769         estimate D2E/DX2                !
 ! D93   D(22,25,26,66)         -1.7915         estimate D2E/DX2                !
 ! D94   D(30,25,26,27)         -2.1121         estimate D2E/DX2                !
 ! D95   D(30,25,26,66)       -179.0806         estimate D2E/DX2                !
 ! D96   D(22,25,30,29)       -174.4439         estimate D2E/DX2                !
 ! D97   D(22,25,30,31)         -3.811          estimate D2E/DX2                !
 ! D98   D(26,25,30,29)          2.9153         estimate D2E/DX2                !
 ! D99   D(26,25,30,31)        173.5483         estimate D2E/DX2                !
 ! D100  D(25,26,27,28)          0.1034         estimate D2E/DX2                !
 ! D101  D(25,26,27,67)       -178.1331         estimate D2E/DX2                !
 ! D102  D(66,26,27,28)        177.1149         estimate D2E/DX2                !
 ! D103  D(66,26,27,67)         -1.1216         estimate D2E/DX2                !
 ! D104  D(26,27,28,29)          1.3049         estimate D2E/DX2                !
 ! D105  D(26,27,28,33)       -179.857          estimate D2E/DX2                !
 ! D106  D(67,27,28,29)        179.4001         estimate D2E/DX2                !
 ! D107  D(67,27,28,33)         -1.7618         estimate D2E/DX2                !
 ! D108  D(27,28,29,30)         -0.5225         estimate D2E/DX2                !
 ! D109  D(27,28,29,68)       -178.1211         estimate D2E/DX2                !
 ! D110  D(33,28,29,30)       -179.2747         estimate D2E/DX2                !
 ! D111  D(33,28,29,68)          3.1267         estimate D2E/DX2                !
 ! D112  D(27,28,33,34)        137.4931         estimate D2E/DX2                !
 ! D113  D(27,28,33,40)        -46.6602         estimate D2E/DX2                !
 ! D114  D(29,28,33,34)        -43.6925         estimate D2E/DX2                !
 ! D115  D(29,28,33,40)        132.1542         estimate D2E/DX2                !
 ! D116  D(28,29,30,25)         -1.622          estimate D2E/DX2                !
 ! D117  D(28,29,30,31)       -172.4812         estimate D2E/DX2                !
 ! D118  D(68,29,30,25)        176.0728         estimate D2E/DX2                !
 ! D119  D(68,29,30,31)          5.2136         estimate D2E/DX2                !
 ! D120  D(25,30,31,32)        103.5892         estimate D2E/DX2                !
 ! D121  D(29,30,31,32)        -85.4422         estimate D2E/DX2                !
 ! D122  D(30,31,32,69)        -52.4275         estimate D2E/DX2                !
 ! D123  D(30,31,32,70)         76.1081         estimate D2E/DX2                !
 ! D124  D(30,31,32,71)       -170.3852         estimate D2E/DX2                !
 ! D125  D(28,33,34,35)        178.743          estimate D2E/DX2                !
 ! D126  D(28,33,34,72)         -6.8423         estimate D2E/DX2                !
 ! D127  D(40,33,34,35)          2.687          estimate D2E/DX2                !
 ! D128  D(40,33,34,72)        177.1017         estimate D2E/DX2                !
 ! D129  D(28,33,40,39)       -177.6208         estimate D2E/DX2                !
 ! D130  D(28,33,40,76)          0.7593         estimate D2E/DX2                !
 ! D131  D(34,33,40,39)         -1.8183         estimate D2E/DX2                !
 ! D132  D(34,33,40,76)        176.5618         estimate D2E/DX2                !
 ! D133  D(33,34,35,36)        177.9127         estimate D2E/DX2                !
 ! D134  D(33,34,35,38)          0.3681         estimate D2E/DX2                !
 ! D135  D(72,34,35,36)          3.171          estimate D2E/DX2                !
 ! D136  D(72,34,35,38)       -174.3736         estimate D2E/DX2                !
 ! D137  D(34,35,36,37)         -3.1859         estimate D2E/DX2                !
 ! D138  D(38,35,36,37)        174.3549         estimate D2E/DX2                !
 ! D139  D(34,35,38,39)         -4.4702         estimate D2E/DX2                !
 ! D140  D(34,35,38,41)        178.0744         estimate D2E/DX2                !
 ! D141  D(36,35,38,39)        177.8404         estimate D2E/DX2                !
 ! D142  D(36,35,38,41)          0.385          estimate D2E/DX2                !
 ! D143  D(35,36,37,73)        179.9083         estimate D2E/DX2                !
 ! D144  D(35,36,37,74)         61.5729         estimate D2E/DX2                !
 ! D145  D(35,36,37,75)        -63.3796         estimate D2E/DX2                !
 ! D146  D(35,38,39,40)          5.1398         estimate D2E/DX2                !
 ! D147  D(41,38,39,40)       -177.0281         estimate D2E/DX2                !
 ! D148  D(35,38,41,42)        108.3863         estimate D2E/DX2                !
 ! D149  D(35,38,41,46)        -60.7669         estimate D2E/DX2                !
 ! D150  D(39,38,41,42)        -69.3356         estimate D2E/DX2                !
 ! D151  D(39,38,41,46)        121.5113         estimate D2E/DX2                !
 ! D152  D(38,39,40,33)         -1.9541         estimate D2E/DX2                !
 ! D153  D(38,39,40,76)        179.4441         estimate D2E/DX2                !
 ! D154  D(38,41,42,43)       -175.6632         estimate D2E/DX2                !
 ! D155  D(38,41,42,77)         14.3369         estimate D2E/DX2                !
 ! D156  D(46,41,42,43)         -5.4904         estimate D2E/DX2                !
 ! D157  D(46,41,42,77)       -175.4902         estimate D2E/DX2                !
 ! D158  D(38,41,46,45)        173.0196         estimate D2E/DX2                !
 ! D159  D(38,41,46,47)         -8.2701         estimate D2E/DX2                !
 ! D160  D(42,41,46,45)          3.5857         estimate D2E/DX2                !
 ! D161  D(42,41,46,47)       -177.704          estimate D2E/DX2                !
 ! D162  D(41,42,43,44)          5.1851         estimate D2E/DX2                !
 ! D163  D(41,42,43,78)       -174.87           estimate D2E/DX2                !
 ! D164  D(77,42,43,44)        175.2898         estimate D2E/DX2                !
 ! D165  D(77,42,43,78)         -4.7653         estimate D2E/DX2                !
 ! D166  D(42,43,44,45)         -2.7373         estimate D2E/DX2                !
 ! D167  D(42,43,44,79)       -179.0816         estimate D2E/DX2                !
 ! D168  D(78,43,44,45)        177.3136         estimate D2E/DX2                !
 ! D169  D(78,43,44,79)          0.9693         estimate D2E/DX2                !
 ! D170  D(43,44,45,46)          0.8568         estimate D2E/DX2                !
 ! D171  D(43,44,45,80)       -173.675          estimate D2E/DX2                !
 ! D172  D(79,44,45,46)        177.1195         estimate D2E/DX2                !
 ! D173  D(79,44,45,80)          2.5878         estimate D2E/DX2                !
 ! D174  D(44,45,46,41)         -1.4683         estimate D2E/DX2                !
 ! D175  D(44,45,46,47)        179.9305         estimate D2E/DX2                !
 ! D176  D(80,45,46,41)        172.5991         estimate D2E/DX2                !
 ! D177  D(80,45,46,47)         -6.0021         estimate D2E/DX2                !
 ! D178  D(41,46,47,48)       -175.6559         estimate D2E/DX2                !
 ! D179  D(45,46,47,48)          3.0732         estimate D2E/DX2                !
 ! D180  D(46,47,48,81)         61.7784         estimate D2E/DX2                !
 ! D181  D(46,47,48,82)        178.8327         estimate D2E/DX2                !
 ! D182  D(46,47,48,83)        -68.0806         estimate D2E/DX2                !
 --------------------------------------------------------------------------------
 Trust Radius=3.00D-01 FncErr=1.00D-07 GrdErr=1.00D-06 EigMax=2.50D+02 EigMin=1.00D-04
 Number of steps in this run=    424 maximum allowed number of steps=    498.
 GradGradGradGradGradGradGradGradGradGradGradGradGradGradGradGradGradGrad

 Leave Link  103 at Thu Jul 23 12:58:29 2020, MaxMem=  4026531840 cpu:               0.3 elap:               0.1
 (Enter /opt/ohpc/pub/libs/gaussian/g16-A.03/sandybridge/g16/l202.exe)
 Stoichiometry    C39H35N3O6
 Framework group  C1[X(C39H35N3O6)]
 Deg. of freedom   243
 Full point group                 C1      NOp   1
 Largest Abelian subgroup         C1      NOp   1
 Largest concise Abelian subgroup C1      NOp   1
                         Standard orientation:                         
 ---------------------------------------------------------------------
 Center     Atomic      Atomic             Coordinates (Angstroms)
 Number     Number       Type             X           Y           Z
 ---------------------------------------------------------------------
      1          6           0      -11.994884    0.751562   -0.094196
      2          6           0      -11.463819   -0.273052    0.571045
      3          6           0      -10.074622   -0.493943    0.582899
      4          8           0       -9.512163   -1.549607    1.292309
      5          6           0      -10.308921   -2.462953    2.037740
      6          6           0       -9.324865    0.391732   -0.046965
      7          7           0       -9.861056    1.528565   -0.714309
      8          6           0      -11.196873    1.681423   -0.692520
      9          6           0       -7.836105    0.364756   -0.117653
     10          6           0       -7.079179    0.942848    0.932915
     11          6           0       -5.753205    0.953599    0.955223
     12          6           0       -5.026251    0.283218   -0.021862
     13          6           0       -5.781671   -0.392187   -1.060456
     14          6           0       -7.172702   -0.338871   -1.125279
     15          8           0       -7.943407   -0.982354   -2.043644
     16          6           0       -7.382218   -0.986767   -3.335325
     17          6           0       -3.500267    0.284835   -0.055237
     18          6           0       -2.774992    1.450728    0.151670
     19          6           0       -1.389778    1.353847    0.110585
     20          8           0       -0.590792    2.415026    0.345639
     21          6           0       -1.220133    3.674540    0.718064
     22          6           0       -0.781109    0.147943   -0.056157
     23          7           0       -1.472555   -1.060637   -0.330118
     24          6           0       -2.826763   -0.940850   -0.337333
     25          6           0        0.729705   -0.028814   -0.185854
     26          6           0        1.484141    0.601741   -1.195547
     27          6           0        2.866516    0.515776   -1.249357
     28          6           0        3.557885   -0.269984   -0.205605
     29          6           0        2.864819   -0.911457    0.761821
     30          6           0        1.457617   -0.824923    0.788282
     31          8           0        0.808671   -1.354235    1.866533
     32          6           0        0.629362   -2.762146    1.570954
     33          6           0        5.075933   -0.325482   -0.314754
     34          6           0        5.810396   -0.187494    0.856514
     35          6           0        7.230239   -0.257696    0.820835
     36          8           0        7.997258   -0.098511    1.873073
     37          6           0        7.409406    0.234796    3.155795
     38          6           0        7.836612   -0.456500   -0.400734
     39          7           0        7.092264   -0.687892   -1.615668
     40          6           0        5.710845   -0.571703   -1.426789
     41          6           0        9.252473   -0.519288   -0.664483
     42          6           0        9.841364   -1.811119   -0.998006
     43          6           0       11.171734   -1.978335   -1.175985
     44          6           0       12.075650   -0.883527   -0.928292
     45          6           0       11.538761    0.401171   -0.548318
     46          6           0       10.180693    0.535400   -0.417168
     47          8           0        9.577878    1.742789   -0.051675
     48          6           0       10.422651    2.835883    0.112524
     49          1           0      -13.127142    0.987334   -0.169842
     50          1           0      -12.141693   -0.986065    1.072386
     51          1           0      -10.868048   -1.934697    2.788616
     52          1           0       -9.673810   -3.164271    2.508234
     53          1           0      -10.926756   -2.971129    1.347273
     54          1           0      -11.542322    2.510751   -1.277795
     55          1           0       -7.610194    1.472726    1.735451
     56          1           0       -5.139629    1.463385    1.779366
     57          1           0       -5.194836   -0.862676   -1.878330
     58          1           0       -6.948763   -0.045653   -3.609423
     59          1           0       -8.100030   -1.240967   -4.021528
     60          1           0       -6.582184   -1.836427   -3.443214
     61          1           0       -3.255290    2.371619    0.319700
     62          1           0       -1.731508    3.631132    1.639793
     63          1           0       -1.780132    4.027621   -0.093172
     64          1           0       -0.385896    4.455413    0.825831
     65          1           0       -3.295262   -1.839271   -0.496164
     66          1           0        0.986161    1.211914   -1.927097
     67          1           0        3.361651    1.052979   -2.035699
     68          1           0        3.363069   -1.473968    1.561435
     69          1           0        0.162255   -3.022623    0.617644
     70          1           0        1.543825   -3.276727    1.702912
     71          1           0       -0.084613   -3.204137    2.388961
     72          1           0        5.341342    0.070915    1.840926
     73          1           0        8.286606    0.308978    3.872499
     74          1           0        6.758707   -0.551993    3.442436
     75          1           0        6.906752    1.210668    3.144879
     76          1           0        5.232454   -0.749416   -2.383570
     77          1           0        9.186412   -2.632845   -1.268872
     78          1           0       11.639166   -2.932154   -1.510621
     79          1           0       13.101438   -1.021817   -1.083744
     80          1           0       12.224185    1.194862   -0.477932
     81          1           0       10.918026    3.077930   -0.769439
     82          1           0        9.727972    3.755469    0.395102
     83          1           0       11.087292    2.725786    0.987830
 ---------------------------------------------------------------------
 Rotational constants (GHZ):           0.2379447           0.0141206           0.0140321
 Leave Link  202 at Thu Jul 23 12:58:29 2020, MaxMem=  4026531840 cpu:               0.3 elap:               0.1
 (Enter /opt/ohpc/pub/libs/gaussian/g16-A.03/sandybridge/g16/l301.exe)
 Standard basis: CC-pVDZ (5D, 7F)
 Ernie: Thresh=  0.10000D-02 Tol=  0.10000D-05 Strict=F.
 Ernie:  96 primitive shells out of 1231 were deleted.
 There are   895 symmetry adapted cartesian basis functions of A   symmetry.
 There are   847 symmetry adapted basis functions of A   symmetry.
   847 basis functions,  1829 primitive gaussians,   895 cartesian basis functions
   169 alpha electrons      169 beta electrons
       nuclear repulsion energy      5207.1034475799 Hartrees.
 IExCor=32609 DFT=T Ex+Corr=LC-wPBE ExCW=0 ScaHFX=  1.000000
 ScaDFX=  1.000000  0.000000  1.000000  1.000000 ScalE2=  1.000000  1.000000
 IRadAn=      5 IRanWt=     -1 IRanGd=            0 ICorTp=0 IEmpDi=  4
 HFx  wShort=  0.000000 wLong=  0.448700 cFull=  0.000000 cShort=  0.000000 cLong=  1.000000
 DFx  wShort=  0.000000 wLong=  0.448700 cFull=  0.000000 cShort=  0.000000 cLong=  1.000000
 NAtoms=   83 NActive=   83 NUniq=   83 SFac= 1.00D+00 NAtFMM=   60 NAOKFM=T Big=T
 Integral buffers will be    131072 words long.
 Raffenetti 2 integral format.
 Two-electron integral symmetry is turned on.
 Leave Link  301 at Thu Jul 23 12:58:29 2020, MaxMem=  4026531840 cpu:               0.8 elap:               0.1
 (Enter /opt/ohpc/pub/libs/gaussian/g16-A.03/sandybridge/g16/l302.exe)
 NPDir=0 NMtPBC=     1 NCelOv=     1 NCel=       1 NClECP=     1 NCelD=      1
         NCelK=      1 NCelE2=     1 NClLst=     1 CellRange=     0.0.
 One-electron integrals computed using PRISM.
 One-electron integral symmetry used in STVInt
 NBasis=   847 RedAO= T EigKep=  2.69D-04  NBF=   847
 NBsUse=   847 1.00D-06 EigRej= -1.00D+00 NBFU=   847
 Precomputing XC quadrature grid using
 IXCGrd= 4 IRadAn=           5 IRanWt=          -1 IRanGd=           0 AccXCQ= 0.00D+00.
 Generated NRdTot=       0 NPtTot=           0 NUsed=           0 NTot=          32
 NSgBfM=   740   737   740   740   740 MxSgAt=    83 MxSgA2=    83.
 Leave Link  302 at Thu Jul 23 12:58:34 2020, MaxMem=  4026531840 cpu:              32.3 elap:               4.1
 (Enter /opt/ohpc/pub/libs/gaussian/g16-A.03/sandybridge/g16/l303.exe)
 DipDrv:  MaxL=1.
 Leave Link  303 at Thu Jul 23 12:58:34 2020, MaxMem=  4026531840 cpu:               2.0 elap:               0.3
 (Enter /opt/ohpc/pub/libs/gaussian/g16-A.03/sandybridge/g16/l401.exe)
 ExpMin= 1.22D-01 ExpMax= 1.17D+04 ExpMxC= 4.01D+02 IAcc=3 IRadAn=         5 AccDes= 0.00D+00
 Harris functional with IExCor=32609 and IRadAn=       5 diagonalized for initial guess.
 HarFok:  IExCor=32609 AccDes= 0.00D+00 IRadAn=         5 IDoV= 1 UseB2=F ITyADJ=14
 ICtDFT=  3500011 ScaDFX=  1.000000  1.000000  1.000000  1.000000
 FoFCou: FMM=F IPFlag=           0 FMFlag=      100000 FMFlg1=        2001
         NFxFlg=           0 DoJE=T BraDBF=F KetDBF=T FulRan=T
         wScrn=  0.000000 ICntrl=       500 IOpCl=  0 I1Cent=   200000004 NGrid=           0
         NMat0=    1 NMatS0=      1 NMatT0=    0 NMatD0=    1 NMtDS0=    0 NMtDT0=    0
 Petite list used in FoFCou.
 Harris En= -2120.95715105876    
 JPrj=0 DoOrth=F DoCkMO=F.
 Initial guess <Sx>= 0.0000 <Sy>= 0.0000 <Sz>= 0.0000 <S**2>=-0.0000 S=-0.0000
 Leave Link  401 at Thu Jul 23 12:58:50 2020, MaxMem=  4026531840 cpu:             125.2 elap:              15.7
 (Enter /opt/ohpc/pub/libs/gaussian/g16-A.03/sandybridge/g16/l502.exe)
 Integral symmetry usage will be decided dynamically.
 UHF open shell SCF:
 Using DIIS extrapolation, IDIIS=  1040.
 NGot=  4026531840 LenX=  4024913275 LenY=  4024111355
 Requested convergence on RMS density matrix=1.00D-08 within 128 cycles.
 Requested convergence on MAX density matrix=1.00D-06.
 Requested convergence on             energy=1.00D-06.
 No special actions if energy rises.
 Fock matrices will be formed incrementally for  20 cycles.
 Integral accuracy reduced to 1.0D-05 until final iterations.

 Cycle   1  Pass 0  IDiag  1:
 FoFJK:  IHMeth= 1 ICntrl=       0 DoSepK=T KAlg= 0 I1Cent=           0 FoldK=F
 IRaf=         1 NMat=       1 IRICut=       1 DoRegI=T DoRafI=F ISym2E= 0 IDoP0=0 IntGTp=1.
 FoFCou: FMM=T IPFlag=           0 FMFlag=      100000 FMFlg1=        2001
         NFxFlg=           0 DoJE=T BraDBF=F KetDBF=F FulRan=T
         wScrn=  0.000000 ICntrl=       500 IOpCl=  0 I1Cent=           0 NGrid=           0
         NMat0=    1 NMatS0=      1 NMatT0=    0 NMatD0=    1 NMtDS0=    0 NMtDT0=    0
 Symmetry not used in FoFCou.
 FMM levels:  10  Number of levels for PrismC:   9
 E= -2120.57374250924    
 DIIS: error= 1.50D-02 at cycle   1 NSaved=   1.
 NSaved= 1 IEnMin= 1 EnMin= -2120.57374250924     IErMin= 1 ErrMin= 1.50D-02
 ErrMax= 1.50D-02  0.00D+00 EMaxC= 1.00D-01 BMatC= 2.46D+00 BMatP= 2.46D+00
 IDIUse=3 WtCom= 8.50D-01 WtEn= 1.50D-01
 Coeff-Com:  0.100D+01
 Coeff-En:   0.100D+01
 Coeff:      0.100D+01
 Gap=     0.352 Goal=   None    Shift=    0.000
 Gap=     0.352 Goal=   None    Shift=    0.000
 GapD=    0.352 DampG=1.000 DampE=0.500 DampFc=0.5000 IDamp=-1.
 Damping current iteration by 5.00D-01
 RMSDP=1.80D-03 MaxDP=7.42D-02              OVMax= 1.03D-01

 Cycle   2  Pass 0  IDiag  1:
 RMSU=  8.74D-04    CP:  9.82D-01
 E= -2120.94597424827     Delta-E=       -0.372231739032 Rises=F Damp=T
 DIIS: error= 5.20D-03 at cycle   2 NSaved=   2.
 NSaved= 2 IEnMin= 2 EnMin= -2120.94597424827     IErMin= 2 ErrMin= 5.20D-03
 ErrMax= 5.20D-03  0.00D+00 EMaxC= 1.00D-01 BMatC= 2.67D-01 BMatP= 2.46D+00
 IDIUse=3 WtCom= 9.48D-01 WtEn= 5.20D-02
 Coeff-Com: -0.331D+00 0.133D+01
 Coeff-En:   0.000D+00 0.100D+01
 Coeff:     -0.314D+00 0.131D+01
 Gap=     0.340 Goal=   None    Shift=    0.000
 Gap=     0.340 Goal=   None    Shift=    0.000
 RMSDP=7.69D-04 MaxDP=2.73D-02 DE=-3.72D-01 OVMax= 4.63D-02

 Cycle   3  Pass 0  IDiag  1:
 RMSU=  4.44D-04    CP:  9.66D-01  1.69D+00
 E= -2121.26169179919     Delta-E=       -0.315717550921 Rises=F Damp=F
 DIIS: error= 1.77D-03 at cycle   3 NSaved=   3.
 NSaved= 3 IEnMin= 3 EnMin= -2121.26169179919     IErMin= 3 ErrMin= 1.77D-03
 ErrMax= 1.77D-03  0.00D+00 EMaxC= 1.00D-01 BMatC= 3.70D-02 BMatP= 2.67D-01
 IDIUse=3 WtCom= 9.82D-01 WtEn= 1.77D-02
 Coeff-Com: -0.139D+00 0.436D+00 0.703D+00
 Coeff-En:   0.000D+00 0.000D+00 0.100D+01
 Coeff:     -0.137D+00 0.429D+00 0.708D+00
 Gap=     0.334 Goal=   None    Shift=    0.000
 Gap=     0.334 Goal=   None    Shift=    0.000
 RMSDP=1.62D-04 MaxDP=1.01D-02 DE=-3.16D-01 OVMax= 2.36D-02

 Cycle   4  Pass 0  IDiag  1:
 RMSU=  1.47D-04    CP:  9.65D-01  1.71D+00  8.55D-01
 E= -2121.26975527390     Delta-E=       -0.008063474704 Rises=F Damp=F
 DIIS: error= 9.90D-04 at cycle   4 NSaved=   4.
 NSaved= 4 IEnMin= 4 EnMin= -2121.26975527390     IErMin= 4 ErrMin= 9.90D-04
 ErrMax= 9.90D-04  0.00D+00 EMaxC= 1.00D-01 BMatC= 6.97D-03 BMatP= 3.70D-02
 IDIUse=3 WtCom= 9.90D-01 WtEn= 9.90D-03
 Coeff-Com: -0.160D-01 0.295D-01 0.304D+00 0.683D+00
 Coeff-En:   0.000D+00 0.000D+00 0.633D-01 0.937D+00
 Coeff:     -0.158D-01 0.292D-01 0.301D+00 0.685D+00
 Gap=     0.333 Goal=   None    Shift=    0.000
 Gap=     0.333 Goal=   None    Shift=    0.000
 RMSDP=6.60D-05 MaxDP=4.25D-03 DE=-8.06D-03 OVMax= 7.88D-03

 Cycle   5  Pass 0  IDiag  1:
 RMSU=  3.90D-05    CP:  9.65D-01  1.73D+00  9.43D-01  7.82D-01
 E= -2121.27156922933     Delta-E=       -0.001813955435 Rises=F Damp=F
 DIIS: error= 1.78D-04 at cycle   5 NSaved=   5.
 NSaved= 5 IEnMin= 5 EnMin= -2121.27156922933     IErMin= 5 ErrMin= 1.78D-04
 ErrMax= 1.78D-04  0.00D+00 EMaxC= 1.00D-01 BMatC= 4.43D-04 BMatP= 6.97D-03
 IDIUse=3 WtCom= 9.98D-01 WtEn= 1.78D-03
 Coeff-Com:  0.728D-02-0.272D-01 0.464D-01 0.236D+00 0.738D+00
 Coeff-En:   0.000D+00 0.000D+00 0.000D+00 0.000D+00 0.100D+01
 Coeff:      0.727D-02-0.272D-01 0.463D-01 0.236D+00 0.738D+00
 Gap=     0.334 Goal=   None    Shift=    0.000
 Gap=     0.334 Goal=   None    Shift=    0.000
 RMSDP=1.96D-05 MaxDP=8.95D-04 DE=-1.81D-03 OVMax= 2.58D-03

 Cycle   6  Pass 0  IDiag  1:
 RMSU=  1.60D-05    CP:  9.65D-01  1.73D+00  9.52D-01  8.49D-01  9.61D-01
 E= -2121.27171150470     Delta-E=       -0.000142275368 Rises=F Damp=F
 DIIS: error= 8.23D-05 at cycle   6 NSaved=   6.
 NSaved= 6 IEnMin= 6 EnMin= -2121.27171150470     IErMin= 6 ErrMin= 8.23D-05
 ErrMax= 8.23D-05  0.00D+00 EMaxC= 1.00D-01 BMatC= 5.98D-05 BMatP= 4.43D-04
 IDIUse=1 WtCom= 1.00D+00 WtEn= 0.00D+00
 Coeff-Com:  0.465D-02-0.134D-01-0.196D-01-0.768D-02 0.249D+00 0.787D+00
 Coeff:      0.465D-02-0.134D-01-0.196D-01-0.768D-02 0.249D+00 0.787D+00
 Gap=     0.334 Goal=   None    Shift=    0.000
 Gap=     0.334 Goal=   None    Shift=    0.000
 RMSDP=1.05D-05 MaxDP=3.20D-04 DE=-1.42D-04 OVMax= 1.29D-03

 Cycle   7  Pass 0  IDiag  1:
 RMSU=  8.18D-06    CP:  9.65D-01  1.73D+00  9.59D-01  8.62D-01  1.10D+00
                    CP:  1.06D+00
 E= -2121.27174097268     Delta-E=       -0.000029467982 Rises=F Damp=F
 DIIS: error= 2.59D-05 at cycle   7 NSaved=   7.
 NSaved= 7 IEnMin= 7 EnMin= -2121.27174097268     IErMin= 7 ErrMin= 2.59D-05
 ErrMax= 2.59D-05  0.00D+00 EMaxC= 1.00D-01 BMatC= 7.65D-06 BMatP= 5.98D-05
 IDIUse=1 WtCom= 1.00D+00 WtEn= 0.00D+00
 Coeff-Com:  0.274D-03 0.182D-03-0.942D-02-0.355D-01-0.413D-01 0.183D+00
 Coeff-Com:  0.902D+00
 Coeff:      0.274D-03 0.182D-03-0.942D-02-0.355D-01-0.413D-01 0.183D+00
 Coeff:      0.902D+00
 Gap=     0.334 Goal=   None    Shift=    0.000
 Gap=     0.334 Goal=   None    Shift=    0.000
 RMSDP=1.05D-05 MaxDP=2.61D-04 DE=-2.95D-05 OVMax= 7.37D-04

 Cycle   8  Pass 0  IDiag  1:
 RMSU=  8.02D-06    CP:  9.65D-01  1.73D+00  9.61D-01  8.68D-01  1.16D+00
                    CP:  1.32D+00  1.55D+00
 E= -2121.27174925685     Delta-E=       -0.000008284165 Rises=F Damp=F
 DIIS: error= 2.98D-05 at cycle   8 NSaved=   8.
 NSaved= 8 IEnMin= 8 EnMin= -2121.27174925685     IErMin= 7 ErrMin= 2.59D-05
 ErrMax= 2.98D-05  0.00D+00 EMaxC= 1.00D-01 BMatC= 2.97D-06 BMatP= 7.65D-06
 IDIUse=1 WtCom= 1.00D+00 WtEn= 0.00D+00
 Coeff-Com: -0.412D-03 0.161D-02-0.124D-02-0.153D-01-0.506D-01-0.180D-01
 Coeff-Com:  0.378D+00 0.706D+00
 Coeff:     -0.412D-03 0.161D-02-0.124D-02-0.153D-01-0.506D-01-0.180D-01
 Coeff:      0.378D+00 0.706D+00
 Gap=     0.334 Goal=   None    Shift=    0.000
 Gap=     0.334 Goal=   None    Shift=    0.000
 RMSDP=1.04D-05 MaxDP=2.72D-04 DE=-8.28D-06 OVMax= 3.41D-04

 Cycle   9  Pass 0  IDiag  1:
 RMSU=  5.62D-06    CP:  9.65D-01  1.73D+00  9.61D-01  8.69D-01  1.18D+00
                    CP:  1.47D+00  2.25D+00  1.77D+00
 E= -2121.27175339301     Delta-E=       -0.000004136159 Rises=F Damp=F
 DIIS: error= 4.65D-05 at cycle   9 NSaved=   9.
 NSaved= 9 IEnMin= 9 EnMin= -2121.27175339301     IErMin= 7 ErrMin= 2.59D-05
 ErrMax= 4.65D-05  0.00D+00 EMaxC= 1.00D-01 BMatC= 2.87D-06 BMatP= 2.97D-06
 IDIUse=1 WtCom= 1.00D+00 WtEn= 0.00D+00
 Coeff-Com: -0.365D-03 0.144D-02-0.115D-02-0.141D-01-0.458D-01-0.144D-01
 Coeff-Com:  0.345D+00 0.632D+00 0.970D-01
 Coeff:     -0.365D-03 0.144D-02-0.115D-02-0.141D-01-0.458D-01-0.144D-01
 Coeff:      0.345D+00 0.632D+00 0.970D-01
 Gap=     0.334 Goal=   None    Shift=    0.000
 Gap=     0.334 Goal=   None    Shift=    0.000
 RMSDP=1.78D-06 MaxDP=4.65D-05 DE=-4.14D-06 OVMax= 1.61D-05

 Initial convergence to 1.0D-05 achieved.  Increase integral accuracy.
 Cycle  10  Pass 1  IDiag  1:
 E= -2121.27103341196     Delta-E=        0.000719981043 Rises=F Damp=F
 DIIS: error= 2.31D-04 at cycle   1 NSaved=   1.
 NSaved= 1 IEnMin= 1 EnMin= -2121.27103341196     IErMin= 1 ErrMin= 2.31D-04
 ErrMax= 2.31D-04  0.00D+00 EMaxC= 1.00D-01 BMatC= 1.98D-04 BMatP= 1.98D-04
 IDIUse=3 WtCom= 9.98D-01 WtEn= 2.31D-03
 Coeff-Com:  0.100D+01
 Coeff-En:   0.100D+01
 Coeff:      0.100D+01
 Gap=     0.334 Goal=   None    Shift=    0.000
 Gap=     0.334 Goal=   None    Shift=    0.000
 RMSDP=1.78D-06 MaxDP=4.65D-05 DE= 7.20D-04 OVMax= 6.39D-04

 Cycle  11  Pass 1  IDiag  1:
 RMSU=  1.49D-04    CP:  1.00D+00
 E= -2121.27107381307     Delta-E=       -0.000040401107 Rises=F Damp=F
 DIIS: error= 1.04D-05 at cycle   2 NSaved=   2.
 NSaved= 2 IEnMin= 2 EnMin= -2121.27107381307     IErMin= 2 ErrMin= 1.04D-05
 ErrMax= 1.04D-05  0.00D+00 EMaxC= 1.00D-01 BMatC= 4.99D-07 BMatP= 1.98D-04
 IDIUse=1 WtCom= 1.00D+00 WtEn= 0.00D+00
 Coeff-Com: -0.373D-01 0.104D+01
 Coeff:     -0.373D-01 0.104D+01
 Gap=     0.334 Goal=   None    Shift=    0.000
 Gap=     0.334 Goal=   None    Shift=    0.000
 RMSDP=8.18D-06 MaxDP=3.30D-04 DE=-4.04D-05 OVMax= 1.31D-04

 Cycle  12  Pass 1  IDiag  1:
 RMSU=  2.73D-06    CP:  1.00D+00  1.05D+00
 E= -2121.27107408720     Delta-E=       -0.000000274134 Rises=F Damp=F
 DIIS: error= 2.69D-06 at cycle   3 NSaved=   3.
 NSaved= 3 IEnMin= 3 EnMin= -2121.27107408720     IErMin= 3 ErrMin= 2.69D-06
 ErrMax= 2.69D-06  0.00D+00 EMaxC= 1.00D-01 BMatC= 7.24D-08 BMatP= 4.99D-07
 IDIUse=1 WtCom= 1.00D+00 WtEn= 0.00D+00
 Coeff-Com: -0.849D-02 0.211D+00 0.797D+00
 Coeff:     -0.849D-02 0.211D+00 0.797D+00
 Gap=     0.334 Goal=   None    Shift=    0.000
 Gap=     0.334 Goal=   None    Shift=    0.000
 RMSDP=4.20D-07 MaxDP=2.22D-05 DE=-2.74D-07 OVMax= 5.05D-05

 Cycle  13  Pass 1  IDiag  1:
 RMSU=  2.85D-07    CP:  1.00D+00  1.05D+00  1.09D+00
 E= -2121.27107412580     Delta-E=       -0.000000038593 Rises=F Damp=F
 DIIS: error= 2.48D-06 at cycle   4 NSaved=   4.
 NSaved= 4 IEnMin= 4 EnMin= -2121.27107412580     IErMin= 4 ErrMin= 2.48D-06
 ErrMax= 2.48D-06  0.00D+00 EMaxC= 1.00D-01 BMatC= 3.73D-08 BMatP= 7.24D-08
 IDIUse=1 WtCom= 1.00D+00 WtEn= 0.00D+00
 Coeff-Com:  0.540D-02-0.162D+00 0.387D+00 0.769D+00
 Coeff:      0.540D-02-0.162D+00 0.387D+00 0.769D+00
 Gap=     0.334 Goal=   None    Shift=    0.000
 Gap=     0.334 Goal=   None    Shift=    0.000
 RMSDP=2.70D-07 MaxDP=1.35D-05 DE=-3.86D-08 OVMax= 5.38D-05

 Cycle  14  Pass 1  IDiag  1:
 RMSU=  1.86D-07    CP:  1.00D+00  1.05D+00  1.14D+00  1.17D+00
 E= -2121.27107415076     Delta-E=       -0.000000024961 Rises=F Damp=F
 DIIS: error= 1.16D-06 at cycle   5 NSaved=   5.
 NSaved= 5 IEnMin= 5 EnMin= -2121.27107415076     IErMin= 5 ErrMin= 1.16D-06
 ErrMax= 1.16D-06  0.00D+00 EMaxC= 1.00D-01 BMatC= 4.58D-09 BMatP= 3.73D-08
 IDIUse=1 WtCom= 1.00D+00 WtEn= 0.00D+00
 Coeff-Com: -0.181D-03 0.160D-01-0.355D+00-0.309D+00 0.165D+01
 Coeff:     -0.181D-03 0.160D-01-0.355D+00-0.309D+00 0.165D+01
 Gap=     0.334 Goal=   None    Shift=    0.000
 Gap=     0.334 Goal=   None    Shift=    0.000
 RMSDP=2.11D-07 MaxDP=1.56D-05 DE=-2.50D-08 OVMax= 5.59D-05

 Cycle  15  Pass 1  IDiag  1:
 RMSU=  8.35D-08    CP:  1.00D+00  1.05D+00  1.15D+00  1.63D+00  1.76D+00
 E= -2121.27107416099     Delta-E=       -0.000000010235 Rises=F Damp=F
 DIIS: error= 2.60D-07 at cycle   6 NSaved=   6.
 NSaved= 6 IEnMin= 6 EnMin= -2121.27107416099     IErMin= 6 ErrMin= 2.60D-07
 ErrMax= 2.60D-07  0.00D+00 EMaxC= 1.00D-01 BMatC= 1.03D-09 BMatP= 4.58D-09
 IDIUse=1 WtCom= 1.00D+00 WtEn= 0.00D+00
 Coeff-Com: -0.869D-03 0.310D-01-0.219D+00-0.251D+00 0.763D+00 0.677D+00
 Coeff:     -0.869D-03 0.310D-01-0.219D+00-0.251D+00 0.763D+00 0.677D+00
 Gap=     0.334 Goal=   None    Shift=    0.000
 Gap=     0.334 Goal=   None    Shift=    0.000
 RMSDP=4.76D-08 MaxDP=3.41D-06 DE=-1.02D-08 OVMax= 1.12D-05

 Cycle  16  Pass 1  IDiag  1:
 RMSU=  2.36D-08    CP:  1.00D+00  1.05D+00  1.15D+00  1.70D+00  1.93D+00
                    CP:  1.17D+00
 E= -2121.27107416640     Delta-E=       -0.000000005406 Rises=F Damp=F
 DIIS: error= 7.78D-08 at cycle   7 NSaved=   7.
 NSaved= 7 IEnMin= 7 EnMin= -2121.27107416640     IErMin= 7 ErrMin= 7.78D-08
 ErrMax= 7.78D-08  0.00D+00 EMaxC= 1.00D-01 BMatC= 5.75D-11 BMatP= 1.03D-09
 IDIUse=1 WtCom= 1.00D+00 WtEn= 0.00D+00
 Coeff-Com: -0.179D-03 0.546D-02-0.164D-01-0.288D-01 0.176D-01 0.151D+00
 Coeff-Com:  0.872D+00
 Coeff:     -0.179D-03 0.546D-02-0.164D-01-0.288D-01 0.176D-01 0.151D+00
 Coeff:      0.872D+00
 Gap=     0.334 Goal=   None    Shift=    0.000
 Gap=     0.334 Goal=   None    Shift=    0.000
 RMSDP=1.49D-08 MaxDP=7.69D-07 DE=-5.41D-09 OVMax= 2.26D-06

 Cycle  17  Pass 1  IDiag  1:
 RMSU=  6.96D-09    CP:  1.00D+00  1.05D+00  1.15D+00  1.71D+00  1.95D+00
                    CP:  1.29D+00  1.12D+00
 E= -2121.27107416652     Delta-E=       -0.000000000116 Rises=F Damp=F
 DIIS: error= 4.95D-08 at cycle   8 NSaved=   8.
 NSaved= 8 IEnMin= 8 EnMin= -2121.27107416652     IErMin= 8 ErrMin= 4.95D-08
 ErrMax= 4.95D-08  0.00D+00 EMaxC= 1.00D-01 BMatC= 1.49D-11 BMatP= 5.75D-11
 IDIUse=1 WtCom= 1.00D+00 WtEn= 0.00D+00
 Coeff-Com:  0.118D-03-0.450D-02 0.390D-01 0.420D-01-0.148D+00-0.887D-01
 Coeff-Com:  0.300D+00 0.860D+00
 Coeff:      0.118D-03-0.450D-02 0.390D-01 0.420D-01-0.148D+00-0.887D-01
 Coeff:      0.300D+00 0.860D+00
 Gap=     0.334 Goal=   None    Shift=    0.000
 Gap=     0.334 Goal=   None    Shift=    0.000
 RMSDP=6.84D-09 MaxDP=3.32D-07 DE=-1.16D-10 OVMax= 9.93D-07

 SCF Done:  E(ULC-wPBE) =  -2121.27107417     A.U. after   17 cycles
            NFock= 17  Conv=0.68D-08     -V/T= 2.0071
 <Sx>= 0.0000 <Sy>= 0.0000 <Sz>= 0.0000 <S**2>=-0.0000 S=-0.0000
 <L.S>= 0.000000000000E+00
 KE= 2.106290744542D+03 PE=-1.535545460763D+04 EE= 5.920789341344D+03
 Annihilation of the first spin contaminant:
 S**2 before annihilation    -0.0000,   after     0.0000
 Leave Link  502 at Thu Jul 23 13:13:22 2020, MaxMem=  4026531840 cpu:            6872.8 elap:             872.9
 (Enter /opt/ohpc/pub/libs/gaussian/g16-A.03/sandybridge/g16/l601.exe)
 Copying SCF densities to generalized density rwf, IOpCl= 1 IROHF=0.

 **********************************************************************

            Population analysis using the SCF density.

 **********************************************************************

 Orbital symmetries:
 Alpha Orbitals:
       Occupied  (A) (A) (A) (A) (A) (A) (A) (A) (A) (A) (A) (A)
                 (A) (A) (A) (A) (A) (A) (A) (A) (A) (A) (A) (A)
                 (A) (A) (A) (A) (A) (A) (A) (A) (A) (A) (A) (A)
                 (A) (A) (A) (A) (A) (A) (A) (A) (A) (A) (A) (A)
                 (A) (A) (A) (A) (A) (A) (A) (A) (A) (A) (A) (A)
                 (A) (A) (A) (A) (A) (A) (A) (A) (A) (A) (A) (A)
                 (A) (A) (A) (A) (A) (A) (A) (A) (A) (A) (A) (A)
                 (A) (A) (A) (A) (A) (A) (A) (A) (A) (A) (A) (A)
                 (A) (A) (A) (A) (A) (A) (A) (A) (A) (A) (A) (A)
                 (A) (A) (A) (A) (A) (A) (A) (A) (A) (A) (A) (A)
                 (A) (A) (A) (A) (A) (A) (A) (A) (A) (A) (A) (A)
                 (A) (A) (A) (A) (A) (A) (A) (A) (A) (A) (A) (A)
                 (A) (A) (A) (A) (A) (A) (A) (A) (A) (A) (A) (A)
                 (A) (A) (A) (A) (A) (A) (A) (A) (A) (A) (A) (A)
                 (A)
       Virtual   (A) (A) (A) (A) (A) (A) (A) (A) (A) (A) (A) (A)
                 (A) (A) (A) (A) (A) (A) (A) (A) (A) (A) (A) (A)
                 (A) (A) (A) (A) (A) (A) (A) (A) (A) (A) (A) (A)
                 (A) (A) (A) (A) (A) (A) (A) (A) (A) (A) (A) (A)
                 (A) (A) (A) (A) (A) (A) (A) (A) (A) (A) (A) (A)
                 (A) (A) (A) (A) (A) (A) (A) (A) (A) (A) (A) (A)
                 (A) (A) (A) (A) (A) (A) (A) (A) (A) (A) (A) (A)
                 (A) (A) (A) (A) (A) (A) (A) (A) (A) (A) (A) (A)
                 (A) (A) (A) (A) (A) (A) (A) (A) (A) (A) (A) (A)
                 (A) (A) (A) (A) (A) (A) (A) (A) (A) (A) (A) (A)
                 (A) (A) (A) (A) (A) (A) (A) (A) (A) (A) (A) (A)
[...]
              Bcc     0.0000     0.000     0.000     0.000  0.9508 -0.3095 -0.0153
 
              Baa    -0.0000    -0.000    -0.000    -0.000 -0.3912  0.2289  0.8914
    24 C(13)  Bbb    -0.0000    -0.000    -0.000    -0.000  0.8681 -0.2299  0.4400
              Bcc     0.0000     0.000     0.000     0.000  0.3056  0.9459 -0.1087
 
              Baa    -0.0000    -0.000    -0.000    -0.000  0.9662 -0.2468  0.0745
    25 C(13)  Bbb     0.0000     0.000     0.000     0.000 -0.1834 -0.4548  0.8715
              Bcc     0.0000     0.000     0.000     0.000  0.1812  0.8557  0.4847
 
              Baa    -0.0000    -0.000    -0.000    -0.000  0.1707  0.9128  0.3709
    26 C(13)  Bbb    -0.0000    -0.000    -0.000    -0.000 -0.4923 -0.2471  0.8346
              Bcc     0.0000     0.000     0.000     0.000  0.8535 -0.3251  0.4072
 
              Baa    -0.0000    -0.000    -0.000    -0.000  0.9555 -0.2699  0.1186
    27 C(13)  Bbb     0.0000     0.000     0.000     0.000  0.0556  0.5601  0.8266
              Bcc     0.0000     0.000     0.000     0.000  0.2896  0.7832 -0.5502
 
              Baa    -0.0000    -0.000    -0.000    -0.000  0.1855  0.8131  0.5518
    28 C(13)  Bbb     0.0000     0.000     0.000     0.000  0.9624 -0.0370 -0.2691
              Bcc     0.0000     0.000     0.000     0.000  0.1984 -0.5809  0.7894
 
              Baa    -0.0000    -0.000    -0.000    -0.000  0.7108 -0.0033  0.7034
    29 C(13)  Bbb     0.0000     0.000     0.000     0.000 -0.4090  0.8116  0.4171
              Bcc     0.0000     0.000     0.000     0.000  0.5723  0.5842 -0.5755
 
              Baa    -0.0000    -0.000    -0.000    -0.000 -0.0819  0.8228 -0.5625
    30 C(13)  Bbb    -0.0000    -0.000    -0.000    -0.000  0.1548  0.5680  0.8083
              Bcc     0.0000     0.000     0.000     0.000  0.9845 -0.0209 -0.1739
 
              Baa    -0.0000     0.000     0.000     0.000 -0.5976 -0.1106  0.7942
    31 O(17)  Bbb    -0.0000     0.000     0.000     0.000 -0.3397  0.9321 -0.1258
              Bcc     0.0000    -0.000    -0.000    -0.000  0.7263  0.3450  0.5945
 
              Baa    -0.0000    -0.000    -0.000    -0.000 -0.6062 -0.2509  0.7547
    32 C(13)  Bbb    -0.0000    -0.000    -0.000    -0.000  0.6864  0.3141  0.6559
              Bcc     0.0000     0.000     0.000     0.000 -0.4016  0.9156 -0.0182
 
              Baa    -0.0000    -0.000    -0.000    -0.000  0.1835  0.8883 -0.4210
    33 C(13)  Bbb    -0.0000    -0.000    -0.000    -0.000  0.7731 -0.3949 -0.4964
              Bcc     0.0000     0.000     0.000     0.000  0.6072  0.2344  0.7592
 
              Baa    -0.0000    -0.000    -0.000    -0.000  0.5788  0.6498 -0.4927
    34 C(13)  Bbb    -0.0000    -0.000    -0.000    -0.000 -0.6304  0.7398  0.2352
              Bcc     0.0000     0.000     0.000     0.000  0.5173  0.1745  0.8378
 
              Baa    -0.0000    -0.000    -0.000    -0.000 -0.0933  0.1433  0.9853
    35 C(13)  Bbb    -0.0000    -0.000    -0.000    -0.000  0.1532  0.9799 -0.1280
              Bcc     0.0000     0.000     0.000     0.000  0.9838 -0.1390  0.1134
 
              Baa    -0.0000     0.000     0.000     0.000  0.3547 -0.6313  0.6897
    36 O(17)  Bbb    -0.0000     0.000     0.000     0.000  0.6473  0.6981  0.3061
              Bcc     0.0000    -0.000    -0.000    -0.000  0.6747 -0.3379 -0.6562
 
              Baa    -0.0000    -0.000    -0.000    -0.000 -0.4361  0.8095 -0.3931
    37 C(13)  Bbb     0.0000     0.000     0.000     0.000  0.8504  0.2279 -0.4742
              Bcc     0.0000     0.000     0.000     0.000  0.2942  0.5411  0.7878
 
              Baa    -0.0000    -0.000    -0.000    -0.000 -0.2761  0.5197  0.8085
    38 C(13)  Bbb    -0.0000    -0.000    -0.000    -0.000  0.0017  0.8415 -0.5403
              Bcc     0.0000     0.000     0.000     0.000  0.9611  0.1478  0.2332
 
              Baa    -0.0000    -0.000    -0.000    -0.000  0.5001  0.1851  0.8460
    39 N(14)  Bbb     0.0000     0.000     0.000     0.000  0.8169  0.2235 -0.5318
              Bcc     0.0000     0.000     0.000     0.000 -0.2875  0.9570 -0.0394
 
              Baa    -0.0000    -0.000    -0.000    -0.000  0.1583  0.9292 -0.3339
    40 C(13)  Bbb     0.0000     0.000     0.000     0.000  0.9819 -0.1839 -0.0461
              Bcc     0.0000     0.000     0.000     0.000  0.1042  0.3205  0.9415
 
              Baa    -0.0000    -0.000    -0.000    -0.000  0.8949 -0.4312 -0.1146
    41 C(13)  Bbb     0.0000     0.000     0.000     0.000  0.1805  0.1151  0.9768
              Bcc     0.0000     0.000     0.000     0.000  0.4081  0.8949 -0.1808
 
              Baa    -0.0000    -0.000    -0.000    -0.000  0.0601  0.7776  0.6259
    42 C(13)  Bbb     0.0000     0.000     0.000     0.000 -0.3183 -0.5794  0.7503
              Bcc     0.0000     0.000     0.000     0.000  0.9461 -0.2444  0.2127
 
              Baa    -0.0000    -0.000    -0.000    -0.000 -0.5535  0.8027  0.2223
    43 C(13)  Bbb     0.0000     0.000     0.000     0.000  0.7102  0.5943 -0.3775
              Bcc     0.0000     0.000     0.000     0.000  0.4351  0.0510  0.8989
 
              Baa    -0.0000    -0.000    -0.000    -0.000  0.7269 -0.6562 -0.2024
    44 C(13)  Bbb    -0.0000    -0.000    -0.000    -0.000  0.6788  0.7313  0.0669
              Bcc     0.0000     0.000     0.000     0.000  0.1041 -0.1860  0.9770
 
              Baa    -0.0000    -0.000    -0.000    -0.000 -0.1874 -0.6562  0.7309
    45 C(13)  Bbb    -0.0000    -0.000    -0.000    -0.000  0.7840  0.3484  0.5138
              Bcc     0.0000     0.000     0.000     0.000 -0.5918  0.6693  0.4492
 
              Baa    -0.0000    -0.000    -0.000    -0.000 -0.3598  0.8573  0.3683
    46 C(13)  Bbb     0.0000     0.000     0.000     0.000  0.8971  0.4264 -0.1161
              Bcc     0.0000     0.000     0.000     0.000  0.2566 -0.2886  0.9224
 
              Baa    -0.0000     0.000     0.000     0.000 -0.1082  0.9828  0.1494
    47 O(17)  Bbb     0.0000    -0.000    -0.000    -0.000  0.2250 -0.1222  0.9667
              Bcc     0.0000    -0.000    -0.000    -0.000  0.9683  0.1382 -0.2079
 
              Baa    -0.0000    -0.000    -0.000    -0.000  0.7909 -0.3057  0.5301
    48 C(13)  Bbb    -0.0000    -0.000    -0.000    -0.000 -0.0298  0.8460  0.5323
              Bcc     0.0000     0.000     0.000     0.000 -0.6112 -0.4368  0.6600
 
              Baa    -0.0000    -0.000    -0.000    -0.000  0.4248  0.8229 -0.3773
    49 H(1)   Bbb     0.0000     0.000     0.000     0.000 -0.1285  0.4674  0.8747
              Bcc     0.0000     0.000     0.000     0.000  0.8961 -0.3230  0.3043
 
              Baa    -0.0000    -0.000    -0.000    -0.000  0.3832  0.7873 -0.4830
    50 H(1)   Bbb     0.0000     0.000     0.000     0.000  0.2180  0.4310  0.8756
              Bcc     0.0000     0.000     0.000     0.000  0.8976 -0.4408 -0.0065
 
              Baa    -0.0000    -0.000    -0.000    -0.000  0.8495  0.2086 -0.4846
    51 H(1)   Bbb    -0.0000    -0.000    -0.000    -0.000 -0.2596  0.9649 -0.0397
              Bcc     0.0000     0.000     0.000     0.000  0.4593  0.1595  0.8738
 
              Baa    -0.0000    -0.000    -0.000    -0.000 -0.5666  0.5678  0.5971
    52 H(1)   Bbb     0.0000     0.000     0.000     0.000  0.6128  0.7748 -0.1554
              Bcc     0.0000     0.000     0.000     0.000  0.5509 -0.2779  0.7870
 
              Baa    -0.0000    -0.000    -0.000    -0.000  0.2860  0.7065 -0.6474
    53 H(1)   Bbb    -0.0000    -0.000    -0.000    -0.000  0.7522 -0.5841 -0.3051
              Bcc     0.0000     0.000     0.000     0.000  0.5937  0.3997  0.6984
 
              Baa    -0.0000    -0.000    -0.000    -0.000  0.9053 -0.4152  0.0896
    54 H(1)   Bbb     0.0000     0.000     0.000     0.000  0.0072  0.2260  0.9741
              Bcc     0.0000     0.000     0.000     0.000  0.4247  0.8812 -0.2076
 
              Baa    -0.0000    -0.000    -0.000    -0.000  0.7637  0.5638  0.3146
    55 H(1)   Bbb    -0.0000    -0.000    -0.000    -0.000  0.1894 -0.6615  0.7257
              Bcc     0.0000     0.000     0.000     0.000  0.6172 -0.4946 -0.6119
 
              Baa    -0.0000    -0.000    -0.000    -0.000  0.2294 -0.6741  0.7021
    56 H(1)   Bbb    -0.0000    -0.000    -0.000    -0.000  0.7697 -0.3158 -0.5548
              Bcc     0.0000     0.000     0.000     0.000  0.5957  0.6677  0.4464
 
              Baa    -0.0000    -0.000    -0.000    -0.000  0.6068 -0.5214 -0.5999
    57 H(1)   Bbb     0.0000     0.000     0.000     0.000  0.3579 -0.4946  0.7920
              Bcc     0.0000     0.000     0.000     0.000  0.7097  0.6953  0.1136
 
              Baa    -0.0000    -0.000    -0.000    -0.000  0.6002 -0.4730  0.6450
    58 H(1)   Bbb    -0.0000    -0.000    -0.000    -0.000 -0.2072  0.6869  0.6966
              Bcc     0.0000     0.000     0.000     0.000  0.7725  0.5517 -0.3143
 
              Baa    -0.0000    -0.000    -0.000    -0.000 -0.3827  0.8602 -0.3369
    59 H(1)   Bbb    -0.0000    -0.000    -0.000    -0.000 -0.3676  0.1928  0.9098
              Bcc     0.0000     0.000     0.000     0.000  0.8476  0.4721  0.2425
 
              Baa    -0.0000    -0.000    -0.000    -0.000 -0.5264 -0.4659  0.7112
    60 H(1)   Bbb     0.0000     0.000     0.000     0.000 -0.6910  0.7218 -0.0386
              Bcc     0.0000     0.000     0.000     0.000  0.4954  0.5118  0.7019
 
              Baa    -0.0000    -0.000    -0.000    -0.000  0.9638  0.2346  0.1269
    61 H(1)   Bbb     0.0000     0.000     0.000     0.000 -0.1645  0.1483  0.9752
              Bcc     0.0000     0.000     0.000     0.000 -0.2099  0.9607 -0.1815
 
              Baa    -0.0000    -0.000    -0.000    -0.000  0.9238 -0.0368 -0.3811
    62 H(1)   Bbb     0.0000     0.000     0.000     0.000  0.0052  0.9965 -0.0837
              Bcc     0.0000     0.000     0.000     0.000  0.3828  0.0753  0.9208
 
              Baa    -0.0000    -0.000    -0.000    -0.000 -0.0324  0.9886 -0.1468
    63 H(1)   Bbb    -0.0000    -0.000    -0.000    -0.000  0.8606 -0.0471 -0.5071
              Bcc     0.0000     0.000     0.000     0.000  0.5083  0.1428  0.8493
 
              Baa    -0.0000    -0.000    -0.000    -0.000  0.7304  0.0395 -0.6819
    64 H(1)   Bbb     0.0000     0.000     0.000     0.000  0.6312 -0.4204  0.6518
              Bcc     0.0000     0.000     0.000     0.000  0.2609  0.9065  0.3320
 
              Baa    -0.0000    -0.000    -0.000    -0.000 -0.4299  0.2284  0.8735
    65 H(1)   Bbb    -0.0000    -0.000    -0.000    -0.000  0.9029  0.1046  0.4170
              Bcc     0.0000     0.000     0.000     0.000  0.0038  0.9679 -0.2512
 
              Baa    -0.0000    -0.000    -0.000    -0.000  0.3565 -0.4232  0.8329
    66 H(1)   Bbb     0.0000     0.000     0.000     0.000  0.8832 -0.1381 -0.4481
              Bcc     0.0000     0.000     0.000     0.000  0.3047  0.8954  0.3246
 
              Baa    -0.0000    -0.000    -0.000    -0.000  0.2380  0.8045  0.5442
    67 H(1)   Bbb    -0.0000    -0.000    -0.000    -0.000  0.8353 -0.4555  0.3079
              Bcc     0.0000     0.000     0.000     0.000 -0.4956 -0.3813  0.7804
 
              Baa    -0.0000    -0.000    -0.000    -0.000 -0.3774 -0.3622  0.8523
    68 H(1)   Bbb    -0.0000    -0.000    -0.000    -0.000 -0.5460  0.8304  0.1111
              Bcc     0.0000     0.000     0.000     0.000  0.7479  0.4234  0.5112
 
              Baa    -0.0000    -0.000    -0.000    -0.000  0.1811  0.2071  0.9614
    69 H(1)   Bbb     0.0000     0.000     0.000     0.000  0.3394  0.9044 -0.2587
              Bcc     0.0000     0.000     0.000     0.000  0.9230 -0.3732 -0.0935
 
              Baa    -0.0000    -0.000    -0.000    -0.000  0.5769  0.6592 -0.4823
    70 H(1)   Bbb    -0.0000    -0.000    -0.000    -0.000  0.2006  0.4581  0.8660
              Bcc     0.0000     0.000     0.000     0.000  0.7918 -0.5964  0.1320
 
              Baa    -0.0000    -0.000    -0.000    -0.000 -0.1109 -0.1453  0.9832
    71 H(1)   Bbb     0.0000     0.000     0.000     0.000  0.1091  0.9815  0.1574
              Bcc     0.0000     0.000     0.000     0.000  0.9878 -0.1247  0.0930
 
              Baa    -0.0000    -0.000    -0.000    -0.000  0.1612  0.9780 -0.1325
    72 H(1)   Bbb    -0.0000    -0.000    -0.000    -0.000  0.6567 -0.0060  0.7542
              Bcc     0.0000     0.000     0.000     0.000  0.7367 -0.2086 -0.6432
 
              Baa    -0.0000    -0.000    -0.000    -0.000  0.6134  0.7119  0.3419
    73 H(1)   Bbb     0.0000     0.000     0.000     0.000 -0.5644  0.0923  0.8203
              Bcc     0.0000     0.000     0.000     0.000 -0.5524  0.6962 -0.4584
 
              Baa    -0.0000    -0.000    -0.000    -0.000  0.9864  0.1115  0.1204
    74 H(1)   Bbb     0.0000     0.000     0.000     0.000 -0.1615  0.7890  0.5928
              Bcc     0.0000     0.000     0.000     0.000 -0.0289 -0.6042  0.7963
 
              Baa    -0.0000    -0.000    -0.000    -0.000 -0.4224 -0.2712  0.8649
    75 H(1)   Bbb    -0.0000    -0.000    -0.000    -0.000  0.8439  0.2304  0.4845
              Bcc     0.0000     0.000     0.000     0.000 -0.3307  0.9345  0.1316
 
              Baa    -0.0000    -0.000    -0.000    -0.000 -0.0569  0.7422 -0.6678
    76 H(1)   Bbb     0.0000     0.000     0.000     0.000  0.3939  0.6313  0.6681
              Bcc     0.0000     0.000     0.000     0.000  0.9174 -0.2250 -0.3283
 
              Baa    -0.0000    -0.000    -0.000    -0.000  0.4693  0.8443  0.2587
    77 H(1)   Bbb    -0.0000    -0.000    -0.000    -0.000  0.8804 -0.4246 -0.2114
              Bcc     0.0000     0.000     0.000     0.000  0.0686 -0.3270  0.9425
 
              Baa    -0.0000    -0.000    -0.000    -0.000  0.7313 -0.5462 -0.4085
    78 H(1)   Bbb     0.0000     0.000     0.000     0.000  0.1312 -0.4751  0.8701
              Bcc     0.0000     0.000     0.000     0.000  0.6693  0.6899  0.2758
 
              Baa    -0.0000    -0.000    -0.000    -0.000  0.9899 -0.0953 -0.1045
    79 H(1)   Bbb     0.0000     0.000     0.000     0.000  0.1298  0.9056  0.4037
              Bcc     0.0000     0.000     0.000     0.000  0.0562 -0.4132  0.9089
 
              Baa    -0.0000    -0.000    -0.000    -0.000  0.8846  0.3481  0.3104
    80 H(1)   Bbb    -0.0000    -0.000    -0.000    -0.000 -0.2053 -0.3070  0.9293
              Bcc     0.0000     0.000     0.000     0.000 -0.4188  0.8858  0.2001
 
              Baa    -0.0000    -0.000    -0.000    -0.000  0.3039  0.8510  0.4284
    81 H(1)   Bbb    -0.0000    -0.000    -0.000    -0.000  0.7813 -0.4799  0.3991
              Bcc     0.0000     0.000     0.000     0.000 -0.5452 -0.2134  0.8107
 
              Baa    -0.0000    -0.000    -0.000    -0.000 -0.2561  0.9635 -0.0779
    82 H(1)   Bbb     0.0000     0.000     0.000     0.000  0.6256  0.2266  0.7466
              Bcc     0.0000     0.000     0.000     0.000  0.7370  0.1425 -0.6608
 
              Baa    -0.0000    -0.000    -0.000    -0.000  0.8980 -0.2092  0.3870
    83 H(1)   Bbb     0.0000     0.000     0.000     0.000  0.0557  0.9267  0.3717
              Bcc     0.0000     0.000     0.000     0.000 -0.4364 -0.3122  0.8439
 

 ---------------------------------------------------------------------------------

 No NMR shielding tensors so no spin-rotation constants.
 Leave Link  601 at Thu Jul 23 18:28:54 2020, MaxMem=  4026531840 cpu:              17.5 elap:               2.4
 (Enter /opt/ohpc/pub/libs/gaussian/g16-A.03/sandybridge/g16/l9999.exe)

 Test job not archived.
 1\1\GINC-SKYLAKE049\FOpt\ULC-wPBE\CC-pVDZ\C39H35N3O6\RDU230\23-Jul-202
 0\0\\#P uLC-wPBE/cc-pVDZ iop(3/107=0448700000, 3/108=0448700000) opt\\
 H35 C39 N3 O6\\0,1\C,-11.9856800879,0.751461442,0.1625810914\C,-11.401
 1486823,-0.4845934972,0.4095439612\C,-10.0207731468,-0.58222777,0.3873
 562202\O,-9.3245684518,-1.7013585443,0.6668791268\C,-10.0439950718,-2.
 8779691386,0.9227050111\C,-9.2717620308,0.5703757785,0.0855607289\N,-9
 .8423577789,1.7454426721,-0.1176042083\C,-11.1703382818,1.8359553589,-
 0.0810615655\C,-7.786753392,0.5307899411,0.0501153506\C,-7.0618554529,
 1.3894912378,0.8572589653\C,-5.6746264596,1.3956134261,0.8511389398\C,
 -4.9857837656,0.5326769805,0.010186096\C,-5.7035729642,-0.3183650332,-
 0.8310407119\C,-7.0917018591,-0.3168328384,-0.8222185931\O,-7.84685959
 02,-1.0692883521,-1.6508559679\C,-7.1995448633,-1.9564671648,-2.523425
 0192\C,-3.5047479156,0.5129583505,-0.0101921301\C,-2.7662931584,1.6943
 17064,0.007333779\C,-1.3843235128,1.6340486641,-0.0147652005\O,-0.5740
 719631,2.7136765558,-0.0058048706\C,-1.1656913121,3.9841384062,0.08768
 05353\C,-0.7623582801,0.3736664233,-0.0552357084\N,-1.4710478966,-0.74
 36162712,-0.0614448789\C,-2.797085164,-0.6786387926,-0.0400450462\C,0.
 7177537214,0.2499359811,-0.1027840573\C,1.4608455682,0.8780711174,-1.0
 979466185\C,2.8332840064,0.7294970098,-1.1776191162\C,3.5134681753,-0.
 0435596255,-0.2384344583\C,2.7789021923,-0.6574856597,0.7689137325\C,1
 .3996359096,-0.5189473114,0.8395380706\O,0.721539603,-1.0972404161,1.8
 723970503\C,0.5258994117,-2.4901246343,1.7370516819\C,4.9848780703,-0.
 1985081892,-0.3051973759\C,5.7720901732,-0.1495990974,0.8453124534\C,7
 .142451608,-0.2974767219,0.738280023\O,7.9936920008,-0.3182891795,1.78
 27806606\C,7.4686071037,-0.1040853041,3.065513497\C,7.7044748113,-0.46
 33249395,-0.5405181704\N,6.9503036714,-0.5431297614,-1.6228566664\C,5.
 6317965284,-0.4150083208,-1.5108906789\C,9.1702274056,-0.6250178661,-0
 .723763487\C,9.6553449888,-1.751867208,-1.3654557588\C,11.0166637563,-
 1.9417495335,-1.5645457234\C,11.9005947554,-0.9757570294,-1.1219691056
 \C,11.4373129953,0.1779752171,-0.5010245536\C,10.0737410471,0.36184744
 05,-0.3082580059\O,9.5328661268,1.4738474537,0.238342416\C,10.39751746
 06,2.4771878431,0.6963178897\H,-13.0686709793,0.862560443,0.1735721229
 \H,-12.0249061512,-1.348369279,0.6275625437\H,-10.6811239583,-2.780015
 7379,1.8142889529\H,-9.3012095489,-3.6598624874,1.1032809235\H,-10.666
 962125,-3.1661600162,0.0630627174\H,-11.5913940399,2.8268014954,-0.259
 0926073\H,-7.6105484671,2.0653566756,1.511510097\H,-5.1296779439,2.056
 803802,1.52315252\H,-5.1570727618,-0.9572232031,-1.5200736662\H,-6.552
 1201952,-1.4262703726,-3.2371255083\H,-7.988602847,-2.4724697935,-3.07
 77451968\H,-6.6007032443,-2.6990933873,-1.9760490265\H,-3.2877522745,2
 .6486566928,0.019726924\H,-1.7571776037,4.0870244559,1.0090927213\H,-1
 .8067352369,4.1989519632,-0.779909549\H,-0.342909625,4.7037772759,0.10
 97786328\H,-3.3271761125,-1.6326641802,-0.0269261772\H,0.9441765143,1.
 4989014962,-1.827719919\H,3.3890432473,1.2411881601,-1.9620042724\H,3.
 2734634495,-1.2658021411,1.5254915607\H,-0.1044869878,-2.701579812,0.8
 638716677\H,1.4839822741,-3.0235917439,1.6448490955\H,0.0176287569,-2.
 8264650659,2.6463368733\H,5.2978570161,0.0135784477,1.8105240592\H,8.3
 160317381,-0.1443494444,3.7554451638\H,6.7447278175,-0.8840016707,3.34
 51502691\H,6.9860443741,0.8811025943,3.1461986083\H,5.058544905,-0.505
 581261,-2.435290882\H,8.936577429,-2.4922196273,-1.7141540347\H,11.379
 0872776,-2.839359752,-2.0626075963\H,12.9729235258,-1.1058478148,-1.26
 59775269\H,12.1499853918,0.9339076563,-0.1811235479\H,11.0031783476,2.
 8977369409,-0.1201094463\H,9.7622466677,3.2668889695,1.1078569714\H,11
 .0669403606,2.1070425584,1.4869839288\\Version=EM64L-G16RevA.03\State=
 1-A\HF=-2121.4446838\S2=0.\S2-1=0.\S2A=0.\RMSD=2.597e-09\RMSF=3.970e-0
 6\Dipole=-1.4599792,-0.0485781,1.0212678\Quadrupole=19.3398335,-1.2544
 288,-18.0854047,31.330465,16.761497,2.8453906\PG=C01 [X(C39H35N3O6)]\\
 @


 We make a living by what we get,
 we make a life by what we give.
                   -- Sir Winston Churchill
 Job cpu time:       1 days 19 hours 20 minutes 22.5 seconds.
 Elapsed time:       0 days  5 hours 30 minutes 23.0 seconds.
 File lengths (MBytes):  RWF=    840 Int=      0 D2E=      0 Chk=     76 Scr=      8
 Normal termination of Gaussian 16 at Thu Jul 23 18:28:54 2020.
