 Entering Gaussian System, Link 0=g16
 Input=mols_65_3_29_cF-cF-N_opt_0.gjf
 Output=mols_65_3_29_cF-cF-N_opt_0.log
 Initial command:
 /opt/ohpc/pub/libs/gaussian/g16-A.03/sandybridge/g16/l1.exe "/mnt/gpfs2_4m/scratch/rdu230/ondemand/projects/dihedral_energies/7trial/wtuning/mols_65_3_29_cF-cF-N/Gau-196004.inp" -scrdir="/mnt/gpfs2_4m/scratch/rdu230/ondemand/projects/dihedral_energies/7trial/wtuning/mols_65_3_29_cF-cF-N/"
 Entering Link 1 = /opt/ohpc/pub/libs/gaussian/g16-A.03/sandybridge/g16/l1.exe PID=    196005.
  
 Copyright (c) 1988,1990,1992,1993,1995,1998,2003,2009,2016,
            Gaussian, Inc.  All Rights Reserved.
  
 This is part of the Gaussian(R) 16 program.  It is based on
 the Gaussian(R) 09 system (copyright 2009, Gaussian, Inc.),
 the Gaussian(R) 03 system (copyright 2003, Gaussian, Inc.),
 the Gaussian(R) 98 system (copyright 1998, Gaussian, Inc.),
 the Gaussian(R) 94 system (copyright 1995, Gaussian, Inc.),
 the Gaussian 92(TM) system (copyright 1992, Gaussian, Inc.),
 the Gaussian 90(TM) system (copyright 1990, Gaussian, Inc.),
 the Gaussian 88(TM) system (copyright 1988, Gaussian, Inc.),
 the Gaussian 86(TM) system (copyright 1986, Carnegie Mellon
 University), and the Gaussian 82(TM) system (copyright 1983,
 Carnegie Mellon University). Gaussian is a federally registered
 trademark of Gaussian, Inc.
  
 This software contains proprietary and confidential information,
 including trade secrets, belonging to Gaussian, Inc.
  
 This software is provided under written license and may be
 used, copied, transmitted, or stored only in accord with that
 written license.
  
 The following legend is applicable only to US Government
 contracts under FAR:
  
                    RESTRICTED RIGHTS LEGEND
  
 Use, reproduction and disclosure by the US Government is
 subject to restrictions as set forth in subparagraphs (a)
 and (c) of the Commercial Computer Software - Restricted
 Rights clause in FAR 52.227-19.
  
 Gaussian, Inc.
 340 Quinnipiac St., Bldg. 40, Wallingford CT 06492
  
  
 ---------------------------------------------------------------
 Warning -- This program may not be used in any manner that
 competes with the business of Gaussian, Inc. or will provide
 assistance to any competitor of Gaussian, Inc.  The licensee
 of this program is prohibited from giving any competitor of
 Gaussian, Inc. access to this program.  By using this program,
 the user acknowledges that Gaussian, Inc. is engaged in the
 business of creating and licensing software in the field of
 computational chemistry and represents and warrants to the
 licensee that it is not a competitor of Gaussian, Inc. and that
 it will not use this program in any manner prohibited above.
 ---------------------------------------------------------------
  

 Cite this work as:
 Gaussian 16, Revision A.03,
 M. J. Frisch, G. W. Trucks, H. B. Schlegel, G. E. Scuseria, 
 M. A. Robb, J. R. Cheeseman, G. Scalmani, V. Barone, 
 G. A. Petersson, H. Nakatsuji, X. Li, M. Caricato, A. V. Marenich, 
 J. Bloino, B. G. Janesko, R. Gomperts, B. Mennucci, H. P. Hratchian, 
 J. V. Ortiz, A. F. Izmaylov, J. L. Sonnenberg, D. Williams-Young, 
 F. Ding, F. Lipparini, F. Egidi, J. Goings, B. Peng, A. Petrone, 
 T. Henderson, D. Ranasinghe, V. G. Zakrzewski, J. Gao, N. Rega, 
 G. Zheng, W. Liang, M. Hada, M. Ehara, K. Toyota, R. Fukuda, 
 J. Hasegawa, M. Ishida, T. Nakajima, Y. Honda, O. Kitao, H. Nakai, 
 T. Vreven, K. Throssell, J. A. Montgomery, Jr., J. E. Peralta, 
 F. Ogliaro, M. J. Bearpark, J. J. Heyd, E. N. Brothers, K. N. Kudin, 
 V. N. Staroverov, T. A. Keith, R. Kobayashi, J. Normand, 
 K. Raghavachari, A. P. Rendell, J. C. Burant, S. S. Iyengar, 
 J. Tomasi, M. Cossi, J. M. Millam, M. Klene, C. Adamo, R. Cammi, 
 J. W. Ochterski, R. L. Martin, K. Morokuma, O. Farkas, 
 J. B. Foresman, and D. J. Fox, Gaussian, Inc., Wallingford CT, 2016.
 
 ******************************************
 Gaussian 16:  EM64L-G16RevA.03 25-Dec-2016
                23-Jul-2020 
 ******************************************
 %mem=30GB
 %nproc=8
 Will use up to    8 processors via shared memory.
 ---------------------------------------------------------------
 #P uLC-wPBE/cc-pVDZ iop(3/107=0403700000, 3/108=0403700000) opt
 ---------------------------------------------------------------
 1/18=20,19=15,26=3,38=1/1,3;
 2/9=110,12=2,17=6,18=5,40=1/2;
 3/5=16,11=2,25=1,30=1,71=1,74=-41,107=403700000,108=403700000,116=2/1,2,3;
 4//1;
 5/5=2,38=5/2;
 6/7=2,8=2,9=2,10=2,28=1/1;
 7//1,2,3,16;
 1/18=20,19=15,26=3/3(2);
 2/9=110/2;
 99//99;
 2/9=110/2;
 3/5=16,11=2,25=1,30=1,71=1,74=-41,107=403700000,108=403700000,116=2/1,2,3;
 4/5=5,16=3,69=1/1;
 5/5=2,38=5/2;
 7//1,2,3,16;
 1/18=20,19=15,26=3/3(-5);
 2/9=110/2;
 6/7=2,8=2,9=2,10=2,19=2,28=1/1;
 99/9=1/99;
 Leave Link    1 at Thu Jul 23 10:00:15 2020, MaxMem=  4026531840 cpu:               3.1 elap:               0.4
 (Enter /opt/ohpc/pub/libs/gaussian/g16-A.03/sandybridge/g16/l101.exe)
 ----------------
 H11 C27 S3 N3 F6
 ----------------
 Symbolic Z-matrix:
 Charge =  0 Multiplicity = 1
 C                    -11.37166   0.44225  -0.0831 
 C                    -10.49314   1.34642   0.49291 
 C                    -9.0677    1.08349   0.62582 
 F                    -8.29163   1.99377   1.19278 
 C                    -8.5453   -0.11187   0.20222 
 C                    -9.4204   -1.08343  -0.31299 
 F                    -9.00163  -2.2555   -0.81054 
 C                    -10.82397  -0.81864  -0.55291 
 C                    -7.12705  -0.49224   0.3655 
 N                    -6.75387  -1.59217   0.98629 
 C                    -5.37885  -1.55572   0.92182 
 C                    -4.72458  -0.51602   0.27254 
 S                    -5.90598   0.58704  -0.26199 
 C                    -3.34553  -0.23952   0.1265 
 C                    -2.50045  -1.24599  -0.32452 
 C                    -1.12619  -1.01306  -0.57405 
 F                    -0.33784  -2.07748  -0.92485 
 C                    -0.54364   0.20879  -0.32749 
 C                    -1.42971   1.2411    0.0353 
 F                    -0.96088   2.4736    0.28412 
 C                    -2.77052   1.0548    0.33076 
 C                     0.84151   0.56262  -0.57134 
 N                     1.31437   1.42497  -1.47266 
 C                     2.64918   1.48472  -1.4018 
 C                     3.33266   0.51384  -0.59568 
 S                     2.04029  -0.34836   0.27014 
 C                     4.71591   0.36047  -0.299 
 C                     5.56019   1.40163  -0.09082 
 C                     6.92305   1.22306   0.13167 
 F                     7.70713   2.22468   0.32747 
 C                     7.49053  -0.14175   0.13581 
 C                     6.59313  -1.16755  -0.07083 
 F                     7.04497  -2.46581  -0.0116 
 C                     5.27234  -1.01932  -0.28889 
 C                     8.86698  -0.31291   0.43067 
 N                     9.41487  -1.15962   1.34614 
 C                     10.73275  -1.22818   1.31447 
 C                     11.31205  -0.37688   0.33729 
 S                     10.12201   0.45216  -0.46495 
 H                    -12.34969   0.64235  -0.25667 
 H                    -10.87135   2.29574   0.76908 
 H                    -11.50699  -1.52833  -0.94728 
 H                    -4.85065  -2.42297   1.43653 
 H                    -2.79969  -2.27273  -0.44608 
 H                    -3.42037   1.8854    0.63728 
 H                     3.228     2.1893   -2.01357 
 H                     5.18825   2.43557  -0.11441 
 H                     4.5967   -1.83108  -0.43872 
 H                     11.26521  -1.78748   2.00864 
 H                     12.40239  -0.17953   0.129 
 
 ITRead=  0  0  0  0  0  0  0  0  0  0  0  0  0  0  0  0  0  0  0  0
 ITRead=  0  0  0  0  0  0  0  0  0  0  0  0  0  0  0  0  0  0  0  0
 ITRead=  0  0  0  0  0  0  0  0  0  0
 MicOpt= -1 -1 -1 -1 -1 -1 -1 -1 -1 -1 -1 -1 -1 -1 -1 -1 -1 -1 -1 -1
 MicOpt= -1 -1 -1 -1 -1 -1 -1 -1 -1 -1 -1 -1 -1 -1 -1 -1 -1 -1 -1 -1
 MicOpt= -1 -1 -1 -1 -1 -1 -1 -1 -1 -1
 NAtoms=     50 NQM=       50 NQMF=       0 NMMI=      0 NMMIF=      0
                NMic=       0 NMicF=      0.
                    Isotopes and Nuclear Properties:
 (Nuclear quadrupole moments (NQMom) in fm**2, nuclear magnetic moments (NMagM)
  in nuclear magnetons)

  Atom         1           2           3           4           5           6           7           8           9          10
 IAtWgt=          12          12          12          19          12          12          19          12          12          14
 AtmWgt=  12.0000000  12.0000000  12.0000000  18.9984033  12.0000000  12.0000000  18.9984033  12.0000000  12.0000000  14.0030740
 NucSpn=           0           0           0           1           0           0           1           0           0           2
 AtZEff=  -0.0000000  -0.0000000  -0.0000000  -0.0000000  -0.0000000  -0.0000000  -0.0000000  -0.0000000  -0.0000000  -0.0000000
 NQMom=    0.0000000   0.0000000   0.0000000   0.0000000   0.0000000   0.0000000   0.0000000   0.0000000   0.0000000   2.0440000
 NMagM=    0.0000000   0.0000000   0.0000000   2.6288670   0.0000000   0.0000000   2.6288670   0.0000000   0.0000000   0.4037610
 AtZNuc=   6.0000000   6.0000000   6.0000000   9.0000000   6.0000000   6.0000000   9.0000000   6.0000000   6.0000000   7.0000000

  Atom        11          12          13          14          15          16          17          18          19          20
 IAtWgt=          12          12          32          12          12          12          19          12          12          19
 AtmWgt=  12.0000000  12.0000000  31.9720718  12.0000000  12.0000000  12.0000000  18.9984033  12.0000000  12.0000000  18.9984033
 NucSpn=           0           0           0           0           0           0           1           0           0           1
 AtZEff=  -0.0000000  -0.0000000  -0.0000000  -0.0000000  -0.0000000  -0.0000000  -0.0000000  -0.0000000  -0.0000000  -0.0000000
 NQMom=    0.0000000   0.0000000   0.0000000   0.0000000   0.0000000   0.0000000   0.0000000   0.0000000   0.0000000   0.0000000
 NMagM=    0.0000000   0.0000000   0.0000000   0.0000000   0.0000000   0.0000000   2.6288670   0.0000000   0.0000000   2.6288670
 AtZNuc=   6.0000000   6.0000000  16.0000000   6.0000000   6.0000000   6.0000000   9.0000000   6.0000000   6.0000000   9.0000000

  Atom        21          22          23          24          25          26          27          28          29          30
 IAtWgt=          12          12          14          12          12          32          12          12          12          19
 AtmWgt=  12.0000000  12.0000000  14.0030740  12.0000000  12.0000000  31.9720718  12.0000000  12.0000000  12.0000000  18.9984033
 NucSpn=           0           0           2           0           0           0           0           0           0           1
 AtZEff=  -0.0000000  -0.0000000  -0.0000000  -0.0000000  -0.0000000  -0.0000000  -0.0000000  -0.0000000  -0.0000000  -0.0000000
 NQMom=    0.0000000   0.0000000   2.0440000   0.0000000   0.0000000   0.0000000   0.0000000   0.0000000   0.0000000   0.0000000
 NMagM=    0.0000000   0.0000000   0.4037610   0.0000000   0.0000000   0.0000000   0.0000000   0.0000000   0.0000000   2.6288670
 AtZNuc=   6.0000000   6.0000000   7.0000000   6.0000000   6.0000000  16.0000000   6.0000000   6.0000000   6.0000000   9.0000000

  Atom        31          32          33          34          35          36          37          38          39          40
 IAtWgt=          12          12          19          12          12          14          12          12          32           1
 AtmWgt=  12.0000000  12.0000000  18.9984033  12.0000000  12.0000000  14.0030740  12.0000000  12.0000000  31.9720718   1.0078250
 NucSpn=           0           0           1           0           0           2           0           0           0           1
 AtZEff=  -0.0000000  -0.0000000  -0.0000000  -0.0000000  -0.0000000  -0.0000000  -0.0000000  -0.0000000  -0.0000000  -0.0000000
 NQMom=    0.0000000   0.0000000   0.0000000   0.0000000   0.0000000   2.0440000   0.0000000   0.0000000   0.0000000   0.0000000
 NMagM=    0.0000000   0.0000000   2.6288670   0.0000000   0.0000000   0.4037610   0.0000000   0.0000000   0.0000000   2.7928460
 AtZNuc=   6.0000000   6.0000000   9.0000000   6.0000000   6.0000000   7.0000000   6.0000000   6.0000000  16.0000000   1.0000000

  Atom        41          42          43          44          45          46          47          48          49          50
 IAtWgt=           1           1           1           1           1           1           1           1           1           1
 AtmWgt=   1.0078250   1.0078250   1.0078250   1.0078250   1.0078250   1.0078250   1.0078250   1.0078250   1.0078250   1.0078250
 NucSpn=           1           1           1           1           1           1           1           1           1           1
 AtZEff=  -0.0000000  -0.0000000  -0.0000000  -0.0000000  -0.0000000  -0.0000000  -0.0000000  -0.0000000  -0.0000000  -0.0000000
 NQMom=    0.0000000   0.0000000   0.0000000   0.0000000   0.0000000   0.0000000   0.0000000   0.0000000   0.0000000   0.0000000
 NMagM=    2.7928460   2.7928460   2.7928460   2.7928460   2.7928460   2.7928460   2.7928460   2.7928460   2.7928460   2.7928460
 AtZNuc=   1.0000000   1.0000000   1.0000000   1.0000000   1.0000000   1.0000000   1.0000000   1.0000000   1.0000000   1.0000000
 Leave Link  101 at Thu Jul 23 10:00:15 2020, MaxMem=  4026531840 cpu:               3.7 elap:               0.8
 (Enter /opt/ohpc/pub/libs/gaussian/g16-A.03/sandybridge/g16/l103.exe)

 GradGradGradGradGradGradGradGradGradGradGradGradGradGradGradGradGradGrad
 Berny optimization.
 Initialization pass.
                           ----------------------------
                           !    Initial Parameters    !
                           ! (Angstroms and Degrees)  !
 --------------------------                            --------------------------
 ! Name  Definition              Value          Derivative Info.                !
 --------------------------------------------------------------------------------
 ! R1    R(1,2)                  1.386          estimate D2E/DX2                !
 ! R2    R(1,8)                  1.4528         estimate D2E/DX2                !
 ! R3    R(1,40)                 1.0133         estimate D2E/DX2                !
 ! R4    R(2,3)                  1.4556         estimate D2E/DX2                !
 ! R5    R(2,41)                 1.0585         estimate D2E/DX2                !
 ! R6    R(3,4)                  1.3238         estimate D2E/DX2                !
 ! R7    R(3,5)                  1.3716         estimate D2E/DX2                !
 ! R8    R(5,6)                  1.4054         estimate D2E/DX2                !
 ! R9    R(5,9)                  1.4774         estimate D2E/DX2                !
 ! R10   R(6,7)                  1.3404         estimate D2E/DX2                !
 ! R11   R(6,8)                  1.4483         estimate D2E/DX2                !
 ! R12   R(8,42)                 1.061          estimate D2E/DX2                !
 ! R13   R(9,10)                 1.317          estimate D2E/DX2                !
 ! R14   R(9,13)                 1.7463         estimate D2E/DX2                !
 ! R15   R(10,11)                1.377          estimate D2E/DX2                !
 ! R16   R(11,12)                1.3895         estimate D2E/DX2                !
 ! R17   R(11,43)                1.1384         estimate D2E/DX2                !
 ! R18   R(12,13)                1.7024         estimate D2E/DX2                !
 ! R19   R(12,14)                1.4141         estimate D2E/DX2                !
 ! R20   R(14,15)                1.3894         estimate D2E/DX2                !
 ! R21   R(14,21)                1.4309         estimate D2E/DX2                !
 ! R22   R(15,16)                1.416          estimate D2E/DX2                !
 ! R23   R(15,44)                1.0763         estimate D2E/DX2                !
 ! R24   R(16,17)                1.3702         estimate D2E/DX2                !
 ! R25   R(16,18)                1.3759         estimate D2E/DX2                !
 ! R26   R(18,19)                1.408          estimate D2E/DX2                !
 ! R27   R(18,22)                1.4503         estimate D2E/DX2                !
 ! R28   R(19,20)                1.3419         estimate D2E/DX2                !
 ! R29   R(19,21)                1.3856         estimate D2E/DX2                !
 ! R30   R(21,45)                1.0982         estimate D2E/DX2                !
 ! R31   R(22,23)                1.334          estimate D2E/DX2                !
 ! R32   R(22,26)                1.7248         estimate D2E/DX2                !
 ! R33   R(23,24)                1.338          estimate D2E/DX2                !
 ! R34   R(24,25)                1.4351         estimate D2E/DX2                !
 ! R35   R(24,46)                1.0981         estimate D2E/DX2                !
 ! R36   R(25,26)                1.7786         estimate D2E/DX2                !
 ! R37   R(25,27)                1.423          estimate D2E/DX2                !
 ! R38   R(27,28)                1.3565         estimate D2E/DX2                !
 ! R39   R(27,34)                1.4878         estimate D2E/DX2                !
 ! R40   R(28,29)                1.3924         estimate D2E/DX2                !
 ! R41   R(28,47)                1.0991         estimate D2E/DX2                !
 ! R42   R(29,30)                1.287          estimate D2E/DX2                !
 ! R43   R(29,31)                1.4781         estimate D2E/DX2                !
 ! R44   R(31,32)                1.3785         estimate D2E/DX2                !
 ! R45   R(31,35)                1.418          estimate D2E/DX2                !
 ! R46   R(32,33)                1.3759         estimate D2E/DX2                !
 ! R47   R(32,34)                1.3469         estimate D2E/DX2                !
 ! R48   R(34,48)                1.0667         estimate D2E/DX2                !
 ! R49   R(35,36)                1.3621         estimate D2E/DX2                !
 ! R50   R(35,39)                1.7212         estimate D2E/DX2                !
 ! R51   R(36,37)                1.32           estimate D2E/DX2                !
 ! R52   R(37,38)                1.4196         estimate D2E/DX2                !
 ! R53   R(37,49)                1.0384         estimate D2E/DX2                !
 ! R54   R(38,39)                1.6574         estimate D2E/DX2                !
 ! R55   R(38,50)                1.1275         estimate D2E/DX2                !
 ! A1    A(2,1,8)              117.4917         estimate D2E/DX2                !
 ! A2    A(2,1,40)             123.6524         estimate D2E/DX2                !
 ! A3    A(8,1,40)             118.6784         estimate D2E/DX2                !
 ! A4    A(1,2,3)              122.7398         estimate D2E/DX2                !
 ! A5    A(1,2,41)             117.8392         estimate D2E/DX2                !
 ! A6    A(3,2,41)             119.2137         estimate D2E/DX2                !
 ! A7    A(2,3,4)              119.2761         estimate D2E/DX2                !
 ! A8    A(2,3,5)              120.1468         estimate D2E/DX2                !
 ! A9    A(4,3,5)              120.5499         estimate D2E/DX2                !
 ! A10   A(3,5,6)              118.5909         estimate D2E/DX2                !
 ! A11   A(3,5,9)              123.7705         estimate D2E/DX2                !
 ! A12   A(6,5,9)              117.4035         estimate D2E/DX2                !
 ! A13   A(5,6,7)              123.0955         estimate D2E/DX2                !
 ! A14   A(5,6,8)              122.5308         estimate D2E/DX2                !
 ! A15   A(7,6,8)              113.6493         estimate D2E/DX2                !
 ! A16   A(1,8,6)              118.0639         estimate D2E/DX2                !
 ! A17   A(1,8,42)             117.2616         estimate D2E/DX2                !
 ! A18   A(6,8,42)             124.2732         estimate D2E/DX2                !
 ! A19   A(5,9,10)             122.6242         estimate D2E/DX2                !
 ! A20   A(5,9,13)             118.1896         estimate D2E/DX2                !
 ! A21   A(10,9,13)            119.1706         estimate D2E/DX2                !
 ! A22   A(9,10,11)            103.8143         estimate D2E/DX2                !
 ! A23   A(10,11,12)           120.789          estimate D2E/DX2                !
 ! A24   A(10,11,43)           114.959          estimate D2E/DX2                !
 ! A25   A(12,11,43)           124.2513         estimate D2E/DX2                !
 ! A26   A(11,12,13)           107.7458         estimate D2E/DX2                !
 ! A27   A(11,12,14)           130.8285         estimate D2E/DX2                !
 ! A28   A(13,12,14)           121.1749         estimate D2E/DX2                !
 ! A29   A(9,13,12)             88.393          estimate D2E/DX2                !
 ! A30   A(12,14,15)           119.015          estimate D2E/DX2                !
 ! A31   A(12,14,21)           123.6426         estimate D2E/DX2                !
 ! A32   A(15,14,21)           117.2026         estimate D2E/DX2                !
 ! A33   A(14,15,16)           121.892          estimate D2E/DX2                !
 ! A34   A(14,15,44)           123.9554         estimate D2E/DX2                !
 ! A35   A(16,15,44)           114.0063         estimate D2E/DX2                !
 ! A36   A(15,16,17)           118.405          estimate D2E/DX2                !
 ! A37   A(15,16,18)           121.6965         estimate D2E/DX2                !
 ! A38   A(17,16,18)           119.48           estimate D2E/DX2                !
 ! A39   A(16,18,19)           115.5192         estimate D2E/DX2                !
 ! A40   A(16,18,22)           126.2222         estimate D2E/DX2                !
 ! A41   A(19,18,22)           117.7432         estimate D2E/DX2                !
 ! A42   A(18,19,20)           120.0863         estimate D2E/DX2                !
 ! A43   A(18,19,21)           124.4275         estimate D2E/DX2                !
 ! A44   A(20,19,21)           114.9636         estimate D2E/DX2                !
 ! A45   A(14,21,19)           118.6877         estimate D2E/DX2                !
 ! A46   A(14,21,45)           119.0882         estimate D2E/DX2                !
 ! A47   A(19,21,45)           122.0342         estimate D2E/DX2                !
 ! A48   A(18,22,23)           127.5796         estimate D2E/DX2                !
 ! A49   A(18,22,26)           116.9305         estimate D2E/DX2                !
 ! A50   A(23,22,26)           115.1305         estimate D2E/DX2                !
 ! A51   A(22,23,24)           110.2854         estimate D2E/DX2                !
 ! A52   A(23,24,25)           118.3362         estimate D2E/DX2                !
 ! A53   A(23,24,46)           121.6693         estimate D2E/DX2                !
 ! A54   A(25,24,46)           119.7352         estimate D2E/DX2                !
 ! A55   A(24,25,26)           104.7937         estimate D2E/DX2                !
 ! A56   A(24,25,27)           130.7663         estimate D2E/DX2                !
 ! A57   A(26,25,27)           123.5453         estimate D2E/DX2                !
 ! A58   A(22,26,25)            90.6581         estimate D2E/DX2                !
 ! A59   A(25,27,28)           123.6602         estimate D2E/DX2                !
 ! A60   A(25,27,34)           117.7052         estimate D2E/DX2                !
 ! A61   A(28,27,34)           118.5546         estimate D2E/DX2                !
 ! A62   A(27,28,29)           122.362          estimate D2E/DX2                !
 ! A63   A(27,28,47)           120.5396         estimate D2E/DX2                !
 ! A64   A(29,28,47)           117.085          estimate D2E/DX2                !
 ! A65   A(28,29,30)           121.3862         estimate D2E/DX2                !
 ! A66   A(28,29,31)           119.6466         estimate D2E/DX2                !
 ! A67   A(30,29,31)           118.9659         estimate D2E/DX2                !
 ! A68   A(29,31,32)           115.8967         estimate D2E/DX2                !
 ! A69   A(29,31,35)           118.9932         estimate D2E/DX2                !
 ! A70   A(32,31,35)           124.9766         estimate D2E/DX2                !
 ! A71   A(31,32,33)           118.8101         estimate D2E/DX2                !
 ! A72   A(31,32,34)           125.5047         estimate D2E/DX2                !
 ! A73   A(33,32,34)           115.6483         estimate D2E/DX2                !
 ! A74   A(27,34,32)           118.0293         estimate D2E/DX2                !
 ! A75   A(27,34,48)           117.8986         estimate D2E/DX2                !
 ! A76   A(32,34,48)           124.0639         estimate D2E/DX2                !
 ! A77   A(31,35,36)           127.2467         estimate D2E/DX2                !
 ! A78   A(31,35,39)           123.0872         estimate D2E/DX2                !
 ! A79   A(36,35,39)           109.4357         estimate D2E/DX2                !
 ! A80   A(35,36,37)           114.6927         estimate D2E/DX2                !
 ! A81   A(36,37,38)           113.1277         estimate D2E/DX2                !
 ! A82   A(36,37,49)           121.5928         estimate D2E/DX2                !
 ! A83   A(38,37,49)           125.0257         estimate D2E/DX2                !
 ! A84   A(37,38,39)           109.8858         estimate D2E/DX2                !
 ! A85   A(37,38,50)           128.8129         estimate D2E/DX2                !
 ! A86   A(39,38,50)           121.1571         estimate D2E/DX2                !
 ! A87   A(35,39,38)            92.8281         estimate D2E/DX2                !
 ! D1    D(8,1,2,3)              0.6617         estimate D2E/DX2                !
 ! D2    D(8,1,2,41)           175.3824         estimate D2E/DX2                !
 ! D3    D(40,1,2,3)          -174.4236         estimate D2E/DX2                !
 ! D4    D(40,1,2,41)            0.2971         estimate D2E/DX2                !
 ! D5    D(2,1,8,6)              3.8738         estimate D2E/DX2                !
 ! D6    D(2,1,8,42)           176.9177         estimate D2E/DX2                !
 ! D7    D(40,1,8,6)           179.2112         estimate D2E/DX2                !
 ! D8    D(40,1,8,42)           -7.7448         estimate D2E/DX2                !
 ! D9    D(1,2,3,4)           -179.7139         estimate D2E/DX2                !
 ! D10   D(1,2,3,5)             -1.6002         estimate D2E/DX2                !
 ! D11   D(41,2,3,4)             5.6348         estimate D2E/DX2                !
 ! D12   D(41,2,3,5)          -176.2515         estimate D2E/DX2                !
 ! D13   D(2,3,5,6)             -2.2459         estimate D2E/DX2                !
 ! D14   D(2,3,5,9)           -176.5228         estimate D2E/DX2                !
 ! D15   D(4,3,5,6)            175.8435         estimate D2E/DX2                !
 ! D16   D(4,3,5,9)              1.5666         estimate D2E/DX2                !
 ! D17   D(3,5,6,7)            176.7236         estimate D2E/DX2                !
 ! D18   D(3,5,6,8)              7.0984         estimate D2E/DX2                !
 ! D19   D(9,5,6,7)             -8.6341         estimate D2E/DX2                !
 ! D20   D(9,5,6,8)           -178.2593         estimate D2E/DX2                !
 ! D21   D(3,5,9,10)           123.905          estimate D2E/DX2                !
 ! D22   D(3,5,9,13)           -54.6471         estimate D2E/DX2                !
 ! D23   D(6,5,9,10)           -50.4348         estimate D2E/DX2                !
 ! D24   D(6,5,9,13)           131.0131         estimate D2E/DX2                !
 ! D25   D(5,6,8,1)             -7.9648         estimate D2E/DX2                !
 ! D26   D(5,6,8,42)           179.5208         estimate D2E/DX2                !
 ! D27   D(7,6,8,1)           -178.4849         estimate D2E/DX2                !
 ! D28   D(7,6,8,42)             9.0007         estimate D2E/DX2                !
 ! D29   D(5,9,10,11)         -179.5768         estimate D2E/DX2                !
 ! D30   D(13,9,10,11)          -1.0383         estimate D2E/DX2                !
 ! D31   D(5,9,13,12)         -179.092          estimate D2E/DX2                !
 ! D32   D(10,9,13,12)           2.3045         estimate D2E/DX2                !
 ! D33   D(9,10,11,12)          -1.2733         estimate D2E/DX2                !
 ! D34   D(9,10,11,43)         178.4296         estimate D2E/DX2                !
 ! D35   D(10,11,12,13)          2.9165         estimate D2E/DX2                !
 ! D36   D(10,11,12,14)        177.0763         estimate D2E/DX2                !
 ! D37   D(43,11,12,13)       -176.7575         estimate D2E/DX2                !
 ! D38   D(43,11,12,14)         -2.5978         estimate D2E/DX2                !
 ! D39   D(11,12,13,9)          -2.589          estimate D2E/DX2                !
 ! D40   D(14,12,13,9)        -177.4259         estimate D2E/DX2                !
 ! D41   D(11,12,14,15)         50.4811         estimate D2E/DX2                !
 ! D42   D(11,12,14,21)       -133.9424         estimate D2E/DX2                !
 ! D43   D(13,12,14,15)       -136.0228         estimate D2E/DX2                !
 ! D44   D(13,12,14,21)         39.5537         estimate D2E/DX2                !
 ! D45   D(12,14,15,16)        175.9079         estimate D2E/DX2                !
 ! D46   D(12,14,15,44)         -8.7548         estimate D2E/DX2                !
 ! D47   D(21,14,15,16)          0.048          estimate D2E/DX2                !
 ! D48   D(21,14,15,44)        175.3853         estimate D2E/DX2                !
 ! D49   D(12,14,21,19)       -173.8501         estimate D2E/DX2                !
 ! D50   D(12,14,21,45)          1.2457         estimate D2E/DX2                !
 ! D51   D(15,14,21,19)          1.8006         estimate D2E/DX2                !
 ! D52   D(15,14,21,45)        176.8964         estimate D2E/DX2                !
 ! D53   D(14,15,16,17)        175.389          estimate D2E/DX2                !
 ! D54   D(14,15,16,18)          2.855          estimate D2E/DX2                !
 ! D55   D(44,15,16,17)         -0.3781         estimate D2E/DX2                !
 ! D56   D(44,15,16,18)       -172.912          estimate D2E/DX2                !
 ! D57   D(15,16,18,19)         -7.1171         estimate D2E/DX2                !
 ! D58   D(15,16,18,22)       -178.6456         estimate D2E/DX2                !
 ! D59   D(17,16,18,19)       -179.5727         estimate D2E/DX2                !
 ! D60   D(17,16,18,22)          8.8988         estimate D2E/DX2                !
 ! D61   D(16,18,19,20)       -179.3717         estimate D2E/DX2                !
 ! D62   D(16,18,19,21)          9.349          estimate D2E/DX2                !
 ! D63   D(22,18,19,20)         -7.0888         estimate D2E/DX2                !
 ! D64   D(22,18,19,21)       -178.3681         estimate D2E/DX2                !
 ! D65   D(16,18,22,23)        112.3075         estimate D2E/DX2                !
 ! D66   D(16,18,22,26)        -60.4283         estimate D2E/DX2                !
 ! D67   D(19,18,22,23)        -59.0532         estimate D2E/DX2                !
 ! D68   D(19,18,22,26)        128.211          estimate D2E/DX2                !
 ! D69   D(18,19,21,14)         -6.8216         estimate D2E/DX2                !
 ! D70   D(18,19,21,45)        178.2343         estimate D2E/DX2                !
 ! D71   D(20,19,21,14)       -178.501          estimate D2E/DX2                !
 ! D72   D(20,19,21,45)          6.5548         estimate D2E/DX2                !
 ! D73   D(18,22,23,24)       -179.8658         estimate D2E/DX2                !
 ! D74   D(26,22,23,24)         -7.0188         estimate D2E/DX2                !
 ! D75   D(18,22,26,25)        175.6553         estimate D2E/DX2                !
 ! D76   D(23,22,26,25)          2.0101         estimate D2E/DX2                !
 ! D77   D(22,23,24,25)         10.1865         estimate D2E/DX2                !
 ! D78   D(22,23,24,46)       -175.6809         estimate D2E/DX2                !
 ! D79   D(23,24,25,26)         -8.3603         estimate D2E/DX2                !
 ! D80   D(23,24,25,27)       -177.5705         estimate D2E/DX2                !
 ! D81   D(46,24,25,26)        177.3903         estimate D2E/DX2                !
 ! D82   D(46,24,25,27)          8.18           estimate D2E/DX2                !
 ! D83   D(24,25,26,22)          3.2066         estimate D2E/DX2                !
 ! D84   D(27,25,26,22)        173.4118         estimate D2E/DX2                !
 ! D85   D(24,25,27,28)         37.7349         estimate D2E/DX2                !
 ! D86   D(24,25,27,34)       -138.9588         estimate D2E/DX2                !
 ! D87   D(26,25,27,28)       -129.7222         estimate D2E/DX2                !
 ! D88   D(26,25,27,34)         53.584          estimate D2E/DX2                !
 ! D89   D(25,27,28,29)       -176.7063         estimate D2E/DX2                !
 ! D90   D(25,27,28,47)          1.9209         estimate D2E/DX2                !
 ! D91   D(34,27,28,29)         -0.0389         estimate D2E/DX2                !
 ! D92   D(34,27,28,47)        178.5883         estimate D2E/DX2                !
 ! D93   D(25,27,34,32)        176.9478         estimate D2E/DX2                !
 ! D94   D(25,27,34,48)         -4.0568         estimate D2E/DX2                !
 ! D95   D(28,27,34,32)          0.0807         estimate D2E/DX2                !
 ! D96   D(28,27,34,48)        179.0761         estimate D2E/DX2                !
 ! D97   D(27,28,29,30)       -179.9824         estimate D2E/DX2                !
 ! D98   D(27,28,29,31)          0.425          estimate D2E/DX2                !
 ! D99   D(47,28,29,30)          1.3456         estimate D2E/DX2                !
 ! D100  D(47,28,29,31)       -178.2471         estimate D2E/DX2                !
 ! D101  D(28,29,31,32)         -0.8308         estimate D2E/DX2                !
 ! D102  D(28,29,31,35)       -176.8406         estimate D2E/DX2                !
 ! D103  D(30,29,31,32)        179.5667         estimate D2E/DX2                !
 ! D104  D(30,29,31,35)          3.5569         estimate D2E/DX2                !
 ! D105  D(29,31,32,33)       -176.7548         estimate D2E/DX2                !
 ! D106  D(29,31,32,34)          0.9341         estimate D2E/DX2                !
 ! D107  D(35,31,32,33)         -1.0148         estimate D2E/DX2                !
 ! D108  D(35,31,32,34)        176.6741         estimate D2E/DX2                !
 ! D109  D(29,31,35,36)        128.8696         estimate D2E/DX2                !
 ! D110  D(29,31,35,39)        -57.2407         estimate D2E/DX2                !
 ! D111  D(32,31,35,36)        -46.7489         estimate D2E/DX2                !
 ! D112  D(32,31,35,39)        127.1408         estimate D2E/DX2                !
 ! D113  D(31,32,34,27)         -0.5746         estimate D2E/DX2                !
 ! D114  D(31,32,34,48)       -179.5028         estimate D2E/DX2                !
 ! D115  D(33,32,34,27)        177.1791         estimate D2E/DX2                !
 ! D116  D(33,32,34,48)         -1.7492         estimate D2E/DX2                !
 ! D117  D(31,35,36,37)        172.7793         estimate D2E/DX2                !
 ! D118  D(39,35,36,37)         -1.794          estimate D2E/DX2                !
 ! D119  D(31,35,39,38)       -173.2538         estimate D2E/DX2                !
 ! D120  D(36,35,39,38)          1.5911         estimate D2E/DX2                !
 ! D121  D(35,36,37,38)          1.0764         estimate D2E/DX2                !
 ! D122  D(35,36,37,49)        175.5645         estimate D2E/DX2                !
 ! D123  D(36,37,38,39)          0.1857         estimate D2E/DX2                !
 ! D124  D(36,37,38,50)        175.7942         estimate D2E/DX2                !
 ! D125  D(49,37,38,39)       -174.0803         estimate D2E/DX2                !
 ! D126  D(49,37,38,50)          1.5281         estimate D2E/DX2                !
 ! D127  D(37,38,39,35)         -1.015          estimate D2E/DX2                !
 ! D128  D(50,38,39,35)       -177.017          estimate D2E/DX2                !
 --------------------------------------------------------------------------------
 Trust Radius=3.00D-01 FncErr=1.00D-07 GrdErr=1.00D-06 EigMax=2.50D+02 EigMin=1.00D-04
 Number of steps in this run=    280 maximum allowed number of steps=    300.
 GradGradGradGradGradGradGradGradGradGradGradGradGradGradGradGradGradGrad

 Leave Link  103 at Thu Jul 23 10:00:16 2020, MaxMem=  4026531840 cpu:               0.1 elap:               0.0
 (Enter /opt/ohpc/pub/libs/gaussian/g16-A.03/sandybridge/g16/l202.exe)
                          Input orientation:                          
 ---------------------------------------------------------------------
 Center     Atomic      Atomic             Coordinates (Angstroms)
 Number     Number       Type             X           Y           Z
 ---------------------------------------------------------------------
      1          6           0      -11.371657    0.442249   -0.083097
      2          6           0      -10.493141    1.346419    0.492909
      3          6           0       -9.067697    1.083491    0.625816
      4          9           0       -8.291631    1.993774    1.192782
      5          6           0       -8.545304   -0.111865    0.202219
      6          6           0       -9.420396   -1.083429   -0.312988
      7          9           0       -9.001630   -2.255500   -0.810543
      8          6           0      -10.823965   -0.818637   -0.552905
      9          6           0       -7.127048   -0.492244    0.365499
     10          7           0       -6.753868   -1.592165    0.986289
     11          6           0       -5.378852   -1.555723    0.921818
     12          6           0       -4.724584   -0.516023    0.272541
     13         16           0       -5.905980    0.587044   -0.261987
     14          6           0       -3.345527   -0.239520    0.126503
     15          6           0       -2.500446   -1.245990   -0.324523
     16          6           0       -1.126193   -1.013056   -0.574052
     17          9           0       -0.337836   -2.077484   -0.924849
     18          6           0       -0.543636    0.208788   -0.327486
     19          6           0       -1.429713    1.241098    0.035300
     20          9           0       -0.960880    2.473602    0.284115
     21          6           0       -2.770524    1.054802    0.330756
     22          6           0        0.841509    0.562620   -0.571344
     23          7           0        1.314369    1.424973   -1.472660
     24          6           0        2.649183    1.484721   -1.401804
     25          6           0        3.332662    0.513842   -0.595684
     26         16           0        2.040287   -0.348361    0.270144
     27          6           0        4.715914    0.360468   -0.298999
     28          6           0        5.560188    1.401632   -0.090820
     29          6           0        6.923052    1.223061    0.131669
     30          9           0        7.707125    2.224679    0.327466
     31          6           0        7.490533   -0.141745    0.135807
     32          6           0        6.593132   -1.167545   -0.070825
     33          9           0        7.044965   -2.465808   -0.011595
     34          6           0        5.272338   -1.019317   -0.288888
     35          6           0        8.866981   -0.312914    0.430668
     36          7           0        9.414870   -1.159623    1.346143
     37          6           0       10.732754   -1.228183    1.314467
     38          6           0       11.312049   -0.376883    0.337287
     39         16           0       10.122012    0.452155   -0.464954
     40          1           0      -12.349687    0.642352   -0.256671
     41          1           0      -10.871347    2.295738    0.769079
     42          1           0      -11.506986   -1.528326   -0.947276
     43          1           0       -4.850651   -2.422973    1.436529
     44          1           0       -2.799690   -2.272729   -0.446081
     45          1           0       -3.420365    1.885400    0.637276
     46          1           0        3.228003    2.189301   -2.013567
     47          1           0        5.188255    2.435568   -0.114412
     48          1           0        4.596695   -1.831078   -0.438717
     49          1           0       11.265213   -1.787478    2.008641
     50          1           0       12.402385   -0.179530    0.129003
 ---------------------------------------------------------------------
                    Distance matrix (angstroms):
                    1          2          3          4          5
     1  C    0.000000
     2  C    1.386036   0.000000
     3  C    2.494390   1.455571   0.000000
     4  F    3.677181   2.399070   1.323761   0.000000
     5  C    2.894256   2.450543   1.371570   2.340786   0.000000
     6  C    2.487562   2.775682   2.387738   3.607025   1.405404
     7  F    3.663885   4.110646   3.635430   4.751183   2.414351
     8  C    1.452763   2.427064   2.844636   4.167709   2.502406
     9  C    4.369350   3.837642   2.513329   2.867218   1.477430
    10  N    5.158139   4.781303   3.555683   3.907213   2.452610
    11  C    6.396519   5.895960   4.545398   4.599634   3.553726
    12  C    6.725202   6.065765   4.641754   4.457550   3.842680
    13  S    5.470520   4.710474   3.321311   3.128350   2.769475
    14  C    8.057760   7.330610   5.894311   5.530687   5.201895
    15  C    9.033649   8.442272   7.032667   6.807063   6.172844
    16  C   10.359946   9.718294   8.300764   7.969080   7.513851
    17  F   11.349132  10.810336   9.413118   9.182721   8.514486
    18  C   10.833294  10.047880   8.621688   8.094987   8.025590
    19  C    9.974689   9.075584   7.662398   6.999443   7.244999
    20  F   10.613459   9.600945   8.232232   7.402420   8.013416
    21  C    8.632843   7.729822   6.304147   5.666337   5.892853
    22  C   12.223514  11.411453   9.994842   9.411407   9.442753
    23  N   12.799683  11.970252  10.597524   9.985157  10.118312
    24  C   14.121250  13.278921  11.897794  11.255773  11.420968
    25  C   14.713425  13.893561  12.473390  11.853818  11.921168
    26  S   13.439869  12.649455  11.205535  10.634161  10.588450
    27  C   16.089228  15.261539  13.833509  13.194291  13.279090
    28  C   16.959005  16.064033  14.648884  13.923762  14.189484
    29  C   18.312623  17.420376  15.998991  15.271101  15.526012
    30  F   19.166260  18.222195  16.816241  16.023804  16.420005
    31  C   18.872498  18.048675  16.610728  15.961026  16.036002
    32  C   18.036774  17.279425  15.837109  15.269146  15.177657
    33  F   18.644942  17.954742  16.511260  16.017165  15.768426
    34  C   16.709312  15.961148  14.522227  13.973379  13.856114
    35  C   20.259237  19.431201  17.990017  17.329731  17.414944
    36  N   20.897091  20.083256  18.632115  17.985761  18.027041
    37  C   22.211450  21.397246  19.946828  19.295674  19.342357
    38  C   22.702384  21.873735  20.434040  19.765024  19.859581
    39  S   21.497063  20.656760  19.231050  18.552276  18.687748
    40  H    1.013268   2.122344   3.427075   4.516091   3.905477
    41  H    2.100461   1.058544   2.177894   2.631661   3.395344
    42  H    2.155988   3.371376   3.904656   5.227193   3.478399
    43  H    7.283013   6.851017   5.544008   5.604231   4.529371
    44  H    8.998971   8.553895   7.190347   7.144952   6.172658
    45  H    8.113240   7.094752   5.703994   4.904036   5.517549
    46  H   14.830003  13.973642  12.624318  11.959133  12.199009
    47  H   16.679478  15.730902  14.339045  13.550323  13.971411
    48  H   16.133281  15.448869  14.012264  13.542534  13.269462
    49  H   22.842393  22.035079  20.581105  19.935738  19.963152
    50  H   23.783117  22.949206  21.512937  20.834999  20.947926
                    6          7          8          9         10
     6  C    0.000000
     7  F    1.340402   0.000000
     8  C    1.448337   2.334921   0.000000
     9  C    2.463593   2.829524   3.823244   0.000000
    10  N    3.009536   2.953143   4.419633   1.316993   0.000000
    11  C    4.252280   4.076185   5.689232   2.120535   1.377009
    12  C    4.766072   4.742570   6.162417   2.404379   2.405309
    13  S    3.891555   4.238398   5.123197   1.746313   2.650671
    14  C    6.148932   6.077313   7.531534   3.797485   3.766387
    15  C    6.921869   6.597024   8.337611   4.738112   4.464265
    16  C    8.298609   7.976346   9.699744   6.096250   5.868625
    17  F    9.157260   8.666377  10.567968   7.090232   6.712187
    18  C    8.970335   8.822909  10.334001   6.656800   6.598213
    19  C    8.329210   8.383053   9.635376   5.964322   6.105603
    20  F    9.196326   9.392356  10.431677   6.842843   7.112118
    21  C    7.014787   7.147541   8.315560   4.623187   4.827337
    22  C   10.396294  10.241406  11.746978   8.092485   8.047302
    23  N   11.084769  10.972881  12.378162   8.849411   8.958013
    24  C   12.387722  12.250726  13.694955  10.129484  10.177799
    25  C   12.855803  12.643187  14.219262  10.551854  10.424778
    26  S   11.499027  11.257397  12.899130   9.168960   8.910504
    27  C   14.209866  13.974118  15.586616  11.892200  11.705582
    28  C   15.186928  15.031273  16.540362  12.835924  12.718450
    29  C   16.511387  16.327389  17.877186  14.156350  13.989782
    30  F   17.455822  17.336365  18.799950  15.080975  14.970727
    31  C   16.943072  16.653978  18.339938  14.623587  14.343291
    32  C   16.015580  15.650158  17.427260  13.743717  13.395529
    33  F   16.526038  16.067849  17.952851  14.313738  13.862425
    34  C   14.692894  14.336891  16.099719  12.427824  12.107182
    35  C   18.318703  18.016701  19.721981  15.995167  15.682988
    36  N   18.908352  18.574706  20.330595  16.584394  16.178525
    37  C   20.219273  19.875034  21.641325  17.900131  17.493488
    38  C   20.754670  20.432628  22.158310  18.439479  18.118374
    39  S   19.603235  19.317466  20.984675  17.294844  17.061087
    40  H    3.400329   4.462489   2.133090   5.380554   6.152333
    41  H    3.833392   5.167670   3.383669   4.685669   5.667151
    42  H    2.225784   2.612334   1.060992   4.688358   5.131752
    43  H    5.073239   4.723135   6.497093   3.171246   2.124898
    44  H    6.727993   6.212664   8.155660   4.749191   4.260326
    45  H    6.761458   7.098856   7.971301   4.412092   4.829856
    46  H   13.175156  13.067802  14.444342  10.957998  11.087667
    47  H   15.027823  14.961402  16.345437  12.667639  12.651027
    48  H   14.037579  13.610027  15.454282  11.827315  11.442159
    49  H   20.827387  20.467334  22.258301  18.510884  18.049117
    50  H   21.845964  21.524968  23.245146  19.533368  19.227389
                   11         12         13         14         15
    11  C    0.000000
    12  C    1.389462   0.000000
    13  S    2.504138   1.702402   0.000000
    14  C    2.549378   1.414065   2.718465   0.000000
    15  C    3.151908   2.415808   3.868021   1.389449   0.000000
    16  C    4.540619   3.729903   5.050155   2.452464   1.416014
    17  F    5.393909   4.807854   6.208327   3.678268   2.393461
    18  C    5.296562   4.285523   5.376067   2.873618   2.438338
    19  C    4.919738   3.741648   4.533556   2.422992   2.731584
    20  F    6.013369   4.806606   5.320840   3.615579   4.071372
    21  C    3.737321   2.507834   3.225093   1.430950   2.407483
    22  C    6.738679   5.732103   6.754621   4.319918   3.807972
    23  N    7.708261   6.578917   7.368941   5.200239   4.796361
    24  C    8.893417   7.821691   8.677316   6.422249   5.927562
    25  C    9.081651   8.169067   9.244956   6.759239   6.098827
    26  S    7.544934   6.766949   8.018809   5.388828   4.666650
    27  C   10.347293   9.498310  10.624375   8.094929   7.393051
    28  C   11.376906  10.468332  11.496341   9.058276   8.487540
    29  C   12.636567  11.777592  12.850819  10.372217   9.752263
    30  F   13.634056  12.730352  13.723918  11.325801  10.801164
    31  C   12.970668  12.221615  13.422218  10.836505  10.062352
    32  C   12.019335  11.341652  12.623111   9.983843   9.097454
    33  F   12.492027  11.933343  13.308252  10.627218   9.628123
    34  C   10.733191  10.025316  11.293180   8.663038   7.776170
    35  C   14.308374  13.594002  14.816547  12.216516  11.430632
    36  N   14.805106  14.194753  15.503721  12.851531  12.032179
    37  C   16.119718  15.508774  16.811535  14.162864  13.334324
    38  C   16.742685  16.037367  17.255399  14.659735  13.855625
    39  S   15.691765  14.896398  16.029845  13.498253  12.736949
    40  H    7.403574   7.730724   6.443947   9.055353  10.028858
    41  H    6.710036   6.777555   5.351411   7.967334   9.154878
    42  H    6.406894   6.965177   6.026249   8.332073   9.032458
    43  H    1.138440   2.237682   3.613707   2.957876   3.163867
    44  H    3.006214   2.703267   4.226255   2.181680   1.076344
    45  H    3.969630   2.756964   2.944942   2.186727   3.402486
    46  H    9.834615   8.705671   9.437420   7.327371   6.889791
    47  H   11.343189  10.350169  11.248150   8.946484   8.527259
    48  H   10.071664   9.440418  10.778902   8.119817   7.122133
    49  H   16.681121  16.133947  17.482676  14.812574  13.972481
    50  H   17.852027  17.130876  18.328577  15.748026  14.947822
                   16         17         18         19         20
    16  C    0.000000
    17  F    1.370245   0.000000
    18  C    1.375889   2.371969   0.000000
    19  C    2.354707   3.623130   1.407981   0.000000
    20  F    3.594518   4.749964   2.382757   1.341931   0.000000
    21  C    2.792586   4.160016   2.471447   1.385559   2.299996
    22  C    2.520836   2.913069   1.450273   2.446794   2.762656
    23  N    3.564804   3.911149   2.498542   3.136517   3.059843
    24  C    4.601905   4.673229   3.602257   4.331514   4.105212
    25  C    4.713096   4.505094   3.897522   4.858730   4.800959
    26  S    3.343812   3.173853   2.710025   3.823929   4.119548
    27  C    6.007698   5.645856   5.261814   6.217395   6.085339
    28  C    7.125442   6.898300   6.223789   6.992882   6.619216
    29  C    8.383830   8.045516   7.549239   8.353340   7.983951
    30  F    9.451094   9.208599   8.518676   9.194270   8.671687
    31  C    8.689709   8.133599   8.055147   9.027355   8.848074
    32  C    7.737253   7.042419   7.272800   8.377283   8.393273
    33  F    8.318333   7.449200   8.052336   9.250055   9.411629
    34  C    6.404885   5.744407   5.944349   7.080400   7.168111
    35  C   10.067929   9.469941   9.455511  10.420805  10.216311
    36  N   10.715533  10.055603  10.190458  11.184219  11.044656
    37  C   12.010304  11.326686  11.485550  12.476346  12.308774
    38  C   12.487799  11.840813  11.888743  12.847628  12.599717
    39  S   11.343759  10.771211  10.669310  11.589436  11.290609
    40  H   11.349358  12.334040  11.814222  10.940273  11.547764
    41  H   10.378832  11.530365  10.593367   9.528649   9.923920
    42  H   10.400272  11.182665  11.117407  10.496980  11.346898
    43  H    4.461153   5.104994   5.346802   5.204966   6.358838
    44  H    2.098510   2.515564   3.355856   3.802045   5.142185
    45  H    3.889934   5.258010   3.466607   2.177199   2.553384
    46  H    5.593417   5.666213   4.581546   5.176028   4.786116
    47  H    7.209475   7.180677   6.152928   6.726565   6.162153
    48  H    5.782640   4.964538   5.531404   6.780896   7.066781
    49  H   12.681363  11.971642  12.202110  13.199526  13.061705
    50  H   13.572453  12.923856  12.959886  13.905175  13.624978
                   21         22         23         24         25
    21  C    0.000000
    22  C    3.755371   0.000000
    23  N    4.480590   1.334024   0.000000
    24  C    5.706121   2.192628   1.338028   0.000000
    25  C    6.196758   2.491749   2.381754   1.435123   0.000000
    26  S    5.011631   1.724835   2.590181   2.554673   1.778563
    27  C    7.544895   3.889222   3.752487   2.598365   1.423001
    28  C    8.348580   4.816718   4.465087   3.193671   2.450496
    29  C    9.697080   6.157562   5.837120   4.548182   3.731345
    30  F   10.542758   7.120884   6.689343   5.396359   4.786971
    31  C   10.332426   6.723519   6.571664   5.333696   4.272325
    32  C    9.632141   6.027036   6.045794   4.935661   3.705834
    33  F   10.433395   6.925862   7.079027   6.071430   4.795901
    34  C    8.329079   4.713232   4.800145   3.793380   2.491394
    35  C   11.718027   8.135035   7.980279   6.726846   5.689078
    36  N   12.426525   8.952396   8.957896   7.766485   6.600336
    37  C   13.730194  10.227413  10.174148   8.948860   7.838666
    38  C   14.155163  10.551800  10.318730   9.029687   8.082972
    39  S   12.931118   9.281770   8.918319   7.601780   6.790889
    40  H    9.606016  13.195190  13.740362  15.066088  15.686539
    41  H    8.207033  11.916016  12.420761  13.717697  14.380250
    42  H    9.199548  12.529913  13.167579  14.480406  14.983632
    43  H    4.200545   6.733944   7.827997   8.920410   8.928683
    44  H    3.417132   4.616625   5.626042   6.687455   6.737440
    45  H    1.098244   4.623211   5.203992   6.415435   7.000338
    46  H    6.539516   3.228227   2.130440   1.098053   2.197387
    47  H    8.089923   4.755094   4.227663   3.001395   2.714384
    48  H    7.949611   4.455199   4.737570   3.964198   2.668533
    49  H   14.418591  10.992401  11.020825   9.827227   8.660482
    50  H   15.224370  11.605823  11.317414  10.011895   9.125010
                   26         27         28         29         30
    26  S    0.000000
    27  C    2.825835   0.000000
    28  C    3.947464   1.356525   0.000000
    29  C    5.131270   2.408526   1.392403   0.000000
    30  F    6.223895   3.579816   2.337030   1.286991   0.000000
    31  C    5.455815   2.853031   2.481855   1.478089   2.384032
    32  C    4.638504   2.431221   2.769123   2.421745   3.592603
    33  F    5.441485   3.673543   4.143420   3.693662   4.749114
    34  C    3.347962   1.487789   2.446034   2.816023   4.102632
    35  C    6.828673   4.268163   3.761183   2.495492   2.792006
    36  N    7.496692   5.205512   4.845974   3.655309   3.925251
    37  C    8.799073   6.428798   5.970444   4.682033   4.695834
    38  C    9.272049   6.667649   6.035752   4.676045   4.445638
    39  S    8.154476   5.409422   4.674582   3.344189   3.098621
    40  H   14.433655  17.067981  17.926730  19.285396  20.127610
    41  H   13.189029  15.743213  16.478295  17.838093  18.583856
    42  H   13.652950  16.345345  17.338010  18.665491  19.618666
    43  H    7.290370  10.113297  11.195801  12.394205  13.436087
    44  H    5.257523   7.964902   9.138638  10.348239  11.455052
    45  H    5.911277   8.330730   9.022998  10.376927  11.136971
    46  H    3.614655   2.915176   3.123534   4.380530   5.054129
    47  H    4.219934   2.136169   1.099052   2.130786   2.566016
    48  H    3.039104   2.199229   3.391130   3.881371   5.168266
    49  H    9.496983   7.268576   6.864799   5.607204   5.619942
    50  H   10.364434   7.717294   7.025956   5.656002   5.278738
                   31         32         33         34         35
    31  C    0.000000
    32  C    1.378510   0.000000
    33  F    2.370976   1.375917   0.000000
    34  C    2.422991   1.346856   2.304655   0.000000
    35  C    1.418045   2.480379   2.854872   3.733393   0.000000
    36  N    2.490795   3.157541   3.027544   4.455736   1.362055
    37  C    3.616847   4.365682   4.109738   5.694780   2.258302
    38  C    3.834041   4.802070   4.763752   6.105975   2.447687
    39  S    2.763750   3.902789   4.264770   5.071052   1.721212
    40  H   19.859587  19.029994  19.643657  17.700224  21.249282
    41  H   18.533780  17.824360  18.554676  16.514462  19.912840
    42  H   19.078821  18.124917  18.599174  16.799949  20.456649
    43  H   12.617476  11.610701  11.983513  10.364469  13.915370
    44  H   10.524656   9.465060   9.856130   8.170275  11.862579
    45  H   11.108937  10.492474  11.352408   9.211854  12.484156
    46  H    5.312508   5.134857   6.344063   4.177206   6.635770
    47  H    3.464915   3.867558   5.242273   3.460310   4.624315
    48  H    3.399739   2.135739   2.565023   1.066723   4.614758
    49  H    4.523732   5.151392   4.727788   6.463997   3.227360
    50  H    4.912002   5.896060   5.826558   7.191484   3.550757
                   36         37         38         39         40
    36  N    0.000000
    37  C    1.320046   0.000000
    38  C    2.286867   1.419569   0.000000
    39  S    2.525460   2.522475   1.657433   0.000000
    40  H   21.897764  23.211343  23.691124  22.473469   0.000000
    41  H   20.586479  21.896407  22.347984  21.110252   2.443632
    42  H   21.050410  22.356467  22.884149  21.724836   2.428770
    43  H   14.321638  15.629617  16.328738  15.364330   8.276393
    44  H   12.395424  13.686404  14.260052  13.205898   9.986792
    45  H   13.210523  14.507369  14.908117  13.662543   9.059641
    46  H    7.796170   8.892485   8.801342   7.276210  15.752592
    47  H    5.737847   6.797517   6.753870   5.329049  17.629954
    48  H    5.181832   6.410020   6.914683   5.978542  17.126905
    49  H    2.063220   1.038365   2.187555   3.527256  23.847415
    50  H    3.371536   2.300579   1.127459   2.439654  24.768716
                   41         42         43         44         45
    41  H    0.000000
    42  H    4.239502   0.000000
    43  H    7.678574   7.126690   0.000000
    44  H    9.354098   8.753419   2.788052   0.000000
    45  H    7.463436   8.919516   4.609404   4.341536   0.000000
    46  H   14.371712  15.234094   9.921738   7.661580   7.163806
    47  H   16.084493  17.179557  11.260128   9.278218   8.658872
    48  H   16.054585  16.114553   9.649831   7.409563   8.901866
    49  H   22.544100  22.964704  16.138533  14.285749  15.199897
    50  H   23.413741  23.971559  17.447347  15.356278  15.965015
                   46         47         48         49         50
    46  H    0.000000
    47  H    2.740442   0.000000
    48  H    4.529560   4.319651   0.000000
    49  H    9.828005   7.698759   7.103562   0.000000
    50  H    9.714487   7.677347   7.998669   2.722443   0.000000
 Stoichiometry    C27H11F6N3S3
 Framework group  C1[X(C27H11F6N3S3)]
 Deg. of freedom   144
 Full point group                 C1      NOp   1
 Largest Abelian subgroup         C1      NOp   1
 Largest concise Abelian subgroup C1      NOp   1
                         Standard orientation:                         
 ---------------------------------------------------------------------
 Center     Atomic      Atomic             Coordinates (Angstroms)
 Number     Number       Type             X           Y           Z
 ---------------------------------------------------------------------
      1          6           0       11.365158   -0.442758   -0.080457
      2          6           0       10.486633   -1.351066    0.488986
      3          6           0        9.060926   -1.089775    0.622297
      4          9           0        8.284863   -2.004083    1.182753
      5          6           0        8.538246    0.107971    0.205868
      6          6           0        9.413255    1.083283   -0.302351
      7          9           0        8.994280    2.258274   -0.792792
      8          6           0       10.817183    0.820799   -0.542700
      9          6           0        7.119634    0.486521    0.370307
     10          7           0        6.745292    1.582255    0.997768
     11          6           0        5.370355    1.545469    0.931840
     12          6           0        4.717241    0.509572    0.275361
     13         16           0        5.899723   -0.589413   -0.265139
     14          6           0        3.338468    0.233249    0.126333
     15          6           0        2.493229    1.242111   -0.319017
     16          6           0        1.119327    1.010018   -0.571251
     17          9           0        0.330691    2.076229   -0.915954
     18          6           0        0.537230   -0.213694   -0.333004
     19          6           0        1.423558   -1.247810    0.023980
     20          9           0        0.955189   -2.482134    0.264509
     21          6           0        2.764003   -1.062666    0.321813
     22          6           0       -0.847501   -0.566725   -0.580349
     23          7           0       -1.319081   -1.423570   -1.487568
     24          6           0       -2.653924   -1.484503   -1.418285
     25          6           0       -3.338658   -0.519162   -0.606597
     26         16           0       -2.047531    0.338211    0.265864
     27          6           0       -4.722258   -0.368444   -0.310173
     28          6           0       -5.566138   -1.411379   -0.109393
     29          6           0       -6.929298   -1.234980    0.113016
     30          9           0       -7.712988   -2.238257    0.301721
     31          6           0       -7.497540    0.129460    0.125354
     32          6           0       -6.600526    1.157050   -0.073930
     33          9           0       -7.053132    2.454661   -0.006823
     34          6           0       -5.279457    1.010943   -0.291757
     35          6           0       -8.874344    0.297988    0.420074
     36          7           0       -9.423516    1.138538    1.340442
     37          6           0      -10.741409    1.206575    1.308030
     38          6           0      -11.319364    0.361207    0.324923
     39         16           0      -10.128155   -0.462042   -0.481529
     40          1           0       12.343453   -0.641212   -0.254432
     41          1           0       10.865121   -2.301920    0.759432
     42          1           0       11.500160    1.533364   -0.931927
     43          1           0        4.841215    2.409127    1.451602
     44          1           0        2.792010    2.269769   -0.433756
     45          1           0        3.414032   -1.894845    0.623608
     46          1           0       -3.231810   -2.185484   -2.035045
     47          1           0       -5.193610   -2.444938   -0.139248
     48          1           0       -4.604132    1.824014   -0.435803
     49          1           0      -11.274795    1.761137    2.005282
     50          1           0      -12.409404    0.164588    0.114413
 ---------------------------------------------------------------------
 Rotational constants (GHZ):           0.4024482           0.0180452           0.0175648
 Leave Link  202 at Thu Jul 23 10:00:16 2020, MaxMem=  4026531840 cpu:               0.3 elap:               0.1
 (Enter /opt/ohpc/pub/libs/gaussian/g16-A.03/sandybridge/g16/l301.exe)
 Standard basis: CC-pVDZ (5D, 7F)
 Ernie: Thresh=  0.10000D-02 Tol=  0.10000D-05 Strict=F.
 Ernie:  102 primitive shells out of 997 were deleted.
 There are   652 symmetry adapted cartesian basis functions of A   symmetry.
 There are   613 symmetry adapted basis functions of A   symmetry.
   613 basis functions,  1478 primitive gaussians,   652 cartesian basis functions
   148 alpha electrons      148 beta electrons
       nuclear repulsion energy      4259.2999253560 Hartrees.
 IExCor=32609 DFT=T Ex+Corr=LC-wPBE ExCW=0 ScaHFX=  1.000000
 ScaDFX=  1.000000  0.000000  1.000000  1.000000 ScalE2=  1.000000  1.000000
 IRadAn=      5 IRanWt=     -1 IRanGd=            0 ICorTp=0 IEmpDi=  4
 HFx  wShort=  0.000000 wLong=  0.403700 cFull=  0.000000 cShort=  0.000000 cLong=  1.000000
 DFx  wShort=  0.000000 wLong=  0.403700 cFull=  0.000000 cShort=  0.000000 cLong=  1.000000
 NAtoms=   50 NActive=   50 NUniq=   50 SFac= 1.00D+00 NAtFMM=   60 NAOKFM=F Big=F
 Integral buffers will be    131072 words long.
 Raffenetti 2 integral format.
 Two-electron integral symmetry is turned on.
 Leave Link  301 at Thu Jul 23 10:00:16 2020, MaxMem=  4026531840 cpu:               0.5 elap:               0.1
 (Enter /opt/ohpc/pub/libs/gaussian/g16-A.03/sandybridge/g16/l302.exe)
 NPDir=0 NMtPBC=     1 NCelOv=     1 NCel=       1 NClECP=     1 NCelD=      1
         NCelK=      1 NCelE2=     1 NClLst=     1 CellRange=     0.0.
 One-electron integrals computed using PRISM.
 One-electron integral symmetry used in STVInt
 NBasis=   613 RedAO= T EigKep=  3.52D-04  NBF=   613
 NBsUse=   613 1.00D-06 EigRej= -1.00D+00 NBFU=   613
 Precomputing XC quadrature grid using
 IXCGrd= 4 IRadAn=           5 IRanWt=          -1 IRanGd=           0 AccXCQ= 0.00D+00.
 Generated NRdTot=       0 NPtTot=           0 NUsed=           0 NTot=          32
 NSgBfM=   558   558   558   558   558 MxSgAt=    50 MxSgA2=    50.
 Leave Link  302 at Thu Jul 23 10:00:17 2020, MaxMem=  4026531840 cpu:               9.1 elap:               1.4
 (Enter /opt/ohpc/pub/libs/gaussian/g16-A.03/sandybridge/g16/l303.exe)
 DipDrv:  MaxL=1.
 Leave Link  303 at Thu Jul 23 10:00:18 2020, MaxMem=  4026531840 cpu:               1.4 elap:               0.4
 (Enter /opt/ohpc/pub/libs/gaussian/g16-A.03/sandybridge/g16/l401.exe)
 ExpMin= 1.22D-01 ExpMax= 1.11D+05 ExpMxC= 1.07D+03 IAcc=3 IRadAn=         5 AccDes= 0.00D+00
 Harris functional with IExCor=32609 and IRadAn=       5 diagonalized for initial guess.
 HarFok:  IExCor=32609 AccDes= 0.00D+00 IRadAn=         5 IDoV= 1 UseB2=F ITyADJ=14
 ICtDFT=  3500011 ScaDFX=  1.000000  1.000000  1.000000  1.000000
 FoFCou: FMM=F IPFlag=           0 FMFlag=      100000 FMFlg1=           0
         NFxFlg=           0 DoJE=T BraDBF=F KetDBF=T FulRan=T
         wScrn=  0.000000 ICntrl=       500 IOpCl=  0 I1Cent=   200000004 NGrid=           0
         NMat0=    1 NMatS0=      1 NMatT0=    0 NMatD0=    1 NMtDS0=    0 NMtDT0=    0
 Petite list used in FoFCou.
 Harris En= -2991.30472982426    
 JPrj=0 DoOrth=F DoCkMO=F.
 Initial guess <Sx>= 0.0000 <Sy>= 0.0000 <Sz>= 0.0000 <S**2>=-0.0000 S=-0.0000
 Leave Link  401 at Thu Jul 23 10:00:23 2020, MaxMem=  4026531840 cpu:              38.3 elap:               5.4
 (Enter /opt/ohpc/pub/libs/gaussian/g16-A.03/sandybridge/g16/l502.exe)
 Integral symmetry usage will be decided dynamically.
 UHF open shell SCF:
 Using DIIS extrapolation, IDIIS=  1040.
 NGot=  4026531840 LenX=  4025669996 LenY=  4025244240
 Requested convergence on RMS density matrix=1.00D-08 within 128 cycles.
 Requested convergence on MAX density matrix=1.00D-06.
 Requested convergence on             energy=1.00D-06.
 No special actions if energy rises.
 Fock matrices will be formed incrementally for  20 cycles.
 Integral accuracy reduced to 1.0D-05 until final iterations.

 Cycle   1  Pass 0  IDiag  1:
 FoFJK:  IHMeth= 1 ICntrl=       0 DoSepK=T KAlg= 0 I1Cent=           0 FoldK=F
 IRaf=         1 NMat=       1 IRICut=       1 DoRegI=T DoRafI=F ISym2E= 0 IDoP0=0 IntGTp=1.
 FoFCou: FMM=F IPFlag=           0 FMFlag=      100000 FMFlg1=           0
         NFxFlg=           0 DoJE=T BraDBF=F KetDBF=F FulRan=T
         wScrn=  0.000000 ICntrl=       500 IOpCl=  0 I1Cent=           0 NGrid=           0
         NMat0=    1 NMatS0=      1 NMatT0=    0 NMatD0=    1 NMtDS0=    0 NMtDT0=    0
 Symmetry not used in FoFCou.
 E= -2991.10137626479    
 DIIS: error= 1.47D-02 at cycle   1 NSaved=   1.
 NSaved= 1 IEnMin= 1 EnMin= -2991.10137626479     IErMin= 1 ErrMin= 1.47D-02
 ErrMax= 1.47D-02  0.00D+00 EMaxC= 1.00D-01 BMatC= 2.48D+00 BMatP= 2.48D+00
 IDIUse=3 WtCom= 8.53D-01 WtEn= 1.47D-01
 Coeff-Com:  0.100D+01
 Coeff-En:   0.100D+01
 Coeff:      0.100D+01
 Gap=     0.295 Goal=   None    Shift=    0.000
 Gap=     0.295 Goal=   None    Shift=    0.000
 GapD=    0.295 DampG=1.000 DampE=0.500 DampFc=0.5000 IDamp=-1.
 Damping current iteration by 5.00D-01
 RMSDP=2.74D-03 MaxDP=1.25D-01              OVMax= 1.97D-01

 Cycle   2  Pass 0  IDiag  1:
 RMSU=  1.36D-03    CP:  9.93D-01
 E= -2991.44706838995     Delta-E=       -0.345692125165 Rises=F Damp=T
 DIIS: error= 6.03D-03 at cycle   2 NSaved=   2.
 NSaved= 2 IEnMin= 2 EnMin= -2991.44706838995     IErMin= 2 ErrMin= 6.03D-03
 ErrMax= 6.03D-03  0.00D+00 EMaxC= 1.00D-01 BMatC= 1.43D-01 BMatP= 2.48D+00
 IDIUse=3 WtCom= 9.40D-01 WtEn= 6.03D-02
 Coeff-Com: -0.548D-01 0.105D+01
 Coeff-En:   0.000D+00 0.100D+01
 Coeff:     -0.515D-01 0.105D+01
 Gap=     0.300 Goal=   None    Shift=    0.000
 Gap=     0.300 Goal=   None    Shift=    0.000
 RMSDP=8.86D-04 MaxDP=2.48D-02 DE=-3.46D-01 OVMax= 1.37D-01

 Cycle   3  Pass 0  IDiag  1:
 RMSU=  8.51D-04    CP:  9.88D-01  1.17D+00
 E= -2991.78457883441     Delta-E=       -0.337510444453 Rises=F Damp=F
 DIIS: error= 2.50D-03 at cycle   3 NSaved=   3.
 NSaved= 3 IEnMin= 3 EnMin= -2991.78457883441     IErMin= 3 ErrMin= 2.50D-03
 ErrMax= 2.50D-03  0.00D+00 EMaxC= 1.00D-01 BMatC= 5.67D-02 BMatP= 1.43D-01
 IDIUse=3 WtCom= 9.75D-01 WtEn= 2.50D-02
 Coeff-Com: -0.540D-01 0.396D+00 0.658D+00
 Coeff-En:   0.000D+00 0.000D+00 0.100D+01
 Coeff:     -0.526D-01 0.386D+00 0.666D+00
 Gap=     0.296 Goal=   None    Shift=    0.000
 Gap=     0.296 Goal=   None    Shift=    0.000
 RMSDP=2.26D-04 MaxDP=1.58D-02 DE=-3.38D-01 OVMax= 2.78D-02

 Cycle   4  Pass 0  IDiag  1:
 RMSU=  1.99D-04    CP:  9.88D-01  1.23D+00  9.17D-01
 E= -2991.79741102861     Delta-E=       -0.012832194199 Rises=F Damp=F
 DIIS: error= 8.93D-04 at cycle   4 NSaved=   4.
 NSaved= 4 IEnMin= 4 EnMin= -2991.79741102861     IErMin= 4 ErrMin= 8.93D-04
 ErrMax= 8.93D-04  0.00D+00 EMaxC= 1.00D-01 BMatC= 6.89D-03 BMatP= 5.67D-02
 IDIUse=3 WtCom= 9.91D-01 WtEn= 8.93D-03
 Coeff-Com: -0.564D-02 0.475D-02 0.242D+00 0.759D+00
 Coeff-En:   0.000D+00 0.000D+00 0.000D+00 0.100D+01
 Coeff:     -0.559D-02 0.471D-02 0.240D+00 0.761D+00
 Gap=     0.298 Goal=   None    Shift=    0.000
 Gap=     0.298 Goal=   None    Shift=    0.000
 RMSDP=9.50D-05 MaxDP=4.75D-03 DE=-1.28D-02 OVMax= 9.52D-03

 Cycle   5  Pass 0  IDiag  1:
 RMSU=  7.47D-05    CP:  9.88D-01  1.23D+00  9.81D-01  9.10D-01
 E= -2991.79951733883     Delta-E=       -0.002106310227 Rises=F Damp=F
 DIIS: error= 2.48D-04 at cycle   5 NSaved=   5.
 NSaved= 5 IEnMin= 5 EnMin= -2991.79951733883     IErMin= 5 ErrMin= 2.48D-04
 ErrMax= 2.48D-04  0.00D+00 EMaxC= 1.00D-01 BMatC= 7.78D-04 BMatP= 6.89D-03
 IDIUse=3 WtCom= 9.98D-01 WtEn= 2.48D-03
 Coeff-Com:  0.594D-02-0.404D-01 0.189D-01 0.257D+00 0.759D+00
 Coeff-En:   0.000D+00 0.000D+00 0.000D+00 0.000D+00 0.100D+01
 Coeff:      0.593D-02-0.403D-01 0.188D-01 0.256D+00 0.759D+00
 Gap=     0.300 Goal=   None    Shift=    0.000
 Gap=     0.300 Goal=   None    Shift=    0.000
 RMSDP=4.08D-05 MaxDP=1.68D-03 DE=-2.11D-03 OVMax= 3.99D-03

 Cycle   6  Pass 0  IDiag  1:
 RMSU=  2.87D-05    CP:  9.88D-01  1.23D+00  1.01D+00  9.99D-01  1.06D+00
 E= -2991.79983811938     Delta-E=       -0.000320780544 Rises=F Damp=F
 DIIS: error= 1.19D-04 at cycle   6 NSaved=   6.
 NSaved= 6 IEnMin= 6 EnMin= -2991.79983811938     IErMin= 6 ErrMin= 1.19D-04
 ErrMax= 1.19D-04  0.00D+00 EMaxC= 1.00D-01 BMatC= 1.26D-04 BMatP= 7.78D-04
 IDIUse=3 WtCom= 9.99D-01 WtEn= 1.19D-03
 Coeff-Com:  0.471D-02-0.172D-01-0.343D-01-0.373D-01 0.217D+00 0.867D+00
 Coeff-En:   0.000D+00 0.000D+00 0.000D+00 0.000D+00 0.000D+00 0.100D+01
 Coeff:      0.471D-02-0.172D-01-0.343D-01-0.372D-01 0.217D+00 0.867D+00
 Gap=     0.301 Goal=   None    Shift=    0.000
 Gap=     0.301 Goal=   None    Shift=    0.000
 RMSDP=2.22D-05 MaxDP=1.08D-03 DE=-3.21D-04 OVMax= 3.46D-03

 Cycle   7  Pass 0  IDiag  1:
 RMSU=  1.38D-05    CP:  9.88D-01  1.23D+00  1.02D+00  1.03D+00  1.24D+00
                    CP:  1.15D+00
 E= -2991.79992972941     Delta-E=       -0.000091610032 Rises=F Damp=F
 DIIS: error= 7.63D-05 at cycle   7 NSaved=   7.
 NSaved= 7 IEnMin= 7 EnMin= -2991.79992972941     IErMin= 7 ErrMin= 7.63D-05
 ErrMax= 7.63D-05  0.00D+00 EMaxC= 1.00D-01 BMatC= 3.56D-05 BMatP= 1.26D-04
 IDIUse=1 WtCom= 1.00D+00 WtEn= 0.00D+00
 Coeff-Com:  0.120D-02-0.592D-03-0.139D-01-0.519D-01-0.832D-01 0.324D+00
 Coeff-Com:  0.824D+00
 Coeff:      0.120D-02-0.592D-03-0.139D-01-0.519D-01-0.832D-01 0.324D+00
 Coeff:      0.824D+00
 Gap=     0.301 Goal=   None    Shift=    0.000
 Gap=     0.301 Goal=   None    Shift=    0.000
 RMSDP=1.18D-05 MaxDP=4.81D-04 DE=-9.16D-05 OVMax= 1.47D-03

 Cycle   8  Pass 0  IDiag  1:
 RMSU=  5.73D-06    CP:  9.88D-01  1.22D+00  1.02D+00  1.05D+00  1.29D+00
                    CP:  1.43D+00  1.14D+00
 E= -2991.79995274501     Delta-E=       -0.000023015597 Rises=F Damp=F
 DIIS: error= 3.30D-05 at cycle   8 NSaved=   8.
 NSaved= 8 IEnMin= 8 EnMin= -2991.79995274501     IErMin= 8 ErrMin= 3.30D-05
 ErrMax= 3.30D-05  0.00D+00 EMaxC= 1.00D-01 BMatC= 7.00D-06 BMatP= 3.56D-05
 IDIUse=1 WtCom= 1.00D+00 WtEn= 0.00D+00
 Coeff-Com: -0.402D-03 0.321D-02 0.319D-02-0.786D-02-0.895D-01-0.846D-01
 Coeff-Com:  0.316D+00 0.860D+00
 Coeff:     -0.402D-03 0.321D-02 0.319D-02-0.786D-02-0.895D-01-0.846D-01
 Coeff:      0.316D+00 0.860D+00
 Gap=     0.301 Goal=   None    Shift=    0.000
 Gap=     0.301 Goal=   None    Shift=    0.000
 RMSDP=6.13D-06 MaxDP=2.33D-04 DE=-2.30D-05 OVMax= 9.69D-04

 Initial convergence to 1.0D-05 achieved.  Increase integral accuracy.
 Cycle   9  Pass 1  IDiag  1:
 E= -2991.79950537429     Delta-E=        0.000447370711 Rises=F Damp=F
 DIIS: error= 1.59D-04 at cycle   1 NSaved=   1.
 NSaved= 1 IEnMin= 1 EnMin= -2991.79950537429     IErMin= 1 ErrMin= 1.59D-04
 ErrMax= 1.59D-04  0.00D+00 EMaxC= 1.00D-01 BMatC= 4.01D-05 BMatP= 4.01D-05
 IDIUse=3 WtCom= 9.98D-01 WtEn= 1.59D-03
 Coeff-Com:  0.100D+01
 Coeff-En:   0.100D+01
 Coeff:      0.100D+01
 Gap=     0.301 Goal=   None    Shift=    0.000
 Gap=     0.301 Goal=   None    Shift=    0.000
 RMSDP=6.13D-06 MaxDP=2.33D-04 DE= 4.47D-04 OVMax= 2.75D-04

 Cycle  10  Pass 1  IDiag  1:
 RMSU=  1.02D-04    CP:  1.00D+00
 E= -2991.79951382452     Delta-E=       -0.000008450224 Rises=F Damp=F
 DIIS: error= 8.09D-06 at cycle   2 NSaved=   2.
 NSaved= 2 IEnMin= 2 EnMin= -2991.79951382452     IErMin= 2 ErrMin= 8.09D-06
 ErrMax= 8.09D-06  0.00D+00 EMaxC= 1.00D-01 BMatC= 6.61D-07 BMatP= 4.01D-05
 IDIUse=1 WtCom= 1.00D+00 WtEn= 0.00D+00
 Coeff-Com: -0.123D-01 0.101D+01
 Coeff:     -0.123D-01 0.101D+01
 Gap=     0.301 Goal=   None    Shift=    0.000
 Gap=     0.301 Goal=   None    Shift=    0.000
 RMSDP=5.57D-06 MaxDP=2.55D-04 DE=-8.45D-06 OVMax= 1.87D-04

 Cycle  11  Pass 1  IDiag  1:
 RMSU=  2.26D-06    CP:  1.00D+00  1.05D+00
 E= -2991.79951373809     Delta-E=        0.000000086427 Rises=F Damp=F
 DIIS: error= 9.96D-06 at cycle   3 NSaved=   3.
 NSaved= 3 IEnMin= 2 EnMin= -2991.79951382452     IErMin= 2 ErrMin= 8.09D-06
 ErrMax= 9.96D-06  0.00D+00 EMaxC= 1.00D-01 BMatC= 8.40D-07 BMatP= 6.61D-07
 IDIUse=1 WtCom= 1.00D+00 WtEn= 0.00D+00
 Coeff-Com: -0.221D-01 0.549D+00 0.473D+00
 Coeff:     -0.221D-01 0.549D+00 0.473D+00
 Gap=     0.301 Goal=   None    Shift=    0.000
 Gap=     0.301 Goal=   None    Shift=    0.000
 RMSDP=8.00D-07 MaxDP=5.67D-05 DE= 8.64D-08 OVMax= 8.72D-05

 Cycle  12  Pass 1  IDiag  1:
 RMSU=  7.15D-07    CP:  1.00D+00  1.05D+00  8.71D-01
 E= -2991.79951403043     Delta-E=       -0.000000292341 Rises=F Damp=F
 DIIS: error= 1.87D-06 at cycle   4 NSaved=   4.
 NSaved= 4 IEnMin= 4 EnMin= -2991.79951403043     IErMin= 4 ErrMin= 1.87D-06
 ErrMax= 1.87D-06  0.00D+00 EMaxC= 1.00D-01 BMatC= 2.29D-08 BMatP= 6.61D-07
 IDIUse=1 WtCom= 1.00D+00 WtEn= 0.00D+00
 Coeff-Com: -0.936D-03-0.305D-01 0.223D-01 0.101D+01
 Coeff:     -0.936D-03-0.305D-01 0.223D-01 0.101D+01
 Gap=     0.301 Goal=   None    Shift=    0.000
 Gap=     0.301 Goal=   None    Shift=    0.000
 RMSDP=3.95D-07 MaxDP=1.59D-05 DE=-2.92D-07 OVMax= 5.85D-05

 Cycle  13  Pass 1  IDiag  1:
 RMSU=  2.71D-07    CP:  1.00D+00  1.05D+00  9.69D-01  1.20D+00
 E= -2991.79951405041     Delta-E=       -0.000000019979 Rises=F Damp=F
 DIIS: error= 1.39D-06 at cycle   5 NSaved=   5.
 NSaved= 5 IEnMin= 5 EnMin= -2991.79951405041     IErMin= 5 ErrMin= 1.39D-06
 ErrMax= 1.39D-06  0.00D+00 EMaxC= 1.00D-01 BMatC= 1.11D-08 BMatP= 2.29D-08
 IDIUse=1 WtCom= 1.00D+00 WtEn= 0.00D+00
 Coeff-Com:  0.811D-02-0.227D+00-0.179D+00 0.466D+00 0.933D+00
 Coeff:      0.811D-02-0.227D+00-0.179D+00 0.466D+00 0.933D+00
 Gap=     0.301 Goal=   None    Shift=    0.000
 Gap=     0.301 Goal=   None    Shift=    0.000
 RMSDP=3.02D-07 MaxDP=1.15D-05 DE=-2.00D-08 OVMax= 4.18D-05

 Cycle  14  Pass 1  IDiag  1:
 RMSU=  1.66D-07    CP:  1.00D+00  1.05D+00  1.02D+00  1.42D+00  1.56D+00
 E= -2991.79951406452     Delta-E=       -0.000000014107 Rises=F Damp=F
 DIIS: error= 3.86D-07 at cycle   6 NSaved=   6.
 NSaved= 6 IEnMin= 6 EnMin= -2991.79951406452     IErMin= 6 ErrMin= 3.86D-07
 ErrMax= 3.86D-07  0.00D+00 EMaxC= 1.00D-01 BMatC= 9.86D-10 BMatP= 1.11D-08
 IDIUse=1 WtCom= 1.00D+00 WtEn= 0.00D+00
 Coeff-Com:  0.229D-02-0.566D-01-0.516D-01-0.663D-02 0.268D+00 0.844D+00
 Coeff:      0.229D-02-0.566D-01-0.516D-01-0.663D-02 0.268D+00 0.844D+00
 Gap=     0.301 Goal=   None    Shift=    0.000
 Gap=     0.301 Goal=   None    Shift=    0.000
 RMSDP=8.28D-08 MaxDP=2.83D-06 DE=-1.41D-08 OVMax= 1.35D-05

 Cycle  15  Pass 1  IDiag  1:
 RMSU=  3.87D-08    CP:  1.00D+00  1.05D+00  1.02D+00  1.43D+00  1.80D+00
                    CP:  1.14D+00
 E= -2991.79951406540     Delta-E=       -0.000000000884 Rises=F Damp=F
 DIIS: error= 1.57D-07 at cycle   7 NSaved=   7.
 NSaved= 7 IEnMin= 7 EnMin= -2991.79951406540     IErMin= 7 ErrMin= 1.57D-07
 ErrMax= 1.57D-07  0.00D+00 EMaxC= 1.00D-01 BMatC= 2.21D-10 BMatP= 9.86D-10
 IDIUse=1 WtCom= 1.00D+00 WtEn= 0.00D+00
 Coeff-Com: -0.453D-03 0.156D-01 0.948D-02-0.874D-01-0.583D-01 0.339D+00
 Coeff-Com:  0.782D+00
 Coeff:     -0.453D-03 0.156D-01 0.948D-02-0.874D-01-0.583D-01 0.339D+00
 Coeff:      0.782D+00
 Gap=     0.301 Goal=   None    Shift=    0.000
 Gap=     0.301 Goal=   None    Shift=    0.000
 RMSDP=3.54D-08 MaxDP=1.20D-06 DE=-8.84D-10 OVMax= 4.51D-06

 Cycle  16  Pass 1  IDiag  1:
 RMSU=  1.52D-08    CP:  1.00D+00  1.05D+00  1.02D+00  1.44D+00  1.87D+00
                    CP:  1.26D+00  1.04D+00
 E= -2991.79951406550     Delta-E=       -0.000000000102 Rises=F Damp=F
 DIIS: error= 7.74D-08 at cycle   8 NSaved=   8.
 NSaved= 8 IEnMin= 8 EnMin= -2991.79951406550     IErMin= 8 ErrMin= 7.74D-08
 ErrMax= 7.74D-08  0.00D+00 EMaxC= 1.00D-01 BMatC= 1.75D-11 BMatP= 2.21D-10
 IDIUse=1 WtCom= 1.00D+00 WtEn= 0.00D+00
 Coeff-Com: -0.323D-03 0.947D-02 0.702D-02-0.290D-01-0.395D-01 0.510D-01
 Coeff-Com:  0.270D+00 0.731D+00
 Coeff:     -0.323D-03 0.947D-02 0.702D-02-0.290D-01-0.395D-01 0.510D-01
 Coeff:      0.270D+00 0.731D+00
 Gap=     0.301 Goal=   None    Shift=    0.000
 Gap=     0.301 Goal=   None    Shift=    0.000
 RMSDP=7.74D-09 MaxDP=2.96D-07 DE=-1.02D-10 OVMax= 1.11D-06

 SCF Done:  E(ULC-wPBE) =  -2991.79951407     A.U. after   16 cycles
            NFock= 16  Conv=0.77D-08     -V/T= 2.0046
 <Sx>= 0.0000 <Sy>= 0.0000 <Sz>= 0.0000 <S**2>=-0.0000 S=-0.0000
 <L.S>= 0.000000000000E+00
 KE= 2.977959670805D+03 PE=-1.556727416236D+04 EE= 5.338215052131D+03
 Annihilation of the first spin contaminant:
 S**2 before annihilation    -0.0000,   after    -0.0000
 Leave Link  502 at Thu Jul 23 10:06:34 2020, MaxMem=  4026531840 cpu:            2906.1 elap:             370.5
 (Enter /opt/ohpc/pub/libs/gaussian/g16-A.03/sandybridge/g16/l601.exe)
 Copying SCF densities to generalized density rwf, IOpCl= 1 IROHF=0.

 **********************************************************************

            Population analysis using the SCF density.

 **********************************************************************

 Orbital symmetries:
 Alpha Orbitals:
       Occupied  (A) (A) (A) (A) (A) (A) (A) (A) (A) (A) (A) (A)
                 (A) (A) (A) (A) (A) (A) (A) (A) (A) (A) (A) (A)
                 (A) (A) (A) (A) (A) (A) (A) (A) (A) (A) (A) (A)
                 (A) (A) (A) (A) (A) (A) (A) (A) (A) (A) (A) (A)
                 (A) (A) (A) (A) (A) (A) (A) (A) (A) (A) (A) (A)
[...]
    42   Atom        0.000000     -0.000000      0.000000
    43   Atom       -0.000000      0.000000      0.000000
    44   Atom        0.000000      0.000000     -0.000000
    45   Atom        0.000000     -0.000000      0.000000
    46   Atom       -0.000000      0.000000     -0.000000
    47   Atom        0.000000     -0.000000      0.000000
    48   Atom       -0.000000      0.000000      0.000000
    49   Atom        0.000000     -0.000000      0.000000
    50   Atom        0.000000     -0.000000     -0.000000
 --------------------------------------------------------
                        XY            XZ            YZ
 --------------------------------------------------------
     1   Atom        0.000000      0.000000      0.000000
     2   Atom       -0.000000      0.000000      0.000000
     3   Atom       -0.000000      0.000000      0.000000
     4   Atom        0.000000      0.000000     -0.000000
     5   Atom       -0.000000      0.000000     -0.000000
     6   Atom        0.000000     -0.000000      0.000000
     7   Atom        0.000000      0.000000      0.000000
     8   Atom       -0.000000      0.000000      0.000000
     9   Atom       -0.000000     -0.000000     -0.000000
    10   Atom       -0.000000     -0.000000      0.000000
    11   Atom       -0.000000     -0.000000      0.000000
    12   Atom       -0.000000     -0.000000     -0.000000
    13   Atom        0.000000     -0.000000     -0.000000
    14   Atom        0.000000     -0.000000      0.000000
    15   Atom        0.000000     -0.000000      0.000000
    16   Atom        0.000000     -0.000000     -0.000000
    17   Atom       -0.000000      0.000000     -0.000000
    18   Atom       -0.000000      0.000000      0.000000
    19   Atom        0.000000      0.000000     -0.000000
    20   Atom       -0.000000      0.000000     -0.000000
    21   Atom        0.000000      0.000000     -0.000000
    22   Atom        0.000000      0.000000      0.000000
    23   Atom       -0.000000     -0.000000     -0.000000
    24   Atom        0.000000      0.000000      0.000000
    25   Atom        0.000000      0.000000     -0.000000
    26   Atom       -0.000000     -0.000000      0.000000
    27   Atom       -0.000000     -0.000000     -0.000000
    28   Atom       -0.000000     -0.000000      0.000000
    29   Atom        0.000000     -0.000000     -0.000000
    30   Atom       -0.000000      0.000000      0.000000
    31   Atom       -0.000000      0.000000      0.000000
    32   Atom       -0.000000     -0.000000     -0.000000
    33   Atom        0.000000     -0.000000      0.000000
    34   Atom       -0.000000     -0.000000      0.000000
    35   Atom       -0.000000     -0.000000      0.000000
    36   Atom        0.000000      0.000000      0.000000
    37   Atom        0.000000     -0.000000     -0.000000
    38   Atom       -0.000000     -0.000000     -0.000000
    39   Atom        0.000000      0.000000     -0.000000
    40   Atom       -0.000000      0.000000      0.000000
    41   Atom       -0.000000      0.000000     -0.000000
    42   Atom       -0.000000     -0.000000      0.000000
    43   Atom       -0.000000     -0.000000      0.000000
    44   Atom       -0.000000      0.000000     -0.000000
    45   Atom        0.000000      0.000000      0.000000
    46   Atom        0.000000      0.000000      0.000000
    47   Atom        0.000000     -0.000000      0.000000
    48   Atom       -0.000000      0.000000     -0.000000
    49   Atom        0.000000     -0.000000     -0.000000
    50   Atom        0.000000      0.000000      0.000000
 --------------------------------------------------------


 ---------------------------------------------------------------------------------
              Anisotropic Spin Dipole Couplings in Principal Axis System
 ---------------------------------------------------------------------------------

       Atom             a.u.   MegaHertz   Gauss  10(-4) cm-1        Axes

              Baa    -0.0000    -0.000    -0.000    -0.000  0.9949 -0.0240 -0.0981
     1 C(13)  Bbb    -0.0000    -0.000    -0.000    -0.000 -0.0014  0.9681 -0.2505
              Bcc     0.0000     0.000     0.000     0.000  0.1009  0.2493  0.9631
 
              Baa    -0.0000    -0.000    -0.000    -0.000  0.2448  0.9415 -0.2316
     2 C(13)  Bbb     0.0000     0.000     0.000     0.000  0.0199  0.2339  0.9720
              Bcc     0.0000     0.000     0.000     0.000  0.9694 -0.2426  0.0385
 
              Baa    -0.0000    -0.000    -0.000    -0.000  0.6310  0.7608 -0.1521
     3 C(13)  Bbb     0.0000     0.000     0.000     0.000  0.7591 -0.5648  0.3237
              Bcc     0.0000     0.000     0.000     0.000 -0.1603  0.3197  0.9338
 
              Baa    -0.0000    -0.000    -0.000    -0.000  0.8315 -0.5156 -0.2071
     4 F(19)  Bbb     0.0000     0.000     0.000     0.000  0.1902 -0.0861  0.9780
              Bcc     0.0000     0.000     0.000     0.000  0.5220  0.8525 -0.0265
 
              Baa    -0.0000    -0.000    -0.000    -0.000  0.8778  0.2226 -0.4243
     5 C(13)  Bbb    -0.0000    -0.000    -0.000    -0.000  0.3750  0.2319  0.8975
              Bcc     0.0000     0.000     0.000     0.000 -0.2981  0.9469 -0.1200
 
              Baa    -0.0000    -0.000    -0.000    -0.000 -0.5005  0.8607 -0.0930
     6 C(13)  Bbb     0.0000     0.000     0.000     0.000  0.0154  0.1162  0.9931
              Bcc     0.0000     0.000     0.000     0.000  0.8656  0.4956 -0.0714
 
              Baa    -0.0000    -0.000    -0.000    -0.000 -0.3119  0.9413  0.1293
     7 F(19)  Bbb    -0.0000    -0.000    -0.000    -0.000 -0.2623 -0.2161  0.9405
              Bcc     0.0000     0.000     0.000     0.000  0.9132  0.2595  0.3143
 
              Baa    -0.0000    -0.000    -0.000    -0.000  0.3399  0.8800 -0.3316
     8 C(13)  Bbb     0.0000     0.000     0.000     0.000  0.8267 -0.1115  0.5515
              Bcc     0.0000     0.000     0.000     0.000 -0.4484  0.4616  0.7654
 
              Baa    -0.0000    -0.000    -0.000    -0.000  0.0193  0.6222  0.7826
     9 C(13)  Bbb    -0.0000    -0.000    -0.000    -0.000  0.0129  0.7825 -0.6225
              Bcc     0.0000     0.000     0.000     0.000  0.9997 -0.0220 -0.0071
 
              Baa    -0.0000    -0.000    -0.000    -0.000  0.0057 -0.3335  0.9427
    10 N(14)  Bbb     0.0000     0.000     0.000     0.000  0.1156  0.9367  0.3306
              Bcc     0.0000     0.000     0.000     0.000  0.9933 -0.1071 -0.0439
 
              Baa    -0.0000    -0.000    -0.000    -0.000  0.8951  0.2993  0.3305
    11 C(13)  Bbb     0.0000     0.000     0.000     0.000 -0.1763 -0.4431  0.8789
              Bcc     0.0000     0.000     0.000     0.000 -0.4095  0.8450  0.3439
 
              Baa    -0.0000    -0.000    -0.000    -0.000  0.1890  0.8625  0.4695
    12 C(13)  Bbb    -0.0000    -0.000    -0.000    -0.000  0.3815 -0.5051  0.7742
              Bcc     0.0000     0.000     0.000     0.000  0.9048  0.0328 -0.4245
 
              Baa    -0.0000    -0.000    -0.000    -0.000 -0.1176  0.7763  0.6193
    13 S(33)  Bbb    -0.0000    -0.000    -0.000    -0.000  0.3316 -0.5571  0.7614
              Bcc     0.0000     0.000     0.000     0.000  0.9361  0.2949 -0.1919
 
              Baa    -0.0000    -0.000    -0.000    -0.000  0.9145 -0.3642  0.1763
    14 C(13)  Bbb     0.0000     0.000     0.000     0.000  0.3637  0.9308  0.0367
              Bcc     0.0000     0.000     0.000     0.000 -0.1774  0.0306  0.9837
 
              Baa    -0.0000    -0.000    -0.000    -0.000 -0.1735  0.9740 -0.1454
    15 C(13)  Bbb     0.0000     0.000     0.000     0.000  0.9625  0.1990  0.1842
              Bcc     0.0000     0.000     0.000     0.000 -0.2083  0.1080  0.9721
 
              Baa    -0.0000    -0.000    -0.000    -0.000  0.7070 -0.6903  0.1539
    16 C(13)  Bbb    -0.0000    -0.000    -0.000    -0.000  0.6397  0.7169  0.2772
              Bcc     0.0000     0.000     0.000     0.000 -0.3017 -0.0975  0.9484
 
              Baa    -0.0000    -0.000    -0.000    -0.000  0.6210  0.7812 -0.0635
    17 F(19)  Bbb     0.0000     0.000     0.000     0.000 -0.2498  0.2740  0.9287
              Bcc     0.0000     0.000     0.000     0.000  0.7429 -0.5609  0.3653
 
              Baa    -0.0000    -0.000    -0.000    -0.000  0.0950  0.9134 -0.3957
    18 C(13)  Bbb     0.0000     0.000     0.000     0.000  0.0964  0.3872  0.9169
              Bcc     0.0000     0.000     0.000     0.000  0.9908 -0.1253 -0.0513
 
              Baa    -0.0000    -0.000    -0.000    -0.000  0.9876 -0.1570 -0.0026
    19 C(13)  Bbb     0.0000     0.000     0.000     0.000  0.0157  0.0823  0.9965
              Bcc     0.0000     0.000     0.000     0.000  0.1562  0.9842 -0.0838
 
              Baa    -0.0000    -0.000    -0.000    -0.000  0.9805  0.1959 -0.0164
    20 F(19)  Bbb     0.0000     0.000     0.000     0.000 -0.0005  0.0859  0.9963
              Bcc     0.0000     0.000     0.000     0.000 -0.1966  0.9768 -0.0844
 
              Baa    -0.0000    -0.000    -0.000    -0.000 -0.0777  0.1098  0.9909
    21 C(13)  Bbb     0.0000     0.000     0.000     0.000 -0.5802  0.8033 -0.1345
              Bcc     0.0000     0.000     0.000     0.000  0.8107  0.5854 -0.0014
 
              Baa    -0.0000    -0.000    -0.000    -0.000 -0.1487 -0.2854  0.9468
    22 C(13)  Bbb     0.0000     0.000     0.000     0.000  0.8124 -0.5812 -0.0476
              Bcc     0.0000     0.000     0.000     0.000  0.5639  0.7621  0.3183
 
              Baa    -0.0000    -0.000    -0.000    -0.000  0.4882  0.7737  0.4038
    23 N(14)  Bbb     0.0000     0.000     0.000     0.000  0.8655 -0.4885 -0.1106
              Bcc     0.0000     0.000     0.000     0.000 -0.1117 -0.4035  0.9081
 
              Baa    -0.0000    -0.000    -0.000    -0.000 -0.0617 -0.6406  0.7654
    24 C(13)  Bbb    -0.0000    -0.000    -0.000    -0.000  0.7641 -0.5237 -0.3767
              Bcc     0.0000     0.000     0.000     0.000  0.6422  0.5615  0.5218
 
              Baa    -0.0000    -0.000    -0.000    -0.000  0.7186 -0.6192 -0.3167
    25 C(13)  Bbb    -0.0000    -0.000    -0.000    -0.000  0.6696  0.7390  0.0745
              Bcc     0.0000     0.000     0.000     0.000  0.1879 -0.2656  0.9456
 
              Baa    -0.0000    -0.000    -0.000    -0.000  0.2718 -0.3476  0.8974
    26 S(33)  Bbb     0.0000     0.000     0.000     0.000  0.4479  0.8710  0.2018
              Bcc     0.0000     0.000     0.000     0.000  0.8518 -0.3471 -0.3924
 
              Baa    -0.0000    -0.000    -0.000    -0.000  0.0371  0.2328  0.9718
    27 C(13)  Bbb     0.0000     0.000     0.000     0.000  0.2522  0.9388 -0.2345
              Bcc     0.0000     0.000     0.000     0.000  0.9670 -0.2538  0.0239
 
              Baa    -0.0000    -0.000    -0.000    -0.000  0.8578  0.5095  0.0679
    28 C(13)  Bbb    -0.0000    -0.000    -0.000    -0.000 -0.4790  0.8402 -0.2542
              Bcc     0.0000     0.000     0.000     0.000 -0.1866  0.1855  0.9648
 
              Baa    -0.0000    -0.000    -0.000    -0.000  0.9241 -0.3811  0.0277
    29 C(13)  Bbb     0.0000     0.000     0.000     0.000  0.1283  0.3777  0.9170
              Bcc     0.0000     0.000     0.000     0.000  0.3600  0.8438 -0.3979
 
              Baa    -0.0000    -0.000    -0.000    -0.000  0.1693  0.8688 -0.4653
    30 F(19)  Bbb    -0.0000    -0.000    -0.000    -0.000  0.1332  0.4476  0.8843
              Bcc     0.0000     0.000     0.000     0.000  0.9765 -0.2117 -0.0399
 
              Baa    -0.0000    -0.000    -0.000    -0.000  0.9912  0.1182 -0.0588
    31 C(13)  Bbb    -0.0000    -0.000    -0.000    -0.000 -0.1276  0.9718 -0.1984
              Bcc     0.0000     0.000     0.000     0.000  0.0337  0.2041  0.9784
 
              Baa    -0.0000    -0.000    -0.000    -0.000  0.6185  0.3668  0.6949
    32 C(13)  Bbb    -0.0000    -0.000    -0.000    -0.000 -0.6124 -0.3292  0.7188
              Bcc     0.0000     0.000     0.000     0.000 -0.4924  0.8701 -0.0210
 
              Baa    -0.0000    -0.000    -0.000    -0.000 -0.2266  0.9665 -0.1206
    33 F(19)  Bbb    -0.0000    -0.000    -0.000    -0.000  0.0352  0.1319  0.9906
              Bcc     0.0000     0.000     0.000     0.000  0.9734  0.2202 -0.0639
 
              Baa    -0.0000    -0.000    -0.000    -0.000  0.2688  0.9539 -0.1332
    34 C(13)  Bbb     0.0000     0.000     0.000     0.000  0.3082  0.0459  0.9502
              Bcc     0.0000     0.000     0.000     0.000  0.9125 -0.2965 -0.2817
 
              Baa    -0.0000    -0.000    -0.000    -0.000  0.9753  0.2187 -0.0313
    35 C(13)  Bbb    -0.0000    -0.000    -0.000    -0.000  0.1169 -0.3903  0.9132
              Bcc     0.0000     0.000     0.000     0.000 -0.1875  0.8943  0.4062
 
              Baa    -0.0000    -0.000    -0.000    -0.000 -0.0249  0.9991 -0.0356
    36 N(14)  Bbb    -0.0000    -0.000    -0.000    -0.000  0.8776  0.0048 -0.4794
              Bcc     0.0000     0.000     0.000     0.000  0.4787  0.0432  0.8769
 
              Baa    -0.0000    -0.000    -0.000    -0.000 -0.4893  0.7848  0.3803
    37 C(13)  Bbb    -0.0000    -0.000    -0.000    -0.000  0.5700 -0.0422  0.8206
              Bcc     0.0000     0.000     0.000     0.000  0.6601  0.6183 -0.4267
 
              Baa    -0.0000    -0.000    -0.000    -0.000  0.4080  0.7821  0.4710
    38 C(13)  Bbb     0.0000     0.000     0.000     0.000 -0.1762 -0.4388  0.8811
              Bcc     0.0000     0.000     0.000     0.000  0.8958 -0.4426 -0.0412
 
              Baa    -0.0000    -0.000    -0.000    -0.000 -0.2821  0.5209  0.8056
    39 S(33)  Bbb    -0.0000    -0.000    -0.000    -0.000 -0.1538  0.8043 -0.5739
              Bcc     0.0000     0.000     0.000     0.000  0.9470  0.2858  0.1468
 
              Baa    -0.0000    -0.000    -0.000    -0.000  0.1764  0.9675 -0.1813
    40 H(1)   Bbb     0.0000     0.000     0.000     0.000  0.9833 -0.1649  0.0767
              Bcc     0.0000     0.000     0.000     0.000 -0.0443  0.1918  0.9804
 
              Baa    -0.0000    -0.000    -0.000    -0.000  0.6411  0.7666  0.0355
    41 H(1)   Bbb    -0.0000    -0.000    -0.000    -0.000 -0.1789  0.1044  0.9783
              Bcc     0.0000     0.000     0.000     0.000  0.7463 -0.6336  0.2041
 
              Baa    -0.0000    -0.000    -0.000    -0.000  0.1481  0.9800 -0.1331
    42 H(1)   Bbb     0.0000     0.000     0.000     0.000  0.1609  0.1089  0.9809
              Bcc     0.0000     0.000     0.000     0.000  0.9758 -0.1667 -0.1416
 
              Baa    -0.0000    -0.000    -0.000    -0.000  0.6664 -0.2383  0.7065
    43 H(1)   Bbb    -0.0000    -0.000    -0.000    -0.000  0.5869  0.7521 -0.2999
              Bcc     0.0000     0.000     0.000     0.000 -0.4599  0.6145  0.6410
 
              Baa    -0.0000    -0.000    -0.000    -0.000 -0.1330  0.2393  0.9618
    44 H(1)   Bbb     0.0000     0.000     0.000     0.000  0.7801  0.6238 -0.0473
              Bcc     0.0000     0.000     0.000     0.000 -0.6113  0.7440 -0.2697
 
              Baa    -0.0000    -0.000    -0.000    -0.000 -0.3113  0.9391 -0.1457
    45 H(1)   Bbb     0.0000     0.000     0.000     0.000 -0.4361 -0.0049  0.8999
              Bcc     0.0000     0.000     0.000     0.000  0.8443  0.3437  0.4111
 
              Baa    -0.0000    -0.000    -0.000    -0.000  0.1837 -0.4710  0.8628
    46 H(1)   Bbb    -0.0000    -0.000    -0.000    -0.000  0.9466 -0.1518 -0.2844
              Bcc     0.0000     0.000     0.000     0.000  0.2649  0.8690  0.4179
 
              Baa    -0.0000    -0.000    -0.000    -0.000 -0.3828  0.9181 -0.1024
    47 H(1)   Bbb     0.0000     0.000     0.000     0.000  0.0013  0.1114  0.9938
              Bcc     0.0000     0.000     0.000     0.000  0.9238  0.3803 -0.0438
 
              Baa    -0.0000    -0.000    -0.000    -0.000  0.9601  0.1236 -0.2508
    48 H(1)   Bbb     0.0000     0.000     0.000     0.000  0.2328  0.1432  0.9619
              Bcc     0.0000     0.000     0.000     0.000 -0.1548  0.9820 -0.1087
 
              Baa    -0.0000    -0.000    -0.000    -0.000 -0.0839  0.9942  0.0673
    49 H(1)   Bbb     0.0000     0.000     0.000     0.000  0.5530 -0.0098  0.8331
              Bcc     0.0000     0.000     0.000     0.000  0.8290  0.1071 -0.5490
 
              Baa    -0.0000    -0.000    -0.000    -0.000 -0.1547  0.9877  0.0203
    50 H(1)   Bbb    -0.0000    -0.000    -0.000    -0.000 -0.3859 -0.0794  0.9191
              Bcc     0.0000     0.000     0.000     0.000  0.9095  0.1344  0.3934
 

 ---------------------------------------------------------------------------------

 No NMR shielding tensors so no spin-rotation constants.
 Leave Link  601 at Thu Jul 23 12:45:48 2020, MaxMem=  4026531840 cpu:              12.6 elap:               2.8
 (Enter /opt/ohpc/pub/libs/gaussian/g16-A.03/sandybridge/g16/l9999.exe)

 Test job not archived.
 1\1\GINC-SKYLAKE046\FOpt\ULC-wPBE\CC-pVDZ\C27H11F6N3S3\RDU230\23-Jul-2
 020\0\\#P uLC-wPBE/cc-pVDZ iop(3/107=0403700000, 3/108=0403700000) opt
 \\H11 C27 S3 N3 F6\\0,1\C,-11.4059029524,0.2887722188,-0.1670968711\C,
 -10.5398838752,1.3545998816,0.0275922789\C,-9.1894293506,1.0934007367,
 0.1477491691\F,-8.358174134,2.1302759467,0.3275147028\C,-8.6448660866,
 -0.1891938482,0.0918216057\C,-9.5587428216,-1.2263387034,-0.1160963122
 \F,-9.1172351151,-2.4767658476,-0.2187090894\C,-10.9186979761,-1.00699
 45748,-0.2436570602\C,-7.2043300526,-0.4527633747,0.25628096\N,-6.7348
 321152,-1.5439755176,0.7847601195\C,-5.3732613455,-1.5436303362,0.7684
 691863\C,-4.7723656912,-0.4482254564,0.21904519\S,-5.991003618,0.65074
 50237,-0.2961839911\C,-3.3360821659,-0.1703272606,0.0832081607\C,-2.43
 46568531,-1.2240986747,-0.0609194834\C,-1.0883104203,-0.9486218422,-0.
 1679187203\F,-0.2486835974,-1.985332282,-0.2985321865\C,-0.5535807574,
 0.3394846225,-0.1595451192\C,-1.490176232,1.3665562624,-0.0103369751\F
 ,-1.0772358636,2.6282956817,0.0489813528\C,-2.846808757,1.1340485747,0
 .1096325021\C,0.8844739632,0.6140103137,-0.3151371861\N,1.3479490004,1
 .7158591526,-0.8275219085\C,2.7092147299,1.7247400178,-0.808936996\C,3
 .3169383677,0.6259431103,-0.2739969114\S,2.1057189715,-0.4886968924,0.
 2238077552\C,4.7551429075,0.3560287611,-0.1384294082\C,5.647292515,1.4
 137033175,0.03077251\C,6.9961098039,1.1469877058,0.1372162559\F,7.8269
 456952,2.1866127858,0.2938307112\C,7.5391997109,-0.1363355931,0.103215
 9896\C,6.6123812404,-1.1671538539,-0.0696959293\F,7.0383916519,-2.4237
 067,-0.1531931718\C,5.2539686439,-0.9439679269,-0.1898185548\C,8.97972
 50926,-0.4050425268,0.2591815818\N,9.4446079876,-1.4828524406,0.816498
 3675\C,10.8104133441,-1.4924388631,0.7891973979\C,11.3972476365,-0.417
 4752236,0.2016395381\S,10.1977122995,0.6733920053,-0.3357791997\H,-12.
 476410666,0.4716811849,-0.2654580893\H,-10.8862513965,2.3850676172,0.0
 896514833\H,-11.5715715356,-1.8633680348,-0.4065043856\H,-4.8393313092
 ,-2.3850693888,1.2090757283\H,-2.7614493328,-2.2610725601,-0.114969029
 6\H,-3.5038055447,1.9926587272,0.2455545722\H,3.2381433643,2.576026217
 8,-1.2363742156\H,5.3113187186,2.4464906616,0.105686937\H,4.6039417067
 ,-1.8045387447,-0.3455829753\H,11.3446804269,-2.333815741,1.2285160703
 \H,12.4568017874,-0.2099303191,0.0754926437\\Version=EM64L-G16RevA.03\
 State=1-A\HF=-2991.8943462\S2=0.\S2-1=0.\S2A=0.\RMSD=5.303e-09\RMSF=3.
 224e-06\Dipole=-1.0976777,0.4066296,-0.2560665\Quadrupole=37.6385383,-
 17.8320844,-19.8064539,-1.9660411,0.8068252,0.3202225\PG=C01 [X(C27H11
 F6N3S3)]\\@


 A CHEMICAL PHYSICIST MAKES PRECISE MEASUREMENTS ON IMPURE COMPOUNDS.
 A THEORETICAL PHYSICAL CHEMIST MAKES IMPRECISE
     MEASUREMENTS ON PURE COMPOUNDS.
 AN EXPERIMENTAL PHYSICAL CHEMIST MAKES IMPRECISE
     MEASUREMENTS ON IMPURE COMPOUNDS.
 Job cpu time:       0 days 20 hours 30 minutes 50.5 seconds.
 Elapsed time:       0 days  2 hours 45 minutes 19.8 seconds.
 File lengths (MBytes):  RWF=    472 Int=      0 D2E=      0 Chk=     44 Scr=      8
 Normal termination of Gaussian 16 at Thu Jul 23 12:45:49 2020.
