 Entering Gaussian System, Link 0=g16
 Input=mols_65_7_23_n-cF-COC_opt_0.gjf
 Output=mols_65_7_23_n-cF-COC_opt_0.log
 Initial command:
 /opt/ohpc/pub/libs/gaussian/g16-A.03/sandybridge/g16/l1.exe "/mnt/gpfs2_4m/scratch/rdu230/ondemand/projects/dihedral_energies/7trial/wtuning/mols_65_7_23_n-cF-COC/Gau-17780.inp" -scrdir="/mnt/gpfs2_4m/scratch/rdu230/ondemand/projects/dihedral_energies/7trial/wtuning/mols_65_7_23_n-cF-COC/"
 Entering Link 1 = /opt/ohpc/pub/libs/gaussian/g16-A.03/sandybridge/g16/l1.exe PID=     17781.
  
 Copyright (c) 1988,1990,1992,1993,1995,1998,2003,2009,2016,
            Gaussian, Inc.  All Rights Reserved.
  
 This is part of the Gaussian(R) 16 program.  It is based on
 the Gaussian(R) 09 system (copyright 2009, Gaussian, Inc.),
 the Gaussian(R) 03 system (copyright 2003, Gaussian, Inc.),
 the Gaussian(R) 98 system (copyright 1998, Gaussian, Inc.),
 the Gaussian(R) 94 system (copyright 1995, Gaussian, Inc.),
 the Gaussian 92(TM) system (copyright 1992, Gaussian, Inc.),
 the Gaussian 90(TM) system (copyright 1990, Gaussian, Inc.),
 the Gaussian 88(TM) system (copyright 1988, Gaussian, Inc.),
 the Gaussian 86(TM) system (copyright 1986, Carnegie Mellon
 University), and the Gaussian 82(TM) system (copyright 1983,
 Carnegie Mellon University). Gaussian is a federally registered
 trademark of Gaussian, Inc.
  
 This software contains proprietary and confidential information,
 including trade secrets, belonging to Gaussian, Inc.
  
 This software is provided under written license and may be
 used, copied, transmitted, or stored only in accord with that
 written license.
  
 The following legend is applicable only to US Government
 contracts under FAR:
  
                    RESTRICTED RIGHTS LEGEND
  
 Use, reproduction and disclosure by the US Government is
 subject to restrictions as set forth in subparagraphs (a)
 and (c) of the Commercial Computer Software - Restricted
 Rights clause in FAR 52.227-19.
  
 Gaussian, Inc.
 340 Quinnipiac St., Bldg. 40, Wallingford CT 06492
  
  
 ---------------------------------------------------------------
 Warning -- This program may not be used in any manner that
 competes with the business of Gaussian, Inc. or will provide
 assistance to any competitor of Gaussian, Inc.  The licensee
 of this program is prohibited from giving any competitor of
 Gaussian, Inc. access to this program.  By using this program,
 the user acknowledges that Gaussian, Inc. is engaged in the
 business of creating and licensing software in the field of
 computational chemistry and represents and warrants to the
 licensee that it is not a competitor of Gaussian, Inc. and that
 it will not use this program in any manner prohibited above.
 ---------------------------------------------------------------
  

 Cite this work as:
 Gaussian 16, Revision A.03,
 M. J. Frisch, G. W. Trucks, H. B. Schlegel, G. E. Scuseria, 
 M. A. Robb, J. R. Cheeseman, G. Scalmani, V. Barone, 
 G. A. Petersson, H. Nakatsuji, X. Li, M. Caricato, A. V. Marenich, 
 J. Bloino, B. G. Janesko, R. Gomperts, B. Mennucci, H. P. Hratchian, 
 J. V. Ortiz, A. F. Izmaylov, J. L. Sonnenberg, D. Williams-Young, 
 F. Ding, F. Lipparini, F. Egidi, J. Goings, B. Peng, A. Petrone, 
 T. Henderson, D. Ranasinghe, V. G. Zakrzewski, J. Gao, N. Rega, 
 G. Zheng, W. Liang, M. Hada, M. Ehara, K. Toyota, R. Fukuda, 
 J. Hasegawa, M. Ishida, T. Nakajima, Y. Honda, O. Kitao, H. Nakai, 
 T. Vreven, K. Throssell, J. A. Montgomery, Jr., J. E. Peralta, 
 F. Ogliaro, M. J. Bearpark, J. J. Heyd, E. N. Brothers, K. N. Kudin, 
 V. N. Staroverov, T. A. Keith, R. Kobayashi, J. Normand, 
 K. Raghavachari, A. P. Rendell, J. C. Burant, S. S. Iyengar, 
 J. Tomasi, M. Cossi, J. M. Millam, M. Klene, C. Adamo, R. Cammi, 
 J. W. Ochterski, R. L. Martin, K. Morokuma, O. Farkas, 
 J. B. Foresman, and D. J. Fox, Gaussian, Inc., Wallingford CT, 2016.
 
 ******************************************
 Gaussian 16:  EM64L-G16RevA.03 25-Dec-2016
                25-Jul-2020 
 ******************************************
 %mem=30GB
 %nproc=8
 Will use up to    8 processors via shared memory.
 ---------------------------------------------------------------
 #P uLC-wPBE/cc-pVDZ iop(3/107=0352900000, 3/108=0352900000) opt
 ---------------------------------------------------------------
 1/18=20,19=15,26=3,38=1/1,3;
 2/9=110,12=2,17=6,18=5,40=1/2;
 3/5=16,11=2,25=1,30=1,71=1,74=-41,107=352900000,108=352900000,116=2/1,2,3;
 4//1;
 5/5=2,38=5/2;
 6/7=2,8=2,9=2,10=2,28=1/1;
 7//1,2,3,16;
 1/18=20,19=15,26=3/3(2);
 2/9=110/2;
 99//99;
 2/9=110/2;
 3/5=16,11=2,25=1,30=1,71=1,74=-41,107=352900000,108=352900000,116=2/1,2,3;
 4/5=5,16=3,69=1/1;
 5/5=2,38=5/2;
 7//1,2,3,16;
 1/18=20,19=15,26=3/3(-5);
 2/9=110/2;
 6/7=2,8=2,9=2,10=2,19=2,28=1/1;
 99/9=1/99;
 Leave Link    1 at Sat Jul 25 05:27:48 2020, MaxMem=  4026531840 cpu:               1.3 elap:               0.2
 (Enter /opt/ohpc/pub/libs/gaussian/g16-A.03/sandybridge/g16/l101.exe)
 -------------------
 H44 C70 S7 N7 O7 F7
 -------------------
 Symbolic Z-matrix:
 Charge =  0 Multiplicity = 1
 C                    -24.14144   6.91488  -0.28971 
 C                    -23.06472   6.63032   0.49578 
 N                    -22.41425   5.46665   0.49648 
 C                    -22.80548   4.58502  -0.33694 
 C                    -23.94163   4.70874  -1.22942 
 F                    -24.23543   3.78798  -2.05896 
 C                    -24.62087   5.9207   -1.21893 
 C                    -21.9833   3.33527  -0.34282 
 C                    -22.46731   1.96147  -0.35572 
 O                    -23.80159   1.66133  -0.30423 
 C                    -24.10796   0.3678   -0.49061 
 C                    -21.29718   1.06956  -0.31725 
 C                    -20.10915   1.66281  -0.23694 
 S                    -20.34355   3.4054   -0.35217 
 C                    -18.75453   1.07659  -0.17501 
 C                    -18.4285  -0.05245  -0.98919 
 N                    -17.31425  -0.65888  -0.96732 
 C                    -16.36624  -0.15638  -0.07992 
 C                    -16.53803   0.97455   0.64725 
 F                    -15.60473   1.42898   1.57502 
 C                    -17.77469   1.63572   0.59813 
 C                    -15.08479  -0.92647  -0.01582 
 C                    -14.93254  -2.27967   0.25412 
 O                    -16.06389  -3.04949   0.49331 
 C                    -15.94355  -4.48137   0.19191 
 C                    -13.61231  -2.73376   0.30281 
 C                    -12.74157  -1.72978   0.00378 
 S                    -13.54801  -0.19935  -0.33077 
 C                    -11.2776  -1.74835  -0.02431 
 C                    -10.54921  -2.78221  -0.63325 
 N                    -9.24516  -2.94732  -0.55454 
 C                    -8.52465  -1.99656   0.16674 
 C                    -9.11372  -0.92128   0.737 
 F                    -8.38515  -0.02512   1.53672 
 C                    -10.45466  -0.78356   0.69727 
 C                    -7.15241  -2.32859   0.38446 
 C                    -6.51653  -3.42499   1.01243 
 O                    -7.32888  -4.39445   1.57417 
 C                    -6.94569  -5.69458   1.38939 
 C                    -5.17346  -3.42488   1.05348 
 C                    -4.61884  -2.26539   0.39149 
 S                    -5.93149  -1.29643  -0.20628 
 C                    -3.22204  -1.80159   0.35786 
 C                    -2.13009  -2.68163   0.74264 
 N                    -0.87379  -2.31285   0.76867 
 C                    -0.51935  -1.1083    0.24357 
 C                    -1.49273  -0.2779   -0.20263 
 F                    -1.0939    0.90898  -0.7058 
 C                    -2.76807  -0.60781  -0.14501 
 C                     0.88916  -0.78871   0.36568 
 C                     1.58403   0.31528   0.70034 
 O                     0.82598   1.45155   1.11536 
 C                     1.52832   2.62331   1.38469 
 C                     2.95551   0.20788   0.64873 
 C                     3.39004  -0.96835   0.26448 
 S                     2.0434   -2.06136  -0.10921 
 C                     4.78153  -1.55153   0.07723 
 C                     5.7644   -0.78724  -0.62006 
 N                     7.0419   -1.21038  -0.71023 
 C                     7.42393  -2.35573  -0.14973 
 C                     6.44863  -3.12802   0.56638 
 F                     6.88838  -4.24208   1.1791 
 C                     5.13497  -2.74696   0.72364 
 C                     8.73056  -2.77824  -0.36046 
 C                     9.30232  -4.03391  -0.75291 
 O                     8.40866  -5.08662  -0.93697 
 C                     9.04113  -6.36683  -1.01746 
 C                     10.73874  -4.02238  -0.84436 
 C                     11.26821  -2.72027  -0.56146 
 S                     10.0044  -1.58966  -0.17474 
 C                     12.65027  -2.34743  -0.48621 
 C                     13.12181  -1.24054  -1.15974 
 N                     14.44109  -0.78462  -1.15204 
 C                     15.33603  -1.57425  -0.55414 
 C                     14.97083  -2.67688   0.10435 
 F                     15.89154  -3.50078   0.79197 
 C                     13.5824  -3.12419   0.11231 
 C                     16.67701  -1.08311  -0.54543 
 C                     17.85546  -1.712    -0.78892 
 O                     17.81723  -3.03356  -1.21415 
 C                     19.15406  -3.54124  -1.50367 
 C                     19.05343  -0.82764  -0.68513 
 C                     18.64981   0.51237  -0.34357 
 S                     16.93517   0.63929  -0.19 
 C                     19.54805   1.6041   -0.11152 
 C                     20.70626   1.82806  -0.98062 
 N                     21.5385   2.83734  -0.81278 
 C                     21.28329   3.77385   0.11125 
 C                     20.11139   3.66821   0.96211 
 F                     19.8881   4.62043   1.84415 
 C                     19.28409   2.55655   0.83123 
 C                     22.18243   4.89334   0.15569 
 C                     21.84343   6.31491   0.07491 
 O                     20.62446   6.73017  -0.1173 
 C                     20.38774   8.1345   -0.05297 
 C                     23.06127   7.10705   0.21567 
 C                     24.15987   6.29527   0.37525 
 S                     23.80762   4.62455   0.35713 
 H                    -24.69284   7.82817  -0.22108 
 H                    -22.70729   7.43053   1.25413 
 H                    -25.44319   6.02187  -1.80565 
 H                    -25.1503   0.23829  -0.50384 
 H                    -23.72374  -0.27204   0.37188 
 H                    -23.62466  -0.10114  -1.38685 
 H                    -21.39461  -0.01335  -0.22633 
 H                    -19.22381  -0.49956  -1.63332 
 H                    -17.96813   2.49613   1.26092 
 H                    -15.19748  -4.93702   0.89654 
 H                    -15.5684  -4.57016  -0.81269 
 H                    -16.84588  -4.93925   0.28273 
 H                    -13.27661  -3.76855   0.49752 
 H                    -11.04202  -3.55981  -1.15895 
 H                    -10.94174   0.08351   1.14688 
 H                    -7.74504  -6.42159   1.72577 
 H                    -6.77265  -5.87519   0.29893 
 H                    -6.03319  -5.95105   1.92234 
 H                    -4.51957  -4.07876   1.58113 
 H                    -2.40515  -3.63438   1.1763 
 H                    -3.49819   0.17414  -0.55078 
 H                     0.82709   3.38046   1.6528 
 H                     2.06771   2.88401   0.4585 
 H                     2.25514   2.55104   2.16373 
 H                     3.70205   1.06957   0.94077 
 H                     5.51172   0.07851  -1.07133 
 H                     4.53073  -3.31862   1.29171 
 H                     8.2784   -7.14396  -1.006 
 H                     9.67948  -6.55964  -0.15273 
 H                     9.6745   -6.42941  -1.86202 
 H                     11.31128  -4.82506  -1.05998 
 H                     12.38114  -0.50473  -1.67835 
 H                     13.38752  -4.0681    0.58605 
 H                     18.99735  -4.63455  -1.76728 
 H                     19.55138  -3.09704  -2.32038 
 H                     19.78421  -3.5539   -0.66969 
 H                     19.99034  -1.15371  -0.83867 
 H                     20.95844   1.14853  -1.75192 
 H                     18.40864   2.56021   1.4986 
 H                     19.34426   8.25183  -0.09177 
 H                     20.94678   8.66785  -0.79968 
 H                     20.71606   8.46931   0.9237 
 H                     23.12     8.17774   0.06686 
 H                     25.16953   6.68196   0.49578 
 
 ITRead=  0  0  0  0  0  0  0  0  0  0  0  0  0  0  0  0  0  0  0  0
 ITRead=  0  0  0  0  0  0  0  0  0  0  0  0  0  0  0  0  0  0  0  0
 ITRead=  0  0  0  0  0  0  0  0  0  0  0  0  0  0  0  0  0  0  0  0
 ITRead=  0  0  0  0  0  0  0  0  0  0  0  0  0  0  0  0  0  0  0  0
 ITRead=  0  0  0  0  0  0  0  0  0  0  0  0  0  0  0  0  0  0  0  0
 ITRead=  0  0  0  0  0  0  0  0  0  0  0  0  0  0  0  0  0  0  0  0
 ITRead=  0  0  0  0  0  0  0  0  0  0  0  0  0  0  0  0  0  0  0  0
 ITRead=  0  0
 MicOpt= -1 -1 -1 -1 -1 -1 -1 -1 -1 -1 -1 -1 -1 -1 -1 -1 -1 -1 -1 -1
 MicOpt= -1 -1 -1 -1 -1 -1 -1 -1 -1 -1 -1 -1 -1 -1 -1 -1 -1 -1 -1 -1
 MicOpt= -1 -1 -1 -1 -1 -1 -1 -1 -1 -1 -1 -1 -1 -1 -1 -1 -1 -1 -1 -1
 MicOpt= -1 -1 -1 -1 -1 -1 -1 -1 -1 -1 -1 -1 -1 -1 -1 -1 -1 -1 -1 -1
 MicOpt= -1 -1 -1 -1 -1 -1 -1 -1 -1 -1 -1 -1 -1 -1 -1 -1 -1 -1 -1 -1
 MicOpt= -1 -1 -1 -1 -1 -1 -1 -1 -1 -1 -1 -1 -1 -1 -1 -1 -1 -1 -1 -1
 MicOpt= -1 -1 -1 -1 -1 -1 -1 -1 -1 -1 -1 -1 -1 -1 -1 -1 -1 -1 -1 -1
 MicOpt= -1 -1
 NAtoms=    142 NQM=      142 NQMF=       0 NMMI=      0 NMMIF=      0
                NMic=       0 NMicF=      0.
                    Isotopes and Nuclear Properties:
 (Nuclear quadrupole moments (NQMom) in fm**2, nuclear magnetic moments (NMagM)
  in nuclear magnetons)

  Atom         1           2           3           4           5           6           7           8           9          10
 IAtWgt=          12          12          14          12          12          19          12          12          12          16
 AtmWgt=  12.0000000  12.0000000  14.0030740  12.0000000  12.0000000  18.9984033  12.0000000  12.0000000  12.0000000  15.9949146
 NucSpn=           0           0           2           0           0           1           0           0           0           0
 AtZEff=  -0.0000000  -0.0000000  -0.0000000  -0.0000000  -0.0000000  -0.0000000  -0.0000000  -0.0000000  -0.0000000  -0.0000000
 NQMom=    0.0000000   0.0000000   2.0440000   0.0000000   0.0000000   0.0000000   0.0000000   0.0000000   0.0000000   0.0000000
 NMagM=    0.0000000   0.0000000   0.4037610   0.0000000   0.0000000   2.6288670   0.0000000   0.0000000   0.0000000   0.0000000
 AtZNuc=   6.0000000   6.0000000   7.0000000   6.0000000   6.0000000   9.0000000   6.0000000   6.0000000   6.0000000   8.0000000

  Atom        11          12          13          14          15          16          17          18          19          20
 IAtWgt=          12          12          12          32          12          12          14          12          12          19
 AtmWgt=  12.0000000  12.0000000  12.0000000  31.9720718  12.0000000  12.0000000  14.0030740  12.0000000  12.0000000  18.9984033
 NucSpn=           0           0           0           0           0           0           2           0           0           1
 AtZEff=  -0.0000000  -0.0000000  -0.0000000  -0.0000000  -0.0000000  -0.0000000  -0.0000000  -0.0000000  -0.0000000  -0.0000000
 NQMom=    0.0000000   0.0000000   0.0000000   0.0000000   0.0000000   0.0000000   2.0440000   0.0000000   0.0000000   0.0000000
 NMagM=    0.0000000   0.0000000   0.0000000   0.0000000   0.0000000   0.0000000   0.4037610   0.0000000   0.0000000   2.6288670
 AtZNuc=   6.0000000   6.0000000   6.0000000  16.0000000   6.0000000   6.0000000   7.0000000   6.0000000   6.0000000   9.0000000

  Atom        21          22          23          24          25          26          27          28          29          30
 IAtWgt=          12          12          12          16          12          12          12          32          12          12
 AtmWgt=  12.0000000  12.0000000  12.0000000  15.9949146  12.0000000  12.0000000  12.0000000  31.9720718  12.0000000  12.0000000
 NucSpn=           0           0           0           0           0           0           0           0           0           0
 AtZEff=  -0.0000000  -0.0000000  -0.0000000  -0.0000000  -0.0000000  -0.0000000  -0.0000000  -0.0000000  -0.0000000  -0.0000000
 NQMom=    0.0000000   0.0000000   0.0000000   0.0000000   0.0000000   0.0000000   0.0000000   0.0000000   0.0000000   0.0000000
 NMagM=    0.0000000   0.0000000   0.0000000   0.0000000   0.0000000   0.0000000   0.0000000   0.0000000   0.0000000   0.0000000
 AtZNuc=   6.0000000   6.0000000   6.0000000   8.0000000   6.0000000   6.0000000   6.0000000  16.0000000   6.0000000   6.0000000

  Atom        31          32          33          34          35          36          37          38          39          40
 IAtWgt=          14          12          12          19          12          12          12          16          12          12
 AtmWgt=  14.0030740  12.0000000  12.0000000  18.9984033  12.0000000  12.0000000  12.0000000  15.9949146  12.0000000  12.0000000
 NucSpn=           2           0           0           1           0           0           0           0           0           0
 AtZEff=  -0.0000000  -0.0000000  -0.0000000  -0.0000000  -0.0000000  -0.0000000  -0.0000000  -0.0000000  -0.0000000  -0.0000000
 NQMom=    2.0440000   0.0000000   0.0000000   0.0000000   0.0000000   0.0000000   0.0000000   0.0000000   0.0000000   0.0000000
 NMagM=    0.4037610   0.0000000   0.0000000   2.6288670   0.0000000   0.0000000   0.0000000   0.0000000   0.0000000   0.0000000
 AtZNuc=   7.0000000   6.0000000   6.0000000   9.0000000   6.0000000   6.0000000   6.0000000   8.0000000   6.0000000   6.0000000

  Atom        41          42          43          44          45          46          47          48          49          50
 IAtWgt=          12          32          12          12          14          12          12          19          12          12
 AtmWgt=  12.0000000  31.9720718  12.0000000  12.0000000  14.0030740  12.0000000  12.0000000  18.9984033  12.0000000  12.0000000
 NucSpn=           0           0           0           0           2           0           0           1           0           0
 AtZEff=  -0.0000000  -0.0000000  -0.0000000  -0.0000000  -0.0000000  -0.0000000  -0.0000000  -0.0000000  -0.0000000  -0.0000000
 NQMom=    0.0000000   0.0000000   0.0000000   0.0000000   2.0440000   0.0000000   0.0000000   0.0000000   0.0000000   0.0000000
 NMagM=    0.0000000   0.0000000   0.0000000   0.0000000   0.4037610   0.0000000   0.0000000   2.6288670   0.0000000   0.0000000
 AtZNuc=   6.0000000  16.0000000   6.0000000   6.0000000   7.0000000   6.0000000   6.0000000   9.0000000   6.0000000   6.0000000

  Atom        51          52          53          54          55          56          57          58          59          60
 IAtWgt=          12          16          12          12          12          32          12          12          14          12
 AtmWgt=  12.0000000  15.9949146  12.0000000  12.0000000  12.0000000  31.9720718  12.0000000  12.0000000  14.0030740  12.0000000
 NucSpn=           0           0           0           0           0           0           0           0           2           0
 AtZEff=  -0.0000000  -0.0000000  -0.0000000  -0.0000000  -0.0000000  -0.0000000  -0.0000000  -0.0000000  -0.0000000  -0.0000000
 NQMom=    0.0000000   0.0000000   0.0000000   0.0000000   0.0000000   0.0000000   0.0000000   0.0000000   2.0440000   0.0000000
 NMagM=    0.0000000   0.0000000   0.0000000   0.0000000   0.0000000   0.0000000   0.0000000   0.0000000   0.4037610   0.0000000
 AtZNuc=   6.0000000   8.0000000   6.0000000   6.0000000   6.0000000  16.0000000   6.0000000   6.0000000   7.0000000   6.0000000

  Atom        61          62          63          64          65          66          67          68          69          70
 IAtWgt=          12          19          12          12          12          16          12          12          12          32
 AtmWgt=  12.0000000  18.9984033  12.0000000  12.0000000  12.0000000  15.9949146  12.0000000  12.0000000  12.0000000  31.9720718
 NucSpn=           0           1           0           0           0           0           0           0           0           0
 AtZEff=  -0.0000000  -0.0000000  -0.0000000  -0.0000000  -0.0000000  -0.0000000  -0.0000000  -0.0000000  -0.0000000  -0.0000000
 NQMom=    0.0000000   0.0000000   0.0000000   0.0000000   0.0000000   0.0000000   0.0000000   0.0000000   0.0000000   0.0000000
 NMagM=    0.0000000   2.6288670   0.0000000   0.0000000   0.0000000   0.0000000   0.0000000   0.0000000   0.0000000   0.0000000
 AtZNuc=   6.0000000   9.0000000   6.0000000   6.0000000   6.0000000   8.0000000   6.0000000   6.0000000   6.0000000  16.0000000

  Atom        71          72          73          74          75          76          77          78          79          80
 IAtWgt=          12          12          14          12          12          19          12          12          12          16
 AtmWgt=  12.0000000  12.0000000  14.0030740  12.0000000  12.0000000  18.9984033  12.0000000  12.0000000  12.0000000  15.9949146
 NucSpn=           0           0           2           0           0           1           0           0           0           0
 AtZEff=  -0.0000000  -0.0000000  -0.0000000  -0.0000000  -0.0000000  -0.0000000  -0.0000000  -0.0000000  -0.0000000  -0.0000000
 NQMom=    0.0000000   0.0000000   2.0440000   0.0000000   0.0000000   0.0000000   0.0000000   0.0000000   0.0000000   0.0000000
 NMagM=    0.0000000   0.0000000   0.4037610   0.0000000   0.0000000   2.6288670   0.0000000   0.0000000   0.0000000   0.0000000
 AtZNuc=   6.0000000   6.0000000   7.0000000   6.0000000   6.0000000   9.0000000   6.0000000   6.0000000   6.0000000   8.0000000

  Atom        81          82          83          84          85          86          87          88          89          90
 IAtWgt=          12          12          12          32          12          12          14          12          12          19
 AtmWgt=  12.0000000  12.0000000  12.0000000  31.9720718  12.0000000  12.0000000  14.0030740  12.0000000  12.0000000  18.9984033
 NucSpn=           0           0           0           0           0           0           2           0           0           1
 AtZEff=  -0.0000000  -0.0000000  -0.0000000  -0.0000000  -0.0000000  -0.0000000  -0.0000000  -0.0000000  -0.0000000  -0.0000000
 NQMom=    0.0000000   0.0000000   0.0000000   0.0000000   0.0000000   0.0000000   2.0440000   0.0000000   0.0000000   0.0000000
 NMagM=    0.0000000   0.0000000   0.0000000   0.0000000   0.0000000   0.0000000   0.4037610   0.0000000   0.0000000   2.6288670
 AtZNuc=   6.0000000   6.0000000   6.0000000  16.0000000   6.0000000   6.0000000   7.0000000   6.0000000   6.0000000   9.0000000

  Atom        91          92          93          94          95          96          97          98          99         100
 IAtWgt=          12          12          12          16          12          12          12          32           1           1
 AtmWgt=  12.0000000  12.0000000  12.0000000  15.9949146  12.0000000  12.0000000  12.0000000  31.9720718   1.0078250   1.0078250
 NucSpn=           0           0           0           0           0           0           0           0           1           1
 AtZEff=  -0.0000000  -0.0000000  -0.0000000  -0.0000000  -0.0000000  -0.0000000  -0.0000000  -0.0000000  -0.0000000  -0.0000000
 NQMom=    0.0000000   0.0000000   0.0000000   0.0000000   0.0000000   0.0000000   0.0000000   0.0000000   0.0000000   0.0000000
 NMagM=    0.0000000   0.0000000   0.0000000   0.0000000   0.0000000   0.0000000   0.0000000   0.0000000   2.7928460   2.7928460
 AtZNuc=   6.0000000   6.0000000   6.0000000   8.0000000   6.0000000   6.0000000   6.0000000  16.0000000   1.0000000   1.0000000

  Atom       101         102         103         104         105         106         107         108         109         110
 IAtWgt=           1           1           1           1           1           1           1           1           1           1
 AtmWgt=   1.0078250   1.0078250   1.0078250   1.0078250   1.0078250   1.0078250   1.0078250   1.0078250   1.0078250   1.0078250
 NucSpn=           1           1           1           1           1           1           1           1           1           1
 AtZEff=  -0.0000000  -0.0000000  -0.0000000  -0.0000000  -0.0000000  -0.0000000  -0.0000000  -0.0000000  -0.0000000  -0.0000000
 NQMom=    0.0000000   0.0000000   0.0000000   0.0000000   0.0000000   0.0000000   0.0000000   0.0000000   0.0000000   0.0000000
 NMagM=    2.7928460   2.7928460   2.7928460   2.7928460   2.7928460   2.7928460   2.7928460   2.7928460   2.7928460   2.7928460
 AtZNuc=   1.0000000   1.0000000   1.0000000   1.0000000   1.0000000   1.0000000   1.0000000   1.0000000   1.0000000   1.0000000

  Atom       111         112         113         114         115         116         117         118         119         120
 IAtWgt=           1           1           1           1           1           1           1           1           1           1
 AtmWgt=   1.0078250   1.0078250   1.0078250   1.0078250   1.0078250   1.0078250   1.0078250   1.0078250   1.0078250   1.0078250
 NucSpn=           1           1           1           1           1           1           1           1           1           1
 AtZEff=  -0.0000000  -0.0000000  -0.0000000  -0.0000000  -0.0000000  -0.0000000  -0.0000000  -0.0000000  -0.0000000  -0.0000000
 NQMom=    0.0000000   0.0000000   0.0000000   0.0000000   0.0000000   0.0000000   0.0000000   0.0000000   0.0000000   0.0000000
 NMagM=    2.7928460   2.7928460   2.7928460   2.7928460   2.7928460   2.7928460   2.7928460   2.7928460   2.7928460   2.7928460
 AtZNuc=   1.0000000   1.0000000   1.0000000   1.0000000   1.0000000   1.0000000   1.0000000   1.0000000   1.0000000   1.0000000

  Atom       121         122         123         124         125         126         127         128         129         130
 IAtWgt=           1           1           1           1           1           1           1           1           1           1
 AtmWgt=   1.0078250   1.0078250   1.0078250   1.0078250   1.0078250   1.0078250   1.0078250   1.0078250   1.0078250   1.0078250
 NucSpn=           1           1           1           1           1           1           1           1           1           1
 AtZEff=  -0.0000000  -0.0000000  -0.0000000  -0.0000000  -0.0000000  -0.0000000  -0.0000000  -0.0000000  -0.0000000  -0.0000000
 NQMom=    0.0000000   0.0000000   0.0000000   0.0000000   0.0000000   0.0000000   0.0000000   0.0000000   0.0000000   0.0000000
 NMagM=    2.7928460   2.7928460   2.7928460   2.7928460   2.7928460   2.7928460   2.7928460   2.7928460   2.7928460   2.7928460
 AtZNuc=   1.0000000   1.0000000   1.0000000   1.0000000   1.0000000   1.0000000   1.0000000   1.0000000   1.0000000   1.0000000

  Atom       131         132         133         134         135         136         137         138         139         140
 IAtWgt=           1           1           1           1           1           1           1           1           1           1
 AtmWgt=   1.0078250   1.0078250   1.0078250   1.0078250   1.0078250   1.0078250   1.0078250   1.0078250   1.0078250   1.0078250
 NucSpn=           1           1           1           1           1           1           1           1           1           1
 AtZEff=  -0.0000000  -0.0000000  -0.0000000  -0.0000000  -0.0000000  -0.0000000  -0.0000000  -0.0000000  -0.0000000  -0.0000000
 NQMom=    0.0000000   0.0000000   0.0000000   0.0000000   0.0000000   0.0000000   0.0000000   0.0000000   0.0000000   0.0000000
 NMagM=    2.7928460   2.7928460   2.7928460   2.7928460   2.7928460   2.7928460   2.7928460   2.7928460   2.7928460   2.7928460
 AtZNuc=   1.0000000   1.0000000   1.0000000   1.0000000   1.0000000   1.0000000   1.0000000   1.0000000   1.0000000   1.0000000

  Atom       141         142
 IAtWgt=           1           1
 AtmWgt=   1.0078250   1.0078250
 NucSpn=           1           1
 AtZEff=  -0.0000000  -0.0000000
 NQMom=    0.0000000   0.0000000
 NMagM=    2.7928460   2.7928460
 AtZNuc=   1.0000000   1.0000000
 Leave Link  101 at Sat Jul 25 05:27:48 2020, MaxMem=  4026531840 cpu:               4.1 elap:               0.5
 (Enter /opt/ohpc/pub/libs/gaussian/g16-A.03/sandybridge/g16/l103.exe)

 GradGradGradGradGradGradGradGradGradGradGradGradGradGradGradGradGradGrad
 Berny optimization.
 Initialization pass.
                           ----------------------------
                           !    Initial Parameters    !
                           ! (Angstroms and Degrees)  !
 --------------------------                            --------------------------
 ! Name  Definition              Value          Derivative Info.                !
 --------------------------------------------------------------------------------
 ! R1    R(1,2)                  1.3628         estimate D2E/DX2                !
 ! R2    R(1,7)                  1.4428         estimate D2E/DX2                !
 ! R3    R(1,99)                 1.069          estimate D2E/DX2                !
 ! R4    R(2,3)                  1.3331         estimate D2E/DX2                !
 ! R5    R(2,100)                1.159          estimate D2E/DX2                !
 ! R6    R(3,4)                  1.2747         estimate D2E/DX2                !
 ! R7    R(4,5)                  1.4501         estimate D2E/DX2                !
 ! R8    R(4,8)                  1.496          estimate D2E/DX2                !
 ! R9    R(5,6)                  1.2737         estimate D2E/DX2                !
 ! R10   R(5,7)                  1.3894         estimate D2E/DX2                !
 ! R11   R(7,101)                1.0152         estimate D2E/DX2                !
 ! R12   R(8,9)                  1.4566         estimate D2E/DX2                !
 ! R13   R(8,14)                 1.6413         estimate D2E/DX2                !
 ! R14   R(9,10)                 1.3686         estimate D2E/DX2                !
 ! R15   R(9,12)                 1.4718         estimate D2E/DX2                !
 ! R16   R(10,11)                1.3423         estimate D2E/DX2                !
 ! R17   R(11,102)               1.0504         estimate D2E/DX2                !
 ! R18   R(11,103)               1.1406         estimate D2E/DX2                !
 ! R19   R(11,104)               1.121          estimate D2E/DX2                !
 ! R20   R(12,13)                1.3303         estimate D2E/DX2                !
 ! R21   R(12,105)               1.0911         estimate D2E/DX2                !
 ! R22   R(13,14)                1.7621         estimate D2E/DX2                !
 ! R23   R(13,15)                1.4773         estimate D2E/DX2                !
 ! R24   R(15,16)                1.4297         estimate D2E/DX2                !
 ! R25   R(15,21)                1.3676         estimate D2E/DX2                !
 ! R26   R(16,17)                1.2688         estimate D2E/DX2                !
 ! R27   R(16,106)               1.1168         estimate D2E/DX2                !
 ! R28   R(17,18)                1.3924         estimate D2E/DX2                !
 ! R29   R(18,19)                1.3555         estimate D2E/DX2                !
 ! R30   R(18,22)                1.4964         estimate D2E/DX2                !
 ! R31   R(19,20)                1.3922         estimate D2E/DX2                !
 ! R32   R(19,21)                1.4032         estimate D2E/DX2                !
 ! R33   R(21,107)               1.1032         estimate D2E/DX2                !
 ! R34   R(22,23)                1.3882         estimate D2E/DX2                !
 ! R35   R(22,28)                1.7291         estimate D2E/DX2                !
 ! R36   R(23,24)                1.3892         estimate D2E/DX2                !
 ! R37   R(23,26)                1.397          estimate D2E/DX2                !
 ! R38   R(24,25)                1.4682         estimate D2E/DX2                !
 ! R39   R(25,108)               1.1228         estimate D2E/DX2                !
 ! R40   R(25,109)               1.076          estimate D2E/DX2                !
 ! R41   R(25,110)               1.0159         estimate D2E/DX2                !
 ! R42   R(26,27)                1.3622         estimate D2E/DX2                !
 ! R43   R(26,111)               1.1052         estimate D2E/DX2                !
 ! R44   R(27,28)                1.7619         estimate D2E/DX2                !
 ! R45   R(27,29)                1.4644         estimate D2E/DX2                !
 ! R46   R(29,30)                1.4037         estimate D2E/DX2                !
 ! R47   R(29,35)                1.459          estimate D2E/DX2                !
 ! R48   R(30,31)                1.3168         estimate D2E/DX2                !
 ! R49   R(30,112)               1.0601         estimate D2E/DX2                !
 ! R50   R(31,32)                1.394          estimate D2E/DX2                !
 ! R51   R(32,33)                1.3522         estimate D2E/DX2                !
 ! R52   R(32,36)                1.4285         estimate D2E/DX2                !
 ! R53   R(33,34)                1.4048         estimate D2E/DX2                !
 ! R54   R(33,35)                1.3486         estimate D2E/DX2                !
 ! R55   R(35,113)               1.0914         estimate D2E/DX2                !
 ! R56   R(36,37)                1.4145         estimate D2E/DX2                !
 ! R57   R(36,42)                1.7044         estimate D2E/DX2                !
 ! R58   R(37,38)                1.3839         estimate D2E/DX2                !
 ! R59   R(37,40)                1.3437         estimate D2E/DX2                !
 ! R60   R(38,39)                1.368          estimate D2E/DX2                !
 ! R61   R(39,114)               1.1317         estimate D2E/DX2                !
 ! R62   R(39,115)               1.1188         estimate D2E/DX2                !
 ! R63   R(39,116)               1.0874         estimate D2E/DX2                !
 ! R64   R(40,41)                1.4458         estimate D2E/DX2                !
 ! R65   R(40,117)               1.0647         estimate D2E/DX2                !
 ! R66   R(41,42)                1.7376         estimate D2E/DX2                !
 ! R67   R(41,43)                1.4722         estimate D2E/DX2                !
 ! R68   R(43,44)                1.4543         estimate D2E/DX2                !
 ! R69   R(43,49)                1.3726         estimate D2E/DX2                !
 ! R70   R(44,45)                1.3096         estimate D2E/DX2                !
 ! R71   R(44,118)               1.0823         estimate D2E/DX2                !
 ! R72   R(45,46)                1.361          estimate D2E/DX2                !
 ! R73   R(46,47)                1.355          estimate D2E/DX2                !
 ! R74   R(46,50)                1.4495         estimate D2E/DX2                !
 ! R75   R(47,48)                1.3494         estimate D2E/DX2                !
 ! R76   R(47,49)                1.3186         estimate D2E/DX2                !
 ! R77   R(49,119)               1.1442         estimate D2E/DX2                !
 ! R78   R(50,51)                1.3467         estimate D2E/DX2                !
 ! R79   R(50,56)                1.7825         estimate D2E/DX2                !
 ! R80   R(51,52)                1.4276         estimate D2E/DX2                !
 ! R81   R(51,54)                1.3766         estimate D2E/DX2                !
 ! R82   R(52,53)                1.3924         estimate D2E/DX2                !
 ! R83   R(53,120)               1.0663         estimate D2E/DX2                !
 ! R84   R(53,121)               1.1031         estimate D2E/DX2                !
 ! R85   R(53,122)               1.0679         estimate D2E/DX2                !
 ! R86   R(54,55)                1.3115         estimate D2E/DX2                !
 ! R87   R(54,123)               1.1769         estimate D2E/DX2                !
 ! R88   R(55,56)                1.7742         estimate D2E/DX2                !
 ! R89   R(55,57)                1.5203         estimate D2E/DX2                !
 ! R90   R(57,58)                1.427          estimate D2E/DX2                !
 ! R91   R(57,63)                1.4042         estimate D2E/DX2                !
 ! R92   R(58,59)                1.3488         estimate D2E/DX2                !
 ! R93   R(58,124)               1.0085         estimate D2E/DX2                !
 ! R94   R(59,60)                1.3311         estimate D2E/DX2                !
 ! R95   R(60,61)                1.4354         estimate D2E/DX2                !
 ! R96   R(60,64)                1.3893         estimate D2E/DX2                !
 ! R97   R(61,62)                1.3453         estimate D2E/DX2                !
 ! R98   R(61,63)                1.3768         estimate D2E/DX2                !
 ! R99   R(63,125)               1.0073         estimate D2E/DX2                !
 ! R100  R(64,65)                1.4345         estimate D2E/DX2                !
 ! R101  R(64,70)                1.7521         estimate D2E/DX2                !
 ! R102  R(65,66)                1.3931         estimate D2E/DX2                !
 ! R103  R(65,68)                1.4394         estimate D2E/DX2                !
 ! R104  R(66,67)                1.4302         estimate D2E/DX2                !
 ! R105  R(67,126)               1.089          estimate D2E/DX2                !
 ! R106  R(67,127)               1.092          estimate D2E/DX2                !
 ! R107  R(67,128)               1.0575         estimate D2E/DX2                !
 ! R108  R(68,69)                1.4338         estimate D2E/DX2                !
 ! R109  R(68,129)               1.0093         estimate D2E/DX2                !
 ! R110  R(69,70)                1.7393         estimate D2E/DX2                !
 ! R111  R(69,71)                1.4334         estimate D2E/DX2                !
 ! R112  R(71,72)                1.3788         estimate D2E/DX2                !
 ! R113  R(71,77)                1.3529         estimate D2E/DX2                !
 ! R114  R(72,73)                1.3959         estimate D2E/DX2                !
 ! R115  R(72,130)               1.1657         estimate D2E/DX2                !
 ! R116  R(73,74)                1.3349         estimate D2E/DX2                !
 ! R117  R(74,75)                1.3352         estimate D2E/DX2                !
 ! R118  R(74,78)                1.4281         estimate D2E/DX2                !
 ! R119  R(75,76)                1.414          estimate D2E/DX2                !
 ! R120  R(75,77)                1.4587         estimate D2E/DX2                !
 ! R121  R(77,131)               1.074          estimate D2E/DX2                !
 ! R122  R(78,79)                1.3578         estimate D2E/DX2                !
 ! R123  R(78,84)                1.7775         estimate D2E/DX2                !
 ! R124  R(79,80)                1.3888         estimate D2E/DX2                !
 ! R125  R(79,82)                1.4926         estimate D2E/DX2                !
 ! R126  R(80,81)                1.459          estimate D2E/DX2                !
 ! R127  R(81,132)               1.1355         estimate D2E/DX2                !
 ! R128  R(81,133)               1.011          estimate D2E/DX2                !
 ! R129  R(81,134)               1.0454         estimate D2E/DX2                !
 ! R130  R(82,83)                1.4406         estimate D2E/DX2                !
 ! R131  R(82,135)               1.0038         estimate D2E/DX2                !
 ! R132  R(83,84)                1.7262         estimate D2E/DX2                !
 ! R133  R(83,85)                1.4327         estimate D2E/DX2                !
 ! R134  R(85,86)                1.4652         estimate D2E/DX2                !
 ! R135  R(85,91)                1.3659         estimate D2E/DX2                !
 ! R136  R(86,87)                1.3189         estimate D2E/DX2                !
 ! R137  R(86,136)               1.0584         estimate D2E/DX2                !
 ! R138  R(87,88)                1.3401         estimate D2E/DX2                !
 ! R139  R(88,89)                1.4521         estimate D2E/DX2                !
 ! R140  R(88,92)                1.4366         estimate D2E/DX2                !
 ! R141  R(89,90)                1.317          estimate D2E/DX2                !
 ! R142  R(89,91)                1.3919         estimate D2E/DX2                !
 ! R143  R(91,137)               1.1008         estimate D2E/DX2                !
 ! R144  R(92,93)                1.4637         estimate D2E/DX2                !
 ! R145  R(92,98)                1.6595         estimate D2E/DX2                !
 ! R146  R(93,94)                1.302          estimate D2E/DX2                !
 ! R147  R(93,96)                1.4596         estimate D2E/DX2                !
 ! R148  R(94,95)                1.4256         estimate D2E/DX2                !
 ! R149  R(95,138)               1.0508         estimate D2E/DX2                !
 ! R150  R(95,139)               1.0745         estimate D2E/DX2                !
 ! R151  R(95,140)               1.0834         estimate D2E/DX2                !
 ! R152  R(96,97)                1.3753         estimate D2E/DX2                !
 ! R153  R(96,141)               1.0826         estimate D2E/DX2                !
 ! R154  R(97,98)                1.7075         estimate D2E/DX2                !
 ! R155  R(97,142)               1.0879         estimate D2E/DX2                !
 ! A1    A(2,1,7)              119.3309         estimate D2E/DX2                !
 ! A2    A(2,1,99)             123.2909         estimate D2E/DX2                !
 ! A3    A(7,1,99)             117.2981         estimate D2E/DX2                !
 ! A4    A(1,2,3)              124.6148         estimate D2E/DX2                !
 ! A5    A(1,2,100)            118.4652         estimate D2E/DX2                !
 ! A6    A(3,2,100)            116.8638         estimate D2E/DX2                !
 ! A7    A(2,3,4)              116.9756         estimate D2E/DX2                !
 ! A8    A(3,4,5)              125.7231         estimate D2E/DX2                !
 ! A9    A(3,4,8)              114.3104         estimate D2E/DX2                !
 ! A10   A(5,4,8)              119.966          estimate D2E/DX2                !
 ! A11   A(4,5,6)              121.3262         estimate D2E/DX2                !
 ! A12   A(4,5,7)              116.9252         estimate D2E/DX2                !
 ! A13   A(6,5,7)              121.5178         estimate D2E/DX2                !
 ! A14   A(1,7,5)              116.327          estimate D2E/DX2                !
 ! A15   A(1,7,101)            124.9381         estimate D2E/DX2                !
 ! A16   A(5,7,101)            118.5902         estimate D2E/DX2                !
 ! A17   A(4,8,9)              127.2525         estimate D2E/DX2                !
 ! A18   A(4,8,14)             120.8915         estimate D2E/DX2                !
 ! A19   A(9,8,14)             111.8528         estimate D2E/DX2                !
 ! A20   A(8,9,10)             122.0361         estimate D2E/DX2                !
 ! A21   A(8,9,12)             107.8867         estimate D2E/DX2                !
 ! A22   A(10,9,12)            129.883          estimate D2E/DX2                !
 ! A23   A(9,10,11)            115.3807         estimate D2E/DX2                !
 ! A24   A(10,11,102)          110.3064         estimate D2E/DX2                !
 ! A25   A(10,11,103)          111.0209         estimate D2E/DX2                !
 ! A26   A(10,11,104)          114.5636         estimate D2E/DX2                !
 ! A27   A(102,11,103)         105.94           estimate D2E/DX2                !
 ! A28   A(102,11,104)         111.4786         estimate D2E/DX2                !
 ! A29   A(103,11,104)         102.9832         estimate D2E/DX2                !
 ! A30   A(9,12,13)            116.1884         estimate D2E/DX2                !
 ! A31   A(9,12,105)           122.1846         estimate D2E/DX2                !
 ! A32   A(13,12,105)          121.1521         estimate D2E/DX2                !
 ! A33   A(12,13,14)           108.5584         estimate D2E/DX2                !
 ! A34   A(12,13,15)           130.1231         estimate D2E/DX2                !
 ! A35   A(14,13,15)           121.1408         estimate D2E/DX2                !
 ! A36   A(8,14,13)             95.1791         estimate D2E/DX2                !
 ! A37   A(13,15,16)           119.9078         estimate D2E/DX2                !
 ! A38   A(13,15,21)           121.2259         estimate D2E/DX2                !
 ! A39   A(16,15,21)           118.7776         estimate D2E/DX2                !
 ! A40   A(15,16,17)           124.6055         estimate D2E/DX2                !
 ! A41   A(15,16,106)          118.8299         estimate D2E/DX2                !
 ! A42   A(17,16,106)          116.3578         estimate D2E/DX2                !
 ! A43   A(16,17,18)           115.8758         estimate D2E/DX2                !
 ! A44   A(17,18,19)           123.83           estimate D2E/DX2                !
 ! A45   A(17,18,22)           115.1268         estimate D2E/DX2                !
 ! A46   A(19,18,22)           120.9926         estimate D2E/DX2                !
 ! A47   A(18,19,20)           123.016          estimate D2E/DX2                !
 ! A48   A(18,19,21)           119.0822         estimate D2E/DX2                !
 ! A49   A(20,19,21)           117.4088         estimate D2E/DX2                !
 ! A50   A(15,21,19)           117.2954         estimate D2E/DX2                !
 ! A51   A(15,21,107)          122.1987         estimate D2E/DX2                !
 ! A52   A(19,21,107)          120.0672         estimate D2E/DX2                !
 ! A53   A(18,22,23)           127.149          estimate D2E/DX2                !
 ! A54   A(18,22,28)           122.4729         estimate D2E/DX2                !
 ! A55   A(23,22,28)           110.3563         estimate D2E/DX2                !
 ! A56   A(22,23,24)           118.9689         estimate D2E/DX2                !
 ! A57   A(22,23,26)           115.2947         estimate D2E/DX2                !
 ! A58   A(24,23,26)           125.699          estimate D2E/DX2                !
 ! A59   A(23,24,25)           115.9991         estimate D2E/DX2                !
 ! A60   A(24,25,108)          108.7474         estimate D2E/DX2                !
 ! A61   A(24,25,109)          107.5002         estimate D2E/DX2                !
 ! A62   A(24,25,110)          110.3899         estimate D2E/DX2                !
 ! A63   A(108,25,109)         108.7082         estimate D2E/DX2                !
 ! A64   A(108,25,110)         110.5584         estimate D2E/DX2                !
 ! A65   A(109,25,110)         110.8506         estimate D2E/DX2                !
 ! A66   A(23,26,27)           110.9081         estimate D2E/DX2                !
 ! A67   A(23,26,111)          126.6948         estimate D2E/DX2                !
 ! A68   A(27,26,111)          122.3175         estimate D2E/DX2                !
 ! A69   A(26,27,28)           112.9109         estimate D2E/DX2                !
 ! A70   A(26,27,29)           129.339          estimate D2E/DX2                !
 ! A71   A(28,27,29)           117.707          estimate D2E/DX2                !
 ! A72   A(22,28,27)            90.3977         estimate D2E/DX2                !
 ! A73   A(27,29,30)           122.4423         estimate D2E/DX2                !
 ! A74   A(27,29,35)           123.094          estimate D2E/DX2                !
 ! A75   A(30,29,35)           114.1371         estimate D2E/DX2                !
 ! A76   A(29,30,31)           125.4724         estimate D2E/DX2                !
 ! A77   A(29,30,112)          120.9411         estimate D2E/DX2                !
 ! A78   A(31,30,112)          113.455          estimate D2E/DX2                !
 ! A79   A(30,31,32)           117.2103         estimate D2E/DX2                !
 ! A80   A(31,32,33)           122.3709         estimate D2E/DX2                !
 ! A81   A(31,32,36)           114.6342         estimate D2E/DX2                !
 ! A82   A(33,32,36)           122.6175         estimate D2E/DX2                !
 ! A83   A(32,33,34)           121.4286         estimate D2E/DX2                !
 ! A84   A(32,33,35)           120.1295         estimate D2E/DX2                !
 ! A85   A(34,33,35)           117.8599         estimate D2E/DX2                !
 ! A86   A(29,35,33)           120.5227         estimate D2E/DX2                !
 ! A87   A(29,35,113)          118.5127         estimate D2E/DX2                !
 ! A88   A(33,35,113)          120.8468         estimate D2E/DX2                !
 ! A89   A(32,36,37)           132.8168         estimate D2E/DX2                !
 ! A90   A(32,36,42)           119.6386         estimate D2E/DX2                !
 ! A91   A(37,36,42)           107.5328         estimate D2E/DX2                !
 ! A92   A(36,37,38)           117.3418         estimate D2E/DX2                !
 ! A93   A(36,37,40)           117.5706         estimate D2E/DX2                !
 ! A94   A(38,37,40)           125.0548         estimate D2E/DX2                !
 ! A95   A(37,38,39)           116.5205         estimate D2E/DX2                !
 ! A96   A(38,39,114)          111.874          estimate D2E/DX2                !
 ! A97   A(38,39,115)          109.1725         estimate D2E/DX2                !
 ! A98   A(38,39,116)          113.1428         estimate D2E/DX2                !
 ! A99   A(114,39,115)         107.1733         estimate D2E/DX2                !
 ! A100  A(114,39,116)         107.1887         estimate D2E/DX2                !
 ! A101  A(115,39,116)         108.0492         estimate D2E/DX2                !
 ! A102  A(37,40,41)           111.6853         estimate D2E/DX2                !
 ! A103  A(37,40,117)          128.9743         estimate D2E/DX2                !
 ! A104  A(41,40,117)          118.9384         estimate D2E/DX2                !
 ! A105  A(40,41,42)           108.3576         estimate D2E/DX2                !
 ! A106  A(40,41,43)           128.8362         estimate D2E/DX2                !
 ! A107  A(42,41,43)           122.2232         estimate D2E/DX2                !
 ! A108  A(36,42,41)            94.8304         estimate D2E/DX2                !
 ! A109  A(41,43,44)           121.0459         estimate D2E/DX2                !
 ! A110  A(41,43,49)           126.5958         estimate D2E/DX2                !
 ! A111  A(44,43,49)           112.0184         estimate D2E/DX2                !
 ! A112  A(43,44,45)           123.7219         estimate D2E/DX2                !
 ! A113  A(43,44,118)          116.6081         estimate D2E/DX2                !
 ! A114  A(45,44,118)          118.9291         estimate D2E/DX2                !
 ! A115  A(44,45,46)           119.4331         estimate D2E/DX2                !
 ! A116  A(45,46,47)           118.8387         estimate D2E/DX2                !
 ! A117  A(45,46,50)           114.5644         estimate D2E/DX2                !
 ! A118  A(47,46,50)           126.2043         estimate D2E/DX2                !
 ! A119  A(46,47,48)           116.7102         estimate D2E/DX2                !
 ! A120  A(46,47,49)           121.8077         estimate D2E/DX2                !
 ! A121  A(48,47,49)           121.4817         estimate D2E/DX2                !
 ! A122  A(43,49,47)           123.6073         estimate D2E/DX2                !
 ! A123  A(43,49,119)          120.8808         estimate D2E/DX2                !
 ! A124  A(47,49,119)          115.5116         estimate D2E/DX2                !
 ! A125  A(46,50,51)           134.6752         estimate D2E/DX2                !
 ! A126  A(46,50,56)           116.703          estimate D2E/DX2                !
 ! A127  A(51,50,56)           108.5038         estimate D2E/DX2                !
 ! A128  A(50,51,52)           116.7912         estimate D2E/DX2                !
 ! A129  A(50,51,54)           116.1533         estimate D2E/DX2                !
 ! A130  A(52,51,54)           127.0134         estimate D2E/DX2                !
 ! A131  A(51,52,53)           117.2709         estimate D2E/DX2                !
 ! A132  A(52,53,120)          108.3298         estimate D2E/DX2                !
 ! A133  A(52,53,121)          106.4473         estimate D2E/DX2                !
 ! A134  A(52,53,122)          115.3062         estimate D2E/DX2                !
 ! A135  A(120,53,121)         111.4012         estimate D2E/DX2                !
 ! A136  A(120,53,122)         108.1937         estimate D2E/DX2                !
 ! A137  A(121,53,122)         107.2006         estimate D2E/DX2                !
 ! A138  A(51,54,55)           114.2699         estimate D2E/DX2                !
 ! A139  A(51,54,123)          124.4382         estimate D2E/DX2                !
 ! A140  A(55,54,123)          121.2782         estimate D2E/DX2                !
 ! A141  A(54,55,56)           111.2696         estimate D2E/DX2                !
 ! A142  A(54,55,57)           133.1072         estimate D2E/DX2                !
 ! A143  A(56,55,57)           115.6222         estimate D2E/DX2                !
 ! A144  A(50,56,55)            89.7439         estimate D2E/DX2                !
 ! A145  A(55,57,58)           119.0205         estimate D2E/DX2                !
 ! A146  A(55,57,63)           120.0153         estimate D2E/DX2                !
 ! A147  A(58,57,63)           120.4992         estimate D2E/DX2                !
 ! A148  A(57,58,59)           121.1313         estimate D2E/DX2                !
 ! A149  A(57,58,124)          120.3895         estimate D2E/DX2                !
 ! A150  A(59,58,124)          118.4714         estimate D2E/DX2                !
 ! A151  A(58,59,60)           120.9049         estimate D2E/DX2                !
 ! A152  A(59,60,61)           118.5548         estimate D2E/DX2                !
 ! A153  A(59,60,64)           117.8859         estimate D2E/DX2                !
 ! A154  A(61,60,64)           123.4395         estimate D2E/DX2                !
 ! A155  A(60,61,62)           116.7859         estimate D2E/DX2                !
 ! A156  A(60,61,63)           123.8039         estimate D2E/DX2                !
 ! A157  A(62,61,63)           119.2771         estimate D2E/DX2                !
 ! A158  A(57,63,61)           115.0362         estimate D2E/DX2                !
 ! A159  A(57,63,125)          126.2823         estimate D2E/DX2                !
 ! A160  A(61,63,125)          118.6662         estimate D2E/DX2                !
 ! A161  A(60,64,65)           133.0456         estimate D2E/DX2                !
 ! A162  A(60,64,70)           117.4766         estimate D2E/DX2                !
 ! A163  A(65,64,70)           109.4528         estimate D2E/DX2                !
 ! A164  A(64,65,66)           116.2274         estimate D2E/DX2                !
 ! A165  A(64,65,68)           114.0887         estimate D2E/DX2                !
 ! A166  A(66,65,68)           129.6306         estimate D2E/DX2                !
 ! A167  A(65,66,67)           113.5885         estimate D2E/DX2                !
 ! A168  A(66,67,126)          109.1759         estimate D2E/DX2                !
 ! A169  A(66,67,127)          111.8393         estimate D2E/DX2                !
 ! A170  A(66,67,128)          111.2709         estimate D2E/DX2                !
 ! A171  A(126,67,127)         105.969          estimate D2E/DX2                !
 ! A172  A(126,67,128)         112.6846         estimate D2E/DX2                !
 ! A173  A(127,67,128)         105.7752         estimate D2E/DX2                !
 ! A174  A(65,68,69)           111.2997         estimate D2E/DX2                !
 ! A175  A(65,68,129)          124.9836         estimate D2E/DX2                !
 ! A176  A(69,68,129)          123.7053         estimate D2E/DX2                !
 ! A177  A(68,69,70)           111.462          estimate D2E/DX2                !
 ! A178  A(68,69,71)           127.0563         estimate D2E/DX2                !
 ! A179  A(70,69,71)           121.3208         estimate D2E/DX2                !
 ! A180  A(64,70,69)            93.6547         estimate D2E/DX2                !
 ! A181  A(69,71,72)           120.8562         estimate D2E/DX2                !
 ! A182  A(69,71,77)           122.5587         estimate D2E/DX2                !
 ! A183  A(72,71,77)           116.1911         estimate D2E/DX2                !
 ! A184  A(71,72,73)           125.643          estimate D2E/DX2                !
 ! A185  A(71,72,130)          120.4458         estimate D2E/DX2                !
 ! A186  A(73,72,130)          113.3783         estimate D2E/DX2                !
 ! A187  A(72,73,74)           116.2894         estimate D2E/DX2                !
 ! A188  A(73,74,75)           121.7371         estimate D2E/DX2                !
 ! A189  A(73,74,78)           115.3927         estimate D2E/DX2                !
 ! A190  A(75,74,78)           122.5352         estimate D2E/DX2                !
 ! A191  A(74,75,76)           122.8827         estimate D2E/DX2                !
 ! A192  A(74,75,77)           121.0813         estimate D2E/DX2                !
 ! A193  A(76,75,77)           116.0043         estimate D2E/DX2                !
 ! A194  A(71,77,75)           118.5093         estimate D2E/DX2                !
 ! A195  A(71,77,131)          125.0809         estimate D2E/DX2                !
 ! A196  A(75,77,131)          116.3997         estimate D2E/DX2                !
 ! A197  A(74,78,79)           130.8888         estimate D2E/DX2                !
 ! A198  A(74,78,84)           118.088          estimate D2E/DX2                !
 ! A199  A(79,78,84)           111.0152         estimate D2E/DX2                !
 ! A200  A(78,79,80)           118.149          estimate D2E/DX2                !
 ! A201  A(78,79,82)           114.1856         estimate D2E/DX2                !
 ! A202  A(80,79,82)           127.385          estimate D2E/DX2                !
 ! A203  A(79,80,81)           111.5095         estimate D2E/DX2                !
 ! A204  A(80,81,132)          104.7533         estimate D2E/DX2                !
 ! A205  A(80,81,133)          111.5614         estimate D2E/DX2                !
 ! A206  A(80,81,134)          113.4678         estimate D2E/DX2                !
 ! A207  A(132,81,133)         106.8413         estimate D2E/DX2                !
 ! A208  A(132,81,134)         104.8773         estimate D2E/DX2                !
 ! A209  A(133,81,134)         114.3855         estimate D2E/DX2                !
 ! A210  A(79,82,83)           110.0441         estimate D2E/DX2                !
 ! A211  A(79,82,135)          123.0922         estimate D2E/DX2                !
 ! A212  A(83,82,135)          126.8637         estimate D2E/DX2                !
 ! A213  A(82,83,84)           111.5799         estimate D2E/DX2                !
 ! A214  A(82,83,85)           124.8604         estimate D2E/DX2                !
 ! A215  A(84,83,85)           123.5274         estimate D2E/DX2                !
 ! A216  A(78,84,83)            93.1659         estimate D2E/DX2                !
 ! A217  A(83,85,86)           121.0639         estimate D2E/DX2                !
 ! A218  A(83,85,91)           121.4669         estimate D2E/DX2                !
 ! A219  A(86,85,91)           117.1015         estimate D2E/DX2                !
 ! A220  A(85,86,87)           122.7028         estimate D2E/DX2                !
 ! A221  A(85,86,136)          121.4964         estimate D2E/DX2                !
 ! A222  A(87,86,136)          115.7022         estimate D2E/DX2                !
 ! A223  A(86,87,88)           120.1553         estimate D2E/DX2                !
 ! A224  A(87,88,89)           120.4559         estimate D2E/DX2                !
 ! A225  A(87,88,92)           116.533          estimate D2E/DX2                !
 ! A226  A(89,88,92)           122.9362         estimate D2E/DX2                !
 ! A227  A(88,89,90)           118.468          estimate D2E/DX2                !
 ! A228  A(88,89,91)           118.862          estimate D2E/DX2                !
 ! A229  A(90,89,91)           122.6593         estimate D2E/DX2                !
 ! A230  A(85,91,89)           120.4619         estimate D2E/DX2                !
 ! A231  A(85,91,137)          125.0611         estimate D2E/DX2                !
 ! A232  A(89,91,137)          114.3951         estimate D2E/DX2                !
 ! A233  A(88,92,93)           127.6044         estimate D2E/DX2                !
 ! A234  A(88,92,98)           119.3722         estimate D2E/DX2                !
 ! A235  A(93,92,98)           113.0058         estimate D2E/DX2                !
 ! A236  A(92,93,94)           122.3266         estimate D2E/DX2                !
 ! A237  A(92,93,96)           109.1794         estimate D2E/DX2                !
 ! A238  A(94,93,96)           128.4839         estimate D2E/DX2                !
 ! A239  A(93,94,95)           117.5787         estimate D2E/DX2                !
 ! A240  A(94,95,138)          105.8561         estimate D2E/DX2                !
 ! A241  A(94,95,139)          111.7908         estimate D2E/DX2                !
 ! A242  A(94,95,140)          107.1447         estimate D2E/DX2                !
 ! A243  A(138,95,139)         115.8222         estimate D2E/DX2                !
 ! A244  A(138,95,140)         107.4406         estimate D2E/DX2                !
 ! A245  A(139,95,140)         108.3853         estimate D2E/DX2                !
 ! A246  A(93,96,97)           110.9381         estimate D2E/DX2                !
 ! A247  A(93,96,141)          124.6633         estimate D2E/DX2                !
 ! A248  A(97,96,141)          123.8075         estimate D2E/DX2                !
 ! A249  A(96,97,98)           114.3002         estimate D2E/DX2                !
 ! A250  A(96,97,142)          122.9857         estimate D2E/DX2                !
 ! A251  A(98,97,142)          122.7127         estimate D2E/DX2                !
 ! A252  A(92,98,97)            92.5699         estimate D2E/DX2                !
 ! D1    D(7,1,2,3)             -1.4291         estimate D2E/DX2                !
 ! D2    D(7,1,2,100)         -178.6111         estimate D2E/DX2                !
 ! D3    D(99,1,2,3)           175.2244         estimate D2E/DX2                !
 ! D4    D(99,1,2,100)          -1.9575         estimate D2E/DX2                !
 ! D5    D(2,1,7,5)              0.8981         estimate D2E/DX2                !
 ! D6    D(2,1,7,101)          176.4483         estimate D2E/DX2                !
 ! D7    D(99,1,7,5)          -175.9542         estimate D2E/DX2                !
 ! D8    D(99,1,7,101)          -0.4041         estimate D2E/DX2                !
 ! D9    D(1,2,3,4)              2.7885         estimate D2E/DX2                !
 ! D10   D(100,2,3,4)         -179.9886         estimate D2E/DX2                !
 ! D11   D(2,3,4,5)             -3.7756         estimate D2E/DX2                !
 ! D12   D(2,3,4,8)            176.4804         estimate D2E/DX2                !
 ! D13   D(3,4,5,6)            177.9203         estimate D2E/DX2                !
 ! D14   D(3,4,5,7)              3.3589         estimate D2E/DX2                !
 ! D15   D(8,4,5,6)             -2.349          estimate D2E/DX2                !
 ! D16   D(8,4,5,7)           -176.9104         estimate D2E/DX2                !
 ! D17   D(3,4,8,9)            134.7698         estimate D2E/DX2                !
 ! D18   D(3,4,8,14)           -45.9422         estimate D2E/DX2                !
 ! D19   D(5,4,8,9)            -44.9902         estimate D2E/DX2                !
 ! D20   D(5,4,8,14)           134.2977         estimate D2E/DX2                !
 ! D21   D(4,5,7,1)             -1.6698         estimate D2E/DX2                !
 ! D22   D(4,5,7,101)         -177.5159         estimate D2E/DX2                !
 ! D23   D(6,5,7,1)           -176.22           estimate D2E/DX2                !
 ! D24   D(6,5,7,101)            7.9339         estimate D2E/DX2                !
 ! D25   D(4,8,9,10)            -2.9646         estimate D2E/DX2                !
 ! D26   D(4,8,9,12)          -178.3656         estimate D2E/DX2                !
 ! D27   D(14,8,9,10)          177.6937         estimate D2E/DX2                !
 ! D28   D(14,8,9,12)            2.2928         estimate D2E/DX2                !
 ! D29   D(4,8,14,13)          176.1384         estimate D2E/DX2                !
 ! D30   D(9,8,14,13)           -4.4723         estimate D2E/DX2                !
 ! D31   D(8,9,10,11)          172.0655         estimate D2E/DX2                !
 ! D32   D(12,9,10,11)         -13.6415         estimate D2E/DX2                !
 ! D33   D(8,9,12,13)            2.1041         estimate D2E/DX2                !
 ! D34   D(8,9,12,105)         174.2768         estimate D2E/DX2                !
 ! D35   D(10,9,12,13)        -172.8141         estimate D2E/DX2                !
 ! D36   D(10,9,12,105)         -0.6413         estimate D2E/DX2                !
 ! D37   D(9,10,11,102)       -175.964          estimate D2E/DX2                !
 ! D38   D(9,10,11,103)         66.9128         estimate D2E/DX2                !
 ! D39   D(9,10,11,104)        -49.2086         estimate D2E/DX2                !
 ! D40   D(9,12,13,14)          -5.1625         estimate D2E/DX2                !
 ! D41   D(9,12,13,15)         179.7412         estimate D2E/DX2                !
 ! D42   D(105,12,13,14)      -177.4223         estimate D2E/DX2                !
 ! D43   D(105,12,13,15)         7.4814         estimate D2E/DX2                !
 ! D44   D(12,13,14,8)           5.5921         estimate D2E/DX2                !
 ! D45   D(15,13,14,8)        -178.7877         estimate D2E/DX2                !
 ! D46   D(12,13,15,16)         40.4739         estimate D2E/DX2                !
 ! D47   D(12,13,15,21)       -142.9921         estimate D2E/DX2                !
 ! D48   D(14,13,15,16)       -134.0933         estimate D2E/DX2                !
 ! D49   D(14,13,15,21)         42.4408         estimate D2E/DX2                !
 ! D50   D(13,15,16,17)       -176.9833         estimate D2E/DX2                !
 ! D51   D(13,15,16,106)        -2.4092         estimate D2E/DX2                !
 ! D52   D(21,15,16,17)          6.3981         estimate D2E/DX2                !
 ! D53   D(21,15,16,106)      -179.0279         estimate D2E/DX2                !
 ! D54   D(13,15,21,19)        176.9551         estimate D2E/DX2                !
 ! D55   D(13,15,21,107)         4.5582         estimate D2E/DX2                !
 ! D56   D(16,15,21,19)         -6.4726         estimate D2E/DX2                !
 ! D57   D(16,15,21,107)      -178.8695         estimate D2E/DX2                !
 ! D58   D(15,16,17,18)         -0.3065         estimate D2E/DX2                !
 ! D59   D(106,16,17,18)      -175.0019         estimate D2E/DX2                !
 ! D60   D(16,17,18,19)         -5.6198         estimate D2E/DX2                !
 ! D61   D(16,17,18,22)        176.9506         estimate D2E/DX2                !
 ! D62   D(17,18,19,20)        176.9737         estimate D2E/DX2                !
 ! D63   D(17,18,19,21)          5.2446         estimate D2E/DX2                !
 ! D64   D(22,18,19,20)         -5.7411         estimate D2E/DX2                !
 ! D65   D(22,18,19,21)       -177.4702         estimate D2E/DX2                !
 ! D66   D(17,18,22,23)        -55.4159         estimate D2E/DX2                !
 ! D67   D(17,18,22,28)        122.718          estimate D2E/DX2                !
 ! D68   D(19,18,22,23)        127.0748         estimate D2E/DX2                !
 ! D69   D(19,18,22,28)        -54.7913         estimate D2E/DX2                !
 ! D70   D(18,19,21,15)          1.1223         estimate D2E/DX2                !
 ! D71   D(18,19,21,107)       173.6892         estimate D2E/DX2                !
 ! D72   D(20,19,21,15)       -171.0683         estimate D2E/DX2                !
 ! D73   D(20,19,21,107)         1.4985         estimate D2E/DX2                !
 ! D74   D(18,22,23,24)          0.2587         estimate D2E/DX2                !
 ! D75   D(18,22,23,26)       -177.6433         estimate D2E/DX2                !
 ! D76   D(28,22,23,24)       -178.0622         estimate D2E/DX2                !
 ! D77   D(28,22,23,26)          4.0358         estimate D2E/DX2                !
 ! D78   D(18,22,28,27)        178.5516         estimate D2E/DX2                !
 ! D79   D(23,22,28,27)         -3.0348         estimate D2E/DX2                !
 ! D80   D(22,23,24,25)        154.108          estimate D2E/DX2                !
 ! D81   D(26,23,24,25)        -28.2278         estimate D2E/DX2                !
 ! D82   D(22,23,26,27)         -2.9245         estimate D2E/DX2                !
 ! D83   D(22,23,26,111)      -179.7166         estimate D2E/DX2                !
 ! D84   D(24,23,26,27)        179.3357         estimate D2E/DX2                !
 ! D85   D(24,23,26,111)         2.5437         estimate D2E/DX2                !
 ! D86   D(23,24,25,108)        65.7854         estimate D2E/DX2                !
 ! D87   D(23,24,25,109)       -51.742          estimate D2E/DX2                !
 ! D88   D(23,24,25,110)      -172.7628         estimate D2E/DX2                !
 ! D89   D(23,26,27,28)          0.4622         estimate D2E/DX2                !
 ! D90   D(23,26,27,29)        177.9854         estimate D2E/DX2                !
 ! D91   D(111,26,27,28)       177.4187         estimate D2E/DX2                !
 ! D92   D(111,26,27,29)        -5.0582         estimate D2E/DX2                !
 ! D93   D(26,27,28,22)          1.5056         estimate D2E/DX2                !
 ! D94   D(29,27,28,22)       -176.3309         estimate D2E/DX2                !
 ! D95   D(26,27,29,30)         45.685          estimate D2E/DX2                !
 ! D96   D(26,27,29,35)       -127.364          estimate D2E/DX2                !
 ! D97   D(28,27,29,30)       -136.892          estimate D2E/DX2                !
 ! D98   D(28,27,29,35)         50.059          estimate D2E/DX2                !
 ! D99   D(27,29,30,31)       -171.1877         estimate D2E/DX2                !
 ! D100  D(27,29,30,112)         4.3627         estimate D2E/DX2                !
 ! D101  D(35,29,30,31)          2.4335         estimate D2E/DX2                !
 ! D102  D(35,29,30,112)       177.9838         estimate D2E/DX2                !
 ! D103  D(27,29,35,33)        173.8227         estimate D2E/DX2                !
 ! D104  D(27,29,35,113)       -10.0898         estimate D2E/DX2                !
 ! D105  D(30,29,35,33)          0.2486         estimate D2E/DX2                !
 ! D106  D(30,29,35,113)       176.3361         estimate D2E/DX2                !
 ! D107  D(29,30,31,32)         -1.685          estimate D2E/DX2                !
 ! D108  D(112,30,31,32)      -177.5253         estimate D2E/DX2                !
 ! D109  D(30,31,32,33)         -1.8847         estimate D2E/DX2                !
 ! D110  D(30,31,32,36)        171.2303         estimate D2E/DX2                !
 ! D111  D(31,32,33,34)        175.5388         estimate D2E/DX2                !
 ! D112  D(31,32,33,35)          4.4738         estimate D2E/DX2                !
 ! D113  D(36,32,33,34)          2.972          estimate D2E/DX2                !
 ! D114  D(36,32,33,35)       -168.0931         estimate D2E/DX2                !
 ! D115  D(31,32,36,37)        -58.3486         estimate D2E/DX2                !
 ! D116  D(31,32,36,42)        120.2323         estimate D2E/DX2                !
 ! D117  D(33,32,36,37)        114.7475         estimate D2E/DX2                !
 ! D118  D(33,32,36,42)        -66.6717         estimate D2E/DX2                !
 ! D119  D(32,33,35,29)         -3.5218         estimate D2E/DX2                !
 ! D120  D(32,33,35,113)      -179.5172         estimate D2E/DX2                !
 ! D121  D(34,33,35,29)       -174.9005         estimate D2E/DX2                !
 ! D122  D(34,33,35,113)         9.1041         estimate D2E/DX2                !
 ! D123  D(32,36,37,38)         -1.5689         estimate D2E/DX2                !
 ! D124  D(32,36,37,40)       -179.5907         estimate D2E/DX2                !
 ! D125  D(42,36,37,38)        179.7246         estimate D2E/DX2                !
 ! D126  D(42,36,37,40)          1.7029         estimate D2E/DX2                !
 ! D127  D(32,36,42,41)        179.8681         estimate D2E/DX2                !
 ! D128  D(37,36,42,41)         -1.2236         estimate D2E/DX2                !
 ! D129  D(36,37,38,39)        138.7487         estimate D2E/DX2                !
 ! D130  D(40,37,38,39)        -43.3936         estimate D2E/DX2                !
 ! D131  D(36,37,40,41)         -1.3214         estimate D2E/DX2                !
 ! D132  D(36,37,40,117)       171.2095         estimate D2E/DX2                !
 ! D133  D(38,37,40,41)       -179.1747         estimate D2E/DX2                !
 ! D134  D(38,37,40,117)        -6.6438         estimate D2E/DX2                !
 ! D135  D(37,38,39,114)      -170.4841         estimate D2E/DX2                !
 ! D136  D(37,38,39,115)       -52.0307         estimate D2E/DX2                !
 ! D137  D(37,38,39,116)        68.3237         estimate D2E/DX2                !
 ! D138  D(37,40,41,42)          0.2942         estimate D2E/DX2                !
 ! D139  D(37,40,41,43)        171.5564         estimate D2E/DX2                !
 ! D140  D(117,40,41,42)      -173.0746         estimate D2E/DX2                !
 ! D141  D(117,40,41,43)        -1.8124         estimate D2E/DX2                !
 ! D142  D(40,41,42,36)          0.5736         estimate D2E/DX2                !
 ! D143  D(43,41,42,36)       -171.3858         estimate D2E/DX2                !
 ! D144  D(40,41,43,44)         15.8969         estimate D2E/DX2                !
 ! D145  D(40,41,43,49)       -171.3485         estimate D2E/DX2                !
 ! D146  D(42,41,43,44)       -173.9161         estimate D2E/DX2                !
 ! D147  D(42,41,43,49)         -1.1614         estimate D2E/DX2                !
 ! D148  D(41,43,44,45)       -177.9945         estimate D2E/DX2                !
 ! D149  D(41,43,44,118)        -7.9855         estimate D2E/DX2                !
 ! D150  D(49,43,44,45)          8.2759         estimate D2E/DX2                !
 ! D151  D(49,43,44,118)       178.285          estimate D2E/DX2                !
 ! D152  D(41,43,49,47)       -176.6699         estimate D2E/DX2                !
 ! D153  D(41,43,49,119)         3.1335         estimate D2E/DX2                !
 ! D154  D(44,43,49,47)         -3.3631         estimate D2E/DX2                !
 ! D155  D(44,43,49,119)       176.4402         estimate D2E/DX2                !
 ! D156  D(43,44,45,46)         -9.2674         estimate D2E/DX2                !
 ! D157  D(118,44,45,46)      -179.0587         estimate D2E/DX2                !
 ! D158  D(44,45,46,47)          4.9061         estimate D2E/DX2                !
 ! D159  D(44,45,46,50)        178.1604         estimate D2E/DX2                !
 ! D160  D(45,46,47,48)        179.534          estimate D2E/DX2                !
 ! D161  D(45,46,47,49)         -0.2193         estimate D2E/DX2                !
 ! D162  D(50,46,47,48)          7.1421         estimate D2E/DX2                !
 ! D163  D(50,46,47,49)       -172.6112         estimate D2E/DX2                !
 ! D164  D(45,46,50,51)       -136.838          estimate D2E/DX2                !
 ! D165  D(45,46,50,56)         47.6567         estimate D2E/DX2                !
 ! D166  D(47,46,50,51)         35.8359         estimate D2E/DX2                !
 ! D167  D(47,46,50,56)       -139.6695         estimate D2E/DX2                !
 ! D168  D(46,47,49,43)         -0.2356         estimate D2E/DX2                !
 ! D169  D(46,47,49,119)       179.9514         estimate D2E/DX2                !
 ! D170  D(48,47,49,43)       -179.9773         estimate D2E/DX2                !
 ! D171  D(48,47,49,119)         0.2097         estimate D2E/DX2                !
 ! D172  D(46,50,51,52)          4.3804         estimate D2E/DX2                !
 ! D173  D(46,50,51,54)       -177.8119         estimate D2E/DX2                !
 ! D174  D(56,50,51,52)       -179.8533         estimate D2E/DX2                !
 ! D175  D(56,50,51,54)         -2.0456         estimate D2E/DX2                !
 ! D176  D(46,50,56,55)        178.8477         estimate D2E/DX2                !
 ! D177  D(51,50,56,55)          2.2166         estimate D2E/DX2                !
 ! D178  D(50,51,52,53)       -176.1554         estimate D2E/DX2                !
 ! D179  D(54,51,52,53)          6.3092         estimate D2E/DX2                !
 ! D180  D(50,51,54,55)          0.5548         estimate D2E/DX2                !
 ! D181  D(50,51,54,123)      -178.1097         estimate D2E/DX2                !
 ! D182  D(52,51,54,55)        178.1039         estimate D2E/DX2                !
 ! D183  D(52,51,54,123)        -0.5606         estimate D2E/DX2                !
 ! D184  D(51,52,53,120)       178.4114         estimate D2E/DX2                !
 ! D185  D(51,52,53,121)        58.5037         estimate D2E/DX2                !
 ! D186  D(51,52,53,122)       -60.2241         estimate D2E/DX2                !
 ! D187  D(51,54,55,56)          1.2651         estimate D2E/DX2                !
 ! D188  D(51,54,55,57)       -179.1225         estimate D2E/DX2                !
 ! D189  D(123,54,55,56)       179.9764         estimate D2E/DX2                !
 ! D190  D(123,54,55,57)        -0.4112         estimate D2E/DX2                !
 ! D191  D(54,55,56,50)         -2.0038         estimate D2E/DX2                !
 ! D192  D(57,55,56,50)        178.31           estimate D2E/DX2                !
 ! D193  D(54,55,57,58)        -46.3704         estimate D2E/DX2                !
 ! D194  D(54,55,57,63)        125.8462         estimate D2E/DX2                !
 ! D195  D(56,55,57,58)        133.229          estimate D2E/DX2                !
 ! D196  D(56,55,57,63)        -54.5544         estimate D2E/DX2                !
 ! D197  D(55,57,58,59)        174.1812         estimate D2E/DX2                !
 ! D198  D(55,57,58,124)        -6.8493         estimate D2E/DX2                !
 ! D199  D(63,57,58,59)          2.0033         estimate D2E/DX2                !
 ! D200  D(63,57,58,124)      -179.0272         estimate D2E/DX2                !
 ! D201  D(55,57,63,61)       -175.2211         estimate D2E/DX2                !
 ! D202  D(55,57,63,125)         3.3314         estimate D2E/DX2                !
 ! D203  D(58,57,63,61)         -3.121          estimate D2E/DX2                !
 ! D204  D(58,57,63,125)       175.4315         estimate D2E/DX2                !
 ! D205  D(57,58,59,60)         -0.0201         estimate D2E/DX2                !
 ! D206  D(124,58,59,60)      -179.0089         estimate D2E/DX2                !
 ! D207  D(58,59,60,61)         -0.6015         estimate D2E/DX2                !
 ! D208  D(58,59,60,64)        175.5577         estimate D2E/DX2                !
 ! D209  D(59,60,61,62)       -176.5368         estimate D2E/DX2                !
 ! D210  D(59,60,61,63)         -0.771          estimate D2E/DX2                !
 ! D211  D(64,60,61,62)          7.5318         estimate D2E/DX2                !
 ! D212  D(64,60,61,63)       -176.7025         estimate D2E/DX2                !
[...]
  Beta virt. eigenvalues --    2.48360   2.48454   2.48480   2.48553   2.48573
  Beta virt. eigenvalues --    2.48620   2.48683   2.49093   2.49505   2.49639
  Beta virt. eigenvalues --    2.49924   2.50105   2.50202   2.50822   2.51270
  Beta virt. eigenvalues --    2.51314   2.51945   2.51986   2.52175   2.52355
  Beta virt. eigenvalues --    2.53006   2.54173   2.54335   2.54525   2.54761
  Beta virt. eigenvalues --    2.55056   2.55172   2.55433   2.55606   2.55703
  Beta virt. eigenvalues --    2.55887   2.56055   2.56261   2.56322   2.56437
  Beta virt. eigenvalues --    2.57421   2.57709   2.58243   2.58341   2.58711
  Beta virt. eigenvalues --    2.58786   2.59169   2.59758   2.59913   2.60068
  Beta virt. eigenvalues --    2.60179   2.60445   2.60739   2.60854   2.61373
  Beta virt. eigenvalues --    2.61714   2.62029   2.62140   2.62302   2.62577
  Beta virt. eigenvalues --    2.62703   2.63382   2.64748   2.65205   2.66024
  Beta virt. eigenvalues --    2.67001   2.67493   2.67641   2.68020   2.68114
  Beta virt. eigenvalues --    2.68787   2.69123   2.69391   2.69718   2.70365
  Beta virt. eigenvalues --    2.70487   2.78285   2.78789   2.79161   2.79706
  Beta virt. eigenvalues --    2.80084   2.80627   2.81123   2.85867   2.87317
  Beta virt. eigenvalues --    2.87679   2.87975   2.88251   2.88806   2.89113
  Beta virt. eigenvalues --    2.93759   2.94213   2.94334   2.94574   2.94884
  Beta virt. eigenvalues --    2.95514   2.97149   2.97384   2.97580   2.98159
  Beta virt. eigenvalues --    2.98192   2.98419   2.98614   2.98721   2.99880
  Beta virt. eigenvalues --    3.01004   3.01224   3.02024   3.02323   3.02518
  Beta virt. eigenvalues --    3.03129   3.06251   3.06842   3.06882   3.07726
  Beta virt. eigenvalues --    3.09180   3.09287   3.09428   3.11636   3.11717
  Beta virt. eigenvalues --    3.11774   3.11872   3.12157   3.12338   3.12478
  Beta virt. eigenvalues --    3.14043   3.14124   3.14258   3.14284   3.14381
  Beta virt. eigenvalues --    3.14428   3.14563   3.38945   3.39207   3.39447
  Beta virt. eigenvalues --    3.39640   3.39838   3.39953   3.45994   3.46030
  Beta virt. eigenvalues --    3.46103   3.46176   3.46199   3.47045   3.47149
  Beta virt. eigenvalues --    3.47532   3.53675   3.53756   3.53789   3.53901
  Beta virt. eigenvalues --    3.54030   3.54353   3.54835   3.64536   3.64671
  Beta virt. eigenvalues --    3.65866   3.65889   3.65932   3.66056   3.66244
  Beta virt. eigenvalues --    3.68617   3.68738   3.69235   3.69307   3.69339
  Beta virt. eigenvalues --    3.69438   3.69657   3.83930   3.84052   3.85613
  Beta virt. eigenvalues --    3.85628   3.85673   3.85727   3.86000   4.06319
  Beta virt. eigenvalues --    4.06438   4.08187   4.08326   4.08339   4.08430
  Beta virt. eigenvalues --    4.08696   4.26499   4.26724   4.27590   4.27626
  Beta virt. eigenvalues --    4.27640   4.27777   4.28034
          Condensed to atoms (all electrons):
          Atomic-Atomic Spin Densities.
 Mulliken charges and spin densities:
               1          2
     1  C   -0.043855  -0.000000
     2  C    0.079126   0.000000
     3  N   -0.195607   0.000000
     4  C    0.053429  -0.000000
     5  C    0.108999   0.000000
     6  F   -0.114883  -0.000000
     7  C    0.048523  -0.000000
     8  C   -0.188593  -0.000000
     9  C    0.157942  -0.000000
    10  O   -0.240428   0.000000
    11  C    0.046599   0.000000
    12  C   -0.014143   0.000000
    13  C   -0.158223   0.000000
    14  S    0.208859   0.000000
    15  C   -0.024014  -0.000000
    16  C    0.077133  -0.000000
    17  N   -0.173434  -0.000000
    18  C    0.058393   0.000000
    19  C    0.111316  -0.000000
    20  F   -0.125416  -0.000000
    21  C    0.058808   0.000000
    22  C   -0.205363   0.000000
    23  C    0.180747  -0.000000
    24  O   -0.218448  -0.000000
    25  C    0.045260  -0.000000
    26  C   -0.014216   0.000000
    27  C   -0.156344  -0.000000
    28  S    0.184699  -0.000000
    29  C   -0.022708   0.000000
    30  C    0.077876   0.000000
    31  N   -0.173424   0.000000
    32  C    0.059494   0.000000
    33  C    0.111562   0.000000
    34  F   -0.125201  -0.000000
    35  C    0.058073  -0.000000
    36  C   -0.205425  -0.000000
    37  C    0.180519   0.000000
    38  O   -0.218136   0.000000
    39  C    0.044972  -0.000000
    40  C   -0.012609  -0.000000
    41  C   -0.157832  -0.000000
    42  S    0.184801  -0.000000
    43  C   -0.026246  -0.000000
    44  C    0.084222   0.000000
    45  N   -0.193062  -0.000000
    46  C    0.059496   0.000000
    47  C    0.118723  -0.000000
    48  F   -0.110805  -0.000000
    49  C    0.057062   0.000000
    50  C   -0.192360  -0.000000
    51  C    0.155283  -0.000000
    52  O   -0.240003   0.000000
    53  C    0.045964   0.000000
    54  C   -0.012621  -0.000000
    55  C   -0.159330  -0.000000
    56  S    0.210606   0.000000
    57  C   -0.026156   0.000000
    58  C    0.084207  -0.000000
    59  N   -0.192485   0.000000
    60  C    0.059231   0.000000
    61  C    0.117512  -0.000000
    62  F   -0.111799   0.000000
    63  C    0.057461  -0.000000
    64  C   -0.192289   0.000000
    65  C    0.156723  -0.000000
    66  O   -0.239462  -0.000000
    67  C    0.046637  -0.000000
    68  C   -0.013453   0.000000
    69  C   -0.162145  -0.000000
    70  S    0.213597  -0.000000
    71  C   -0.022366  -0.000000
    72  C    0.085742  -0.000000
    73  N   -0.192593   0.000000
    74  C    0.060632  -0.000000
    75  C    0.118510   0.000000
    76  F   -0.113067  -0.000000
    77  C    0.051618   0.000000
    78  C   -0.193759   0.000000
    79  C    0.155251  -0.000000
    80  O   -0.240439  -0.000000
    81  C    0.046801  -0.000000
    82  C   -0.013985  -0.000000
    83  C   -0.158184   0.000000
    84  S    0.211919   0.000000
    85  C   -0.026883  -0.000000
    86  C    0.082343   0.000000
    87  N   -0.191088   0.000000
    88  C    0.065131   0.000000
    89  C    0.118228   0.000000
    90  F   -0.112432  -0.000000
    91  C    0.056597   0.000000
    92  C   -0.203765  -0.000000
    93  C    0.141317  -0.000000
    94  O   -0.239979   0.000000
    95  C    0.045746   0.000000
    96  C   -0.000742   0.000000
    97  C   -0.132378   0.000000
    98  S    0.201700   0.000000
    99  H    0.012328   0.000000
   100  H    0.018937   0.000000
   101  H    0.022943  -0.000000
   102  H    0.060281  -0.000000
   103  H    0.048961  -0.000000
   104  H    0.048570   0.000000
   105  H    0.006977  -0.000000
   106  H    0.010411  -0.000000
   107  H    0.023724   0.000000
   108  H    0.047053   0.000000
   109  H    0.047827  -0.000000
   110  H    0.060557  -0.000000
   111  H    0.007105  -0.000000
   112  H    0.011107  -0.000000
   113  H    0.023310  -0.000000
   114  H    0.060898   0.000000
   115  H    0.048228   0.000000
   116  H    0.047506   0.000000
   117  H    0.007733  -0.000000
   118  H    0.014015   0.000000
   119  H    0.023278   0.000000
   120  H    0.061538  -0.000000
   121  H    0.049775   0.000000
   122  H    0.049537  -0.000000
   123  H    0.008215  -0.000000
   124  H    0.013334   0.000000
   125  H    0.023082   0.000000
   126  H    0.061836  -0.000000
   127  H    0.047565   0.000000
   128  H    0.049406   0.000000
   129  H    0.005225  -0.000000
   130  H    0.024063   0.000000
   131  H    0.012206   0.000000
   132  H    0.059993   0.000000
   133  H    0.048359  -0.000000
   134  H    0.050459  -0.000000
   135  H    0.007827   0.000000
   136  H    0.011646  -0.000000
   137  H    0.021526  -0.000000
   138  H    0.060048   0.000000
   139  H    0.047096  -0.000000
   140  H    0.047878  -0.000000
   141  H    0.008203  -0.000000
   142  H    0.036219  -0.000000
 Sum of Mulliken charges =  -0.00000  -0.00000
 Mulliken charges and spin densities with hydrogens summed into heavy atoms:
               1          2
     1  C   -0.031527  -0.000000
     2  C    0.098063   0.000000
     3  N   -0.195607   0.000000
     4  C    0.053429  -0.000000
     5  C    0.108999   0.000000
     6  F   -0.114883  -0.000000
     7  C    0.071466  -0.000000
     8  C   -0.188593  -0.000000
     9  C    0.157942  -0.000000
    10  O   -0.240428   0.000000
    11  C    0.204410   0.000000
    12  C   -0.007166   0.000000
    13  C   -0.158223   0.000000
    14  S    0.208859   0.000000
    15  C   -0.024014  -0.000000
    16  C    0.087544  -0.000000
    17  N   -0.173434  -0.000000
    18  C    0.058393   0.000000
    19  C    0.111316  -0.000000
    20  F   -0.125416  -0.000000
    21  C    0.082532   0.000000
    22  C   -0.205363   0.000000
    23  C    0.180747  -0.000000
    24  O   -0.218448  -0.000000
    25  C    0.200697  -0.000000
    26  C   -0.007111   0.000000
    27  C   -0.156344  -0.000000
    28  S    0.184699  -0.000000
    29  C   -0.022708   0.000000
    30  C    0.088983  -0.000000
    31  N   -0.173424   0.000000
    32  C    0.059494   0.000000
    33  C    0.111562   0.000000
    34  F   -0.125201  -0.000000
    35  C    0.081383  -0.000000
    36  C   -0.205425  -0.000000
    37  C    0.180519   0.000000
    38  O   -0.218136   0.000000
    39  C    0.201604  -0.000000
    40  C   -0.004876  -0.000000
    41  C   -0.157832  -0.000000
    42  S    0.184801  -0.000000
    43  C   -0.026246  -0.000000
    44  C    0.098238   0.000000
    45  N   -0.193062  -0.000000
    46  C    0.059496   0.000000
    47  C    0.118723  -0.000000
    48  F   -0.110805  -0.000000
    49  C    0.080340   0.000000
    50  C   -0.192360  -0.000000
    51  C    0.155283  -0.000000
    52  O   -0.240003   0.000000
    53  C    0.206815  -0.000000
    54  C   -0.004405  -0.000000
    55  C   -0.159330  -0.000000
    56  S    0.210606   0.000000
    57  C   -0.026156   0.000000
    58  C    0.097542  -0.000000
    59  N   -0.192485   0.000000
    60  C    0.059231   0.000000
    61  C    0.117512  -0.000000
    62  F   -0.111799   0.000000
    63  C    0.080543  -0.000000
    64  C   -0.192289   0.000000
    65  C    0.156723  -0.000000
    66  O   -0.239462  -0.000000
    67  C    0.205445  -0.000000
    68  C   -0.008228   0.000000
    69  C   -0.162145  -0.000000
    70  S    0.213597  -0.000000
    71  C   -0.022366  -0.000000
    72  C    0.109804  -0.000000
    73  N   -0.192593   0.000000
    74  C    0.060632  -0.000000
    75  C    0.118510   0.000000
    76  F   -0.113067  -0.000000
    77  C    0.063824   0.000000
    78  C   -0.193759   0.000000
    79  C    0.155251  -0.000000
    80  O   -0.240439  -0.000000
    81  C    0.205612  -0.000000
    82  C   -0.006157  -0.000000
    83  C   -0.158184   0.000000
    84  S    0.211919   0.000000
    85  C   -0.026883  -0.000000
    86  C    0.093989   0.000000
    87  N   -0.191088   0.000000
    88  C    0.065131   0.000000
    89  C    0.118228   0.000000
    90  F   -0.112432  -0.000000
    91  C    0.078123   0.000000
    92  C   -0.203765  -0.000000
    93  C    0.141317  -0.000000
    94  O   -0.239979   0.000000
    95  C    0.200768   0.000000
    96  C    0.007461   0.000000
    97  C   -0.096159   0.000000
    98  S    0.201700   0.000000
 Electronic spatial extent (au):  <R**2>=         642781.8829
 Charge=              0.0000 electrons
 Dipole moment (field-independent basis, Debye):
    X=             -2.9448    Y=             -3.2651    Z=              1.0583  Tot=              4.5225
 Quadrupole moment (field-independent basis, Debye-Ang):
   XX=           -421.9120   YY=           -540.8663   ZZ=           -538.4235
   XY=             24.1479   XZ=             -8.0512   YZ=             15.1275
 Traceless Quadrupole moment (field-independent basis, Debye-Ang):
   XX=             78.4886   YY=            -40.4657   ZZ=            -38.0229
   XY=             24.1479   XZ=             -8.0512   YZ=             15.1275
 Octapole moment (field-independent basis, Debye-Ang**2):
  XXX=          -2949.3599  YYY=            -24.7368  ZZZ=            -51.9380  XYY=           -498.8591
  XXY=            326.7551  XXZ=            134.5567  XZZ=            759.2290  YZZ=             49.0980
  YYZ=             43.8163  XYZ=            810.7355
 Hexadecapole moment (field-independent basis, Debye-Ang**3):
 XXXX=        -648086.6352 YYYY=         -27087.3512 ZZZZ=         -14167.4970 XXXY=           5175.2160
 XXXZ=          13404.2013 YYYX=          -1398.9228 YYYZ=           -269.6491 ZZZX=           -135.7652
 ZZZY=           1193.0171 XXYY=        -122976.0263 XXZZ=        -123229.5829 YYZZ=          -6710.4313
 XXYZ=           3294.8760 YYXZ=           3571.7485 ZZXY=            746.3640
 N-N= 1.538066352249D+04 E-N=-4.743403788498D+04  KE= 7.053401770469D+03
 Leave Link  601 at Sun Jul 26 01:39:22 2020, MaxMem=  4026531840 cpu:              20.6 elap:               2.8
 (Enter /opt/ohpc/pub/libs/gaussian/g16-A.03/sandybridge/g16/l9999.exe)

 Test job not archived.
 1\1\GINC-SKYLAKE049\FOpt\ULC-wPBE\CC-pVDZ\C70H44F7N7O7S7\RDU230\26-Jul
 -2020\0\\#P uLC-wPBE/cc-pVDZ iop(3/107=0352900000, 3/108=0352900000) o
 pt\\H44 C70 S7 N7 O7 F7\\0,1\C,-23.1444370354,5.8711109871,-4.94566587
 96\C,-21.946175101,6.0150914543,-4.2547373022\N,-21.4306928136,5.06980
 42347,-3.4744057595\C,-22.0814438821,3.9074108558,-3.3379909829\C,-23.
 262612088,3.6720023372,-4.0499773204\F,-23.8561366884,2.4730909016,-4.
 0026382745\C,-23.8144891106,4.6591411823,-4.8454477257\C,-21.454993385
 7,2.9023890064,-2.4689811587\C,-22.0170828449,1.982539879,-1.609178035
 7\O,-23.3551543609,1.912712107,-1.4411935546\C,-23.8458827353,0.889281
 5262,-0.6016165973\C,-21.0427670156,1.2090036751,-0.9109992073\C,-19.7
 591616153,1.5679966424,-1.2338475405\S,-19.7306266608,2.848581964,-2.3
 805080049\C,-18.5150951748,0.9874682456,-0.7080169246\C,-18.4405239574
 ,-0.3624738194,-0.3486480755\N,-17.3583887986,-0.9497750399,0.14290999
 56\C,-16.2397828167,-0.2369765061,0.3196787549\C,-16.2317652623,1.1181
 866651,-0.0362468544\F,-15.1109095062,1.8464031708,0.125023821\C,-17.3
 513264666,1.7401479399,-0.5433999211\C,-15.0681779661,-0.9208656356,0.
 883053313\C,-15.0520761204,-2.0997483842,1.6107556999\O,-16.1887941528
 ,-2.7304542629,1.9612249437\C,-16.0607671585,-3.9142824465,2.718938849
 9\C,-13.7352483351,-2.5238449562,1.9559207948\C,-12.766643617,-1.67350
 12884,1.4910107042\S,-13.4486975778,-0.3494648689,0.6387518277\C,-11.3
 12237597,-1.7986426371,1.6630532228\C,-10.6970324158,-3.0531861483,1.7
 316691054\N,-9.3955044567,-3.2426493012,1.8970696236\C,-8.5802703854,-
 2.1872150391,2.0075018576\C,-9.1216403951,-0.8971421572,1.9288114003\F
 ,-8.3140873135,0.1755199263,2.0272525434\C,-10.4727529296,-0.68789717,
 1.7614973063\C,-7.1473759399,-2.4407313119,2.2069116817\C,-6.555601795
 9,-3.6069127305,2.6650226562\O,-7.2884335725,-4.6602875105,3.071589193
 8\C,-6.5856523759,-5.7923442235,3.5375903178\C,-5.1313956995,-3.539521
 2304,2.6817487618\C,-4.653518668,-2.3343523728,2.23879234\S,-5.9295715
 934,-1.271846838,1.8065231979\C,-3.2467598578,-1.9215294735,2.12600847
 \C,-2.2471969417,-2.8511953985,1.8176823699\N,-0.9569880536,-2.5557316
 947,1.7406282494\C,-0.5526109815,-1.295463182,1.946672151\C,-1.4988675
 788,-0.2928181093,2.1839925413\F,-1.1229271653,0.9872514209,2.27845156
 17\C,-2.8404080948,-0.5981549078,2.2987344869\C,0.8879620637,-1.039708
 9728,1.840833845\C,1.6998030449,-0.1726199483,2.542314367\O,1.20188881
 29,0.6045213044,3.526985238\C,2.0871730774,1.5223297262,4.1340517724\C
 ,3.0692482086,-0.2589440707,2.1530418605\C,3.2792822418,-1.2037062013,
 1.1814221962\S,1.8176241714,-1.9935765279,0.7402451968\C,4.5576714671,
 -1.5613295338,0.5484561042\C,5.5646273702,-0.6071310722,0.3649516938\N
 ,6.7351095302,-0.8620442757,-0.2035865126\C,7.0004456809,-2.0977438326
 ,-0.6471768615\C,6.0628460129,-3.1191142048,-0.4611149662\F,6.35695347
 1,-4.3798202328,-0.7985798713\C,4.838058663,-2.8593188113,0.1204148284
 \C,8.3172380114,-2.3111435842,-1.2577936088\C,8.6968240254,-3.11268204
 05,-2.3143439486\O,7.7911673515,-3.855124884,-2.9856145684\C,8.2776340
 593,-4.6898853862,-4.0150552168\C,10.0847074596,-3.0006146085,-2.62231
 33219\C,10.7309311961,-2.1005147053,-1.813918572\S,9.6559619656,-1.384
 4277602,-0.6799701829\C,12.1551575448,-1.7364236554,-1.8553259706\C,12
 .6063076601,-0.4581694592,-1.508542255\N,13.8766849755,-0.0806450394,-
 1.5578710327\C,14.81190637,-0.94945561,-1.9626094492\C,14.4487399376,-
 2.2640633705,-2.2751109004\F,15.3829145233,-3.1769607838,-2.5667259401
 \C,13.127508128,-2.6614559649,-2.2369702568\C,16.1962214745,-0.4642602
 021,-1.9863925289\C,17.2320296202,-0.7454087297,-2.8529666029\O,17.061
 9090943,-1.5896799733,-3.8926430838\C,18.1930107808,-1.8623943754,-4.6
 925920843\C,18.4232316333,-0.0234410494,-2.5454246066\C,18.2672777287,
 0.810647117,-1.4680937641\S,16.6692489058,0.7384284626,-0.8389362438\C
 ,19.2788582154,1.6990973544,-0.8748361331\C,20.2860618945,2.2733680194
 ,-1.6576402924\N,21.223211188,3.0848688426,-1.1861757714\C,21.23168935
 05,3.4002881058,0.1154028026\C,20.283430127,2.8329166359,0.9734385227\
 F,20.3445288105,3.0522319627,2.2918832961\C,19.2985908403,1.9961101246
 ,0.4882761827\C,22.2995004993,4.295933965,0.5752659947\C,22.2757559545
 ,5.2977740993,1.5225403122\O,21.1395600629,5.600975253,2.187749271\C,2
 1.2256099091,6.5937975203,3.1870274694\C,23.531384485,5.9700045223,1.6
 490048748\C,24.461186279,5.4738137634,0.7816803289\S,23.8450853533,4.2
 185705169,-0.1960719624\H,-23.535780643,6.6826450134,-5.5627313914\H,-
 21.3673407915,6.9421076931,-4.3297985936\H,-24.7423490495,4.4534517088
 ,-5.3838718136\H,-24.9402930193,0.9645712899,-0.6348555384\H,-23.50899
 51807,1.0214240739,0.4414664516\H,-23.5433065969,-0.1099218635,-0.9599
 402007\H,-21.2743607565,0.4478676742,-0.1668235597\H,-19.3120707597,-1
 .0113263923,-0.4903614281\H,-17.3055882766,2.8051088565,-0.7837404214\
 H,-15.57595314,-3.7267695342,3.6931469671\H,-15.4948499543,-4.68882195
 97,2.172495874\H,-17.0823323448,-4.2759223365,2.8923349526\H,-13.50816
 49705,-3.4045801081,2.5548315493\H,-11.3006647487,-3.961269846,1.62362
 02045\H,-10.8523529103,0.3362222238,1.7302115929\H,-7.3486998966,-6.53
 3121525,3.8084899163\H,-5.9348824641,-6.2188385023,2.7544684847\H,-5.9
 787314535,-5.5589382127,4.4299783669\H,-4.4804370124,-4.3359864627,3.0
 394163956\H,-2.5146096223,-3.8925916937,1.6085841817\H,-3.549774166,0.
 2042088463,2.5160088504\H,1.489635403,2.0897387794,4.8588479717\H,2.51
 57530866,2.2215524509,3.395461069\H,2.9044528969,1.0069310484,4.668109
 9416\H,3.8764583726,0.3197076094,2.6005911035\H,5.4020776976,0.4282939
 276,0.6829820057\H,4.1337695446,-3.6824821142,0.2638120424\H,7.4077677
 904,-5.2341175052,-4.4042970838\H,9.0151594635,-5.4171920804,-3.633544
 6769\H,8.7304105209,-4.104255704,-4.8341537692\H,10.5820372722,-3.5280
 467757,-3.4357443795\H,11.8914384309,0.3070652687,-1.1850431473\H,12.8
 803423021,-3.7001133997,-2.4666821232\H,17.8622941603,-2.5780815335,-5
 .4560365296\H,18.5671882736,-0.9517815951,-5.1922071491\H,19.007593333
 7,-2.3172536502,-4.1028204359\H,19.3650102852,-0.1274267412,-3.0828240
 581\H,20.3220884706,2.0760252531,-2.7344596557\H,18.5816527939,1.55921
 69811,1.187718342\H,20.2250665236,6.6680623477,3.6320678172\H,21.50349
 65331,7.5750343692,2.763764791\H,21.9489963431,6.3172848097,3.97369450
 73\H,23.7333054509,6.7876674015,2.3398923608\H,25.4936696365,5.8025880
 028,0.6674889438\\Version=EM64L-G16RevA.03\State=1-A\HF=-7086.1836638\
 S2=0.\S2-1=0.\S2A=0.\RMSD=4.422e-09\RMSF=1.068e-06\Dipole=-1.1484775,-
 1.1080571,0.7867787\Quadrupole=58.0665499,-23.0240269,-35.042523,16.11
 82496,-11.0817026,9.5859695\PG=C01 [X(C70H44F7N7O7S7)]\\@


 MICRO CREDO - NEVER TRUST A COMPUTER BIGGER
               BIGGER THAN YOU CAN LIFT.
 Job cpu time:       6 days 15 hours 14 minutes 41.4 seconds.
 Elapsed time:       0 days 20 hours 11 minutes 28.1 seconds.
 File lengths (MBytes):  RWF=   2908 Int=      0 D2E=      0 Chk=    260 Scr=      8
 Normal termination of Gaussian 16 at Sun Jul 26 01:39:22 2020.
