 Entering Gaussian System, Link 0=g16
 Input=mols_65_3_07_c-n-COC_opt_0.gjf
 Output=mols_65_3_07_c-n-COC_opt_0.log
 Initial command:
 /opt/ohpc/pub/libs/gaussian/g16-A.03/sandybridge/g16/l1.exe "/mnt/gpfs2_4m/scratch/rdu230/ondemand/projects/dihedral_energies/7trial/wtuning/mols_65_3_07_c-n-COC/Gau-333791.inp" -scrdir="/mnt/gpfs2_4m/scratch/rdu230/ondemand/projects/dihedral_energies/7trial/wtuning/mols_65_3_07_c-n-COC/"
 Entering Link 1 = /opt/ohpc/pub/libs/gaussian/g16-A.03/sandybridge/g16/l1.exe PID=    333792.
  
 Copyright (c) 1988,1990,1992,1993,1995,1998,2003,2009,2016,
            Gaussian, Inc.  All Rights Reserved.
  
 This is part of the Gaussian(R) 16 program.  It is based on
 the Gaussian(R) 09 system (copyright 2009, Gaussian, Inc.),
 the Gaussian(R) 03 system (copyright 2003, Gaussian, Inc.),
 the Gaussian(R) 98 system (copyright 1998, Gaussian, Inc.),
 the Gaussian(R) 94 system (copyright 1995, Gaussian, Inc.),
 the Gaussian 92(TM) system (copyright 1992, Gaussian, Inc.),
 the Gaussian 90(TM) system (copyright 1990, Gaussian, Inc.),
 the Gaussian 88(TM) system (copyright 1988, Gaussian, Inc.),
 the Gaussian 86(TM) system (copyright 1986, Carnegie Mellon
 University), and the Gaussian 82(TM) system (copyright 1983,
 Carnegie Mellon University). Gaussian is a federally registered
 trademark of Gaussian, Inc.
  
 This software contains proprietary and confidential information,
 including trade secrets, belonging to Gaussian, Inc.
  
 This software is provided under written license and may be
 used, copied, transmitted, or stored only in accord with that
 written license.
  
 The following legend is applicable only to US Government
 contracts under FAR:
  
                    RESTRICTED RIGHTS LEGEND
  
 Use, reproduction and disclosure by the US Government is
 subject to restrictions as set forth in subparagraphs (a)
 and (c) of the Commercial Computer Software - Restricted
 Rights clause in FAR 52.227-19.
  
 Gaussian, Inc.
 340 Quinnipiac St., Bldg. 40, Wallingford CT 06492
  
  
 ---------------------------------------------------------------
 Warning -- This program may not be used in any manner that
 competes with the business of Gaussian, Inc. or will provide
 assistance to any competitor of Gaussian, Inc.  The licensee
 of this program is prohibited from giving any competitor of
 Gaussian, Inc. access to this program.  By using this program,
 the user acknowledges that Gaussian, Inc. is engaged in the
 business of creating and licensing software in the field of
 computational chemistry and represents and warrants to the
 licensee that it is not a competitor of Gaussian, Inc. and that
 it will not use this program in any manner prohibited above.
 ---------------------------------------------------------------
  

 Cite this work as:
 Gaussian 16, Revision A.03,
 M. J. Frisch, G. W. Trucks, H. B. Schlegel, G. E. Scuseria, 
 M. A. Robb, J. R. Cheeseman, G. Scalmani, V. Barone, 
 G. A. Petersson, H. Nakatsuji, X. Li, M. Caricato, A. V. Marenich, 
 J. Bloino, B. G. Janesko, R. Gomperts, B. Mennucci, H. P. Hratchian, 
 J. V. Ortiz, A. F. Izmaylov, J. L. Sonnenberg, D. Williams-Young, 
 F. Ding, F. Lipparini, F. Egidi, J. Goings, B. Peng, A. Petrone, 
 T. Henderson, D. Ranasinghe, V. G. Zakrzewski, J. Gao, N. Rega, 
 G. Zheng, W. Liang, M. Hada, M. Ehara, K. Toyota, R. Fukuda, 
 J. Hasegawa, M. Ishida, T. Nakajima, Y. Honda, O. Kitao, H. Nakai, 
 T. Vreven, K. Throssell, J. A. Montgomery, Jr., J. E. Peralta, 
 F. Ogliaro, M. J. Bearpark, J. J. Heyd, E. N. Brothers, K. N. Kudin, 
 V. N. Staroverov, T. A. Keith, R. Kobayashi, J. Normand, 
 K. Raghavachari, A. P. Rendell, J. C. Burant, S. S. Iyengar, 
 J. Tomasi, M. Cossi, J. M. Millam, M. Klene, C. Adamo, R. Cammi, 
 J. W. Ochterski, R. L. Martin, K. Morokuma, O. Farkas, 
 J. B. Foresman, and D. J. Fox, Gaussian, Inc., Wallingford CT, 2016.
 
 ******************************************
 Gaussian 16:  EM64L-G16RevA.03 25-Dec-2016
                24-Jul-2020 
 ******************************************
 %mem=30GB
 %nproc=8
 Will use up to    8 processors via shared memory.
 ---------------------------------------------------------------
 #P uLC-wPBE/cc-pVDZ iop(3/107=0472000000, 3/108=0472000000) opt
 ---------------------------------------------------------------
 1/18=20,19=15,26=3,38=1/1,3;
 2/9=110,12=2,17=6,18=5,40=1/2;
 3/5=16,11=2,25=1,30=1,71=1,74=-41,107=472000000,108=472000000,116=2/1,2,3;
 4//1;
 5/5=2,38=5/2;
 6/7=2,8=2,9=2,10=2,28=1/1;
 7//1,2,3,16;
 1/18=20,19=15,26=3/3(2);
 2/9=110/2;
 99//99;
 2/9=110/2;
 3/5=16,11=2,25=1,30=1,71=1,74=-41,107=472000000,108=472000000,116=2/1,2,3;
 4/5=5,16=3,69=1/1;
 5/5=2,38=5/2;
 7//1,2,3,16;
 1/18=20,19=15,26=3/3(-5);
 2/9=110/2;
 6/7=2,8=2,9=2,10=2,19=2,28=1/1;
 99/9=1/99;
 Leave Link    1 at Fri Jul 24 17:40:19 2020, MaxMem=  4026531840 cpu:               1.5 elap:               0.2
 (Enter /opt/ohpc/pub/libs/gaussian/g16-A.03/sandybridge/g16/l101.exe)
 ----------------
 H23 C30 S3 N3 O3
 ----------------
 Symbolic Z-matrix:
 Charge =  0 Multiplicity = 1
 C                    -11.50217  -0.54363  -0.03173 
 C                    -11.07341   0.56698   0.72159 
 C                    -9.77126   0.97954   0.81452 
 C                    -8.85306   0.20398  -0.0176 
 N                    -9.1897   -0.87215  -0.69518 
 C                    -10.52043  -1.19657  -0.67677 
 C                    -7.41222   0.63976  -0.0505 
 C                    -6.8003    1.82669  -0.10736 
 O                    -7.59284   2.93864  -0.10516 
 C                    -6.80555   4.17085  -0.2404 
 C                    -5.35163   1.72254  -0.05129 
 C                    -4.90129   0.43434  -0.03012 
 S                    -6.25953  -0.65412  -0.05668 
 C                    -3.54237  -0.08641  -0.10484 
 C                    -3.14124  -1.16891  -0.76395 
 C                    -1.82296  -1.56454  -0.74425 
 C                    -0.84566  -0.88241  -0.01435 
 N                    -1.22468   0.28077   0.70962 
 C                    -2.51818   0.57609   0.66486 
 C                     0.50148  -1.25043   0.00982 
 C                     1.10978  -2.48721   0.17965 
 O                     0.30826  -3.61904   0.13696 
 C                     1.00953  -4.83615   0.44922 
 C                     2.53769  -2.46491   0.16471 
 C                     2.98965  -1.08438   0.11666 
 S                     1.6929    0.02448  -0.00953 
 C                     4.46056  -0.63926   0.09381 
 C                     4.8501    0.53724   0.80698 
 C                     6.16902   0.90121   0.72333 
 C                     7.11753   0.06436   0.08522 
 N                     6.67068  -1.02446  -0.60692 
 C                     5.37766  -1.39951  -0.58023 
 C                     8.54681   0.46492   0.03489 
 C                     9.18248   1.68509  -0.12537 
 O                     8.3753    2.80027  -0.23601 
 C                     9.08096   4.00989  -0.49981 
 C                     10.54313   1.53082  -0.11008 
 C                     11.0002   0.25248  -0.05997 
 S                     9.73522  -0.83385   0.07642 
 H                    -12.50593  -0.92103  -0.00619 
 H                    -11.78675   1.07199   1.3403 
 H                    -9.39464   1.80233   1.38159 
 H                    -10.72756  -2.10592  -1.35221 
 H                    -6.28533   4.22182  -1.14697 
 H                    -7.54287   4.96898  -0.26531 
 H                    -6.1947    4.35862   0.65781 
 H                    -4.68769   2.59002  -0.16868 
 H                    -3.83067  -1.67247  -1.42395 
 H                    -1.53585  -2.42182  -1.35004 
 H                    -2.77033   1.51875   1.2846 
 H                     0.31611  -5.64635   0.48241 
 H                     1.69404  -5.00239  -0.43639 
 H                     1.55123  -4.74634   1.34379 
 H                     3.20814  -3.25349   0.19589 
 H                     4.07949   1.09553   1.34266 
 H                     6.4522    1.7639    1.2709 
 H                     5.17806  -2.30995  -1.09728 
 H                     9.62675   3.97021  -1.44387 
 H                     9.80739   4.27175   0.3225 
 H                     8.34913   4.81961  -0.56657 
 H                     11.2216   2.43734  -0.17676 
 H                     12.04221  -0.0851   -0.0356 
 
 ITRead=  0  0  0  0  0  0  0  0  0  0  0  0  0  0  0  0  0  0  0  0
 ITRead=  0  0  0  0  0  0  0  0  0  0  0  0  0  0  0  0  0  0  0  0
 ITRead=  0  0  0  0  0  0  0  0  0  0  0  0  0  0  0  0  0  0  0  0
 ITRead=  0  0
 MicOpt= -1 -1 -1 -1 -1 -1 -1 -1 -1 -1 -1 -1 -1 -1 -1 -1 -1 -1 -1 -1
 MicOpt= -1 -1 -1 -1 -1 -1 -1 -1 -1 -1 -1 -1 -1 -1 -1 -1 -1 -1 -1 -1
 MicOpt= -1 -1 -1 -1 -1 -1 -1 -1 -1 -1 -1 -1 -1 -1 -1 -1 -1 -1 -1 -1
 MicOpt= -1 -1
 NAtoms=     62 NQM=       62 NQMF=       0 NMMI=      0 NMMIF=      0
                NMic=       0 NMicF=      0.
                    Isotopes and Nuclear Properties:
 (Nuclear quadrupole moments (NQMom) in fm**2, nuclear magnetic moments (NMagM)
  in nuclear magnetons)

  Atom         1           2           3           4           5           6           7           8           9          10
 IAtWgt=          12          12          12          12          14          12          12          12          16          12
 AtmWgt=  12.0000000  12.0000000  12.0000000  12.0000000  14.0030740  12.0000000  12.0000000  12.0000000  15.9949146  12.0000000
 NucSpn=           0           0           0           0           2           0           0           0           0           0
 AtZEff=  -0.0000000  -0.0000000  -0.0000000  -0.0000000  -0.0000000  -0.0000000  -0.0000000  -0.0000000  -0.0000000  -0.0000000
 NQMom=    0.0000000   0.0000000   0.0000000   0.0000000   2.0440000   0.0000000   0.0000000   0.0000000   0.0000000   0.0000000
 NMagM=    0.0000000   0.0000000   0.0000000   0.0000000   0.4037610   0.0000000   0.0000000   0.0000000   0.0000000   0.0000000
 AtZNuc=   6.0000000   6.0000000   6.0000000   6.0000000   7.0000000   6.0000000   6.0000000   6.0000000   8.0000000   6.0000000

  Atom        11          12          13          14          15          16          17          18          19          20
 IAtWgt=          12          12          32          12          12          12          12          14          12          12
 AtmWgt=  12.0000000  12.0000000  31.9720718  12.0000000  12.0000000  12.0000000  12.0000000  14.0030740  12.0000000  12.0000000
 NucSpn=           0           0           0           0           0           0           0           2           0           0
 AtZEff=  -0.0000000  -0.0000000  -0.0000000  -0.0000000  -0.0000000  -0.0000000  -0.0000000  -0.0000000  -0.0000000  -0.0000000
 NQMom=    0.0000000   0.0000000   0.0000000   0.0000000   0.0000000   0.0000000   0.0000000   2.0440000   0.0000000   0.0000000
 NMagM=    0.0000000   0.0000000   0.0000000   0.0000000   0.0000000   0.0000000   0.0000000   0.4037610   0.0000000   0.0000000
 AtZNuc=   6.0000000   6.0000000  16.0000000   6.0000000   6.0000000   6.0000000   6.0000000   7.0000000   6.0000000   6.0000000

  Atom        21          22          23          24          25          26          27          28          29          30
 IAtWgt=          12          16          12          12          12          32          12          12          12          12
 AtmWgt=  12.0000000  15.9949146  12.0000000  12.0000000  12.0000000  31.9720718  12.0000000  12.0000000  12.0000000  12.0000000
 NucSpn=           0           0           0           0           0           0           0           0           0           0
 AtZEff=  -0.0000000  -0.0000000  -0.0000000  -0.0000000  -0.0000000  -0.0000000  -0.0000000  -0.0000000  -0.0000000  -0.0000000
 NQMom=    0.0000000   0.0000000   0.0000000   0.0000000   0.0000000   0.0000000   0.0000000   0.0000000   0.0000000   0.0000000
 NMagM=    0.0000000   0.0000000   0.0000000   0.0000000   0.0000000   0.0000000   0.0000000   0.0000000   0.0000000   0.0000000
 AtZNuc=   6.0000000   8.0000000   6.0000000   6.0000000   6.0000000  16.0000000   6.0000000   6.0000000   6.0000000   6.0000000

  Atom        31          32          33          34          35          36          37          38          39          40
 IAtWgt=          14          12          12          12          16          12          12          12          32           1
 AtmWgt=  14.0030740  12.0000000  12.0000000  12.0000000  15.9949146  12.0000000  12.0000000  12.0000000  31.9720718   1.0078250
 NucSpn=           2           0           0           0           0           0           0           0           0           1
 AtZEff=  -0.0000000  -0.0000000  -0.0000000  -0.0000000  -0.0000000  -0.0000000  -0.0000000  -0.0000000  -0.0000000  -0.0000000
 NQMom=    2.0440000   0.0000000   0.0000000   0.0000000   0.0000000   0.0000000   0.0000000   0.0000000   0.0000000   0.0000000
 NMagM=    0.4037610   0.0000000   0.0000000   0.0000000   0.0000000   0.0000000   0.0000000   0.0000000   0.0000000   2.7928460
 AtZNuc=   7.0000000   6.0000000   6.0000000   6.0000000   8.0000000   6.0000000   6.0000000   6.0000000  16.0000000   1.0000000

  Atom        41          42          43          44          45          46          47          48          49          50
 IAtWgt=           1           1           1           1           1           1           1           1           1           1
 AtmWgt=   1.0078250   1.0078250   1.0078250   1.0078250   1.0078250   1.0078250   1.0078250   1.0078250   1.0078250   1.0078250
 NucSpn=           1           1           1           1           1           1           1           1           1           1
 AtZEff=  -0.0000000  -0.0000000  -0.0000000  -0.0000000  -0.0000000  -0.0000000  -0.0000000  -0.0000000  -0.0000000  -0.0000000
 NQMom=    0.0000000   0.0000000   0.0000000   0.0000000   0.0000000   0.0000000   0.0000000   0.0000000   0.0000000   0.0000000
 NMagM=    2.7928460   2.7928460   2.7928460   2.7928460   2.7928460   2.7928460   2.7928460   2.7928460   2.7928460   2.7928460
 AtZNuc=   1.0000000   1.0000000   1.0000000   1.0000000   1.0000000   1.0000000   1.0000000   1.0000000   1.0000000   1.0000000

  Atom        51          52          53          54          55          56          57          58          59          60
 IAtWgt=           1           1           1           1           1           1           1           1           1           1
 AtmWgt=   1.0078250   1.0078250   1.0078250   1.0078250   1.0078250   1.0078250   1.0078250   1.0078250   1.0078250   1.0078250
 NucSpn=           1           1           1           1           1           1           1           1           1           1
 AtZEff=  -0.0000000  -0.0000000  -0.0000000  -0.0000000  -0.0000000  -0.0000000  -0.0000000  -0.0000000  -0.0000000  -0.0000000
 NQMom=    0.0000000   0.0000000   0.0000000   0.0000000   0.0000000   0.0000000   0.0000000   0.0000000   0.0000000   0.0000000
 NMagM=    2.7928460   2.7928460   2.7928460   2.7928460   2.7928460   2.7928460   2.7928460   2.7928460   2.7928460   2.7928460
 AtZNuc=   1.0000000   1.0000000   1.0000000   1.0000000   1.0000000   1.0000000   1.0000000   1.0000000   1.0000000   1.0000000

  Atom        61          62
 IAtWgt=           1           1
 AtmWgt=   1.0078250   1.0078250
 NucSpn=           1           1
 AtZEff=  -0.0000000  -0.0000000
 NQMom=    0.0000000   0.0000000
 NMagM=    2.7928460   2.7928460
 AtZNuc=   1.0000000   1.0000000
 Leave Link  101 at Fri Jul 24 17:40:20 2020, MaxMem=  4026531840 cpu:               3.9 elap:               0.5
 (Enter /opt/ohpc/pub/libs/gaussian/g16-A.03/sandybridge/g16/l103.exe)

 GradGradGradGradGradGradGradGradGradGradGradGradGradGradGradGradGradGrad
 Berny optimization.
 Initialization pass.
                           ----------------------------
                           !    Initial Parameters    !
                           ! (Angstroms and Degrees)  !
 --------------------------                            --------------------------
 ! Name  Definition              Value          Derivative Info.                !
 --------------------------------------------------------------------------------
 ! R1    R(1,2)                  1.4088         estimate D2E/DX2                !
 ! R2    R(1,6)                  1.344          estimate D2E/DX2                !
 ! R3    R(1,40)                 1.0727         estimate D2E/DX2                !
 ! R4    R(2,3)                  1.3691         estimate D2E/DX2                !
 ! R5    R(2,41)                 1.0708         estimate D2E/DX2                !
 ! R6    R(3,4)                  1.4618         estimate D2E/DX2                !
 ! R7    R(3,42)                 1.0679         estimate D2E/DX2                !
 ! R8    R(4,5)                  1.3155         estimate D2E/DX2                !
 ! R9    R(4,7)                  1.5057         estimate D2E/DX2                !
 ! R10   R(5,6)                  1.3698         estimate D2E/DX2                !
 ! R11   R(6,43)                 1.1515         estimate D2E/DX2                !
 ! R12   R(7,8)                  1.3366         estimate D2E/DX2                !
 ! R13   R(7,13)                 1.7329         estimate D2E/DX2                !
 ! R14   R(8,9)                  1.3655         estimate D2E/DX2                !
 ! R15   R(8,11)                 1.4535         estimate D2E/DX2                !
 ! R16   R(9,10)                 1.4685         estimate D2E/DX2                !
 ! R17   R(10,44)                1.0465         estimate D2E/DX2                !
 ! R18   R(10,45)                1.0869         estimate D2E/DX2                !
 ! R19   R(10,46)                1.1024         estimate D2E/DX2                !
 ! R20   R(11,12)                1.3648         estimate D2E/DX2                !
 ! R21   R(11,47)                1.0987         estimate D2E/DX2                !
 ! R22   R(12,13)                1.7408         estimate D2E/DX2                !
 ! R23   R(12,14)                1.4572         estimate D2E/DX2                !
 ! R24   R(14,15)                1.3293         estimate D2E/DX2                !
 ! R25   R(14,19)                1.4423         estimate D2E/DX2                !
 ! R26   R(15,16)                1.3765         estimate D2E/DX2                !
 ! R27   R(15,48)                1.0791         estimate D2E/DX2                !
 ! R28   R(16,17)                1.3976         estimate D2E/DX2                !
 ! R29   R(16,49)                1.0883         estimate D2E/DX2                !
 ! R30   R(17,18)                1.4215         estimate D2E/DX2                !
 ! R31   R(17,20)                1.3967         estimate D2E/DX2                !
 ! R32   R(18,19)                1.3275         estimate D2E/DX2                !
 ! R33   R(19,50)                1.156          estimate D2E/DX2                !
 ! R34   R(20,21)                1.3887         estimate D2E/DX2                !
 ! R35   R(20,26)                1.7451         estimate D2E/DX2                !
 ! R36   R(21,22)                1.3876         estimate D2E/DX2                !
 ! R37   R(21,24)                1.4282         estimate D2E/DX2                !
 ! R38   R(22,23)                1.439          estimate D2E/DX2                !
 ! R39   R(23,51)                1.0669         estimate D2E/DX2                !
 ! R40   R(23,52)                1.1316         estimate D2E/DX2                !
 ! R41   R(23,53)                1.0496         estimate D2E/DX2                !
 ! R42   R(24,25)                1.4534         estimate D2E/DX2                !
 ! R43   R(24,54)                1.0355         estimate D2E/DX2                !
 ! R44   R(25,26)                1.7109         estimate D2E/DX2                !
 ! R45   R(25,27)                1.537          estimate D2E/DX2                !
 ! R46   R(27,28)                1.4299         estimate D2E/DX2                !
 ! R47   R(27,32)                1.3687         estimate D2E/DX2                !
 ! R48   R(28,29)                1.3708         estimate D2E/DX2                !
 ! R49   R(28,55)                1.092          estimate D2E/DX2                !
 ! R50   R(29,30)                1.4167         estimate D2E/DX2                !
 ! R51   R(29,56)                1.0603         estimate D2E/DX2                !
 ! R52   R(30,31)                1.3654         estimate D2E/DX2                !
 ! R53   R(30,33)                1.4852         estimate D2E/DX2                !
 ! R54   R(31,32)                1.3466         estimate D2E/DX2                !
 ! R55   R(32,57)                1.0659         estimate D2E/DX2                !
 ! R56   R(33,34)                1.3851         estimate D2E/DX2                !
 ! R57   R(33,39)                1.7609         estimate D2E/DX2                !
 ! R58   R(34,35)                1.3811         estimate D2E/DX2                !
 ! R59   R(34,37)                1.3695         estimate D2E/DX2                !
 ! R60   R(35,36)                1.425          estimate D2E/DX2                !
 ! R61   R(36,58)                1.0912         estimate D2E/DX2                !
 ! R62   R(36,59)                1.128          estimate D2E/DX2                !
 ! R63   R(36,60)                1.0935         estimate D2E/DX2                !
 ! R64   R(37,38)                1.3585         estimate D2E/DX2                !
 ! R65   R(37,61)                1.1343         estimate D2E/DX2                !
 ! R66   R(38,39)                1.673          estimate D2E/DX2                !
 ! R67   R(38,62)                1.0956         estimate D2E/DX2                !
 ! A1    A(2,1,6)              114.665          estimate D2E/DX2                !
 ! A2    A(2,1,40)             123.3271         estimate D2E/DX2                !
 ! A3    A(6,1,40)             121.6048         estimate D2E/DX2                !
 ! A4    A(1,2,3)              124.2849         estimate D2E/DX2                !
 ! A5    A(1,2,41)             118.5542         estimate D2E/DX2                !
 ! A6    A(3,2,41)             116.8876         estimate D2E/DX2                !
 ! A7    A(2,3,4)              113.5081         estimate D2E/DX2                !
 ! A8    A(2,3,42)             127.1319         estimate D2E/DX2                !
 ! A9    A(4,3,42)             119.3087         estimate D2E/DX2                !
 ! A10   A(3,4,5)              124.5042         estimate D2E/DX2                !
 ! A11   A(3,4,7)              117.384          estimate D2E/DX2                !
 ! A12   A(5,4,7)              118.0602         estimate D2E/DX2                !
 ! A13   A(4,5,6)              115.8117         estimate D2E/DX2                !
 ! A14   A(1,6,5)              126.9438         estimate D2E/DX2                !
 ! A15   A(1,6,43)             122.2614         estimate D2E/DX2                !
 ! A16   A(5,6,43)             110.7241         estimate D2E/DX2                !
 ! A17   A(4,7,8)              134.112          estimate D2E/DX2                !
 ! A18   A(4,7,13)             114.8676         estimate D2E/DX2                !
 ! A19   A(8,7,13)             111.0002         estimate D2E/DX2                !
 ! A20   A(7,8,9)              117.2164         estimate D2E/DX2                !
 ! A21   A(7,8,11)             113.0185         estimate D2E/DX2                !
 ! A22   A(9,8,11)             129.5513         estimate D2E/DX2                !
 ! A23   A(8,9,10)             111.8384         estimate D2E/DX2                !
 ! A24   A(9,10,44)            112.7786         estimate D2E/DX2                !
 ! A25   A(9,10,45)            104.7497         estimate D2E/DX2                !
 ! A26   A(9,10,46)            111.4056         estimate D2E/DX2                !
 ! A27   A(44,10,45)           106.3577         estimate D2E/DX2                !
 ! A28   A(44,10,46)           114.9677         estimate D2E/DX2                !
 ! A29   A(45,10,46)           105.6353         estimate D2E/DX2                !
 ! A30   A(8,11,12)            113.3973         estimate D2E/DX2                !
 ! A31   A(8,11,47)            122.7926         estimate D2E/DX2                !
 ! A32   A(12,11,47)           123.1951         estimate D2E/DX2                !
 ! A33   A(11,12,13)           109.4193         estimate D2E/DX2                !
 ! A34   A(11,12,14)           130.107          estimate D2E/DX2                !
 ! A35   A(13,12,14)           120.2255         estimate D2E/DX2                !
 ! A36   A(7,13,12)             92.986          estimate D2E/DX2                !
 ! A37   A(12,14,15)           126.7142         estimate D2E/DX2                !
 ! A38   A(12,14,19)           118.0797         estimate D2E/DX2                !
 ! A39   A(15,14,19)           115.1103         estimate D2E/DX2                !
 ! A40   A(14,15,16)           121.0596         estimate D2E/DX2                !
 ! A41   A(14,15,48)           119.3708         estimate D2E/DX2                !
 ! A42   A(16,15,48)           119.1109         estimate D2E/DX2                !
 ! A43   A(15,16,17)           122.4732         estimate D2E/DX2                !
 ! A44   A(15,16,49)           118.1056         estimate D2E/DX2                !
 ! A45   A(17,16,49)           119.388          estimate D2E/DX2                !
 ! A46   A(16,17,18)           118.6147         estimate D2E/DX2                !
 ! A47   A(16,17,20)           123.7041         estimate D2E/DX2                !
 ! A48   A(18,17,20)           117.6421         estimate D2E/DX2                !
 ! A49   A(17,18,19)           115.1278         estimate D2E/DX2                !
 ! A50   A(14,19,18)           127.4237         estimate D2E/DX2                !
 ! A51   A(14,19,50)           120.383          estimate D2E/DX2                !
 ! A52   A(18,19,50)           112.0776         estimate D2E/DX2                !
 ! A53   A(17,20,21)           131.2439         estimate D2E/DX2                !
 ! A54   A(17,20,26)           117.7633         estimate D2E/DX2                !
 ! A55   A(21,20,26)           110.6675         estimate D2E/DX2                !
 ! A56   A(20,21,22)           118.0132         estimate D2E/DX2                !
 ! A57   A(20,21,24)           115.0098         estimate D2E/DX2                !
 ! A58   A(22,21,24)           126.1543         estimate D2E/DX2                !
 ! A59   A(21,22,23)           113.6878         estimate D2E/DX2                !
 ! A60   A(22,23,51)           109.4094         estimate D2E/DX2                !
 ! A61   A(22,23,52)           104.4317         estimate D2E/DX2                !
 ! A62   A(22,23,53)           111.351          estimate D2E/DX2                !
 ! A63   A(51,23,52)           107.8136         estimate D2E/DX2                !
 ! A64   A(51,23,53)           111.9543         estimate D2E/DX2                !
 ! A65   A(52,23,53)           111.5543         estimate D2E/DX2                !
 ! A66   A(21,24,25)           109.0313         estimate D2E/DX2                !
 ! A67   A(21,24,54)           129.4287         estimate D2E/DX2                !
 ! A68   A(25,24,54)           121.5335         estimate D2E/DX2                !
 ! A69   A(24,25,26)           112.4803         estimate D2E/DX2                !
 ! A70   A(24,25,27)           124.9722         estimate D2E/DX2                !
 ! A71   A(26,25,27)           122.451          estimate D2E/DX2                !
 ! A72   A(20,26,25)            92.4736         estimate D2E/DX2                !
 ! A73   A(25,27,28)           119.4458         estimate D2E/DX2                !
 ! A74   A(25,27,32)           119.1901         estimate D2E/DX2                !
 ! A75   A(28,27,32)           121.3399         estimate D2E/DX2                !
 ! A76   A(27,28,29)           116.7539         estimate D2E/DX2                !
 ! A77   A(27,28,55)           118.2349         estimate D2E/DX2                !
 ! A78   A(29,28,55)           124.9715         estimate D2E/DX2                !
 ! A79   A(28,29,30)           120.9851         estimate D2E/DX2                !
 ! A80   A(28,29,56)           116.199          estimate D2E/DX2                !
 ! A81   A(30,29,56)           122.3024         estimate D2E/DX2                !
 ! A82   A(29,30,31)           118.702          estimate D2E/DX2                !
 ! A83   A(29,30,33)           120.0163         estimate D2E/DX2                !
 ! A84   A(31,30,33)           120.8531         estimate D2E/DX2                !
 ! A85   A(30,31,32)           121.7564         estimate D2E/DX2                !
 ! A86   A(27,32,31)           119.8977         estimate D2E/DX2                !
 ! A87   A(27,32,57)           126.0056         estimate D2E/DX2                !
 ! A88   A(31,32,57)           114.0859         estimate D2E/DX2                !
 ! A89   A(30,33,34)           133.0898         estimate D2E/DX2                !
 ! A90   A(30,33,39)           116.7279         estimate D2E/DX2                !
 ! A91   A(34,33,39)           110.0432         estimate D2E/DX2                !
 ! A92   A(33,34,35)           116.8952         estimate D2E/DX2                !
 ! A93   A(33,34,37)           110.8208         estimate D2E/DX2                !
 ! A94   A(35,34,37)           132.2638         estimate D2E/DX2                !
 ! A95   A(34,35,36)           114.2566         estimate D2E/DX2                !
 ! A96   A(35,36,58)           112.1465         estimate D2E/DX2                !
 ! A97   A(35,36,59)           112.3954         estimate D2E/DX2                !
 ! A98   A(35,36,60)           107.966          estimate D2E/DX2                !
 ! A99   A(58,36,59)           108.4826         estimate D2E/DX2                !
 ! A100  A(58,36,60)           107.9903         estimate D2E/DX2                !
 ! A101  A(59,36,60)           107.674          estimate D2E/DX2                !
 ! A102  A(34,37,38)           116.1482         estimate D2E/DX2                !
 ! A103  A(34,37,61)           120.2403         estimate D2E/DX2                !
 ! A104  A(38,37,61)           123.5709         estimate D2E/DX2                !
 ! A105  A(37,38,39)           111.0771         estimate D2E/DX2                !
 ! A106  A(37,38,62)           127.6437         estimate D2E/DX2                !
 ! A107  A(39,38,62)           121.1477         estimate D2E/DX2                !
 ! A108  A(33,39,38)            91.6877         estimate D2E/DX2                !
 ! D1    D(6,1,2,3)             -0.0139         estimate D2E/DX2                !
 ! D2    D(6,1,2,41)          -173.8104         estimate D2E/DX2                !
 ! D3    D(40,1,2,3)           172.7917         estimate D2E/DX2                !
 ! D4    D(40,1,2,41)           -1.0049         estimate D2E/DX2                !
 ! D5    D(2,1,6,5)             -1.7076         estimate D2E/DX2                !
 ! D6    D(2,1,6,43)          -178.3575         estimate D2E/DX2                !
 ! D7    D(40,1,6,5)          -174.6502         estimate D2E/DX2                !
 ! D8    D(40,1,6,43)            8.6999         estimate D2E/DX2                !
 ! D9    D(1,2,3,4)              3.6426         estimate D2E/DX2                !
 ! D10   D(1,2,3,42)          -179.0022         estimate D2E/DX2                !
 ! D11   D(41,2,3,4)           177.5337         estimate D2E/DX2                !
 ! D12   D(41,2,3,42)           -5.1111         estimate D2E/DX2                !
 ! D13   D(2,3,4,5)             -6.5103         estimate D2E/DX2                !
 ! D14   D(2,3,4,7)            176.1611         estimate D2E/DX2                !
 ! D15   D(42,3,4,5)           175.9077         estimate D2E/DX2                !
 ! D16   D(42,3,4,7)            -1.4209         estimate D2E/DX2                !
 ! D17   D(3,4,5,6)              5.1844         estimate D2E/DX2                !
 ! D18   D(7,4,5,6)           -177.5037         estimate D2E/DX2                !
 ! D19   D(3,4,7,8)            -41.2243         estimate D2E/DX2                !
 ! D20   D(3,4,7,13)           140.6026         estimate D2E/DX2                !
 ! D21   D(5,4,7,8)            141.2703         estimate D2E/DX2                !
 ! D22   D(5,4,7,13)           -36.9028         estimate D2E/DX2                !
 ! D23   D(4,5,6,1)             -0.8288         estimate D2E/DX2                !
 ! D24   D(4,5,6,43)           176.1427         estimate D2E/DX2                !
 ! D25   D(4,7,8,9)              1.9788         estimate D2E/DX2                !
 ! D26   D(4,7,8,11)           177.1773         estimate D2E/DX2                !
 ! D27   D(13,7,8,9)          -179.7966         estimate D2E/DX2                !
 ! D28   D(13,7,8,11)           -4.5981         estimate D2E/DX2                !
 ! D29   D(4,7,13,12)         -177.8285         estimate D2E/DX2                !
 ! D30   D(8,7,13,12)            3.5764         estimate D2E/DX2                !
 ! D31   D(7,8,9,10)          -177.0585         estimate D2E/DX2                !
 ! D32   D(11,8,9,10)            8.6758         estimate D2E/DX2                !
 ! D33   D(7,8,11,12)            3.5809         estimate D2E/DX2                !
 ! D34   D(7,8,11,47)          174.8453         estimate D2E/DX2                !
 ! D35   D(9,8,11,12)          178.0409         estimate D2E/DX2                !
 ! D36   D(9,8,11,47)          -10.6947         estimate D2E/DX2                !
 ! D37   D(8,9,10,44)           62.5671         estimate D2E/DX2                !
 ! D38   D(8,9,10,45)          177.8076         estimate D2E/DX2                !
 ! D39   D(8,9,10,46)          -68.4547         estimate D2E/DX2                !
 ! D40   D(8,11,12,13)          -0.7844         estimate D2E/DX2                !
 ! D41   D(8,11,12,14)         173.3801         estimate D2E/DX2                !
 ! D42   D(47,11,12,13)       -172.0086         estimate D2E/DX2                !
 ! D43   D(47,11,12,14)          2.1559         estimate D2E/DX2                !
 ! D44   D(11,12,13,7)          -1.5007         estimate D2E/DX2                !
 ! D45   D(14,12,13,7)        -176.3372         estimate D2E/DX2                !
 ! D46   D(11,12,14,15)       -140.8324         estimate D2E/DX2                !
 ! D47   D(11,12,14,19)         42.9179         estimate D2E/DX2                !
 ! D48   D(13,12,14,15)         32.7961         estimate D2E/DX2                !
 ! D49   D(13,12,14,19)       -143.4536         estimate D2E/DX2                !
 ! D50   D(12,14,15,16)       -179.3264         estimate D2E/DX2                !
 ! D51   D(12,14,15,48)          8.5144         estimate D2E/DX2                !
 ! D52   D(19,14,15,16)         -2.9805         estimate D2E/DX2                !
 ! D53   D(19,14,15,48)       -175.1397         estimate D2E/DX2                !
 ! D54   D(12,14,19,18)       -178.2776         estimate D2E/DX2                !
 ! D55   D(12,14,19,50)         -2.5123         estimate D2E/DX2                !
 ! D56   D(15,14,19,18)          5.042          estimate D2E/DX2                !
 ! D57   D(15,14,19,50)       -179.1927         estimate D2E/DX2                !
 ! D58   D(14,15,16,17)          1.6118         estimate D2E/DX2                !
 ! D59   D(14,15,16,49)       -176.2779         estimate D2E/DX2                !
 ! D60   D(48,15,16,17)        173.7909         estimate D2E/DX2                !
 ! D61   D(48,15,16,49)         -4.0987         estimate D2E/DX2                !
 ! D62   D(15,16,17,18)         -1.4527         estimate D2E/DX2                !
 ! D63   D(15,16,17,20)       -179.1181         estimate D2E/DX2                !
 ! D64   D(49,16,17,18)        176.4109         estimate D2E/DX2                !
 ! D65   D(49,16,17,20)         -1.2545         estimate D2E/DX2                !
 ! D66   D(16,17,18,19)          2.9069         estimate D2E/DX2                !
 ! D67   D(20,17,18,19)       -179.2855         estimate D2E/DX2                !
 ! D68   D(16,17,20,21)        -46.5312         estimate D2E/DX2                !
 ! D69   D(16,17,20,26)        140.7102         estimate D2E/DX2                !
 ! D70   D(18,17,20,21)        135.7823         estimate D2E/DX2                !
 ! D71   D(18,17,20,26)        -36.9763         estimate D2E/DX2                !
 ! D72   D(17,18,19,14)         -4.9239         estimate D2E/DX2                !
 ! D73   D(17,18,19,50)        179.0179         estimate D2E/DX2                !
 ! D74   D(17,20,21,22)         10.6445         estimate D2E/DX2                !
 ! D75   D(17,20,21,24)       -179.0956         estimate D2E/DX2                !
 ! D76   D(26,20,21,22)       -176.2021         estimate D2E/DX2                !
 ! D77   D(26,20,21,24)         -5.9422         estimate D2E/DX2                !
 ! D78   D(17,20,26,25)        177.1933         estimate D2E/DX2                !
 ! D79   D(21,20,26,25)          3.0071         estimate D2E/DX2                !
 ! D80   D(20,21,22,23)       -174.4023         estimate D2E/DX2                !
 ! D81   D(24,21,22,23)         16.5436         estimate D2E/DX2                !
 ! D82   D(20,21,24,25)          6.2409         estimate D2E/DX2                !
 ! D83   D(20,21,24,54)       -174.6896         estimate D2E/DX2                !
 ! D84   D(22,21,24,25)        175.581          estimate D2E/DX2                !
 ! D85   D(22,21,24,54)         -5.3496         estimate D2E/DX2                !
 ! D86   D(21,22,23,51)        174.971          estimate D2E/DX2                !
 ! D87   D(21,22,23,52)        -69.8405         estimate D2E/DX2                !
 ! D88   D(21,22,23,53)         50.684          estimate D2E/DX2                !
 ! D89   D(21,24,25,26)         -3.7755         estimate D2E/DX2                !
 ! D90   D(21,24,25,27)        179.7342         estimate D2E/DX2                !
 ! D91   D(54,24,25,26)        177.0678         estimate D2E/DX2                !
 ! D92   D(54,24,25,27)          0.5775         estimate D2E/DX2                !
 ! D93   D(24,25,26,20)          0.5191         estimate D2E/DX2                !
 ! D94   D(27,25,26,20)        177.1111         estimate D2E/DX2                !
 ! D95   D(24,25,27,28)       -142.748          estimate D2E/DX2                !
 ! D96   D(24,25,27,32)         35.4851         estimate D2E/DX2                !
 ! D97   D(26,25,27,28)         41.0956         estimate D2E/DX2                !
 ! D98   D(26,25,27,32)       -140.6713         estimate D2E/DX2                !
 ! D99   D(25,27,28,29)       -178.504          estimate D2E/DX2                !
 ! D100  D(25,27,28,55)         -0.6794         estimate D2E/DX2                !
 ! D101  D(32,27,28,29)          3.302          estimate D2E/DX2                !
 ! D102  D(32,27,28,55)       -178.8734         estimate D2E/DX2                !
 ! D103  D(25,27,32,31)       -179.8479         estimate D2E/DX2                !
 ! D104  D(25,27,32,57)         -1.1199         estimate D2E/DX2                !
 ! D105  D(28,27,32,31)         -1.6494         estimate D2E/DX2                !
 ! D106  D(28,27,32,57)        177.0786         estimate D2E/DX2                !
 ! D107  D(27,28,29,30)         -6.8709         estimate D2E/DX2                !
 ! D108  D(27,28,29,56)       -178.8349         estimate D2E/DX2                !
 ! D109  D(55,28,29,30)        175.4681         estimate D2E/DX2                !
 ! D110  D(55,28,29,56)          3.504          estimate D2E/DX2                !
 ! D111  D(28,29,30,31)          8.8858         estimate D2E/DX2                !
 ! D112  D(28,29,30,33)       -178.5617         estimate D2E/DX2                !
 ! D113  D(56,29,30,31)       -179.6483         estimate D2E/DX2                !
 ! D114  D(56,29,30,33)         -7.0958         estimate D2E/DX2                !
 ! D115  D(29,30,31,32)         -7.1345         estimate D2E/DX2                !
 ! D116  D(33,30,31,32)       -179.6225         estimate D2E/DX2                !
 ! D117  D(29,30,33,34)        -37.3424         estimate D2E/DX2                !
 ! D118  D(29,30,33,39)        147.4495         estimate D2E/DX2                !
 ! D119  D(31,30,33,34)        135.0475         estimate D2E/DX2                !
 ! D120  D(31,30,33,39)        -40.1607         estimate D2E/DX2                !
 ! D121  D(30,31,32,27)          3.6527         estimate D2E/DX2                !
 ! D122  D(30,31,32,57)       -175.2202         estimate D2E/DX2                !
 ! D123  D(30,33,34,35)          1.772          estimate D2E/DX2                !
 ! D124  D(30,33,34,37)       -179.6602         estimate D2E/DX2                !
 ! D125  D(39,33,34,35)        177.2166         estimate D2E/DX2                !
 ! D126  D(39,33,34,37)         -4.2155         estimate D2E/DX2                !
 ! D127  D(30,33,39,38)        178.1374         estimate D2E/DX2                !
 ! D128  D(34,33,39,38)          1.8607         estimate D2E/DX2                !
 ! D129  D(33,34,35,36)       -175.4868         estimate D2E/DX2                !
 ! D130  D(37,34,35,36)          6.3222         estimate D2E/DX2                !
 ! D131  D(33,34,37,38)          5.315          estimate D2E/DX2                !
 ! D132  D(33,34,37,61)       -176.9198         estimate D2E/DX2                !
 ! D133  D(35,34,37,38)       -176.411          estimate D2E/DX2                !
 ! D134  D(35,34,37,61)          1.3542         estimate D2E/DX2                !
 ! D135  D(34,35,36,58)         61.1666         estimate D2E/DX2                !
 ! D136  D(34,35,36,59)        -61.3745         estimate D2E/DX2                !
 ! D137  D(34,35,36,60)       -179.9829         estimate D2E/DX2                !
 ! D138  D(34,37,38,39)         -3.8722         estimate D2E/DX2                !
 ! D139  D(34,37,38,62)       -179.6961         estimate D2E/DX2                !
 ! D140  D(61,37,38,39)        178.445          estimate D2E/DX2                !
 ! D141  D(61,37,38,62)          2.6211         estimate D2E/DX2                !
 ! D142  D(37,38,39,33)          1.0278         estimate D2E/DX2                !
 ! D143  D(62,38,39,33)        177.1646         estimate D2E/DX2                !
 --------------------------------------------------------------------------------
 Trust Radius=3.00D-01 FncErr=1.00D-07 GrdErr=1.00D-06 EigMax=2.50D+02 EigMin=1.00D-04
 Number of steps in this run=    328 maximum allowed number of steps=    372.
 GradGradGradGradGradGradGradGradGradGradGradGradGradGradGradGradGradGrad

 Leave Link  103 at Fri Jul 24 17:40:20 2020, MaxMem=  4026531840 cpu:               0.3 elap:               0.1
 (Enter /opt/ohpc/pub/libs/gaussian/g16-A.03/sandybridge/g16/l202.exe)
 Stoichiometry    C30H23N3O3S3
 Framework group  C1[X(C30H23N3O3S3)]
 Deg. of freedom   180
 Full point group                 C1      NOp   1
 Largest Abelian subgroup         C1      NOp   1
 Largest concise Abelian subgroup C1      NOp   1
                         Standard orientation:                         
 ---------------------------------------------------------------------
 Center     Atomic      Atomic             Coordinates (Angstroms)
 Number     Number       Type             X           Y           Z
 ---------------------------------------------------------------------
      1          6           0      -11.499616   -0.533707   -0.033951
      2          6           0      -11.070678    0.574048    0.723458
      3          6           0       -9.768370    0.985657    0.818458
      4          6           0       -8.850152    0.212572   -0.015934
      5          7           0       -9.186984   -0.861012   -0.697445
      6          6           0      -10.517880   -1.184853   -0.680797
      7          6           0       -7.409087    0.647772   -0.046624
      8          6           0       -6.796570    1.834593   -0.099040
      9          8           0       -7.588571    2.946911   -0.093322
     10          6           0       -6.800630    4.179213   -0.223872
     11          6           0       -5.347977    1.729547   -0.042637
     12          6           0       -4.898263    0.441065   -0.025765
     13         16           0       -6.257018   -0.646635   -0.056780
     14          6           0       -3.539555   -0.080070   -0.101658
     15          6           0       -3.138633   -1.160456   -0.764370
     16          6           0       -1.820549   -1.556784   -0.745419
     17          6           0       -0.843277   -0.877688   -0.012671
     18          7           0       -1.222082    0.283134    0.715188
     19          6           0       -2.515420    0.579230    0.670841
     20          6           0        0.503677   -1.246433    0.010850
     21          6           0        1.111304   -2.484094    0.176635
     22          8           0        0.309262   -3.615387    0.129605
     23          6           0        1.009790   -4.833914    0.437938
     24          6           0        2.539232   -2.462431    0.162455
     25          6           0        2.991877   -1.081962    0.119461
     26         16           0        1.695720    0.027954   -0.003470
     27          6           0        4.463012   -0.637472    0.098865
     28          6           0        4.852769    0.536331    0.816334
     29          6           0        6.171908    0.899960    0.734586
     30          6           0        7.120319    0.064887    0.094010
     31          7           0        6.673278   -1.021290   -0.602153
     32          6           0        5.380066   -1.395802   -0.577392
     33          6           0        8.549821    0.464930    0.045758
     34          6           0        9.186146    1.685349   -0.109926
     35          8           0        8.379561    2.801303   -0.217044
     36          6           0        9.085926    4.011493   -0.476270
     37          6           0       10.546720    1.530373   -0.094527
     38          6           0       11.003150    0.251644   -0.048667
     39         16           0        9.737583   -0.834544    0.083305
     40          1           0      -12.503561   -0.910707   -0.010211
     41          1           0      -11.784072    1.077238    1.343591
     42          1           0       -9.391625    1.806274    1.388581
     43          1           0      -10.725116   -2.091734   -1.359515
     44          1           0       -6.279945    4.233105   -1.130004
     45          1           0       -7.537554    4.977773   -0.246332
     46          1           0       -6.190117    4.363538    0.675280
     47          1           0       -4.683558    2.597114   -0.156679
     48          1           0       -3.827984   -1.661363   -1.426450
     49          1           0       -1.533561   -2.412072   -1.354071
     50          1           0       -2.767413    1.519835    1.293763
     51          1           0        0.315967   -5.643898    0.467959
     52          1           0        1.694646   -4.997389   -0.447922
     53          1           0        1.551106   -4.747500    1.333072
     54          1           0        3.209282   -3.251443    0.191198
     55          1           0        4.082179    1.093112    1.353604
     56          1           0        6.455242    1.760585    1.285315
     57          1           0        5.180272   -2.304330   -1.097719
     58          1           0        9.632147    3.974861   -1.420198
     59          1           0        9.812086    4.270129    0.347294
     60          1           0        8.354513    4.821800   -0.540546
     61          1           0       11.225653    2.436792   -0.157710
     62          1           0       12.044984   -0.086523   -0.024992
 ---------------------------------------------------------------------
 Rotational constants (GHZ):           0.2471481           0.0188889           0.0176801
 Leave Link  202 at Fri Jul 24 17:40:20 2020, MaxMem=  4026531840 cpu:               0.1 elap:               0.0
 (Enter /opt/ohpc/pub/libs/gaussian/g16-A.03/sandybridge/g16/l301.exe)
 Standard basis: CC-pVDZ (5D, 7F)
 Ernie: Thresh=  0.10000D-02 Tol=  0.10000D-05 Strict=F.
 Ernie:  102 primitive shells out of 1057 were deleted.
 There are   712 symmetry adapted cartesian basis functions of A   symmetry.
 There are   673 symmetry adapted basis functions of A   symmetry.
   673 basis functions,  1562 primitive gaussians,   712 cartesian basis functions
   148 alpha electrons      148 beta electrons
       nuclear repulsion energy      4169.8303254201 Hartrees.
 IExCor=32609 DFT=T Ex+Corr=LC-wPBE ExCW=0 ScaHFX=  1.000000
 ScaDFX=  1.000000  0.000000  1.000000  1.000000 ScalE2=  1.000000  1.000000
 IRadAn=      5 IRanWt=     -1 IRanGd=            0 ICorTp=0 IEmpDi=  4
 HFx  wShort=  0.000000 wLong=  0.472000 cFull=  0.000000 cShort=  0.000000 cLong=  1.000000
 DFx  wShort=  0.000000 wLong=  0.472000 cFull=  0.000000 cShort=  0.000000 cLong=  1.000000
 NAtoms=   62 NActive=   62 NUniq=   62 SFac= 1.00D+00 NAtFMM=   60 NAOKFM=T Big=T
 Integral buffers will be    131072 words long.
 Raffenetti 2 integral format.
 Two-electron integral symmetry is turned on.
 Leave Link  301 at Fri Jul 24 17:40:20 2020, MaxMem=  4026531840 cpu:               0.5 elap:               0.1
 (Enter /opt/ohpc/pub/libs/gaussian/g16-A.03/sandybridge/g16/l302.exe)
 NPDir=0 NMtPBC=     1 NCelOv=     1 NCel=       1 NClECP=     1 NCelD=      1
         NCelK=      1 NCelE2=     1 NClLst=     1 CellRange=     0.0.
 One-electron integrals computed using PRISM.
 One-electron integral symmetry used in STVInt
 NBasis=   673 RedAO= T EigKep=  3.91D-04  NBF=   673
 NBsUse=   673 1.00D-06 EigRej= -1.00D+00 NBFU=   673
 Precomputing XC quadrature grid using
 IXCGrd= 4 IRadAn=           5 IRanWt=          -1 IRanGd=           0 AccXCQ= 0.00D+00.
 Generated NRdTot=       0 NPtTot=           0 NUsed=           0 NTot=          32
 NSgBfM=   609   609   609   609   609 MxSgAt=    62 MxSgA2=    62.
 Leave Link  302 at Fri Jul 24 17:40:23 2020, MaxMem=  4026531840 cpu:              20.7 elap:               2.6
 (Enter /opt/ohpc/pub/libs/gaussian/g16-A.03/sandybridge/g16/l303.exe)
 DipDrv:  MaxL=1.
 Leave Link  303 at Fri Jul 24 17:40:23 2020, MaxMem=  4026531840 cpu:               1.6 elap:               0.2
 (Enter /opt/ohpc/pub/libs/gaussian/g16-A.03/sandybridge/g16/l401.exe)
 ExpMin= 1.22D-01 ExpMax= 1.11D+05 ExpMxC= 1.07D+03 IAcc=3 IRadAn=         5 AccDes= 0.00D+00
 Harris functional with IExCor=32609 and IRadAn=       5 diagonalized for initial guess.
 HarFok:  IExCor=32609 AccDes= 0.00D+00 IRadAn=         5 IDoV= 1 UseB2=F ITyADJ=14
 ICtDFT=  3500011 ScaDFX=  1.000000  1.000000  1.000000  1.000000
 FoFCou: FMM=F IPFlag=           0 FMFlag=      100000 FMFlg1=        2001
         NFxFlg=           0 DoJE=T BraDBF=F KetDBF=T FulRan=T
         wScrn=  0.000000 ICntrl=       500 IOpCl=  0 I1Cent=   200000004 NGrid=           0
         NMat0=    1 NMatS0=      1 NMatT0=    0 NMatD0=    1 NMtDS0=    0 NMtDT0=    0
 Petite list used in FoFCou.
 Harris En= -2739.68389826669    
 JPrj=0 DoOrth=F DoCkMO=F.
 Initial guess <Sx>= 0.0000 <Sy>= 0.0000 <Sz>= 0.0000 <S**2>= 0.0000 S= 0.0000
 Leave Link  401 at Fri Jul 24 17:40:35 2020, MaxMem=  4026531840 cpu:              88.7 elap:              11.2
 (Enter /opt/ohpc/pub/libs/gaussian/g16-A.03/sandybridge/g16/l502.exe)
 Integral symmetry usage will be decided dynamically.
 UHF open shell SCF:
 Using DIIS extrapolation, IDIIS=  1040.
 NGot=  4026531840 LenX=  4025504908 LenY=  4024997252
 Requested convergence on RMS density matrix=1.00D-08 within 128 cycles.
 Requested convergence on MAX density matrix=1.00D-06.
 Requested convergence on             energy=1.00D-06.
 No special actions if energy rises.
 Fock matrices will be formed incrementally for  20 cycles.
 Integral accuracy reduced to 1.0D-05 until final iterations.

 Cycle   1  Pass 0  IDiag  1:
 FoFJK:  IHMeth= 1 ICntrl=       0 DoSepK=T KAlg= 0 I1Cent=           0 FoldK=F
 IRaf=         1 NMat=       1 IRICut=       1 DoRegI=T DoRafI=F ISym2E= 0 IDoP0=0 IntGTp=1.
 FoFCou: FMM=T IPFlag=           0 FMFlag=      100000 FMFlg1=        2001
         NFxFlg=           0 DoJE=T BraDBF=F KetDBF=F FulRan=T
         wScrn=  0.000000 ICntrl=       500 IOpCl=  0 I1Cent=           0 NGrid=           0
         NMat0=    1 NMatS0=      1 NMatT0=    0 NMatD0=    1 NMtDS0=    0 NMtDT0=    0
 Symmetry not used in FoFCou.
 FMM levels:  10  Number of levels for PrismC:   9
 E= -2739.30091598909    
 DIIS: error= 1.80D-02 at cycle   1 NSaved=   1.
 NSaved= 1 IEnMin= 1 EnMin= -2739.30091598909     IErMin= 1 ErrMin= 1.80D-02
 ErrMax= 1.80D-02  0.00D+00 EMaxC= 1.00D-01 BMatC= 2.70D+00 BMatP= 2.70D+00
 IDIUse=3 WtCom= 8.20D-01 WtEn= 1.80D-01
 Coeff-Com:  0.100D+01
 Coeff-En:   0.100D+01
 Coeff:      0.100D+01
 Gap=     0.328 Goal=   None    Shift=    0.000
 Gap=     0.328 Goal=   None    Shift=    0.000
 GapD=    0.328 DampG=1.000 DampE=0.500 DampFc=0.5000 IDamp=-1.
 Damping current iteration by 5.00D-01
 RMSDP=2.39D-03 MaxDP=1.32D-01              OVMax= 1.74D-01

 Cycle   2  Pass 0  IDiag  1:
 RMSU=  1.18D-03    CP:  9.85D-01
 E= -2739.71160497237     Delta-E=       -0.410688983277 Rises=F Damp=T
 DIIS: error= 5.79D-03 at cycle   2 NSaved=   2.
 NSaved= 2 IEnMin= 2 EnMin= -2739.71160497237     IErMin= 2 ErrMin= 5.79D-03
 ErrMax= 5.79D-03  0.00D+00 EMaxC= 1.00D-01 BMatC= 1.99D-01 BMatP= 2.70D+00
 IDIUse=3 WtCom= 9.42D-01 WtEn= 5.79D-02
 Coeff-Com: -0.192D+00 0.119D+01
 Coeff-En:   0.000D+00 0.100D+01
 Coeff:     -0.181D+00 0.118D+01
 Gap=     0.289 Goal=   None    Shift=    0.000
 Gap=     0.289 Goal=   None    Shift=    0.000
 RMSDP=8.31D-04 MaxDP=2.67D-02 DE=-4.11D-01 OVMax= 9.84D-02

 Cycle   3  Pass 0  IDiag  1:
 RMSU=  6.89D-04    CP:  9.74D-01  1.37D+00
 E= -2740.07231941033     Delta-E=       -0.360714437958 Rises=F Damp=F
 DIIS: error= 1.77D-03 at cycle   3 NSaved=   3.
 NSaved= 3 IEnMin= 3 EnMin= -2740.07231941033     IErMin= 3 ErrMin= 1.77D-03
 ErrMax= 1.77D-03  0.00D+00 EMaxC= 1.00D-01 BMatC= 2.72D-02 BMatP= 1.99D-01
 IDIUse=3 WtCom= 9.82D-01 WtEn= 1.77D-02
 Coeff-Com: -0.726D-01 0.305D+00 0.768D+00
 Coeff-En:   0.000D+00 0.000D+00 0.100D+01
 Coeff:     -0.713D-01 0.299D+00 0.772D+00
 Gap=     0.288 Goal=   None    Shift=    0.000
 Gap=     0.288 Goal=   None    Shift=    0.000
 RMSDP=2.05D-04 MaxDP=1.20D-02 DE=-3.61D-01 OVMax= 2.70D-02

 Cycle   4  Pass 0  IDiag  1:
 RMSU=  1.87D-04    CP:  9.73D-01  1.42D+00  9.22D-01
 E= -2740.07988552942     Delta-E=       -0.007566119093 Rises=F Damp=F
 DIIS: error= 9.98D-04 at cycle   4 NSaved=   4.
 NSaved= 4 IEnMin= 4 EnMin= -2740.07988552942     IErMin= 4 ErrMin= 9.98D-04
 ErrMax= 9.98D-04  0.00D+00 EMaxC= 1.00D-01 BMatC= 6.46D-03 BMatP= 2.72D-02
 IDIUse=3 WtCom= 9.90D-01 WtEn= 9.98D-03
 Coeff-Com: -0.852D-03-0.152D-01 0.300D+00 0.716D+00
 Coeff-En:   0.000D+00 0.000D+00 0.000D+00 0.100D+01
 Coeff:     -0.844D-03-0.150D-01 0.297D+00 0.719D+00
 Gap=     0.291 Goal=   None    Shift=    0.000
 Gap=     0.291 Goal=   None    Shift=    0.000
 RMSDP=8.14D-05 MaxDP=4.50D-03 DE=-7.57D-03 OVMax= 9.69D-03

 Cycle   5  Pass 0  IDiag  1:
 RMSU=  6.07D-05    CP:  9.72D-01  1.43D+00  9.98D-01  9.36D-01
 E= -2740.08200349780     Delta-E=       -0.002117968378 Rises=F Damp=F
 DIIS: error= 2.71D-04 at cycle   5 NSaved=   5.
 NSaved= 5 IEnMin= 5 EnMin= -2740.08200349780     IErMin= 5 ErrMin= 2.71D-04
 ErrMax= 2.71D-04  0.00D+00 EMaxC= 1.00D-01 BMatC= 5.99D-04 BMatP= 6.46D-03
 IDIUse=3 WtCom= 9.97D-01 WtEn= 2.71D-03
 Coeff-Com:  0.111D-01-0.432D-01-0.683D-02 0.179D+00 0.860D+00
 Coeff-En:   0.000D+00 0.000D+00 0.000D+00 0.000D+00 0.100D+01
 Coeff:      0.111D-01-0.431D-01-0.681D-02 0.178D+00 0.861D+00
 Gap=     0.293 Goal=   None    Shift=    0.000
 Gap=     0.293 Goal=   None    Shift=    0.000
 RMSDP=3.98D-05 MaxDP=2.48D-03 DE=-2.12D-03 OVMax= 6.73D-03

 Cycle   6  Pass 0  IDiag  1:
 RMSU=  2.73D-05    CP:  9.72D-01  1.43D+00  1.02D+00  1.05D+00  1.19D+00
 E= -2740.08239231876     Delta-E=       -0.000388820957 Rises=F Damp=F
 DIIS: error= 1.35D-04 at cycle   6 NSaved=   6.
 NSaved= 6 IEnMin= 6 EnMin= -2740.08239231876     IErMin= 6 ErrMin= 1.35D-04
 ErrMax= 1.35D-04  0.00D+00 EMaxC= 1.00D-01 BMatC= 1.48D-04 BMatP= 5.99D-04
 IDIUse=3 WtCom= 9.99D-01 WtEn= 1.35D-03
 Coeff-Com:  0.501D-02-0.150D-01-0.469D-01-0.557D-01 0.271D+00 0.842D+00
 Coeff-En:   0.000D+00 0.000D+00 0.000D+00 0.000D+00 0.000D+00 0.100D+01
 Coeff:      0.500D-02-0.150D-01-0.469D-01-0.556D-01 0.270D+00 0.842D+00
 Gap=     0.294 Goal=   None    Shift=    0.000
 Gap=     0.294 Goal=   None    Shift=    0.000
 RMSDP=2.31D-05 MaxDP=1.45D-03 DE=-3.89D-04 OVMax= 4.03D-03

 Cycle   7  Pass 0  IDiag  1:
 RMSU=  1.39D-05    CP:  9.72D-01  1.43D+00  1.03D+00  1.10D+00  1.42D+00
                    CP:  1.18D+00
 E= -2740.08251156472     Delta-E=       -0.000119245969 Rises=F Damp=F
 DIIS: error= 6.90D-05 at cycle   7 NSaved=   7.
 NSaved= 7 IEnMin= 7 EnMin= -2740.08251156472     IErMin= 7 ErrMin= 6.90D-05
 ErrMax= 6.90D-05  0.00D+00 EMaxC= 1.00D-01 BMatC= 3.65D-05 BMatP= 1.48D-04
 IDIUse=1 WtCom= 1.00D+00 WtEn= 0.00D+00
 Coeff-Com: -0.936D-03 0.589D-02-0.797D-02-0.601D-01-0.171D+00 0.268D+00
 Coeff-Com:  0.966D+00
 Coeff:     -0.936D-03 0.589D-02-0.797D-02-0.601D-01-0.171D+00 0.268D+00
 Coeff:      0.966D+00
 Gap=     0.294 Goal=   None    Shift=    0.000
 Gap=     0.294 Goal=   None    Shift=    0.000
 RMSDP=1.60D-05 MaxDP=9.00D-04 DE=-1.19D-04 OVMax= 2.73D-03

 Cycle   8  Pass 0  IDiag  1:
 RMSU=  7.42D-06    CP:  9.72D-01  1.43D+00  1.03D+00  1.12D+00  1.54D+00
                    CP:  1.56D+00  1.25D+00
 E= -2740.08254656991     Delta-E=       -0.000035005184 Rises=F Damp=F
 DIIS: error= 2.01D-05 at cycle   8 NSaved=   8.
 NSaved= 8 IEnMin= 8 EnMin= -2740.08254656991     IErMin= 8 ErrMin= 2.01D-05
 ErrMax= 2.01D-05  0.00D+00 EMaxC= 1.00D-01 BMatC= 6.03D-06 BMatP= 3.65D-05
 IDIUse=1 WtCom= 1.00D+00 WtEn= 0.00D+00
 Coeff-Com: -0.858D-03 0.382D-02 0.483D-02-0.119D-01-0.103D+00-0.318D-01
 Coeff-Com:  0.319D+00 0.820D+00
 Coeff:     -0.858D-03 0.382D-02 0.483D-02-0.119D-01-0.103D+00-0.318D-01
 Coeff:      0.319D+00 0.820D+00
 Gap=     0.294 Goal=   None    Shift=    0.000
 Gap=     0.294 Goal=   None    Shift=    0.000
 RMSDP=8.04D-06 MaxDP=3.16D-04 DE=-3.50D-05 OVMax= 9.54D-04

 Initial convergence to 1.0D-05 achieved.  Increase integral accuracy.
 Cycle   9  Pass 1  IDiag  1:
 E= -2740.08202686927     Delta-E=        0.000519700638 Rises=F Damp=F
 DIIS: error= 2.02D-04 at cycle   1 NSaved=   1.
 NSaved= 1 IEnMin= 1 EnMin= -2740.08202686927     IErMin= 1 ErrMin= 2.02D-04
 ErrMax= 2.02D-04  0.00D+00 EMaxC= 1.00D-01 BMatC= 7.82D-05 BMatP= 7.82D-05
 IDIUse=3 WtCom= 9.98D-01 WtEn= 2.02D-03
 Coeff-Com:  0.100D+01
 Coeff-En:   0.100D+01
 Coeff:      0.100D+01
 Gap=     0.294 Goal=   None    Shift=    0.000
 Gap=     0.294 Goal=   None    Shift=    0.000
 RMSDP=8.04D-06 MaxDP=3.16D-04 DE= 5.20D-04 OVMax= 3.49D-04

 Cycle  10  Pass 1  IDiag  1:
 RMSU=  1.03D-04    CP:  1.00D+00
 E= -2740.08204258115     Delta-E=       -0.000015711882 Rises=F Damp=F
 DIIS: error= 9.18D-06 at cycle   2 NSaved=   2.
 NSaved= 2 IEnMin= 2 EnMin= -2740.08204258115     IErMin= 2 ErrMin= 9.18D-06
 ErrMax= 9.18D-06  0.00D+00 EMaxC= 1.00D-01 BMatC= 9.93D-07 BMatP= 7.82D-05
 IDIUse=1 WtCom= 1.00D+00 WtEn= 0.00D+00
 Coeff-Com: -0.189D-01 0.102D+01
 Coeff:     -0.189D-01 0.102D+01
 Gap=     0.294 Goal=   None    Shift=    0.000
 Gap=     0.294 Goal=   None    Shift=    0.000
 RMSDP=5.72D-06 MaxDP=2.25D-04 DE=-1.57D-05 OVMax= 2.43D-04

 Cycle  11  Pass 1  IDiag  1:
 RMSU=  2.21D-06    CP:  1.00D+00  1.05D+00
 E= -2740.08204270843     Delta-E=       -0.000000127273 Rises=F Damp=F
 DIIS: error= 1.17D-05 at cycle   3 NSaved=   3.
 NSaved= 3 IEnMin= 3 EnMin= -2740.08204270843     IErMin= 2 ErrMin= 9.18D-06
 ErrMax= 1.17D-05  0.00D+00 EMaxC= 1.00D-01 BMatC= 1.20D-06 BMatP= 9.93D-07
 IDIUse=1 WtCom= 1.00D+00 WtEn= 0.00D+00
 Coeff-Com: -0.217D-01 0.546D+00 0.476D+00
 Coeff:     -0.217D-01 0.546D+00 0.476D+00
 Gap=     0.294 Goal=   None    Shift=    0.000
 Gap=     0.294 Goal=   None    Shift=    0.000
 RMSDP=9.04D-07 MaxDP=7.17D-05 DE=-1.27D-07 OVMax= 1.30D-04

 Cycle  12  Pass 1  IDiag  1:
 RMSU=  8.03D-07    CP:  1.00D+00  1.05D+00  8.39D-01
 E= -2740.08204303205     Delta-E=       -0.000000323623 Rises=F Damp=F
 DIIS: error= 1.62D-06 at cycle   4 NSaved=   4.
 NSaved= 4 IEnMin= 4 EnMin= -2740.08204303205     IErMin= 4 ErrMin= 1.62D-06
 ErrMax= 1.62D-06  0.00D+00 EMaxC= 1.00D-01 BMatC= 2.40D-08 BMatP= 9.93D-07
 IDIUse=1 WtCom= 1.00D+00 WtEn= 0.00D+00
 Coeff-Com:  0.192D-02-0.829D-01-0.190D-01 0.110D+01
 Coeff:      0.192D-02-0.829D-01-0.190D-01 0.110D+01
 Gap=     0.294 Goal=   None    Shift=    0.000
 Gap=     0.294 Goal=   None    Shift=    0.000
 RMSDP=3.98D-07 MaxDP=2.52D-05 DE=-3.24D-07 OVMax= 7.16D-05

 Cycle  13  Pass 1  IDiag  1:
 RMSU=  2.86D-07    CP:  1.00D+00  1.05D+00  9.28D-01  1.20D+00
 E= -2740.08204304553     Delta-E=       -0.000000013485 Rises=F Damp=F
 DIIS: error= 1.21D-06 at cycle   5 NSaved=   5.
 NSaved= 5 IEnMin= 5 EnMin= -2740.08204304553     IErMin= 5 ErrMin= 1.21D-06
 ErrMax= 1.21D-06  0.00D+00 EMaxC= 1.00D-01 BMatC= 1.15D-08 BMatP= 2.40D-08
 IDIUse=1 WtCom= 1.00D+00 WtEn= 0.00D+00
 Coeff-Com:  0.707D-02-0.193D+00-0.146D+00 0.473D+00 0.859D+00
 Coeff:      0.707D-02-0.193D+00-0.146D+00 0.473D+00 0.859D+00
 Gap=     0.294 Goal=   None    Shift=    0.000
 Gap=     0.294 Goal=   None    Shift=    0.000
 RMSDP=2.51D-07 MaxDP=1.66D-05 DE=-1.35D-08 OVMax= 5.07D-05

 Cycle  14  Pass 1  IDiag  1:
 RMSU=  1.34D-07    CP:  1.00D+00  1.05D+00  9.66D-01  1.36D+00  1.51D+00
 E= -2740.08204304357     Delta-E=        0.000000001964 Rises=F Damp=F
 DIIS: error= 4.69D-07 at cycle   6 NSaved=   6.
 NSaved= 6 IEnMin= 5 EnMin= -2740.08204304553     IErMin= 6 ErrMin= 4.69D-07
 ErrMax= 4.69D-07  0.00D+00 EMaxC= 1.00D-01 BMatC= 1.46D-09 BMatP= 1.15D-08
 IDIUse=1 WtCom= 1.00D+00 WtEn= 0.00D+00
 Coeff-Com:  0.100D-02-0.204D-01-0.265D-01-0.158D+00 0.189D+00 0.101D+01
 Coeff:      0.100D-02-0.204D-01-0.265D-01-0.158D+00 0.189D+00 0.101D+01
 Gap=     0.294 Goal=   None    Shift=    0.000
 Gap=     0.294 Goal=   None    Shift=    0.000
 RMSDP=1.20D-07 MaxDP=7.93D-06 DE= 1.96D-09 OVMax= 2.43D-05

 Cycle  15  Pass 1  IDiag  1:
 RMSU=  4.28D-08    CP:  1.00D+00  1.05D+00  9.73D-01  1.39D+00  1.86D+00
                    CP:  1.24D+00
 E= -2740.08204304597     Delta-E=       -0.000000002404 Rises=F Damp=F
 DIIS: error= 1.72D-07 at cycle   7 NSaved=   7.
 NSaved= 7 IEnMin= 7 EnMin= -2740.08204304597     IErMin= 7 ErrMin= 1.72D-07
 ErrMax= 1.72D-07  0.00D+00 EMaxC= 1.00D-01 BMatC= 2.87D-10 BMatP= 1.46D-09
 IDIUse=1 WtCom= 1.00D+00 WtEn= 0.00D+00
 Coeff-Com: -0.580D-03 0.187D-01 0.927D-02-0.133D+00-0.450D-01 0.420D+00
 Coeff-Com:  0.731D+00
 Coeff:     -0.580D-03 0.187D-01 0.927D-02-0.133D+00-0.450D-01 0.420D+00
 Coeff:      0.731D+00
 Gap=     0.294 Goal=   None    Shift=    0.000
 Gap=     0.294 Goal=   None    Shift=    0.000
 RMSDP=3.31D-08 MaxDP=2.17D-06 DE=-2.40D-09 OVMax= 6.25D-06

 Cycle  16  Pass 1  IDiag  1:
 RMSU=  1.64D-08    CP:  1.00D+00  1.05D+00  9.72D-01  1.40D+00  1.94D+00
                    CP:  1.35D+00  1.07D+00
 E= -2740.08204304617     Delta-E=       -0.000000000196 Rises=F Damp=F
 DIIS: error= 5.19D-08 at cycle   8 NSaved=   8.
 NSaved= 8 IEnMin= 8 EnMin= -2740.08204304617     IErMin= 8 ErrMin= 5.19D-08
 ErrMax= 5.19D-08  0.00D+00 EMaxC= 1.00D-01 BMatC= 1.52D-11 BMatP= 2.87D-10
 IDIUse=1 WtCom= 1.00D+00 WtEn= 0.00D+00
 Coeff-Com: -0.953D-04 0.212D-02 0.215D-02 0.876D-02-0.179D-01-0.673D-01
 Coeff-Com:  0.560D-02 0.107D+01
 Coeff:     -0.953D-04 0.212D-02 0.215D-02 0.876D-02-0.179D-01-0.673D-01
 Coeff:      0.560D-02 0.107D+01
 Gap=     0.294 Goal=   None    Shift=    0.000
 Gap=     0.294 Goal=   None    Shift=    0.000
 RMSDP=1.08D-08 MaxDP=4.09D-07 DE=-1.96D-10 OVMax= 2.62D-06

 Cycle  17  Pass 1  IDiag  1:
 RMSU=  5.82D-09    CP:  1.00D+00  1.05D+00  9.72D-01  1.39D+00  1.95D+00
                    CP:  1.37D+00  1.21D+00  1.31D+00
 E= -2740.08204304598     Delta-E=        0.000000000188 Rises=F Damp=F
 DIIS: error= 2.55D-08 at cycle   9 NSaved=   9.
 NSaved= 9 IEnMin= 8 EnMin= -2740.08204304617     IErMin= 9 ErrMin= 2.55D-08
 ErrMax= 2.55D-08  0.00D+00 EMaxC= 1.00D-01 BMatC= 6.59D-12 BMatP= 1.52D-11
 IDIUse=1 WtCom= 1.00D+00 WtEn= 0.00D+00
 Coeff-Com:  0.113D-03-0.400D-02-0.163D-02 0.383D-01 0.471D-02-0.131D+00
 Coeff-Com: -0.188D+00 0.449D+00 0.832D+00
 Coeff:      0.113D-03-0.400D-02-0.163D-02 0.383D-01 0.471D-02-0.131D+00
 Coeff:     -0.188D+00 0.449D+00 0.832D+00
 Gap=     0.294 Goal=   None    Shift=    0.000
 Gap=     0.294 Goal=   None    Shift=    0.000
 RMSDP=5.51D-09 MaxDP=2.83D-07 DE= 1.88D-10 OVMax= 1.35D-06

 SCF Done:  E(ULC-wPBE) =  -2740.08204305     A.U. after   17 cycles
            NFock= 17  Conv=0.55D-08     -V/T= 2.0050
 <Sx>= 0.0000 <Sy>= 0.0000 <Sz>= 0.0000 <S**2>=-0.0000 S=-0.0000
 <L.S>= 0.000000000000E+00
 KE= 2.726416106025D+03 PE=-1.477560570053D+04 EE= 5.139277226043D+03
 Annihilation of the first spin contaminant:
 S**2 before annihilation    -0.0000,   after    -0.0000
 Leave Link  502 at Fri Jul 24 17:51:45 2020, MaxMem=  4026531840 cpu:            5251.2 elap:             670.3
 (Enter /opt/ohpc/pub/libs/gaussian/g16-A.03/sandybridge/g16/l601.exe)
 Copying SCF densities to generalized density rwf, IOpCl= 1 IROHF=0.

 **********************************************************************

            Population analysis using the SCF density.

 **********************************************************************

 Orbital symmetries:
 Alpha Orbitals:
       Occupied  (A) (A) (A) (A) (A) (A) (A) (A) (A) (A) (A) (A)
                 (A) (A) (A) (A) (A) (A) (A) (A) (A) (A) (A) (A)
                 (A) (A) (A) (A) (A) (A) (A) (A) (A) (A) (A) (A)
                 (A) (A) (A) (A) (A) (A) (A) (A) (A) (A) (A) (A)
                 (A) (A) (A) (A) (A) (A) (A) (A) (A) (A) (A) (A)
                 (A) (A) (A) (A) (A) (A) (A) (A) (A) (A) (A) (A)
                 (A) (A) (A) (A) (A) (A) (A) (A) (A) (A) (A) (A)
                 (A) (A) (A) (A) (A) (A) (A) (A) (A) (A) (A) (A)
                 (A) (A) (A) (A) (A) (A) (A) (A) (A) (A) (A) (A)
                 (A) (A) (A) (A) (A) (A) (A) (A) (A) (A) (A) (A)
                 (A) (A) (A) (A) (A) (A) (A) (A) (A) (A) (A) (A)
                 (A) (A) (A) (A) (A) (A) (A) (A) (A) (A) (A) (A)
                 (A) (A) (A) (A)
       Virtual   (A) (A) (A) (A) (A) (A) (A) (A) (A) (A) (A) (A)
                 (A) (A) (A) (A) (A) (A) (A) (A) (A) (A) (A) (A)
                 (A) (A) (A) (A) (A) (A) (A) (A) (A) (A) (A) (A)
                 (A) (A) (A) (A) (A) (A) (A) (A) (A) (A) (A) (A)
                 (A) (A) (A) (A) (A) (A) (A) (A) (A) (A) (A) (A)
                 (A) (A) (A) (A) (A) (A) (A) (A) (A) (A) (A) (A)
                 (A) (A) (A) (A) (A) (A) (A) (A) (A) (A) (A) (A)
                 (A) (A) (A) (A) (A) (A) (A) (A) (A) (A) (A) (A)
                 (A) (A) (A) (A) (A) (A) (A) (A) (A) (A) (A) (A)
                 (A) (A) (A) (A) (A) (A) (A) (A) (A) (A) (A) (A)
                 (A) (A) (A) (A) (A) (A) (A) (A) (A) (A) (A) (A)
                 (A) (A) (A) (A) (A) (A) (A) (A) (A) (A) (A) (A)
                 (A) (A) (A) (A) (A) (A) (A) (A) (A) (A) (A) (A)
                 (A) (A) (A) (A) (A) (A) (A) (A) (A) (A) (A) (A)
                 (A) (A) (A) (A) (A) (A) (A) (A) (A) (A) (A) (A)
                 (A) (A) (A) (A) (A) (A) (A) (A) (A) (A) (A) (A)
                 (A) (A) (A) (A) (A) (A) (A) (A) (A) (A) (A) (A)
                 (A) (A) (A) (A) (A) (A) (A) (A) (A) (A) (A) (A)
                 (A) (A) (A) (A) (A) (A) (A) (A) (A) (A) (A) (A)
                 (A) (A) (A) (A) (A) (A) (A) (A) (A) (A) (A) (A)
                 (A) (A) (A) (A) (A) (A) (A) (A) (A) (A) (A) (A)
                 (A) (A) (A) (A) (A) (A) (A) (A) (A) (A) (A) (A)
                 (A) (A) (A) (A) (A) (A) (A) (A) (A) (A) (A) (A)
                 (A) (A) (A) (A) (A) (A) (A) (A) (A) (A) (A) (A)
                 (A) (A) (A) (A) (A) (A) (A) (A) (A) (A) (A) (A)
                 (A) (A) (A) (A) (A) (A) (A) (A) (A) (A) (A) (A)
                 (A) (A) (A) (A) (A) (A) (A) (A) (A) (A) (A) (A)
                 (A) (A) (A) (A) (A) (A) (A) (A) (A) (A) (A) (A)
                 (A) (A) (A) (A) (A) (A) (A) (A) (A) (A) (A) (A)
                 (A) (A) (A) (A) (A) (A) (A) (A) (A) (A) (A) (A)
                 (A) (A) (A) (A) (A) (A) (A) (A) (A) (A) (A) (A)
                 (A) (A) (A) (A) (A) (A) (A) (A) (A) (A) (A) (A)
                 (A) (A) (A) (A) (A) (A) (A) (A) (A) (A) (A) (A)
                 (A) (A) (A) (A) (A) (A) (A) (A) (A) (A) (A) (A)
                 (A) (A) (A) (A) (A) (A) (A) (A) (A) (A) (A) (A)
                 (A) (A) (A) (A) (A) (A) (A) (A) (A) (A) (A) (A)
                 (A) (A) (A) (A) (A) (A) (A) (A) (A) (A) (A) (A)
                 (A) (A) (A) (A) (A) (A) (A) (A) (A) (A) (A) (A)
                 (A) (A) (A) (A) (A) (A) (A) (A) (A) (A) (A) (A)
                 (A) (A) (A) (A) (A) (A) (A) (A) (A) (A) (A) (A)
                 (A) (A) (A) (A) (A) (A) (A) (A) (A) (A) (A) (A)
                 (A) (A) (A) (A) (A) (A) (A) (A) (A) (A) (A) (A)
                 (A) (A) (A) (A) (A) (A) (A) (A) (A) (A) (A) (A)
                 (A) (A) (A) (A) (A) (A) (A) (A) (A)
 Beta  Orbitals:
       Occupied  (A) (A) (A) (A) (A) (A) (A) (A) (A) (A) (A) (A)
                 (A) (A) (A) (A) (A) (A) (A) (A) (A) (A) (A) (A)
                 (A) (A) (A) (A) (A) (A) (A) (A) (A) (A) (A) (A)
                 (A) (A) (A) (A) (A) (A) (A) (A) (A) (A) (A) (A)
                 (A) (A) (A) (A) (A) (A) (A) (A) (A) (A) (A) (A)
                 (A) (A) (A) (A) (A) (A) (A) (A) (A) (A) (A) (A)
                 (A) (A) (A) (A) (A) (A) (A) (A) (A) (A) (A) (A)
                 (A) (A) (A) (A) (A) (A) (A) (A) (A) (A) (A) (A)
                 (A) (A) (A) (A) (A) (A) (A) (A) (A) (A) (A) (A)
                 (A) (A) (A) (A) (A) (A) (A) (A) (A) (A) (A) (A)
                 (A) (A) (A) (A) (A) (A) (A) (A) (A) (A) (A) (A)
                 (A) (A) (A) (A) (A) (A) (A) (A) (A) (A) (A) (A)
                 (A) (A) (A) (A)
       Virtual   (A) (A) (A) (A) (A) (A) (A) (A) (A) (A) (A) (A)
                 (A) (A) (A) (A) (A) (A) (A) (A) (A) (A) (A) (A)
                 (A) (A) (A) (A) (A) (A) (A) (A) (A) (A) (A) (A)
                 (A) (A) (A) (A) (A) (A) (A) (A) (A) (A) (A) (A)
                 (A) (A) (A) (A) (A) (A) (A) (A) (A) (A) (A) (A)
                 (A) (A) (A) (A) (A) (A) (A) (A) (A) (A) (A) (A)
                 (A) (A) (A) (A) (A) (A) (A) (A) (A) (A) (A) (A)
                 (A) (A) (A) (A) (A) (A) (A) (A) (A) (A) (A) (A)
                 (A) (A) (A) (A) (A) (A) (A) (A) (A) (A) (A) (A)
                 (A) (A) (A) (A) (A) (A) (A) (A) (A) (A) (A) (A)
                 (A) (A) (A) (A) (A) (A) (A) (A) (A) (A) (A) (A)
                 (A) (A) (A) (A) (A) (A) (A) (A) (A) (A) (A) (A)
                 (A) (A) (A) (A) (A) (A) (A) (A) (A) (A) (A) (A)
                 (A) (A) (A) (A) (A) (A) (A) (A) (A) (A) (A) (A)
                 (A) (A) (A) (A) (A) (A) (A) (A) (A) (A) (A) (A)
                 (A) (A) (A) (A) (A) (A) (A) (A) (A) (A) (A) (A)
                 (A) (A) (A) (A) (A) (A) (A) (A) (A) (A) (A) (A)
                 (A) (A) (A) (A) (A) (A) (A) (A) (A) (A) (A) (A)
                 (A) (A) (A) (A) (A) (A) (A) (A) (A) (A) (A) (A)
                 (A) (A) (A) (A) (A) (A) (A) (A) (A) (A) (A) (A)
                 (A) (A) (A) (A) (A) (A) (A) (A) (A) (A) (A) (A)
                 (A) (A) (A) (A) (A) (A) (A) (A) (A) (A) (A) (A)
                 (A) (A) (A) (A) (A) (A) (A) (A) (A) (A) (A) (A)
                 (A) (A) (A) (A) (A) (A) (A) (A) (A) (A) (A) (A)
                 (A) (A) (A) (A) (A) (A) (A) (A) (A) (A) (A) (A)
                 (A) (A) (A) (A) (A) (A) (A) (A) (A) (A) (A) (A)
                 (A) (A) (A) (A) (A) (A) (A) (A) (A) (A) (A) (A)
                 (A) (A) (A) (A) (A) (A) (A) (A) (A) (A) (A) (A)
                 (A) (A) (A) (A) (A) (A) (A) (A) (A) (A) (A) (A)
                 (A) (A) (A) (A) (A) (A) (A) (A) (A) (A) (A) (A)
                 (A) (A) (A) (A) (A) (A) (A) (A) (A) (A) (A) (A)
                 (A) (A) (A) (A) (A) (A) (A) (A) (A) (A) (A) (A)
                 (A) (A) (A) (A) (A) (A) (A) (A) (A) (A) (A) (A)
                 (A) (A) (A) (A) (A) (A) (A) (A) (A) (A) (A) (A)
                 (A) (A) (A) (A) (A) (A) (A) (A) (A) (A) (A) (A)
                 (A) (A) (A) (A) (A) (A) (A) (A) (A) (A) (A) (A)
                 (A) (A) (A) (A) (A) (A) (A) (A) (A) (A) (A) (A)
                 (A) (A) (A) (A) (A) (A) (A) (A) (A) (A) (A) (A)
                 (A) (A) (A) (A) (A) (A) (A) (A) (A) (A) (A) (A)
                 (A) (A) (A) (A) (A) (A) (A) (A) (A) (A) (A) (A)
                 (A) (A) (A) (A) (A) (A) (A) (A) (A) (A) (A) (A)
                 (A) (A) (A) (A) (A) (A) (A) (A) (A) (A) (A) (A)
                 (A) (A) (A) (A) (A) (A) (A) (A) (A) (A) (A) (A)
                 (A) (A) (A) (A) (A) (A) (A) (A) (A)
 The electronic state is 1-A.
 Alpha  occ. eigenvalues --  -88.36486 -88.36027 -88.34913 -19.05767 -19.05350
 Alpha  occ. eigenvalues --  -19.04923 -14.25913 -14.25449 -14.25226 -10.23374
 Alpha  occ. eigenvalues --  -10.22702 -10.22247 -10.22115 -10.22034 -10.21861
 Alpha  occ. eigenvalues --  -10.21760 -10.21469 -10.21221 -10.20943 -10.20727
 Alpha  occ. eigenvalues --  -10.20375 -10.19743 -10.19667 -10.19479 -10.19214
 Alpha  occ. eigenvalues --  -10.18977 -10.18641 -10.18258 -10.18170 -10.17853
 Alpha  occ. eigenvalues --  -10.17800 -10.17370 -10.17238 -10.17225 -10.16974
 Alpha  occ. eigenvalues --  -10.16956 -10.16946 -10.16493 -10.16422  -7.97273
 Alpha  occ. eigenvalues --   -7.96911  -7.95769  -5.98467  -5.98085  -5.97931
 Alpha  occ. eigenvalues --   -5.97549  -5.97549  -5.97202  -5.96992  -5.96437
 Alpha  occ. eigenvalues --   -5.95983  -1.23901  -1.23199  -1.22911  -1.12637
 Alpha  occ. eigenvalues --   -1.12285  -1.12004  -1.07880  -1.07275  -1.06484
 Alpha  occ. eigenvalues --   -1.00247  -0.98915  -0.98310  -0.97098  -0.96198
 Alpha  occ. eigenvalues --   -0.94874  -0.92738  -0.92132  -0.91928  -0.90736
 Alpha  occ. eigenvalues --   -0.89939  -0.88826  -0.86536  -0.85889  -0.84292
 Alpha  occ. eigenvalues --   -0.81328  -0.79668  -0.79056  -0.78811  -0.78529
 Alpha  occ. eigenvalues --   -0.77163  -0.72990  -0.71848  -0.71665  -0.70930
 Alpha  occ. eigenvalues --   -0.70777  -0.70122  -0.69304  -0.68553  -0.68004
 Alpha  occ. eigenvalues --   -0.65129  -0.63867  -0.63446  -0.62780  -0.62611
 Alpha  occ. eigenvalues --   -0.62306  -0.62077  -0.61834  -0.61637  -0.61197
 Alpha  occ. eigenvalues --   -0.60454  -0.59736  -0.59298  -0.58426  -0.57896
 Alpha  occ. eigenvalues --   -0.57370  -0.56947  -0.56484  -0.56018  -0.55985
 Alpha  occ. eigenvalues --   -0.55650  -0.55200  -0.54549  -0.54125  -0.53816
 Alpha  occ. eigenvalues --   -0.53369  -0.53009  -0.52347  -0.52036  -0.51386
 Alpha  occ. eigenvalues --   -0.50739  -0.50340  -0.49779  -0.49042  -0.47861
 Alpha  occ. eigenvalues --   -0.47722  -0.47353  -0.47089  -0.46826  -0.46612
 Alpha  occ. eigenvalues --   -0.46230  -0.45976  -0.45554  -0.42026  -0.40824
 Alpha  occ. eigenvalues --   -0.40590  -0.39879  -0.39108  -0.38756  -0.38579
 Alpha  occ. eigenvalues --   -0.38197  -0.37544  -0.35490  -0.34971  -0.34578
 Alpha  occ. eigenvalues --   -0.32763  -0.31411  -0.28886
 Alpha virt. eigenvalues --    0.00549   0.03057   0.05279   0.06553   0.06782
 Alpha virt. eigenvalues --    0.07119   0.08055   0.10322   0.11572   0.14093
 Alpha virt. eigenvalues --    0.14487   0.14886   0.15544   0.15987   0.16090
 Alpha virt. eigenvalues --    0.16675   0.16979   0.17664   0.17888   0.18482
 Alpha virt. eigenvalues --    0.18616   0.19064   0.19216   0.19781   0.20609
 Alpha virt. eigenvalues --    0.20783   0.21412   0.21598   0.22128   0.22413
 Alpha virt. eigenvalues --    0.22825   0.22894   0.23146   0.23480   0.23822
 Alpha virt. eigenvalues --    0.24077   0.24366   0.24704   0.25210   0.25283
 Alpha virt. eigenvalues --    0.25456   0.26290   0.26560   0.26740   0.27999
 Alpha virt. eigenvalues --    0.28664   0.29511   0.30736   0.31474   0.32910
 Alpha virt. eigenvalues --    0.33477   0.34429   0.35463   0.36113   0.36866
 Alpha virt. eigenvalues --    0.37178   0.38304   0.38886   0.39249   0.39467
 Alpha virt. eigenvalues --    0.40034   0.40766   0.41150   0.41573   0.41763
 Alpha virt. eigenvalues --    0.42965   0.43677   0.45007   0.45800   0.46671
 Alpha virt. eigenvalues --    0.47547   0.47885   0.48448   0.49000   0.50587
 Alpha virt. eigenvalues --    0.50843   0.51253   0.52962   0.53380   0.54049
 Alpha virt. eigenvalues --    0.54080   0.54920   0.55312   0.55641   0.55989
 Alpha virt. eigenvalues --    0.56338   0.56394   0.56567   0.56799   0.56918
 Alpha virt. eigenvalues --    0.57201   0.57416   0.57709   0.58099   0.58245
 Alpha virt. eigenvalues --    0.58416   0.58823   0.59138   0.59404   0.59502
 Alpha virt. eigenvalues --    0.59910   0.60186   0.60394   0.60619   0.60889
 Alpha virt. eigenvalues --    0.61225   0.61358   0.61539   0.61619   0.62017
 Alpha virt. eigenvalues --    0.62310   0.62619   0.62895   0.63318   0.63630
 Alpha virt. eigenvalues --    0.64008   0.64205   0.64451   0.64678   0.64710
 Alpha virt. eigenvalues --    0.64937   0.65335   0.65507   0.65901   0.66274
 Alpha virt. eigenvalues --    0.66429   0.66850   0.67506   0.67793   0.68193
 Alpha virt. eigenvalues --    0.68560   0.68759   0.69113   0.69579   0.69700
 Alpha virt. eigenvalues --    0.69899   0.70007   0.70616   0.70712   0.71251
 Alpha virt. eigenvalues --    0.71627   0.72232   0.72756   0.72952   0.73145
 Alpha virt. eigenvalues --    0.73717   0.74346   0.74734   0.74932   0.75023
 Alpha virt. eigenvalues --    0.75722   0.75961   0.76418   0.76537   0.76697
 Alpha virt. eigenvalues --    0.77067   0.77178   0.77631   0.78159   0.78277
 Alpha virt. eigenvalues --    0.78661   0.78764   0.78994   0.79320   0.79879
 Alpha virt. eigenvalues --    0.80417   0.80451   0.80795   0.81307   0.81682
 Alpha virt. eigenvalues --    0.82264   0.82395   0.82732   0.83134   0.83285
 Alpha virt. eigenvalues --    0.83571   0.84307   0.85072   0.85307   0.85803
 Alpha virt. eigenvalues --    0.86214   0.86952   0.87284   0.88035   0.88372
 Alpha virt. eigenvalues --    0.88692   0.89007   0.89829   0.92323   0.93712
 Alpha virt. eigenvalues --    0.94429   0.94715   0.95026   0.95858   0.96286
 Alpha virt. eigenvalues --    0.96382   0.97784   0.98001   0.98801   0.99272
 Alpha virt. eigenvalues --    0.99724   0.99884   1.00610   1.00974   1.01396
 Alpha virt. eigenvalues --    1.01946   1.02205   1.02818   1.03361   1.03426
 Alpha virt. eigenvalues --    1.03895   1.04207   1.04918   1.05513   1.05874
 Alpha virt. eigenvalues --    1.06118   1.06258   1.06582   1.06867   1.07233
 Alpha virt. eigenvalues --    1.07439   1.08048   1.08841   1.09179   1.09606
 Alpha virt. eigenvalues --    1.09862   1.10578   1.10888   1.11891   1.12118
 Alpha virt. eigenvalues --    1.12773   1.13015   1.13098   1.13634   1.13933
 Alpha virt. eigenvalues --    1.14302   1.14738   1.15015   1.15472   1.15648
 Alpha virt. eigenvalues --    1.16077   1.16542   1.16895   1.17808   1.17992
 Alpha virt. eigenvalues --    1.18878   1.19596   1.19745   1.20210   1.21010
 Alpha virt. eigenvalues --    1.21432   1.21877   1.22598   1.23527   1.25345
 Alpha virt. eigenvalues --    1.25946   1.26579   1.27469   1.27974   1.28738
 Alpha virt. eigenvalues --    1.29039   1.29208   1.29659   1.29846   1.30369
 Alpha virt. eigenvalues --    1.31000   1.31507   1.31905   1.32345   1.32669
 Alpha virt. eigenvalues --    1.33041   1.33480   1.33962   1.34411   1.34952
 Alpha virt. eigenvalues --    1.35476   1.36898   1.37568   1.38623   1.38676
 Alpha virt. eigenvalues --    1.38970   1.40088   1.41344   1.42231   1.42853
 Alpha virt. eigenvalues --    1.43539   1.44252   1.45054   1.47308   1.47383
 Alpha virt. eigenvalues --    1.48280   1.48738   1.49324   1.49410   1.49842
[...]
    61   Atom        0.000000      0.000000      0.000000
    62   Atom       -0.000000     -0.000000      0.000000
 --------------------------------------------------------


 ---------------------------------------------------------------------------------
              Anisotropic Spin Dipole Couplings in Principal Axis System
 ---------------------------------------------------------------------------------

       Atom             a.u.   MegaHertz   Gauss  10(-4) cm-1        Axes

              Baa    -0.0000    -0.000    -0.000    -0.000  0.3876 -0.6083  0.6927
     1 C(13)  Bbb    -0.0000    -0.000    -0.000    -0.000 -0.0425  0.7388  0.6726
              Bcc     0.0000     0.000     0.000     0.000  0.9209  0.2901 -0.2605
 
              Baa    -0.0000    -0.000    -0.000    -0.000  0.0857  0.4661  0.8806
     2 C(13)  Bbb     0.0000     0.000     0.000     0.000  0.7412  0.5608 -0.3689
              Bcc     0.0000     0.000     0.000     0.000 -0.6658  0.6843 -0.2974
 
              Baa    -0.0000    -0.000    -0.000    -0.000  0.3422  0.2181  0.9140
     3 C(13)  Bbb    -0.0000    -0.000    -0.000    -0.000  0.4865  0.7910 -0.3709
              Bcc     0.0000     0.000     0.000     0.000  0.8039 -0.5716 -0.1645
 
              Baa    -0.0000    -0.000    -0.000    -0.000  0.9513 -0.0582 -0.3027
     4 C(13)  Bbb    -0.0000    -0.000    -0.000    -0.000 -0.1639  0.7362 -0.6566
              Bcc     0.0000     0.000     0.000     0.000  0.2611  0.6742  0.6908
 
              Baa    -0.0000    -0.000    -0.000    -0.000 -0.0954  0.8950 -0.4358
     5 N(14)  Bbb    -0.0000    -0.000    -0.000    -0.000 -0.0086  0.4370  0.8994
              Bcc     0.0000     0.000     0.000     0.000  0.9954  0.0896 -0.0340
 
              Baa    -0.0000    -0.000    -0.000    -0.000  0.1097  0.5393  0.8349
     6 C(13)  Bbb     0.0000     0.000     0.000     0.000 -0.4306  0.7829 -0.4491
              Bcc     0.0000     0.000     0.000     0.000  0.8959  0.3102 -0.3181
 
              Baa    -0.0000    -0.000    -0.000    -0.000 -0.3886  0.9103 -0.1426
     7 C(13)  Bbb    -0.0000    -0.000    -0.000    -0.000  0.1705  0.2232  0.9598
              Bcc     0.0000     0.000     0.000     0.000  0.9055  0.3486 -0.2419
 
              Baa    -0.0000    -0.000    -0.000    -0.000 -0.6773  0.7092 -0.1954
     8 C(13)  Bbb     0.0000     0.000     0.000     0.000 -0.4719 -0.2152  0.8550
              Bcc     0.0000     0.000     0.000     0.000  0.5643  0.6713  0.4805
 
              Baa    -0.0000     0.000     0.000     0.000  0.5404 -0.4330  0.7214
     9 O(17)  Bbb    -0.0000     0.000     0.000     0.000 -0.5870  0.4202  0.6920
              Bcc     0.0000    -0.000    -0.000    -0.000  0.6028  0.7974  0.0271
 
              Baa    -0.0000    -0.000    -0.000    -0.000  0.9356  0.3523  0.0221
    10 C(13)  Bbb     0.0000     0.000     0.000     0.000 -0.0409  0.0459  0.9981
              Bcc     0.0000     0.000     0.000     0.000 -0.3507  0.9347 -0.0573
 
              Baa    -0.0000    -0.000    -0.000    -0.000  0.4008  0.7352  0.5467
    11 C(13)  Bbb    -0.0000    -0.000    -0.000    -0.000  0.8850 -0.1564 -0.4386
              Bcc     0.0000     0.000     0.000     0.000  0.2370 -0.6596  0.7133
 
              Baa    -0.0000    -0.000    -0.000    -0.000 -0.6845 -0.0961  0.7227
    12 C(13)  Bbb    -0.0000    -0.000    -0.000    -0.000  0.7285 -0.1285  0.6729
              Bcc     0.0000     0.000     0.000     0.000  0.0282  0.9870  0.1579
 
              Baa    -0.0000    -0.000    -0.000    -0.000  0.8708  0.4559  0.1837
    13 S(33)  Bbb    -0.0000    -0.000    -0.000    -0.000 -0.4370  0.5468  0.7142
              Bcc     0.0000     0.000     0.000     0.000 -0.2252  0.7023 -0.6754
 
              Baa    -0.0000    -0.000    -0.000    -0.000 -0.5951  0.8033  0.0243
    14 C(13)  Bbb    -0.0000    -0.000    -0.000    -0.000  0.8022  0.5956 -0.0415
              Bcc     0.0000     0.000     0.000     0.000  0.0478  0.0052  0.9988
 
              Baa    -0.0000    -0.000    -0.000    -0.000  0.9999 -0.0035  0.0169
    15 C(13)  Bbb     0.0000     0.000     0.000     0.000  0.0063  0.9852 -0.1714
              Bcc     0.0000     0.000     0.000     0.000 -0.0160  0.1714  0.9851
 
              Baa    -0.0000    -0.000    -0.000    -0.000 -0.2435  0.9625  0.1193
    16 C(13)  Bbb    -0.0000    -0.000    -0.000    -0.000 -0.0737 -0.1410  0.9873
              Bcc     0.0000     0.000     0.000     0.000  0.9671  0.2316  0.1053
 
              Baa    -0.0000    -0.000    -0.000    -0.000  0.9995  0.0238 -0.0216
    17 C(13)  Bbb     0.0000     0.000     0.000     0.000  0.0272 -0.2662  0.9635
              Bcc     0.0000     0.000     0.000     0.000 -0.0172  0.9636  0.2667
 
              Baa    -0.0000    -0.000    -0.000    -0.000  0.9990 -0.0044 -0.0449
    18 N(14)  Bbb    -0.0000    -0.000    -0.000    -0.000  0.0447 -0.0309  0.9985
              Bcc     0.0000     0.000     0.000     0.000  0.0058  0.9995  0.0307
 
              Baa    -0.0000    -0.000    -0.000    -0.000 -0.5081 -0.2697  0.8180
    19 C(13)  Bbb    -0.0000    -0.000    -0.000    -0.000  0.7266  0.3757  0.5752
              Bcc     0.0000     0.000     0.000     0.000 -0.4625  0.8866  0.0051
 
              Baa    -0.0000    -0.000    -0.000    -0.000 -0.2672  0.9625 -0.0479
    20 C(13)  Bbb     0.0000     0.000     0.000     0.000 -0.0249  0.0428  0.9988
              Bcc     0.0000     0.000     0.000     0.000  0.9633  0.2681  0.0125
 
              Baa    -0.0000    -0.000    -0.000    -0.000  0.8866 -0.4623 -0.0109
    21 C(13)  Bbb     0.0000     0.000     0.000     0.000  0.4614  0.8860 -0.0463
              Bcc     0.0000     0.000     0.000     0.000  0.0311  0.0360  0.9989
 
              Baa    -0.0000     0.000     0.000     0.000  0.0834  0.9965  0.0103
    22 O(17)  Bbb     0.0000    -0.000    -0.000    -0.000  0.0165 -0.0117  0.9998
              Bcc     0.0000    -0.000    -0.000    -0.000  0.9964 -0.0832 -0.0174
 
              Baa    -0.0000    -0.000    -0.000    -0.000  0.8484 -0.5292 -0.0123
    23 C(13)  Bbb     0.0000     0.000     0.000     0.000  0.3319  0.5137  0.7912
              Bcc     0.0000     0.000     0.000     0.000  0.4124  0.6754 -0.6114
 
              Baa    -0.0000    -0.000    -0.000    -0.000  0.9684  0.2398  0.0679
    24 C(13)  Bbb    -0.0000    -0.000    -0.000    -0.000 -0.0785  0.0347  0.9963
              Bcc     0.0000     0.000     0.000     0.000 -0.2366  0.9702 -0.0525
 
              Baa    -0.0000    -0.000    -0.000    -0.000  0.5938  0.7562 -0.2750
    25 C(13)  Bbb    -0.0000    -0.000    -0.000    -0.000 -0.0661  0.3864  0.9199
              Bcc     0.0000     0.000     0.000     0.000  0.8019 -0.5281  0.2794
 
              Baa    -0.0000    -0.000    -0.000    -0.000 -0.5671  0.8233  0.0240
    26 S(33)  Bbb    -0.0000    -0.000    -0.000    -0.000  0.8183  0.5665 -0.0975
              Bcc     0.0000     0.000     0.000     0.000  0.0939  0.0356  0.9949
 
              Baa    -0.0000    -0.000    -0.000    -0.000 -0.0584  0.7772  0.6265
    27 C(13)  Bbb     0.0000     0.000     0.000     0.000  0.7788 -0.3572  0.5157
              Bcc     0.0000     0.000     0.000     0.000  0.6246  0.5181 -0.5844
 
              Baa    -0.0000    -0.000    -0.000    -0.000 -0.6554  0.6664 -0.3555
    28 C(13)  Bbb    -0.0000    -0.000    -0.000    -0.000 -0.4695  0.0093  0.8829
              Bcc     0.0000     0.000     0.000     0.000  0.5917  0.7455  0.3068
 
              Baa    -0.0000    -0.000    -0.000    -0.000  0.1596 -0.3457  0.9247
    29 C(13)  Bbb     0.0000     0.000     0.000     0.000  0.5238  0.8236  0.2175
              Bcc     0.0000     0.000     0.000     0.000  0.8367 -0.4497 -0.3125
 
              Baa    -0.0000    -0.000    -0.000    -0.000  0.9769  0.2095 -0.0413
    30 C(13)  Bbb     0.0000     0.000     0.000     0.000 -0.1152  0.6797  0.7244
              Bcc     0.0000     0.000     0.000     0.000 -0.1798  0.7029 -0.6882
 
              Baa    -0.0000    -0.000    -0.000    -0.000  0.1259 -0.5403  0.8320
    31 N(14)  Bbb    -0.0000    -0.000    -0.000    -0.000  0.6235  0.6954  0.3573
              Bcc     0.0000     0.000     0.000     0.000  0.7716 -0.4737 -0.4245
 
              Baa    -0.0000    -0.000    -0.000    -0.000 -0.3837  0.6093  0.6939
    32 C(13)  Bbb     0.0000     0.000     0.000     0.000  0.6943 -0.3051  0.6518
              Bcc     0.0000     0.000     0.000     0.000  0.6089  0.7319 -0.3060
 
              Baa    -0.0000    -0.000    -0.000    -0.000  0.1787 -0.6529  0.7360
    33 C(13)  Bbb    -0.0000    -0.000    -0.000    -0.000  0.6267 -0.5012 -0.5967
              Bcc     0.0000     0.000     0.000     0.000  0.7585  0.5679  0.3196
 
              Baa    -0.0000    -0.000    -0.000    -0.000  0.6481  0.7022  0.2949
    34 C(13)  Bbb    -0.0000    -0.000    -0.000    -0.000  0.7396 -0.4881 -0.4633
              Bcc     0.0000     0.000     0.000     0.000  0.1814 -0.5184  0.8357
 
              Baa    -0.0000     0.000     0.000     0.000 -0.1462  0.5631  0.8134
    35 O(17)  Bbb     0.0000    -0.000    -0.000    -0.000 -0.1100  0.8078 -0.5791
              Bcc     0.0000    -0.000    -0.000    -0.000  0.9831  0.1742  0.0562
 
              Baa    -0.0000    -0.000    -0.000    -0.000 -0.1254  0.9353  0.3309
    36 C(13)  Bbb     0.0000     0.000     0.000     0.000  0.8097  0.2892 -0.5106
              Bcc     0.0000     0.000     0.000     0.000  0.5733 -0.2039  0.7936
 
              Baa    -0.0000    -0.000    -0.000    -0.000  0.3820  0.5081  0.7720
    37 C(13)  Bbb    -0.0000    -0.000    -0.000    -0.000  0.0847  0.8126 -0.5767
              Bcc     0.0000     0.000     0.000     0.000  0.9203 -0.2856 -0.2673
 
              Baa    -0.0000    -0.000    -0.000    -0.000  0.7577 -0.4573  0.4655
    38 C(13)  Bbb    -0.0000    -0.000    -0.000    -0.000 -0.1404  0.5825  0.8006
              Bcc     0.0000     0.000     0.000     0.000  0.6373  0.6720 -0.3772
 
              Baa    -0.0000    -0.000    -0.000    -0.000  0.3058 -0.3377  0.8902
    39 S(33)  Bbb    -0.0000    -0.000    -0.000    -0.000  0.0385  0.9386  0.3429
              Bcc     0.0000     0.000     0.000     0.000  0.9513  0.0706 -0.3000
 
              Baa    -0.0000    -0.000    -0.000    -0.000  0.4715  0.4317  0.7690
    40 H(1)   Bbb    -0.0000    -0.000    -0.000    -0.000 -0.5645  0.8177 -0.1130
              Bcc     0.0000     0.000     0.000     0.000  0.6776  0.3808 -0.6292
 
              Baa    -0.0000    -0.000    -0.000    -0.000  0.2201  0.4397  0.8708
    41 H(1)   Bbb    -0.0000    -0.000    -0.000    -0.000  0.5075  0.7107 -0.4872
              Bcc     0.0000     0.000     0.000     0.000  0.8331 -0.5491  0.0668
 
              Baa    -0.0000    -0.000    -0.000    -0.000  0.9359 -0.3165 -0.1543
    42 H(1)   Bbb    -0.0000    -0.000    -0.000    -0.000  0.2774  0.3929  0.8768
              Bcc     0.0000     0.000     0.000     0.000  0.2169  0.8634 -0.4555
 
              Baa    -0.0000    -0.000    -0.000    -0.000 -0.1380  0.7236  0.6763
    43 H(1)   Bbb    -0.0000    -0.000    -0.000    -0.000  0.9028 -0.1889  0.3863
              Bcc     0.0000     0.000     0.000     0.000  0.4073  0.6639 -0.6272
 
              Baa    -0.0000    -0.000    -0.000    -0.000  0.1858  0.4227  0.8870
    44 H(1)   Bbb     0.0000     0.000     0.000     0.000  0.5144  0.7273 -0.4543
              Bcc     0.0000     0.000     0.000     0.000  0.8372 -0.5407  0.0823
 
              Baa    -0.0000    -0.000    -0.000    -0.000 -0.2740 -0.5883  0.7608
    45 H(1)   Bbb    -0.0000    -0.000    -0.000    -0.000  0.5385  0.5616  0.6282
              Bcc     0.0000     0.000     0.000     0.000  0.7968 -0.5818 -0.1629
 
              Baa    -0.0000    -0.000    -0.000    -0.000  0.2973  0.7435  0.5990
    46 H(1)   Bbb     0.0000     0.000     0.000     0.000 -0.5331 -0.3912  0.7502
              Bcc     0.0000     0.000     0.000     0.000  0.7921 -0.5423  0.2800
 
              Baa    -0.0000    -0.000    -0.000    -0.000 -0.5439  0.7017 -0.4602
    47 H(1)   Bbb    -0.0000    -0.000    -0.000    -0.000 -0.0173  0.5389  0.8422
              Bcc     0.0000     0.000     0.000     0.000  0.8390  0.4661 -0.2810
 
              Baa    -0.0000    -0.000    -0.000    -0.000  0.7343  0.6760  0.0627
    48 H(1)   Bbb     0.0000     0.000     0.000     0.000 -0.6771  0.7358 -0.0036
              Bcc     0.0000     0.000     0.000     0.000 -0.0486 -0.0398  0.9980
 
              Baa    -0.0000    -0.000    -0.000    -0.000  0.9566  0.2817  0.0745
    49 H(1)   Bbb    -0.0000    -0.000    -0.000    -0.000 -0.0685 -0.0311  0.9972
              Bcc     0.0000     0.000     0.000     0.000 -0.2832  0.9590  0.0105
 
              Baa    -0.0000    -0.000    -0.000    -0.000  0.8239 -0.5289  0.2034
    50 H(1)   Bbb    -0.0000    -0.000    -0.000    -0.000  0.4563  0.8321  0.3154
              Bcc     0.0000     0.000     0.000     0.000 -0.3361 -0.1671  0.9269
 
              Baa    -0.0000    -0.000    -0.000    -0.000 -0.0396  0.9735 -0.2253
    51 H(1)   Bbb     0.0000     0.000     0.000     0.000  0.7983 -0.1048 -0.5931
              Bcc     0.0000     0.000     0.000     0.000  0.6010  0.2033  0.7730
 
              Baa    -0.0000    -0.000    -0.000    -0.000  0.4413 -0.5879  0.6779
    52 H(1)   Bbb     0.0000     0.000     0.000     0.000  0.7275  0.6767  0.1132
              Bcc     0.0000     0.000     0.000     0.000 -0.5253  0.4432  0.7264
 
              Baa    -0.0000    -0.000    -0.000    -0.000 -0.2470  0.8249  0.5085
    53 H(1)   Bbb    -0.0000    -0.000    -0.000    -0.000 -0.4238 -0.5638  0.7088
              Bcc     0.0000     0.000     0.000     0.000  0.8714 -0.0404  0.4889
 
              Baa    -0.0000    -0.000    -0.000    -0.000  0.8574 -0.5126  0.0450
    54 H(1)   Bbb     0.0000     0.000     0.000     0.000  0.5044  0.8200 -0.2703
              Bcc     0.0000     0.000     0.000     0.000  0.1016  0.2545  0.9617
 
              Baa    -0.0000    -0.000    -0.000    -0.000  0.9064  0.4225 -0.0008
    55 H(1)   Bbb     0.0000     0.000     0.000     0.000  0.1773 -0.3786  0.9084
              Bcc     0.0000     0.000     0.000     0.000 -0.3835  0.8235  0.4180
 
              Baa    -0.0000    -0.000    -0.000    -0.000  0.9176 -0.1645 -0.3619
    56 H(1)   Bbb    -0.0000    -0.000    -0.000    -0.000 -0.0288  0.8804 -0.4733
              Bcc     0.0000     0.000     0.000     0.000  0.3965  0.4447  0.8031
 
              Baa    -0.0000    -0.000    -0.000    -0.000  0.0670 -0.6567  0.7511
    57 H(1)   Bbb    -0.0000    -0.000    -0.000    -0.000  0.9824 -0.0882 -0.1647
              Bcc     0.0000     0.000     0.000     0.000  0.1744  0.7489  0.6393
 
              Baa    -0.0000    -0.000    -0.000    -0.000  0.8108 -0.3400 -0.4765
    58 H(1)   Bbb     0.0000     0.000     0.000     0.000  0.5368  0.7566  0.3734
              Bcc     0.0000     0.000     0.000     0.000  0.2335 -0.5586  0.7959
 
              Baa    -0.0000    -0.000    -0.000    -0.000  0.1453  0.9122  0.3832
    59 H(1)   Bbb    -0.0000    -0.000    -0.000    -0.000  0.9442 -0.0121 -0.3291
              Bcc     0.0000     0.000     0.000     0.000  0.2956 -0.4096  0.8631
 
              Baa    -0.0000    -0.000    -0.000    -0.000 -0.5277  0.4218  0.7373
    60 H(1)   Bbb     0.0000     0.000     0.000     0.000  0.4815  0.8636 -0.1494
              Bcc     0.0000     0.000     0.000     0.000  0.6998 -0.2761  0.6588
 
              Baa    -0.0000    -0.000    -0.000    -0.000  0.8210  0.1813 -0.5414
    61 H(1)   Bbb    -0.0000    -0.000    -0.000    -0.000 -0.4982  0.6908 -0.5240
              Bcc     0.0000     0.000     0.000     0.000  0.2790  0.6999  0.6575
 
              Baa    -0.0000    -0.000    -0.000    -0.000  0.8552  0.0986  0.5089
    62 H(1)   Bbb    -0.0000    -0.000    -0.000    -0.000  0.0729  0.9491 -0.3064
              Bcc     0.0000     0.000     0.000     0.000 -0.5132  0.2991  0.8045
 

 ---------------------------------------------------------------------------------

 No NMR shielding tensors so no spin-rotation constants.
 Leave Link  601 at Fri Jul 24 21:03:50 2020, MaxMem=  4026531840 cpu:              10.7 elap:               1.4
 (Enter /opt/ohpc/pub/libs/gaussian/g16-A.03/sandybridge/g16/l9999.exe)

 Test job not archived.
 1\1\GINC-SKYLAKE049\FOpt\ULC-wPBE\CC-pVDZ\C30H23N3O3S3\RDU230\24-Jul-2
 020\0\\#P uLC-wPBE/cc-pVDZ iop(3/107=0472000000, 3/108=0472000000) opt
 \\H23 C30 S3 N3 O3\\0,1\C,-11.3073183578,-0.2311537569,1.3710082748\C,
 -11.0850842228,0.9660991727,0.7113432286\C,-9.8064556168,1.2886341709,
 0.2997411057\C,-8.7754237113,0.387910554,0.5656077847\N,-8.987373841,-
 0.7658961306,1.2005140885\C,-10.2181329731,-1.0579357466,1.5878672909\
 C,-7.3851661962,0.6277986454,0.1765860105\C,-6.8014380882,1.6797372188
 ,-0.4814881725\O,-7.5246184769,2.738821196,-0.903525751\C,-6.836152864
 9,3.7668962043,-1.5698320535\C,-5.4005345666,1.5156767082,-0.664556328
 8\C,-4.944743583,0.3418537686,-0.1397307396\S,-6.2071436466,-0.5609635
 39,0.5812665428\C,-3.5639869971,-0.153061918,-0.1475796693\C,-3.253813
 7404,-1.5080522815,-0.2121463862\C,-1.9367008703,-1.9152704586,-0.2264
 561198\C,-0.9351838942,-0.9459720647,-0.1817274241\N,-1.2222676071,0.3
 554222697,-0.1120227863\C,-2.4875256509,0.7280925115,-0.0903335585\C,0
 .4906175562,-1.2637393903,-0.205511379\C,1.1424527141,-2.4690217484,-0
 .2716670775\O,0.4660101896,-3.6353486893,-0.3207806576\C,1.2212727083,
 -4.8192188857,-0.3852395625\C,2.5584146521,-2.3382973969,-0.2710343589
 \C,2.9573396349,-1.0352105063,-0.2064199055\S,1.6219574339,0.033641363
 9,-0.1536509972\C,4.3351069966,-0.5324505553,-0.1851797557\C,4.7005720
 284,0.6239005701,0.4968383491\C,6.0139879756,1.0435569337,0.4900944167
 \C,6.9563572722,0.2851826277,-0.2032710534\N,6.6144902335,-0.821109472
 4,-0.8662261582\C,5.3522759053,-1.2043026329,-0.8578378237\C,8.3760507
 103,0.6304377057,-0.2656686477\C,9.069488899,1.6764856879,0.2887294665
 \O,8.4539225623,2.614428623,1.039840602\C,9.250380321,3.6471983509,1.5
 629185741\C,10.4611303103,1.6458951218,-0.017025697\C,10.7774280949,0.
 5776830248,-0.7933309638\S,9.4327443024,-0.3915322152,-1.1631412063\H,
 -12.2987983849,-0.5206211886,1.7107395472\H,-11.9082497486,1.651761816
 3,0.5162011543\H,-9.5932300238,2.216610732,-0.2192209663\H,-10.3417910
 905,-2.0118568846,2.1034235682\H,-6.3704036108,3.4045120369,-2.4960381
 137\H,-7.5806585469,4.5261999772,-1.820465773\H,-6.0681614399,4.218310
 0293,-0.9275131954\H,-4.7601752461,2.2171911383,-1.1887596595\H,-4.051
 3723187,-2.2481126562,-0.2650227014\H,-1.6726573668,-2.9654430635,-0.2
 807776235\H,-2.6678790677,1.8010868981,-0.0063269548\H,0.5037235874,-5
 .6419739957,-0.4260951878\H,1.8482344842,-4.8467965822,-1.2864301288\H
 ,1.8538564585,-4.9409512078,0.5041086331\H,3.2550078445,-3.1698395094,
 -0.2851497283\H,3.9520888536,1.1917041092,1.0482082377\H,6.3214745458,
 1.9390561194,1.0183292765\H,5.1212947254,-2.0999988667,-1.436919105\H,
 9.7227206119,4.2344126907,0.76398408\H,10.0254563567,3.255745877,2.235
 4234926\H,8.581072346,4.2963271318,2.1323864333\H,11.1879770087,2.3769
 737737,0.3205524426\H,11.7619984262,0.3178675837,-1.1688032293\\Versio
 n=EM64L-G16RevA.03\State=1-A\HF=-2740.1858507\S2=0.\S2-1=0.\S2A=0.\RMS
 D=7.893e-09\RMSF=2.952e-06\Dipole=0.6083222,0.8494462,0.0172631\Quadru
 pole=19.3280329,7.08214,-26.4101728,2.8386224,13.3449428,1.1700613\PG=
 C01 [X(C30H23N3O3S3)]\\@


 IF OTHER PEOPLE ARE GOING TO TALK, CONVERSATION IS SIMPLY IMPOSSIBLE.

                                               -- WHISTLER'S PRINCIPLE
 Job cpu time:       1 days  2 hours 35 minutes 57.7 seconds.
 Elapsed time:       0 days  3 hours 23 minutes 28.1 seconds.
 File lengths (MBytes):  RWF=    556 Int=      0 D2E=      0 Chk=     52 Scr=      8
 Normal termination of Gaussian 16 at Fri Jul 24 21:03:50 2020.
