 Entering Gaussian System, Link 0=g16
 Input=mols_55_1_03_C-COC_opt_0.gjf
 Output=mols_55_1_03_C-COC_opt_0.log
 Initial command:
 /opt/ohpc/pub/libs/gaussian/g16-A.03/sandybridge/g16/l1.exe "/mnt/gpfs2_4m/scratch/rdu230/ondemand/projects/dihedral_energies/7trial/wtuning/mols_55_1_03_C-COC/Gau-210123.inp" -scrdir="/mnt/gpfs2_4m/scratch/rdu230/ondemand/projects/dihedral_energies/7trial/wtuning/mols_55_1_03_C-COC/"
 Entering Link 1 = /opt/ohpc/pub/libs/gaussian/g16-A.03/sandybridge/g16/l1.exe PID=    210124.
  
 Copyright (c) 1988,1990,1992,1993,1995,1998,2003,2009,2016,
            Gaussian, Inc.  All Rights Reserved.
  
 This is part of the Gaussian(R) 16 program.  It is based on
 the Gaussian(R) 09 system (copyright 2009, Gaussian, Inc.),
 the Gaussian(R) 03 system (copyright 2003, Gaussian, Inc.),
 the Gaussian(R) 98 system (copyright 1998, Gaussian, Inc.),
 the Gaussian(R) 94 system (copyright 1995, Gaussian, Inc.),
 the Gaussian 92(TM) system (copyright 1992, Gaussian, Inc.),
 the Gaussian 90(TM) system (copyright 1990, Gaussian, Inc.),
 the Gaussian 88(TM) system (copyright 1988, Gaussian, Inc.),
 the Gaussian 86(TM) system (copyright 1986, Carnegie Mellon
 University), and the Gaussian 82(TM) system (copyright 1983,
 Carnegie Mellon University). Gaussian is a federally registered
 trademark of Gaussian, Inc.
  
 This software contains proprietary and confidential information,
 including trade secrets, belonging to Gaussian, Inc.
  
 This software is provided under written license and may be
 used, copied, transmitted, or stored only in accord with that
 written license.
  
 The following legend is applicable only to US Government
 contracts under FAR:
  
                    RESTRICTED RIGHTS LEGEND
  
 Use, reproduction and disclosure by the US Government is
 subject to restrictions as set forth in subparagraphs (a)
 and (c) of the Commercial Computer Software - Restricted
 Rights clause in FAR 52.227-19.
  
 Gaussian, Inc.
 340 Quinnipiac St., Bldg. 40, Wallingford CT 06492
  
  
 ---------------------------------------------------------------
 Warning -- This program may not be used in any manner that
 competes with the business of Gaussian, Inc. or will provide
 assistance to any competitor of Gaussian, Inc.  The licensee
 of this program is prohibited from giving any competitor of
 Gaussian, Inc. access to this program.  By using this program,
 the user acknowledges that Gaussian, Inc. is engaged in the
 business of creating and licensing software in the field of
 computational chemistry and represents and warrants to the
 licensee that it is not a competitor of Gaussian, Inc. and that
 it will not use this program in any manner prohibited above.
 ---------------------------------------------------------------
  

 Cite this work as:
 Gaussian 16, Revision A.03,
 M. J. Frisch, G. W. Trucks, H. B. Schlegel, G. E. Scuseria, 
 M. A. Robb, J. R. Cheeseman, G. Scalmani, V. Barone, 
 G. A. Petersson, H. Nakatsuji, X. Li, M. Caricato, A. V. Marenich, 
 J. Bloino, B. G. Janesko, R. Gomperts, B. Mennucci, H. P. Hratchian, 
 J. V. Ortiz, A. F. Izmaylov, J. L. Sonnenberg, D. Williams-Young, 
 F. Ding, F. Lipparini, F. Egidi, J. Goings, B. Peng, A. Petrone, 
 T. Henderson, D. Ranasinghe, V. G. Zakrzewski, J. Gao, N. Rega, 
 G. Zheng, W. Liang, M. Hada, M. Ehara, K. Toyota, R. Fukuda, 
 J. Hasegawa, M. Ishida, T. Nakajima, Y. Honda, O. Kitao, H. Nakai, 
 T. Vreven, K. Throssell, J. A. Montgomery, Jr., J. E. Peralta, 
 F. Ogliaro, M. J. Bearpark, J. J. Heyd, E. N. Brothers, K. N. Kudin, 
 V. N. Staroverov, T. A. Keith, R. Kobayashi, J. Normand, 
 K. Raghavachari, A. P. Rendell, J. C. Burant, S. S. Iyengar, 
 J. Tomasi, M. Cossi, J. M. Millam, M. Klene, C. Adamo, R. Cammi, 
 J. W. Ochterski, R. L. Martin, K. Morokuma, O. Farkas, 
 J. B. Foresman, and D. J. Fox, Gaussian, Inc., Wallingford CT, 2016.
 
 ******************************************
 Gaussian 16:  EM64L-G16RevA.03 25-Dec-2016
                25-Jul-2020 
 ******************************************
 %mem=30GB
 %nproc=8
 Will use up to    8 processors via shared memory.
 ---------------------------------------------------------------
 #P uLC-wPBE/cc-pVDZ iop(3/107=0305800000, 3/108=0305800000) opt
 ---------------------------------------------------------------
 1/18=20,19=15,26=3,38=1/1,3;
 2/9=110,12=2,17=6,18=5,40=1/2;
 3/5=16,11=2,25=1,30=1,71=1,74=-41,107=305800000,108=305800000,116=2/1,2,3;
 4//1;
 5/5=2,38=5/2;
 6/7=2,8=2,9=2,10=2,28=1/1;
 7//1,2,3,16;
 1/18=20,19=15,26=3/3(2);
 2/9=110/2;
 99//99;
 2/9=110/2;
 3/5=16,11=2,25=1,30=1,71=1,74=-41,107=305800000,108=305800000,116=2/1,2,3;
 4/5=5,16=3,69=1/1;
 5/5=2,38=5/2;
 7//1,2,3,16;
 1/18=20,19=15,26=3/3(-5);
 2/9=110/2;
 6/7=2,8=2,9=2,10=2,19=2,28=1/1;
 99/9=1/99;
 Leave Link    1 at Sat Jul 25 01:27:51 2020, MaxMem=  4026531840 cpu:               1.6 elap:               0.2
 (Enter /opt/ohpc/pub/libs/gaussian/g16-A.03/sandybridge/g16/l101.exe)
 -----------
 H8 C9 S2 O1
 -----------
 Symbolic Z-matrix:
 Charge =  0 Multiplicity = 1
 C                    -3.39819   0.46626  -0.17799 
 C                    -3.22853  -0.58763   0.65979 
 C                    -1.9463   -1.05033   0.7949 
 C                    -1.01396  -0.2404    0.13385 
 S                    -1.82571   0.97363  -0.82238 
 C                     0.43254  -0.43148   0.01355 
 C                     1.43331   0.4554    0.07911 
 O                     1.10623   1.73061   0.37404 
 C                     2.22455   2.71426   0.37856 
 C                     2.7172   -0.14087   0.01162 
 C                     2.69167  -1.44188  -0.2407 
 S                     1.07927  -2.08721  -0.22089 
 H                    -4.24029   1.04483  -0.4265 
 H                    -4.17147  -1.02611   1.13366 
 H                    -1.65759  -1.91323   1.47392 
 H                     2.91877   2.39558   1.20584 
 H                     2.72782   2.61232  -0.60674 
 H                     1.8408    3.67376   0.57574 
 H                     3.65247   0.47035   0.02557 
 H                     3.44213  -2.16187  -0.33383 
 
 ITRead=  0  0  0  0  0  0  0  0  0  0  0  0  0  0  0  0  0  0  0  0
 MicOpt= -1 -1 -1 -1 -1 -1 -1 -1 -1 -1 -1 -1 -1 -1 -1 -1 -1 -1 -1 -1
 NAtoms=     20 NQM=       20 NQMF=       0 NMMI=      0 NMMIF=      0
                NMic=       0 NMicF=      0.
                    Isotopes and Nuclear Properties:
 (Nuclear quadrupole moments (NQMom) in fm**2, nuclear magnetic moments (NMagM)
  in nuclear magnetons)

  Atom         1           2           3           4           5           6           7           8           9          10
 IAtWgt=          12          12          12          12          32          12          12          16          12          12
 AtmWgt=  12.0000000  12.0000000  12.0000000  12.0000000  31.9720718  12.0000000  12.0000000  15.9949146  12.0000000  12.0000000
 NucSpn=           0           0           0           0           0           0           0           0           0           0
 AtZEff=  -0.0000000  -0.0000000  -0.0000000  -0.0000000  -0.0000000  -0.0000000  -0.0000000  -0.0000000  -0.0000000  -0.0000000
 NQMom=    0.0000000   0.0000000   0.0000000   0.0000000   0.0000000   0.0000000   0.0000000   0.0000000   0.0000000   0.0000000
 NMagM=    0.0000000   0.0000000   0.0000000   0.0000000   0.0000000   0.0000000   0.0000000   0.0000000   0.0000000   0.0000000
 AtZNuc=   6.0000000   6.0000000   6.0000000   6.0000000  16.0000000   6.0000000   6.0000000   8.0000000   6.0000000   6.0000000

  Atom        11          12          13          14          15          16          17          18          19          20
 IAtWgt=          12          32           1           1           1           1           1           1           1           1
 AtmWgt=  12.0000000  31.9720718   1.0078250   1.0078250   1.0078250   1.0078250   1.0078250   1.0078250   1.0078250   1.0078250
 NucSpn=           0           0           1           1           1           1           1           1           1           1
 AtZEff=  -0.0000000  -0.0000000  -0.0000000  -0.0000000  -0.0000000  -0.0000000  -0.0000000  -0.0000000  -0.0000000  -0.0000000
 NQMom=    0.0000000   0.0000000   0.0000000   0.0000000   0.0000000   0.0000000   0.0000000   0.0000000   0.0000000   0.0000000
 NMagM=    0.0000000   0.0000000   2.7928460   2.7928460   2.7928460   2.7928460   2.7928460   2.7928460   2.7928460   2.7928460
 AtZNuc=   6.0000000  16.0000000   1.0000000   1.0000000   1.0000000   1.0000000   1.0000000   1.0000000   1.0000000   1.0000000
 Leave Link  101 at Sat Jul 25 01:27:51 2020, MaxMem=  4026531840 cpu:               2.6 elap:               0.4
 (Enter /opt/ohpc/pub/libs/gaussian/g16-A.03/sandybridge/g16/l103.exe)

 GradGradGradGradGradGradGradGradGradGradGradGradGradGradGradGradGradGrad
 Berny optimization.
 Initialization pass.
                           ----------------------------
                           !    Initial Parameters    !
                           ! (Angstroms and Degrees)  !
 --------------------------                            --------------------------
 ! Name  Definition              Value          Derivative Info.                !
 --------------------------------------------------------------------------------
 ! R1    R(1,2)                  1.357          estimate D2E/DX2                !
 ! R2    R(1,5)                  1.7735         estimate D2E/DX2                !
 ! R3    R(1,13)                 1.0515         estimate D2E/DX2                !
 ! R4    R(2,3)                  1.3698         estimate D2E/DX2                !
 ! R5    R(2,14)                 1.1428         estimate D2E/DX2                !
 ! R6    R(3,4)                  1.4008         estimate D2E/DX2                !
 ! R7    R(3,15)                 1.1353         estimate D2E/DX2                !
 ! R8    R(4,5)                  1.7456         estimate D2E/DX2                !
 ! R9    R(4,6)                  1.464          estimate D2E/DX2                !
 ! R10   R(6,7)                  1.3388         estimate D2E/DX2                !
 ! R11   R(6,12)                 1.7929         estimate D2E/DX2                !
 ! R12   R(7,8)                  1.3491         estimate D2E/DX2                !
 ! R13   R(7,10)                 1.4172         estimate D2E/DX2                !
 ! R14   R(8,9)                  1.4894         estimate D2E/DX2                !
 ! R15   R(9,16)                 1.126          estimate D2E/DX2                !
 ! R16   R(9,17)                 1.1111         estimate D2E/DX2                !
 ! R17   R(9,18)                 1.052          estimate D2E/DX2                !
 ! R18   R(10,11)                1.3255         estimate D2E/DX2                !
 ! R19   R(10,19)                1.1174         estimate D2E/DX2                !
 ! R20   R(11,12)                1.7369         estimate D2E/DX2                !
 ! R21   R(11,20)                1.0441         estimate D2E/DX2                !
 ! A1    A(2,1,5)              109.6124         estimate D2E/DX2                !
 ! A2    A(2,1,13)             132.3288         estimate D2E/DX2                !
 ! A3    A(5,1,13)             117.827          estimate D2E/DX2                !
 ! A4    A(1,2,3)              116.1209         estimate D2E/DX2                !
 ! A5    A(1,2,14)             116.798          estimate D2E/DX2                !
 ! A6    A(3,2,14)             127.0024         estimate D2E/DX2                !
 ! A7    A(2,3,4)              112.4056         estimate D2E/DX2                !
 ! A8    A(2,3,15)             123.6237         estimate D2E/DX2                !
 ! A9    A(4,3,15)             123.5342         estimate D2E/DX2                !
 ! A10   A(3,4,5)              110.5556         estimate D2E/DX2                !
 ! A11   A(3,4,6)              128.384          estimate D2E/DX2                !
 ! A12   A(5,4,6)              120.3456         estimate D2E/DX2                !
 ! A13   A(1,5,4)               90.8201         estimate D2E/DX2                !
 ! A14   A(4,6,7)              130.3973         estimate D2E/DX2                !
 ! A15   A(4,6,12)             119.1869         estimate D2E/DX2                !
 ! A16   A(7,6,12)             110.3966         estimate D2E/DX2                !
 ! A17   A(6,7,8)              117.1053         estimate D2E/DX2                !
 ! A18   A(6,7,10)             113.3374         estimate D2E/DX2                !
 ! A19   A(8,7,10)             128.8833         estimate D2E/DX2                !
 ! A20   A(7,8,9)              116.2883         estimate D2E/DX2                !
 ! A21   A(8,9,16)             106.1555         estimate D2E/DX2                !
 ! A22   A(8,9,17)             106.0705         estimate D2E/DX2                !
 ! A23   A(8,9,18)             109.2105         estimate D2E/DX2                !
 ! A24   A(16,9,17)            110.2614         estimate D2E/DX2                !
 ! A25   A(16,9,18)            110.2009         estimate D2E/DX2                !
 ! A26   A(17,9,18)            114.5261         estimate D2E/DX2                !
 ! A27   A(7,10,11)            113.865          estimate D2E/DX2                !
 ! A28   A(7,10,19)            121.8395         estimate D2E/DX2                !
 ! A29   A(11,10,19)           123.7391         estimate D2E/DX2                !
 ! A30   A(10,11,12)           112.3581         estimate D2E/DX2                !
 ! A31   A(10,11,20)           132.8394         estimate D2E/DX2                !
 ! A32   A(12,11,20)           114.333          estimate D2E/DX2                !
 ! A33   A(6,12,11)             89.6124         estimate D2E/DX2                !
 ! D1    D(5,1,2,3)             -2.0318         estimate D2E/DX2                !
 ! D2    D(5,1,2,14)          -179.0326         estimate D2E/DX2                !
 ! D3    D(13,1,2,3)          -176.2247         estimate D2E/DX2                !
 ! D4    D(13,1,2,14)            6.7745         estimate D2E/DX2                !
 ! D5    D(2,1,5,4)             -2.0441         estimate D2E/DX2                !
 ! D6    D(13,1,5,4)           173.1039         estimate D2E/DX2                !
 ! D7    D(1,2,3,4)              6.3414         estimate D2E/DX2                !
 ! D8    D(1,2,3,15)           178.9864         estimate D2E/DX2                !
 ! D9    D(14,2,3,4)          -177.0112         estimate D2E/DX2                !
 ! D10   D(14,2,3,15)           -4.3661         estimate D2E/DX2                !
 ! D11   D(2,3,4,5)             -7.5914         estimate D2E/DX2                !
 ! D12   D(2,3,4,6)           -177.784          estimate D2E/DX2                !
 ! D13   D(15,3,4,5)           179.7559         estimate D2E/DX2                !
 ! D14   D(15,3,4,6)             9.5632         estimate D2E/DX2                !
 ! D15   D(3,4,5,1)              5.4315         estimate D2E/DX2                !
 ! D16   D(6,4,5,1)            176.531          estimate D2E/DX2                !
 ! D17   D(3,4,6,7)           -139.6602         estimate D2E/DX2                !
 ! D18   D(3,4,6,12)            38.5817         estimate D2E/DX2                !
 ! D19   D(5,4,6,7)             50.99           estimate D2E/DX2                !
 ! D20   D(5,4,6,12)          -130.7681         estimate D2E/DX2                !
 ! D21   D(4,6,7,8)              4.1422         estimate D2E/DX2                !
 ! D22   D(4,6,7,10)           175.5784         estimate D2E/DX2                !
 ! D23   D(12,6,7,8)          -174.2203         estimate D2E/DX2                !
 ! D24   D(12,6,7,10)           -2.7841         estimate D2E/DX2                !
 ! D25   D(4,6,12,11)         -179.4916         estimate D2E/DX2                !
 ! D26   D(7,6,12,11)           -0.9199         estimate D2E/DX2                !
 ! D27   D(6,7,8,9)           -177.1882         estimate D2E/DX2                !
 ! D28   D(10,7,8,9)            12.9281         estimate D2E/DX2                !
 ! D29   D(6,7,10,11)            6.5534         estimate D2E/DX2                !
 ! D30   D(6,7,10,19)          178.2983         estimate D2E/DX2                !
 ! D31   D(8,7,10,11)          176.7488         estimate D2E/DX2                !
 ! D32   D(8,7,10,19)          -11.5062         estimate D2E/DX2                !
 ! D33   D(7,8,9,16)           -63.8447         estimate D2E/DX2                !
 ! D34   D(7,8,9,17)            53.4557         estimate D2E/DX2                !
 ! D35   D(7,8,9,18)           177.3623         estimate D2E/DX2                !
 ! D36   D(7,10,11,12)          -7.173          estimate D2E/DX2                !
 ! D37   D(7,10,11,20)        -178.6715         estimate D2E/DX2                !
 ! D38   D(19,10,11,12)       -178.7384         estimate D2E/DX2                !
 ! D39   D(19,10,11,20)          9.763          estimate D2E/DX2                !
 ! D40   D(10,11,12,6)           4.6353         estimate D2E/DX2                !
 ! D41   D(20,11,12,6)         177.8026         estimate D2E/DX2                !
 --------------------------------------------------------------------------------
 Trust Radius=3.00D-01 FncErr=1.00D-07 GrdErr=1.00D-06 EigMax=2.50D+02 EigMin=1.00D-04
 Number of steps in this run=    105 maximum allowed number of steps=    120.
 GradGradGradGradGradGradGradGradGradGradGradGradGradGradGradGradGradGrad

 Leave Link  103 at Sat Jul 25 01:27:51 2020, MaxMem=  4026531840 cpu:               0.2 elap:               0.0
 (Enter /opt/ohpc/pub/libs/gaussian/g16-A.03/sandybridge/g16/l202.exe)
                          Input orientation:                          
 ---------------------------------------------------------------------
 Center     Atomic      Atomic             Coordinates (Angstroms)
 Number     Number       Type             X           Y           Z
 ---------------------------------------------------------------------
      1          6           0       -3.398188    0.466258   -0.177993
      2          6           0       -3.228529   -0.587626    0.659785
      3          6           0       -1.946296   -1.050329    0.794900
      4          6           0       -1.013962   -0.240403    0.133850
      5         16           0       -1.825714    0.973628   -0.822381
      6          6           0        0.432544   -0.431480    0.013547
      7          6           0        1.433314    0.455400    0.079109
      8          8           0        1.106229    1.730608    0.374037
      9          6           0        2.224546    2.714263    0.378562
     10          6           0        2.717203   -0.140873    0.011618
     11          6           0        2.691673   -1.441880   -0.240698
     12         16           0        1.079269   -2.087209   -0.220889
     13          1           0       -4.240295    1.044826   -0.426496
     14          1           0       -4.171468   -1.026107    1.133657
     15          1           0       -1.657593   -1.913225    1.473920
     16          1           0        2.918766    2.395582    1.205840
     17          1           0        2.727815    2.612324   -0.606741
     18          1           0        1.840802    3.673764    0.575740
     19          1           0        3.652473    0.470351    0.025566
     20          1           0        3.442125   -2.161868   -0.333826
 ---------------------------------------------------------------------
                    Distance matrix (angstroms):
                    1          2          3          4          5
     1  C    0.000000
     2  C    1.356955   0.000000
     3  C    2.313989   1.369844   0.000000
     4  C    2.506222   2.302494   1.400790   0.000000
     5  S    1.773509   2.569479   2.593557   1.745620   0.000000
     6  C    3.939179   3.720949   2.579218   1.464023   2.787980
     7  C    4.838350   4.812262   3.768467   2.544857   3.420893
     8  O    4.710954   4.924021   4.150740   2.904786   3.255875
     9  C    6.080988   6.381033   5.633952   4.390657   4.569101
    10  C    6.148379   5.997619   4.815482   3.734493   4.751396
    11  C    6.382110   6.048918   4.768284   3.913510   5.155562
    12  S    5.154576   4.645585   3.355740   2.813920   4.262563
    13  H    1.051494   2.206485   3.338250   3.517815   2.447855
    14  H    2.132027   1.142784   2.250941   3.403937   3.650697
    15  H    3.379412   2.210852   1.135344   2.237941   3.692585
    16  H    6.748421   6.854702   5.975952   4.854269   5.352170
    17  H    6.505178   6.879084   6.101388   4.763131   4.844218
    18  H    6.188960   6.623037   6.058646   4.864735   4.763278
    19  H    7.053600   6.990689   5.852398   4.721495   5.566223
    20  H    7.329476   6.925542   5.616460   4.875188   6.149809
                    6          7          8          9         10
     6  C    0.000000
     7  C    1.338804   0.000000
     8  O    2.293126   1.349119   0.000000
     9  C    3.638709   2.412091   1.489373   0.000000
    10  C    2.303068   1.417204   2.495802   2.920473   0.000000
    11  C    2.487813   2.299003   3.599474   4.227909   1.325494
    12  S    1.792945   2.584610   3.863986   4.972437   2.554430
    13  H    4.920218   5.726508   5.449447   6.725274   7.071393
    14  H    4.775474   5.892412   6.002548   7.447787   7.035368
    15  H    2.949056   4.136374   4.703825   6.138767   4.941498
    16  H    3.949068   2.690799   2.102231   1.126005   2.810765
    17  H    3.862353   2.607383   2.090189   1.111078   2.821803
    18  H    4.376332   3.281852   2.087136   1.052036   3.954462
    19  H    3.343858   2.219855   2.862348   2.683044   1.117372
    20  H    3.488909   3.325046   4.594437   5.076086   2.174687
                   11         12         13         14         15
    11  C    0.000000
    12  S    1.736862   0.000000
    13  H    7.366845   6.176543   0.000000
    14  H    7.011735   5.525484   2.593758   0.000000
    15  H    4.698744   3.223827   4.362568   2.687438   0.000000
    16  H    4.107330   5.051210   7.466004   7.873029   6.291323
    17  H    4.070855   4.995217   7.144515   7.991700   6.636381
    18  H    5.249797   5.865438   6.700413   7.651631   6.652815
    19  H    2.156539   3.636376   7.926548   8.042469   5.997997
    20  H    1.044143   2.366731   8.325326   7.836470   5.416354
                   16         17         18         19         20
    16  H    0.000000
    17  H    1.835453   0.000000
    18  H    1.786836   1.819810   0.000000
    19  H    2.374424   2.417199   3.721115   0.000000
    20  H    4.838887   4.835042   6.119326   2.664955   0.000000
 Stoichiometry    C9H8OS2
 Framework group  C1[X(C9H8OS2)]
 Deg. of freedom    54
 Full point group                 C1      NOp   1
 Largest Abelian subgroup         C1      NOp   1
 Largest concise Abelian subgroup C1      NOp   1
                         Standard orientation:                         
 ---------------------------------------------------------------------
 Center     Atomic      Atomic             Coordinates (Angstroms)
 Number     Number       Type             X           Y           Z
 ---------------------------------------------------------------------
      1          6           0       -3.411681    0.442989   -0.147835
      2          6           0       -3.227980   -0.610028    0.688069
      3          6           0       -1.941194   -1.062472    0.814352
      4          6           0       -1.019823   -0.244639    0.147689
      5         16           0       -1.847658    0.963422   -0.802294
      6          6           0        0.427344   -0.423979    0.017657
      7          6           0        1.421353    0.470894    0.077189
      8          8           0        1.085976    1.743237    0.375163
      9          6           0        2.196342    2.735867    0.372946
     10          6           0        2.709525   -0.114973    0.000767
     11          6           0        2.692797   -1.415982   -0.252273
     12         16           0        1.085809   -2.074293   -0.222210
     13          1           0       -4.260051    1.014911   -0.390344
     14          1           0       -4.164190   -1.056394    1.167886
     15          1           0       -1.641048   -1.923446    1.490845
     16          1           0        2.898585    2.422262    1.195378
     17          1           0        2.693860    2.638614   -0.615746
     18          1           0        1.806202    3.692119    0.573329
     19          1           0        3.639915    0.503758    0.008930
     20          1           0        3.448388   -2.129841   -0.350877
 ---------------------------------------------------------------------
 Rotational constants (GHZ):           1.1503302           0.5754770           0.4130925
 Leave Link  202 at Sat Jul 25 01:27:52 2020, MaxMem=  4026531840 cpu:               0.1 elap:               0.0
 (Enter /opt/ohpc/pub/libs/gaussian/g16-A.03/sandybridge/g16/l301.exe)
 Standard basis: CC-pVDZ (5D, 7F)
 Ernie: Thresh=  0.10000D-02 Tol=  0.10000D-05 Strict=F.
 Ernie:  40 primitive shells out of 360 were deleted.
 There are   228 symmetry adapted cartesian basis functions of A   symmetry.
 There are   216 symmetry adapted basis functions of A   symmetry.
   216 basis functions,   528 primitive gaussians,   228 cartesian basis functions
    51 alpha electrons       51 beta electrons
       nuclear repulsion energy       854.1301868250 Hartrees.
 IExCor=32609 DFT=T Ex+Corr=LC-wPBE ExCW=0 ScaHFX=  1.000000
 ScaDFX=  1.000000  0.000000  1.000000  1.000000 ScalE2=  1.000000  1.000000
 IRadAn=      5 IRanWt=     -1 IRanGd=            0 ICorTp=0 IEmpDi=  4
 HFx  wShort=  0.000000 wLong=  0.305800 cFull=  0.000000 cShort=  0.000000 cLong=  1.000000
 DFx  wShort=  0.000000 wLong=  0.305800 cFull=  0.000000 cShort=  0.000000 cLong=  1.000000
 NAtoms=   20 NActive=   20 NUniq=   20 SFac= 1.00D+00 NAtFMM=   60 NAOKFM=F Big=F
 Integral buffers will be    131072 words long.
 Raffenetti 2 integral format.
 Two-electron integral symmetry is turned on.
 Leave Link  301 at Sat Jul 25 01:27:52 2020, MaxMem=  4026531840 cpu:               0.4 elap:               0.1
 (Enter /opt/ohpc/pub/libs/gaussian/g16-A.03/sandybridge/g16/l302.exe)
 NPDir=0 NMtPBC=     1 NCelOv=     1 NCel=       1 NClECP=     1 NCelD=      1
         NCelK=      1 NCelE2=     1 NClLst=     1 CellRange=     0.0.
 One-electron integrals computed using PRISM.
 One-electron integral symmetry used in STVInt
 NBasis=   216 RedAO= T EigKep=  5.04D-04  NBF=   216
 NBsUse=   216 1.00D-06 EigRej= -1.00D+00 NBFU=   216
 Precomputing XC quadrature grid using
 IXCGrd= 4 IRadAn=           5 IRanWt=          -1 IRanGd=           0 AccXCQ= 0.00D+00.
 Generated NRdTot=       0 NPtTot=           0 NUsed=           0 NTot=          32
 NSgBfM=   228   228   228   228   228 MxSgAt=    20 MxSgA2=    20.
 Leave Link  302 at Sat Jul 25 01:27:52 2020, MaxMem=  4026531840 cpu:               1.9 elap:               0.3
 (Enter /opt/ohpc/pub/libs/gaussian/g16-A.03/sandybridge/g16/l303.exe)
 DipDrv:  MaxL=1.
 Leave Link  303 at Sat Jul 25 01:27:52 2020, MaxMem=  4026531840 cpu:               0.6 elap:               0.1
 (Enter /opt/ohpc/pub/libs/gaussian/g16-A.03/sandybridge/g16/l401.exe)
 ExpMin= 1.22D-01 ExpMax= 1.11D+05 ExpMxC= 1.07D+03 IAcc=3 IRadAn=         5 AccDes= 0.00D+00
 Harris functional with IExCor=32609 and IRadAn=       5 diagonalized for initial guess.
 HarFok:  IExCor=32609 AccDes= 0.00D+00 IRadAn=         5 IDoV= 1 UseB2=F ITyADJ=14
 ICtDFT=  3500011 ScaDFX=  1.000000  1.000000  1.000000  1.000000
 FoFCou: FMM=F IPFlag=           0 FMFlag=      100000 FMFlg1=           0
         NFxFlg=           0 DoJE=T BraDBF=F KetDBF=T FulRan=T
         wScrn=  0.000000 ICntrl=       500 IOpCl=  0 I1Cent=   200000004 NGrid=           0
         NMat0=    1 NMatS0=      1 NMatT0=    0 NMatD0=    1 NMtDS0=    0 NMtDT0=    0
 Petite list used in FoFCou.
 Harris En= -1218.68256586032    
 JPrj=0 DoOrth=F DoCkMO=F.
 Initial guess <Sx>= 0.0000 <Sy>= 0.0000 <Sz>= 0.0000 <S**2>= 0.0000 S= 0.0000
 Leave Link  401 at Sat Jul 25 01:27:53 2020, MaxMem=  4026531840 cpu:               9.7 elap:               1.2
 (Enter /opt/ohpc/pub/libs/gaussian/g16-A.03/sandybridge/g16/l502.exe)
 Integral symmetry usage will be decided dynamically.
 UHF open shell SCF:
 Using DIIS extrapolation, IDIIS=  1040.
 NGot=  4026531840 LenX=  4026423572 LenY=  4026371147
 Requested convergence on RMS density matrix=1.00D-08 within 128 cycles.
 Requested convergence on MAX density matrix=1.00D-06.
 Requested convergence on             energy=1.00D-06.
 No special actions if energy rises.
 Fock matrices will be formed incrementally for  20 cycles.
 Integral accuracy reduced to 1.0D-05 until final iterations.

 Cycle   1  Pass 0  IDiag  1:
 FoFJK:  IHMeth= 1 ICntrl=       0 DoSepK=T KAlg= 0 I1Cent=           0 FoldK=F
 IRaf=         1 NMat=       1 IRICut=       1 DoRegI=T DoRafI=F ISym2E= 0 IDoP0=0 IntGTp=1.
 FoFCou: FMM=F IPFlag=           0 FMFlag=      100000 FMFlg1=           0
         NFxFlg=           0 DoJE=T BraDBF=F KetDBF=F FulRan=T
         wScrn=  0.000000 ICntrl=       500 IOpCl=  0 I1Cent=           0 NGrid=           0
         NMat0=    1 NMatS0=      1 NMatT0=    0 NMatD0=    1 NMtDS0=    0 NMtDT0=    0
 Symmetry not used in FoFCou.
 E= -1218.38499839062    
 DIIS: error= 2.24D-02 at cycle   1 NSaved=   1.
 NSaved= 1 IEnMin= 1 EnMin= -1218.38499839062     IErMin= 1 ErrMin= 2.24D-02
 ErrMax= 2.24D-02  0.00D+00 EMaxC= 1.00D-01 BMatC= 1.30D+00 BMatP= 1.30D+00
 IDIUse=3 WtCom= 7.76D-01 WtEn= 2.24D-01
 Coeff-Com:  0.100D+01
 Coeff-En:   0.100D+01
 Coeff:      0.100D+01
 Gap=     0.334 Goal=   None    Shift=    0.000
 Gap=     0.334 Goal=   None    Shift=    0.000
 GapD=    0.334 DampG=1.000 DampE=0.500 DampFc=0.5000 IDamp=-1.
 Damping current iteration by 5.00D-01
 RMSDP=5.31D-03 MaxDP=1.32D-01              OVMax= 2.15D-01

 Cycle   2  Pass 0  IDiag  1:
 RMSU=  2.63D-03    CP:  9.88D-01
 E= -1218.57366921289     Delta-E=       -0.188670822266 Rises=F Damp=T
 DIIS: error= 5.11D-03 at cycle   2 NSaved=   2.
 NSaved= 2 IEnMin= 2 EnMin= -1218.57366921289     IErMin= 2 ErrMin= 5.11D-03
 ErrMax= 5.11D-03  0.00D+00 EMaxC= 1.00D-01 BMatC= 3.78D-02 BMatP= 1.30D+00
 IDIUse=3 WtCom= 9.49D-01 WtEn= 5.11D-02
 Coeff-Com: -0.100D-01 0.101D+01
 Coeff-En:   0.000D+00 0.100D+01
 Coeff:     -0.949D-02 0.101D+01
 Gap=     0.361 Goal=   None    Shift=    0.000
 Gap=     0.361 Goal=   None    Shift=    0.000
 RMSDP=1.13D-03 MaxDP=2.54D-02 DE=-1.89D-01 OVMax= 1.36D-01

 Cycle   3  Pass 0  IDiag  1:
 RMSU=  1.11D-03    CP:  9.83D-01  1.05D+00
 E= -1218.76190901193     Delta-E=       -0.188239799039 Rises=F Damp=F
 DIIS: error= 2.25D-03 at cycle   3 NSaved=   3.
 NSaved= 3 IEnMin= 3 EnMin= -1218.76190901193     IErMin= 3 ErrMin= 2.25D-03
 ErrMax= 2.25D-03  0.00D+00 EMaxC= 1.00D-01 BMatC= 6.31D-03 BMatP= 3.78D-02
 IDIUse=3 WtCom= 9.78D-01 WtEn= 2.25D-02
 Coeff-Com: -0.412D-02 0.207D+00 0.797D+00
 Coeff-En:   0.000D+00 0.000D+00 0.100D+01
 Coeff:     -0.403D-02 0.202D+00 0.802D+00
 Gap=     0.314 Goal=   None    Shift=    0.000
 Gap=     0.314 Goal=   None    Shift=    0.000
 RMSDP=2.90D-04 MaxDP=8.26D-03 DE=-1.88D-01 OVMax= 2.27D-02

 Cycle   4  Pass 0  IDiag  1:
 RMSU=  2.82D-04    CP:  9.82D-01  1.07D+00  9.82D-01
 E= -1218.76366147522     Delta-E=       -0.001752463289 Rises=F Damp=F
 DIIS: error= 1.24D-03 at cycle   4 NSaved=   4.
 NSaved= 4 IEnMin= 4 EnMin= -1218.76366147522     IErMin= 4 ErrMin= 1.24D-03
 ErrMax= 1.24D-03  0.00D+00 EMaxC= 1.00D-01 BMatC= 2.15D-03 BMatP= 6.31D-03
 IDIUse=3 WtCom= 9.88D-01 WtEn= 1.24D-02
 Coeff-Com:  0.666D-02-0.283D-01 0.326D+00 0.695D+00
 Coeff-En:   0.000D+00 0.000D+00 0.000D+00 0.100D+01
 Coeff:      0.658D-02-0.279D-01 0.322D+00 0.699D+00
 Gap=     0.316 Goal=   None    Shift=    0.000
 Gap=     0.316 Goal=   None    Shift=    0.000
 RMSDP=1.46D-04 MaxDP=2.97D-03 DE=-1.75D-03 OVMax= 7.85D-03

 Cycle   5  Pass 0  IDiag  1:
 RMSU=  1.14D-04    CP:  9.82D-01  1.07D+00  1.06D+00  9.46D-01
 E= -1218.76434433430     Delta-E=       -0.000682859081 Rises=F Damp=F
 DIIS: error= 4.52D-04 at cycle   5 NSaved=   5.
 NSaved= 5 IEnMin= 5 EnMin= -1218.76434433430     IErMin= 5 ErrMin= 4.52D-04
 ErrMax= 4.52D-04  0.00D+00 EMaxC= 1.00D-01 BMatC= 2.34D-04 BMatP= 2.15D-03
 IDIUse=3 WtCom= 9.95D-01 WtEn= 4.52D-03
 Coeff-Com:  0.550D-02-0.415D-01 0.357D-02 0.223D+00 0.809D+00
 Coeff-En:   0.000D+00 0.000D+00 0.000D+00 0.000D+00 0.100D+01
 Coeff:      0.548D-02-0.413D-01 0.355D-02 0.222D+00 0.810D+00
 Gap=     0.317 Goal=   None    Shift=    0.000
 Gap=     0.317 Goal=   None    Shift=    0.000
 RMSDP=6.94D-05 MaxDP=1.93D-03 DE=-6.83D-04 OVMax= 4.80D-03

 Cycle   6  Pass 0  IDiag  1:
 RMSU=  4.69D-05    CP:  9.82D-01  1.06D+00  1.09D+00  1.09D+00  1.09D+00
 E= -1218.76446552920     Delta-E=       -0.000121194900 Rises=F Damp=F
 DIIS: error= 1.95D-04 at cycle   6 NSaved=   6.
 NSaved= 6 IEnMin= 6 EnMin= -1218.76446552920     IErMin= 6 ErrMin= 1.95D-04
 ErrMax= 1.95D-04  0.00D+00 EMaxC= 1.00D-01 BMatC= 4.92D-05 BMatP= 2.34D-04
 IDIUse=3 WtCom= 9.98D-01 WtEn= 1.95D-03
 Coeff-Com:  0.180D-02-0.143D-01-0.426D-01-0.249D-01 0.299D+00 0.781D+00
 Coeff-En:   0.000D+00 0.000D+00 0.000D+00 0.000D+00 0.000D+00 0.100D+01
 Coeff:      0.180D-02-0.142D-01-0.425D-01-0.249D-01 0.299D+00 0.781D+00
 Gap=     0.317 Goal=   None    Shift=    0.000
 Gap=     0.317 Goal=   None    Shift=    0.000
 RMSDP=3.45D-05 MaxDP=1.05D-03 DE=-1.21D-04 OVMax= 2.79D-03

 Cycle   7  Pass 0  IDiag  1:
 RMSU=  2.25D-05    CP:  9.82D-01  1.06D+00  1.10D+00  1.12D+00  1.26D+00
                    CP:  1.15D+00
 E= -1218.76449431057     Delta-E=       -0.000028781368 Rises=F Damp=F
 DIIS: error= 7.96D-05 at cycle   7 NSaved=   7.
 NSaved= 7 IEnMin= 7 EnMin= -1218.76449431057     IErMin= 7 ErrMin= 7.96D-05
 ErrMax= 7.96D-05  0.00D+00 EMaxC= 1.00D-01 BMatC= 1.16D-05 BMatP= 4.92D-05
 IDIUse=1 WtCom= 1.00D+00 WtEn= 0.00D+00
 Coeff-Com: -0.392D-03 0.385D-02-0.140D-01-0.673D-01-0.826D-01 0.325D+00
 Coeff-Com:  0.835D+00
 Coeff:     -0.392D-03 0.385D-02-0.140D-01-0.673D-01-0.826D-01 0.325D+00
 Coeff:      0.835D+00
 Gap=     0.317 Goal=   None    Shift=    0.000
 Gap=     0.317 Goal=   None    Shift=    0.000
 RMSDP=2.05D-05 MaxDP=5.55D-04 DE=-2.88D-05 OVMax= 1.53D-03

 Cycle   8  Pass 0  IDiag  1:
 RMSU=  8.90D-06    CP:  9.82D-01  1.06D+00  1.10D+00  1.15D+00  1.33D+00
                    CP:  1.44D+00  1.08D+00
 E= -1218.76450220674     Delta-E=       -0.000007896176 Rises=F Damp=F
 DIIS: error= 3.34D-05 at cycle   8 NSaved=   8.
 NSaved= 8 IEnMin= 8 EnMin= -1218.76450220674     IErMin= 8 ErrMin= 3.34D-05
 ErrMax= 3.34D-05  0.00D+00 EMaxC= 1.00D-01 BMatC= 1.73D-06 BMatP= 1.16D-05
 IDIUse=1 WtCom= 1.00D+00 WtEn= 0.00D+00
 Coeff-Com: -0.327D-03 0.323D-02 0.114D-02-0.235D-01-0.751D-01 0.602D-02
 Coeff-Com:  0.329D+00 0.760D+00
 Coeff:     -0.327D-03 0.323D-02 0.114D-02-0.235D-01-0.751D-01 0.602D-02
 Coeff:      0.329D+00 0.760D+00
 Gap=     0.317 Goal=   None    Shift=    0.000
 Gap=     0.317 Goal=   None    Shift=    0.000
 RMSDP=7.03D-06 MaxDP=1.88D-04 DE=-7.90D-06 OVMax= 5.19D-04

 Initial convergence to 1.0D-05 achieved.  Increase integral accuracy.
 Cycle   9  Pass 1  IDiag  1:
 E= -1218.76436717215     Delta-E=        0.000135034590 Rises=F Damp=F
 DIIS: error= 5.47D-05 at cycle   1 NSaved=   1.
 NSaved= 1 IEnMin= 1 EnMin= -1218.76436717215     IErMin= 1 ErrMin= 5.47D-05
 ErrMax= 5.47D-05  0.00D+00 EMaxC= 1.00D-01 BMatC= 9.27D-07 BMatP= 9.27D-07
 IDIUse=1 WtCom= 1.00D+00 WtEn= 0.00D+00
 Coeff-Com:  0.100D+01
 Coeff:      0.100D+01
 Gap=     0.317 Goal=   None    Shift=    0.000
 Gap=     0.317 Goal=   None    Shift=    0.000
 RMSDP=7.03D-06 MaxDP=1.88D-04 DE= 1.35D-04 OVMax= 1.84D-04

 Cycle  10  Pass 1  IDiag  1:
 RMSU=  2.26D-05    CP:  1.00D+00
 E= -1218.76436741399     Delta-E=       -0.000000241834 Rises=F Damp=F
 DIIS: error= 8.72D-06 at cycle   2 NSaved=   2.
 NSaved= 2 IEnMin= 2 EnMin= -1218.76436741399     IErMin= 2 ErrMin= 8.72D-06
 ErrMax= 8.72D-06  0.00D+00 EMaxC= 1.00D-01 BMatC= 1.36D-07 BMatP= 9.27D-07
 IDIUse=1 WtCom= 1.00D+00 WtEn= 0.00D+00
 Coeff-Com:  0.156D+00 0.844D+00
 Coeff:      0.156D+00 0.844D+00
 Gap=     0.317 Goal=   None    Shift=    0.000
 Gap=     0.317 Goal=   None    Shift=    0.000
 RMSDP=1.91D-06 MaxDP=3.90D-05 DE=-2.42D-07 OVMax= 9.83D-05

 Cycle  11  Pass 1  IDiag  1:
 RMSU=  1.55D-06    CP:  1.00D+00  1.05D+00
 E= -1218.76436743929     Delta-E=       -0.000000025306 Rises=F Damp=F
 DIIS: error= 7.76D-06 at cycle   3 NSaved=   3.
 NSaved= 3 IEnMin= 3 EnMin= -1218.76436743929     IErMin= 3 ErrMin= 7.76D-06
 ErrMax= 7.76D-06  0.00D+00 EMaxC= 1.00D-01 BMatC= 9.45D-08 BMatP= 1.36D-07
 IDIUse=1 WtCom= 1.00D+00 WtEn= 0.00D+00
 Coeff-Com: -0.340D-01 0.454D+00 0.580D+00
 Coeff:     -0.340D-01 0.454D+00 0.580D+00
 Gap=     0.317 Goal=   None    Shift=    0.000
 Gap=     0.317 Goal=   None    Shift=    0.000
 RMSDP=8.76D-07 MaxDP=2.28D-05 DE=-2.53D-08 OVMax= 6.42D-05

 Cycle  12  Pass 1  IDiag  1:
 RMSU=  6.61D-07    CP:  1.00D+00  1.07D+00  7.15D-01
 E= -1218.76436746756     Delta-E=       -0.000000028265 Rises=F Damp=F
 DIIS: error= 1.61D-06 at cycle   4 NSaved=   4.
 NSaved= 4 IEnMin= 4 EnMin= -1218.76436746756     IErMin= 4 ErrMin= 1.61D-06
 ErrMax= 1.61D-06  0.00D+00 EMaxC= 1.00D-01 BMatC= 4.29D-09 BMatP= 9.45D-08
 IDIUse=1 WtCom= 1.00D+00 WtEn= 0.00D+00
 Coeff-Com: -0.194D-01 0.743D-01 0.170D+00 0.775D+00
 Coeff:     -0.194D-01 0.743D-01 0.170D+00 0.775D+00
 Gap=     0.317 Goal=   None    Shift=    0.000
 Gap=     0.317 Goal=   None    Shift=    0.000
 RMSDP=3.16D-07 MaxDP=7.53D-06 DE=-2.83D-08 OVMax= 2.22D-05

 Cycle  13  Pass 1  IDiag  1:
 RMSU=  2.08D-07    CP:  1.00D+00  1.07D+00  8.19D-01  1.25D+00
 E= -1218.76436747041     Delta-E=       -0.000000002847 Rises=F Damp=F
 DIIS: error= 1.16D-06 at cycle   5 NSaved=   5.
 NSaved= 5 IEnMin= 5 EnMin= -1218.76436747041     IErMin= 5 ErrMin= 1.16D-06
 ErrMax= 1.16D-06  0.00D+00 EMaxC= 1.00D-01 BMatC= 1.23D-09 BMatP= 4.29D-09
 IDIUse=1 WtCom= 1.00D+00 WtEn= 0.00D+00
 Coeff-Com:  0.777D-02-0.178D+00-0.191D+00 0.270D+00 0.109D+01
 Coeff:      0.777D-02-0.178D+00-0.191D+00 0.270D+00 0.109D+01
 Gap=     0.317 Goal=   None    Shift=    0.000
 Gap=     0.317 Goal=   None    Shift=    0.000
 RMSDP=3.33D-07 MaxDP=7.98D-06 DE=-2.85D-09 OVMax= 2.54D-05

 Cycle  14  Pass 1  IDiag  1:
 RMSU=  1.11D-07    CP:  1.00D+00  1.07D+00  9.00D-01  1.67D+00  1.30D+00
 E= -1218.76436747183     Delta-E=       -0.000000001422 Rises=F Damp=F
 DIIS: error= 3.36D-07 at cycle   6 NSaved=   6.
 NSaved= 6 IEnMin= 6 EnMin= -1218.76436747183     IErMin= 6 ErrMin= 3.36D-07
 ErrMax= 3.36D-07  0.00D+00 EMaxC= 1.00D-01 BMatC= 2.28D-10 BMatP= 1.23D-09
 IDIUse=1 WtCom= 1.00D+00 WtEn= 0.00D+00
 Coeff-Com:  0.552D-02-0.932D-01-0.108D+00 0.525D-01 0.541D+00 0.603D+00
 Coeff:      0.552D-02-0.932D-01-0.108D+00 0.525D-01 0.541D+00 0.603D+00
 Gap=     0.317 Goal=   None    Shift=    0.000
 Gap=     0.317 Goal=   None    Shift=    0.000
 RMSDP=6.12D-08 MaxDP=1.52D-06 DE=-1.42D-09 OVMax= 4.36D-06

 Cycle  15  Pass 1  IDiag  1:
 RMSU=  3.87D-08    CP:  1.00D+00  1.07D+00  9.09D-01  1.72D+00  1.44D+00
                    CP:  9.63D-01
 E= -1218.76436747186     Delta-E=       -0.000000000034 Rises=F Damp=F
 DIIS: error= 8.89D-08 at cycle   7 NSaved=   7.
 NSaved= 7 IEnMin= 7 EnMin= -1218.76436747186     IErMin= 7 ErrMin= 8.89D-08
 ErrMax= 8.89D-08  0.00D+00 EMaxC= 1.00D-01 BMatC= 8.68D-12 BMatP= 2.28D-10
 IDIUse=1 WtCom= 1.00D+00 WtEn= 0.00D+00
 Coeff-Com: -0.786D-04 0.721D-02 0.602D-02-0.266D-01-0.439D-01 0.110D+00
 Coeff-Com:  0.948D+00
 Coeff:     -0.786D-04 0.721D-02 0.602D-02-0.266D-01-0.439D-01 0.110D+00
 Coeff:      0.948D+00
 Gap=     0.317 Goal=   None    Shift=    0.000
 Gap=     0.317 Goal=   None    Shift=    0.000
 RMSDP=1.92D-08 MaxDP=3.94D-07 DE=-3.37D-11 OVMax= 1.47D-06

 Cycle  16  Pass 1  IDiag  1:
 RMSU=  9.29D-09    CP:  1.00D+00  1.07D+00  9.12D-01  1.73D+00  1.47D+00
                    CP:  1.07D+00  1.05D+00
 E= -1218.76436747189     Delta-E=       -0.000000000030 Rises=F Damp=F
 DIIS: error= 3.13D-08 at cycle   8 NSaved=   8.
 NSaved= 8 IEnMin= 8 EnMin= -1218.76436747189     IErMin= 8 ErrMin= 3.13D-08
 ErrMax= 3.13D-08  0.00D+00 EMaxC= 1.00D-01 BMatC= 1.59D-12 BMatP= 8.68D-12
 IDIUse=1 WtCom= 1.00D+00 WtEn= 0.00D+00
 Coeff-Com: -0.558D-03 0.118D-01 0.126D-01-0.155D-01-0.687D-01-0.184D-01
 Coeff-Com:  0.346D+00 0.733D+00
 Coeff:     -0.558D-03 0.118D-01 0.126D-01-0.155D-01-0.687D-01-0.184D-01
 Coeff:      0.346D+00 0.733D+00
 Gap=     0.317 Goal=   None    Shift=    0.000
 Gap=     0.317 Goal=   None    Shift=    0.000
 RMSDP=5.42D-09 MaxDP=1.18D-07 DE=-3.00D-11 OVMax= 2.63D-07

 SCF Done:  E(ULC-wPBE) =  -1218.76436747     A.U. after   16 cycles
            NFock= 16  Conv=0.54D-08     -V/T= 2.0037
 <Sx>= 0.0000 <Sy>= 0.0000 <Sz>= 0.0000 <S**2>=-0.0000 S=-0.0000
 <L.S>= 0.000000000000E+00
 KE= 1.214251587838D+03 PE=-4.584704245397D+03 EE= 1.297558103262D+03
 Annihilation of the first spin contaminant:
 S**2 before annihilation    -0.0000,   after     0.0000
 Leave Link  502 at Sat Jul 25 01:28:49 2020, MaxMem=  4026531840 cpu:             447.5 elap:              56.2
 (Enter /opt/ohpc/pub/libs/gaussian/g16-A.03/sandybridge/g16/l601.exe)
 Copying SCF densities to generalized density rwf, IOpCl= 1 IROHF=0.

 **********************************************************************

            Population analysis using the SCF density.

 **********************************************************************

 Orbital symmetries:
 Alpha Orbitals:
       Occupied  (A) (A) (A) (A) (A) (A) (A) (A) (A) (A) (A) (A)
                 (A) (A) (A) (A) (A) (A) (A) (A) (A) (A) (A) (A)
                 (A) (A) (A) (A) (A) (A) (A) (A) (A) (A) (A) (A)
                 (A) (A) (A) (A) (A) (A) (A) (A) (A) (A) (A) (A)
                 (A) (A) (A)
       Virtual   (A) (A) (A) (A) (A) (A) (A) (A) (A) (A) (A) (A)
                 (A) (A) (A) (A) (A) (A) (A) (A) (A) (A) (A) (A)
                 (A) (A) (A) (A) (A) (A) (A) (A) (A) (A) (A) (A)
                 (A) (A) (A) (A) (A) (A) (A) (A) (A) (A) (A) (A)
                 (A) (A) (A) (A) (A) (A) (A) (A) (A) (A) (A) (A)
                 (A) (A) (A) (A) (A) (A) (A) (A) (A) (A) (A) (A)
                 (A) (A) (A) (A) (A) (A) (A) (A) (A) (A) (A) (A)
                 (A) (A) (A) (A) (A) (A) (A) (A) (A) (A) (A) (A)
                 (A) (A) (A) (A) (A) (A) (A) (A) (A) (A) (A) (A)
                 (A) (A) (A) (A) (A) (A) (A) (A) (A) (A) (A) (A)
                 (A) (A) (A) (A) (A) (A) (A) (A) (A) (A) (A) (A)
                 (A) (A) (A) (A) (A) (A) (A) (A) (A) (A) (A) (A)
                 (A) (A) (A) (A) (A) (A) (A) (A) (A) (A) (A) (A)
                 (A) (A) (A) (A) (A) (A) (A) (A) (A)
 Beta  Orbitals:
       Occupied  (A) (A) (A) (A) (A) (A) (A) (A) (A) (A) (A) (A)
                 (A) (A) (A) (A) (A) (A) (A) (A) (A) (A) (A) (A)
                 (A) (A) (A) (A) (A) (A) (A) (A) (A) (A) (A) (A)
                 (A) (A) (A) (A) (A) (A) (A) (A) (A) (A) (A) (A)
                 (A) (A) (A)
       Virtual   (A) (A) (A) (A) (A) (A) (A) (A) (A) (A) (A) (A)
                 (A) (A) (A) (A) (A) (A) (A) (A) (A) (A) (A) (A)
                 (A) (A) (A) (A) (A) (A) (A) (A) (A) (A) (A) (A)
                 (A) (A) (A) (A) (A) (A) (A) (A) (A) (A) (A) (A)
                 (A) (A) (A) (A) (A) (A) (A) (A) (A) (A) (A) (A)
                 (A) (A) (A) (A) (A) (A) (A) (A) (A) (A) (A) (A)
                 (A) (A) (A) (A) (A) (A) (A) (A) (A) (A) (A) (A)
                 (A) (A) (A) (A) (A) (A) (A) (A) (A) (A) (A) (A)
                 (A) (A) (A) (A) (A) (A) (A) (A) (A) (A) (A) (A)
                 (A) (A) (A) (A) (A) (A) (A) (A) (A) (A) (A) (A)
                 (A) (A) (A) (A) (A) (A) (A) (A) (A) (A) (A) (A)
                 (A) (A) (A) (A) (A) (A) (A) (A) (A) (A) (A) (A)
                 (A) (A) (A) (A) (A) (A) (A) (A) (A) (A) (A) (A)
                 (A) (A) (A) (A) (A) (A) (A) (A) (A)
 The electronic state is 1-A.
 Alpha  occ. eigenvalues --  -88.26200 -88.25929 -18.96245 -10.13147 -10.12292
 Alpha  occ. eigenvalues --  -10.10583 -10.09506 -10.09204 -10.08524 -10.07654
 Alpha  occ. eigenvalues --  -10.06920 -10.06741  -7.86677  -7.86386  -5.88514
 Alpha  occ. eigenvalues --   -5.88198  -5.88044  -5.87719  -5.87557  -5.87332
 Alpha  occ. eigenvalues --   -1.14456  -0.99037  -0.97158  -0.87009  -0.84469
 Alpha  occ. eigenvalues --   -0.83058  -0.80929  -0.78353  -0.69741  -0.67223
 Alpha  occ. eigenvalues --   -0.64058  -0.63651  -0.61191  -0.57035  -0.56625
 Alpha  occ. eigenvalues --   -0.55598  -0.54197  -0.50972  -0.50701  -0.48773
 Alpha  occ. eigenvalues --   -0.48129  -0.47080  -0.45367  -0.43578  -0.42891
 Alpha  occ. eigenvalues --   -0.42561  -0.41566  -0.35275  -0.33663  -0.32210
 Alpha  occ. eigenvalues --   -0.28187
 Alpha virt. eigenvalues --    0.03512   0.07949   0.10695   0.12422   0.14311
 Alpha virt. eigenvalues --    0.15601   0.15921   0.16675   0.17105   0.18752
 Alpha virt. eigenvalues --    0.19813   0.20664   0.20841   0.21447   0.22684
 Alpha virt. eigenvalues --    0.23343   0.25189   0.32412   0.33481   0.35352
 Alpha virt. eigenvalues --    0.36827   0.41204   0.42702   0.47509   0.49020
 Alpha virt. eigenvalues --    0.49878   0.51607   0.51749   0.53035   0.53864
 Alpha virt. eigenvalues --    0.54425   0.55668   0.55802   0.55996   0.57063
 Alpha virt. eigenvalues --    0.57528   0.57841   0.58657   0.58877   0.59091
 Alpha virt. eigenvalues --    0.59544   0.60192   0.61295   0.63193   0.63944
 Alpha virt. eigenvalues --    0.65281   0.66324   0.66663   0.67506   0.68429
 Alpha virt. eigenvalues --    0.70912   0.71309   0.73240   0.74562   0.74848
 Alpha virt. eigenvalues --    0.76326   0.76682   0.77489   0.78539   0.79241
 Alpha virt. eigenvalues --    0.80142   0.83314   0.84257   0.84691   0.85889
 Alpha virt. eigenvalues --    0.87260   0.90888   0.92206   0.93774   0.95150
 Alpha virt. eigenvalues --    0.97179   0.99652   1.01855   1.02090   1.03572
 Alpha virt. eigenvalues --    1.04211   1.04886   1.06946   1.08944   1.10024
 Alpha virt. eigenvalues --    1.10842   1.12700   1.13969   1.14889   1.16476
 Alpha virt. eigenvalues --    1.17397   1.21563   1.23809   1.25724   1.28269
 Alpha virt. eigenvalues --    1.29972   1.31813   1.34009   1.35809   1.37951
 Alpha virt. eigenvalues --    1.41010   1.42940   1.44227   1.45295   1.45875
 Alpha virt. eigenvalues --    1.47667   1.48917   1.54599   1.57486   1.58575
 Alpha virt. eigenvalues --    1.59357   1.60354   1.61691   1.62961   1.64583
 Alpha virt. eigenvalues --    1.65478   1.68066   1.69319   1.72064   1.73326
 Alpha virt. eigenvalues --    1.73982   1.74887   1.77216   1.77973   1.79236
 Alpha virt. eigenvalues --    1.80923   1.82142   1.82818   1.85631   1.86750
 Alpha virt. eigenvalues --    1.87232   1.90539   1.92796   1.95763   1.97827
 Alpha virt. eigenvalues --    2.01025   2.03618   2.04247   2.05028   2.07354
 Alpha virt. eigenvalues --    2.12009   2.13216   2.14725   2.18051   2.18214
 Alpha virt. eigenvalues --    2.19655   2.20029   2.24309   2.24700   2.29880
 Alpha virt. eigenvalues --    2.37761   2.40730   2.45481   2.47385   2.48448
 Alpha virt. eigenvalues --    2.50852   2.53133   2.54234   2.57009   2.61369
 Alpha virt. eigenvalues --    2.67954   2.70773   2.76696   2.93005   3.05114
 Alpha virt. eigenvalues --    3.07003   3.13751   3.22571   3.40290   3.51432
  Beta  occ. eigenvalues --  -88.26200 -88.25929 -18.96245 -10.13147 -10.12292
  Beta  occ. eigenvalues --  -10.10583 -10.09506 -10.09204 -10.08524 -10.07654
  Beta  occ. eigenvalues --  -10.06920 -10.06741  -7.86677  -7.86386  -5.88514
  Beta  occ. eigenvalues --   -5.88198  -5.88044  -5.87719  -5.87557  -5.87332
  Beta  occ. eigenvalues --   -1.14456  -0.99037  -0.97158  -0.87009  -0.84469
  Beta  occ. eigenvalues --   -0.83058  -0.80929  -0.78353  -0.69741  -0.67223
  Beta  occ. eigenvalues --   -0.64058  -0.63651  -0.61191  -0.57035  -0.56625
  Beta  occ. eigenvalues --   -0.55598  -0.54197  -0.50972  -0.50701  -0.48773
  Beta  occ. eigenvalues --   -0.48129  -0.47080  -0.45367  -0.43578  -0.42891
  Beta  occ. eigenvalues --   -0.42561  -0.41566  -0.35275  -0.33663  -0.32210
  Beta  occ. eigenvalues --   -0.28187
  Beta virt. eigenvalues --    0.03512   0.07949   0.10695   0.12422   0.14311
  Beta virt. eigenvalues --    0.15601   0.15921   0.16675   0.17105   0.18752
  Beta virt. eigenvalues --    0.19813   0.20664   0.20841   0.21447   0.22684
  Beta virt. eigenvalues --    0.23343   0.25189   0.32412   0.33481   0.35352
  Beta virt. eigenvalues --    0.36827   0.41204   0.42702   0.47509   0.49020
  Beta virt. eigenvalues --    0.49878   0.51607   0.51749   0.53035   0.53864
  Beta virt. eigenvalues --    0.54425   0.55668   0.55802   0.55996   0.57063
  Beta virt. eigenvalues --    0.57528   0.57841   0.58657   0.58877   0.59091
  Beta virt. eigenvalues --    0.59544   0.60192   0.61295   0.63193   0.63944
  Beta virt. eigenvalues --    0.65281   0.66324   0.66663   0.67506   0.68429
  Beta virt. eigenvalues --    0.70912   0.71309   0.73240   0.74562   0.74848
  Beta virt. eigenvalues --    0.76326   0.76682   0.77489   0.78539   0.79241
  Beta virt. eigenvalues --    0.80142   0.83314   0.84257   0.84691   0.85889
  Beta virt. eigenvalues --    0.87260   0.90888   0.92206   0.93774   0.95150
  Beta virt. eigenvalues --    0.97179   0.99652   1.01855   1.02090   1.03572
  Beta virt. eigenvalues --    1.04211   1.04886   1.06946   1.08944   1.10024
  Beta virt. eigenvalues --    1.10842   1.12700   1.13969   1.14889   1.16476
  Beta virt. eigenvalues --    1.17397   1.21563   1.23809   1.25724   1.28269
  Beta virt. eigenvalues --    1.29972   1.31813   1.34009   1.35809   1.37951
  Beta virt. eigenvalues --    1.41010   1.42940   1.44227   1.45295   1.45875
  Beta virt. eigenvalues --    1.47667   1.48917   1.54599   1.57486   1.58575
  Beta virt. eigenvalues --    1.59357   1.60354   1.61691   1.62961   1.64583
  Beta virt. eigenvalues --    1.65478   1.68066   1.69319   1.72064   1.73326
  Beta virt. eigenvalues --    1.73982   1.74887   1.77216   1.77973   1.79236
  Beta virt. eigenvalues --    1.80923   1.82142   1.82818   1.85631   1.86750
  Beta virt. eigenvalues --    1.87232   1.90539   1.92796   1.95763   1.97827
  Beta virt. eigenvalues --    2.01025   2.03618   2.04247   2.05028   2.07354
  Beta virt. eigenvalues --    2.12009   2.13216   2.14725   2.18051   2.18214
  Beta virt. eigenvalues --    2.19655   2.20029   2.24309   2.24700   2.29880
  Beta virt. eigenvalues --    2.37761   2.40730   2.45481   2.47385   2.48448
  Beta virt. eigenvalues --    2.50852   2.53133   2.54234   2.57009   2.61369
  Beta virt. eigenvalues --    2.67954   2.70773   2.76696   2.93005   3.05114
  Beta virt. eigenvalues --    3.07003   3.13751   3.22571   3.40290   3.51432
          Condensed to atoms (all electrons):
               1          2          3          4          5          6
     1  C    4.964419   0.563292  -0.036398  -0.102501   0.362886   0.003230
     2  C    0.563292   4.679900   0.494106  -0.027586  -0.082979   0.006034
     3  C   -0.036398   0.494106   4.775011   0.533176  -0.097538  -0.053334
     4  C   -0.102501  -0.027586   0.533176   5.194088   0.385479   0.256705
     5  S    0.362886  -0.082979  -0.097538   0.385479  15.366536  -0.066225
     6  C    0.003230   0.006034  -0.053334   0.256705  -0.066225   5.438171
     7  C    0.000223  -0.000387   0.005482  -0.043903  -0.005252   0.497472
     8  O    0.000099  -0.000009   0.000081   0.010428   0.003521  -0.095375
     9  C   -0.000001  -0.000001   0.000009  -0.000504   0.000007   0.009567
    10  C    0.000006   0.000001  -0.000262   0.013456   0.000161  -0.074434
    11  C   -0.000000  -0.000002   0.000215   0.003955  -0.000097  -0.085313
    12  S   -0.000043   0.000046  -0.005751  -0.054304   0.002528   0.367603
    13  H    0.406524  -0.023319   0.009322   0.000445  -0.039170  -0.000269
    14  H   -0.051843   0.402817  -0.043837   0.007918   0.007667  -0.000300
    15  H    0.008473  -0.039080   0.409161  -0.051892   0.005916  -0.008281
    16  H    0.000001  -0.000000  -0.000000   0.000079   0.000025   0.000093
    17  H   -0.000001   0.000000   0.000001   0.000176  -0.000038   0.000798
    18  H   -0.000001  -0.000000  -0.000000  -0.000049   0.000083  -0.000521
    19  H   -0.000000   0.000000  -0.000000  -0.000366   0.000004   0.008464
    20  H   -0.000000  -0.000000  -0.000001  -0.000254   0.000003   0.001089
               7          8          9         10         11         12
     1  C    0.000223   0.000099  -0.000001   0.000006  -0.000000  -0.000043
     2  C   -0.000387  -0.000009  -0.000001   0.000001  -0.000002   0.000046
     3  C    0.005482   0.000081   0.000009  -0.000262   0.000215  -0.005751
     4  C   -0.043903   0.010428  -0.000504   0.013456   0.003955  -0.054304
     5  S   -0.005252   0.003521   0.000007   0.000161  -0.000097   0.002528
     6  C    0.497472  -0.095375   0.009567  -0.074434  -0.085313   0.367603
     7  C    4.731000   0.476226  -0.068171   0.396141  -0.023315  -0.093948
     8  O    0.476226   7.681623   0.320054  -0.061986   0.003759   0.002659
     9  C   -0.068171   0.320054   4.484550  -0.007096   0.000802  -0.000182
    10  C    0.396141  -0.061986  -0.007096   4.866823   0.565751  -0.095265
    11  C   -0.023315   0.003759   0.000802   0.565751   4.888220   0.373314
    12  S   -0.093948   0.002659  -0.000182  -0.095265   0.373314  15.396072
    13  H    0.000001   0.000001  -0.000000   0.000000  -0.000000   0.000002
    14  H    0.000002   0.000000  -0.000000  -0.000000  -0.000000  -0.000003
    15  H    0.000664   0.000004   0.000000  -0.000035  -0.000035   0.003671
    16  H   -0.008557  -0.029669   0.390855   0.008940  -0.000020  -0.000099
    17  H   -0.003136  -0.030334   0.391048   0.005381   0.000156  -0.000102
    18  H    0.002069  -0.012366   0.406957   0.000018  -0.000028   0.000016
    19  H   -0.036427  -0.004091   0.003796   0.393396  -0.045544   0.007349
    20  H    0.007156  -0.000054  -0.000004  -0.019711   0.403001  -0.041039
              13         14         15         16         17         18
     1  C    0.406524  -0.051843   0.008473   0.000001  -0.000001  -0.000001
     2  C   -0.023319   0.402817  -0.039080  -0.000000   0.000000  -0.000000
     3  C    0.009322  -0.043837   0.409161  -0.000000   0.000001  -0.000000
     4  C    0.000445   0.007918  -0.051892   0.000079   0.000176  -0.000049
     5  S   -0.039170   0.007667   0.005916   0.000025  -0.000038   0.000083
     6  C   -0.000269  -0.000300  -0.008281   0.000093   0.000798  -0.000521
     7  C    0.000001   0.000002   0.000664  -0.008557  -0.003136   0.002069
     8  O    0.000001   0.000000   0.000004  -0.029669  -0.030334  -0.012366
     9  C   -0.000000  -0.000000   0.000000   0.390855   0.391048   0.406957
    10  C    0.000000  -0.000000  -0.000035   0.008940   0.005381   0.000018
    11  C   -0.000000  -0.000000  -0.000035  -0.000020   0.000156  -0.000028
    12  S    0.000002  -0.000003   0.003671  -0.000099  -0.000102   0.000016
    13  H    0.647458  -0.009130  -0.000115   0.000000  -0.000000  -0.000000
    14  H   -0.009130   0.681145  -0.007015  -0.000000   0.000000  -0.000000
    15  H   -0.000115  -0.007015   0.663210   0.000000   0.000000  -0.000000
    16  H    0.000000  -0.000000   0.000000   0.639850  -0.036996  -0.024737
    17  H   -0.000000   0.000000   0.000000  -0.036996   0.634888  -0.021813
    18  H   -0.000000  -0.000000  -0.000000  -0.024737  -0.021813   0.598634
    19  H   -0.000000   0.000000  -0.000001   0.001605   0.000637  -0.000153
    20  H   -0.000000  -0.000000   0.000001   0.000006   0.000017   0.000000
              19         20
     1  C   -0.000000  -0.000000
     2  C    0.000000  -0.000000
     3  C   -0.000000  -0.000001
     4  C   -0.000366  -0.000254
     5  S    0.000004   0.000003
     6  C    0.008464   0.001089
     7  C   -0.036427   0.007156
     8  O   -0.004091  -0.000054
     9  C    0.003796  -0.000004
    10  C    0.393396  -0.019711
    11  C   -0.045544   0.403001
    12  S    0.007349  -0.041039
    13  H   -0.000000  -0.000000
    14  H    0.000000  -0.000000
    15  H   -0.000001   0.000001
    16  H    0.001605   0.000006
    17  H    0.000637   0.000017
    18  H   -0.000153   0.000000
    19  H    0.670889  -0.008028
    20  H   -0.008028   0.650200
          Atomic-Atomic Spin Densities.
               1          2          3          4          5          6
     1  C   -0.000000   0.000000   0.000000  -0.000000   0.000000  -0.000000
     2  C    0.000000  -0.000000  -0.000000   0.000000   0.000000  -0.000000
     3  C    0.000000  -0.000000   0.000000  -0.000000  -0.000000   0.000000
     4  C   -0.000000   0.000000  -0.000000   0.000000  -0.000000   0.000000
     5  S    0.000000   0.000000  -0.000000  -0.000000   0.000000   0.000000
     6  C   -0.000000  -0.000000   0.000000   0.000000   0.000000  -0.000000
     7  C   -0.000000  -0.000000  -0.000000  -0.000000   0.000000   0.000000
     8  O   -0.000000  -0.000000   0.000000  -0.000000  -0.000000  -0.000000
     9  C   -0.000000  -0.000000  -0.000000   0.000000  -0.000000   0.000000
    10  C    0.000000   0.000000  -0.000000   0.000000  -0.000000  -0.000000
    11  C   -0.000000   0.000000  -0.000000  -0.000000   0.000000   0.000000
    12  S    0.000000  -0.000000   0.000000   0.000000  -0.000000  -0.000000
    13  H   -0.000000   0.000000  -0.000000   0.000000  -0.000000   0.000000
    14  H    0.000000   0.000000  -0.000000   0.000000   0.000000   0.000000
    15  H    0.000000  -0.000000   0.000000  -0.000000   0.000000   0.000000
    16  H    0.000000  -0.000000   0.000000  -0.000000   0.000000  -0.000000
    17  H   -0.000000   0.000000   0.000000  -0.000000   0.000000   0.000000
    18  H   -0.000000   0.000000  -0.000000   0.000000  -0.000000   0.000000
    19  H    0.000000  -0.000000   0.000000   0.000000  -0.000000  -0.000000
    20  H    0.000000  -0.000000   0.000000   0.000000   0.000000   0.000000
               7          8          9         10         11         12
     1  C   -0.000000  -0.000000  -0.000000   0.000000  -0.000000   0.000000
     2  C   -0.000000  -0.000000  -0.000000   0.000000   0.000000  -0.000000
     3  C   -0.000000   0.000000  -0.000000  -0.000000  -0.000000   0.000000
     4  C   -0.000000  -0.000000   0.000000   0.000000  -0.000000   0.000000
     5  S    0.000000  -0.000000  -0.000000  -0.000000   0.000000  -0.000000
     6  C    0.000000  -0.000000   0.000000  -0.000000   0.000000  -0.000000
     7  C    0.000000   0.000000   0.000000  -0.000000  -0.000000   0.000000
     8  O    0.000000  -0.000000  -0.000000   0.000000  -0.000000  -0.000000
     9  C    0.000000  -0.000000   0.000000  -0.000000  -0.000000  -0.000000
    10  C   -0.000000   0.000000  -0.000000  -0.000000   0.000000   0.000000
    11  C   -0.000000  -0.000000  -0.000000   0.000000   0.000000  -0.000000
    12  S    0.000000  -0.000000  -0.000000   0.000000  -0.000000   0.000000
    13  H    0.000000  -0.000000   0.000000  -0.000000   0.000000   0.000000
    14  H   -0.000000  -0.000000   0.000000  -0.000000   0.000000  -0.000000
    15  H    0.000000   0.000000   0.000000  -0.000000  -0.000000   0.000000
    16  H   -0.000000  -0.000000  -0.000000   0.000000   0.000000  -0.000000
    17  H    0.000000   0.000000  -0.000000  -0.000000  -0.000000  -0.000000
    18  H    0.000000  -0.000000   0.000000  -0.000000  -0.000000  -0.000000
    19  H    0.000000   0.000000   0.000000  -0.000000   0.000000   0.000000
    20  H    0.000000  -0.000000  -0.000000  -0.000000  -0.000000  -0.000000
              13         14         15         16         17         18
     1  C   -0.000000   0.000000   0.000000   0.000000  -0.000000  -0.000000
     2  C    0.000000   0.000000  -0.000000  -0.000000   0.000000   0.000000
     3  C   -0.000000  -0.000000   0.000000   0.000000   0.000000  -0.000000
     4  C    0.000000   0.000000  -0.000000  -0.000000  -0.000000   0.000000
     5  S   -0.000000   0.000000   0.000000   0.000000   0.000000  -0.000000
     6  C    0.000000   0.000000   0.000000  -0.000000   0.000000   0.000000
     7  C    0.000000  -0.000000   0.000000  -0.000000   0.000000   0.000000
     8  O   -0.000000  -0.000000   0.000000  -0.000000   0.000000  -0.000000
     9  C    0.000000   0.000000   0.000000  -0.000000  -0.000000   0.000000
    10  C   -0.000000  -0.000000  -0.000000   0.000000  -0.000000  -0.000000
    11  C    0.000000   0.000000  -0.000000   0.000000  -0.000000  -0.000000
    12  S    0.000000  -0.000000   0.000000  -0.000000  -0.000000  -0.000000
    13  H   -0.000000  -0.000000   0.000000  -0.000000  -0.000000   0.000000
    14  H   -0.000000   0.000000  -0.000000  -0.000000   0.000000   0.000000
    15  H    0.000000  -0.000000   0.000000   0.000000  -0.000000  -0.000000
    16  H   -0.000000  -0.000000   0.000000   0.000000   0.000000  -0.000000
    17  H   -0.000000   0.000000  -0.000000   0.000000  -0.000000   0.000000
    18  H    0.000000   0.000000  -0.000000  -0.000000   0.000000  -0.000000
    19  H    0.000000  -0.000000   0.000000  -0.000000   0.000000   0.000000
    20  H    0.000000   0.000000   0.000000   0.000000   0.000000  -0.000000
              19         20
     1  C    0.000000   0.000000
     2  C   -0.000000  -0.000000
     3  C    0.000000   0.000000
     4  C    0.000000   0.000000
     5  S   -0.000000   0.000000
     6  C   -0.000000   0.000000
     7  C    0.000000   0.000000
     8  O    0.000000  -0.000000
     9  C    0.000000  -0.000000
    10  C   -0.000000  -0.000000
    11  C    0.000000  -0.000000
    12  S    0.000000  -0.000000
    13  H    0.000000   0.000000
    14  H   -0.000000   0.000000
    15  H    0.000000   0.000000
    16  H   -0.000000   0.000000
    17  H    0.000000   0.000000
    18  H    0.000000  -0.000000
    19  H   -0.000000   0.000000
    20  H    0.000000   0.000000
 Mulliken charges and spin densities:
               1          2
     1  C   -0.118365  -0.000000
     2  C    0.027166  -0.000000
     3  C    0.010559   0.000000
     4  C   -0.124547   0.000000
     5  S    0.156483   0.000000
     6  C   -0.205173  -0.000000
     7  C    0.166660   0.000000
     8  O   -0.264572  -0.000000
     9  C    0.068312   0.000000
    10  C    0.008715  -0.000000
    11  C   -0.084820   0.000000
    12  S    0.137477  -0.000000
    13  H    0.008249  -0.000000
    14  H    0.012579  -0.000000
    15  H    0.015354   0.000000
    16  H    0.058626   0.000000
    17  H    0.059318  -0.000000
    18  H    0.051890  -0.000000
    19  H    0.008469  -0.000000
    20  H    0.007619   0.000000
 Sum of Mulliken charges =  -0.00000   0.00000
 Mulliken charges and spin densities with hydrogens summed into heavy atoms:
               1          2
     1  C   -0.110115  -0.000000
     2  C    0.039745  -0.000000
     3  C    0.025912   0.000000
     4  C   -0.124547   0.000000
     5  S    0.156483   0.000000
     6  C   -0.205173  -0.000000
     7  C    0.166660   0.000000
     8  O   -0.264572  -0.000000
     9  C    0.238146  -0.000000
    10  C    0.017184  -0.000000
    11  C   -0.077201   0.000000
    12  S    0.137477  -0.000000
 Electronic spatial extent (au):  <R**2>=           2662.3452
 Charge=             -0.0000 electrons
 Dipole moment (field-independent basis, Debye):
    X=              1.9974    Y=              1.2580    Z=              0.3372  Tot=              2.3845
 Quadrupole moment (field-independent basis, Debye-Ang):
   XX=            -67.9485   YY=            -75.7166   ZZ=            -86.0472
   XY=              3.3743   XZ=             -0.7791   YZ=             -1.5257
 Traceless Quadrupole moment (field-independent basis, Debye-Ang):
   XX=              8.6223   YY=              0.8542   ZZ=             -9.4764
   XY=              3.3743   XZ=             -0.7791   YZ=             -1.5257
 Octapole moment (field-independent basis, Debye-Ang**2):
  XXX=              7.5635  YYY=             26.4934  ZZZ=              1.0404  XYY=             23.1780
  XXY=             13.8415  XXZ=              1.9978  XZZ=              0.7479  YZZ=              4.3341
  YYZ=              3.8408  XYZ=             11.0375
 Hexadecapole moment (field-independent basis, Debye-Ang**3):
 XXXX=          -2063.5996 YYYY=           -997.2902 ZZZZ=           -225.6236 XXXY=            -20.6517
 XXXZ=             -6.6081 YYYX=             31.7741 YYYZ=             13.0592 ZZZX=              7.6810
 ZZZY=             -1.9888 XXYY=           -492.3561 XXZZ=           -434.8971 YYZZ=           -215.6981
 XXYZ=            -11.5297 YYXZ=              0.9559 ZZXY=             12.6255
 N-N= 8.541301868250D+02 E-N=-4.584704240281D+03  KE= 1.214251587838D+03
                          Isotropic Fermi Contact Couplings
        Atom                 a.u.       MegaHertz       Gauss      10(-4) cm-1
     1  C(13)              0.00000       0.00000       0.00000       0.00000
     2  C(13)             -0.00000      -0.00000      -0.00000      -0.00000
     3  C(13)             -0.00000      -0.00000      -0.00000      -0.00000
     4  C(13)             -0.00000      -0.00000      -0.00000      -0.00000
     5  S(33)             -0.00000      -0.00000      -0.00000      -0.00000
     6  C(13)             -0.00000      -0.00000      -0.00000      -0.00000
     7  C(13)              0.00000       0.00000       0.00000       0.00000
     8  O(17)              0.00000      -0.00000      -0.00000      -0.00000
     9  C(13)              0.00000       0.00000       0.00000       0.00000
    10  C(13)             -0.00000      -0.00000      -0.00000      -0.00000
    11  C(13)              0.00000       0.00000       0.00000       0.00000
    12  S(33)             -0.00000      -0.00000      -0.00000      -0.00000
    13  H(1)               0.00000       0.00000       0.00000       0.00000
    14  H(1)               0.00000       0.00000       0.00000       0.00000
    15  H(1)              -0.00000      -0.00000      -0.00000      -0.00000
    16  H(1)              -0.00000      -0.00000      -0.00000      -0.00000
    17  H(1)              -0.00000      -0.00000      -0.00000      -0.00000
    18  H(1)               0.00000       0.00000       0.00000       0.00000
    19  H(1)               0.00000       0.00000       0.00000       0.00000
    20  H(1)               0.00000       0.00000       0.00000       0.00000
 --------------------------------------------------------
       Center         ----  Spin Dipole Couplings  ----
                      3XX-RR        3YY-RR        3ZZ-RR
 --------------------------------------------------------
     1   Atom       -0.000000      0.000000      0.000000
     2   Atom       -0.000000      0.000000      0.000000
     3   Atom       -0.000000      0.000000      0.000000
     4   Atom       -0.000000      0.000000      0.000000
     5   Atom       -0.000000     -0.000000      0.000000
     6   Atom       -0.000000     -0.000000      0.000000
     7   Atom       -0.000000      0.000000     -0.000000
     8   Atom       -0.000000      0.000000     -0.000000
     9   Atom       -0.000000     -0.000000      0.000000
    10   Atom       -0.000000      0.000000      0.000000
    11   Atom       -0.000000      0.000000      0.000000
    12   Atom        0.000000     -0.000000      0.000000
    13   Atom       -0.000000      0.000000     -0.000000
    14   Atom        0.000000     -0.000000     -0.000000
    15   Atom       -0.000000      0.000000     -0.000000
    16   Atom        0.000000     -0.000000     -0.000000
    17   Atom        0.000000     -0.000000      0.000000
    18   Atom       -0.000000      0.000000     -0.000000
    19   Atom       -0.000000      0.000000      0.000000
    20   Atom        0.000000     -0.000000     -0.000000
 --------------------------------------------------------
                        XY            XZ            YZ
 --------------------------------------------------------
     1   Atom       -0.000000      0.000000      0.000000
     2   Atom        0.000000      0.000000      0.000000
     3   Atom        0.000000     -0.000000     -0.000000
     4   Atom       -0.000000      0.000000      0.000000
     5   Atom        0.000000     -0.000000      0.000000
     6   Atom        0.000000     -0.000000     -0.000000
     7   Atom       -0.000000      0.000000      0.000000
     8   Atom        0.000000      0.000000      0.000000
     9   Atom        0.000000     -0.000000      0.000000
    10   Atom       -0.000000      0.000000      0.000000
    11   Atom       -0.000000     -0.000000      0.000000
    12   Atom        0.000000     -0.000000     -0.000000
    13   Atom       -0.000000      0.000000     -0.000000
    14   Atom        0.000000     -0.000000     -0.000000
    15   Atom       -0.000000      0.000000     -0.000000
    16   Atom       -0.000000      0.000000     -0.000000
    17   Atom        0.000000     -0.000000      0.000000
    18   Atom       -0.000000      0.000000     -0.000000
    19   Atom        0.000000     -0.000000     -0.000000
    20   Atom       -0.000000     -0.000000      0.000000
 --------------------------------------------------------


 ---------------------------------------------------------------------------------
              Anisotropic Spin Dipole Couplings in Principal Axis System
 ---------------------------------------------------------------------------------

       Atom             a.u.   MegaHertz   Gauss  10(-4) cm-1        Axes

              Baa    -0.0000    -0.000    -0.000    -0.000  0.9290  0.2987 -0.2183
     1 C(13)  Bbb    -0.0000    -0.000    -0.000    -0.000 -0.3699  0.7430 -0.5577
              Bcc     0.0000     0.000     0.000     0.000 -0.0044  0.5989  0.8008
 
              Baa    -0.0000    -0.000    -0.000    -0.000  0.9943 -0.1050 -0.0165
     2 C(13)  Bbb     0.0000     0.000     0.000     0.000  0.0691  0.7563 -0.6506
              Bcc     0.0000     0.000     0.000     0.000  0.0808  0.6457  0.7593
 
              Baa    -0.0000    -0.000    -0.000    -0.000  0.9240 -0.3805 -0.0370
     3 C(13)  Bbb     0.0000     0.000     0.000     0.000  0.2979  0.6560  0.6935
              Bcc     0.0000     0.000     0.000     0.000 -0.2396 -0.6518  0.7195
 
              Baa    -0.0000    -0.000    -0.000    -0.000  0.8475  0.1524 -0.5084
     4 C(13)  Bbb     0.0000     0.000     0.000     0.000  0.4778  0.1980  0.8559
              Bcc     0.0000     0.000     0.000     0.000 -0.2311  0.9683 -0.0950
 
              Baa    -0.0000    -0.000    -0.000    -0.000 -0.4710  0.7948 -0.3827
     5 S(33)  Bbb     0.0000     0.000     0.000     0.000  0.8662  0.3346 -0.3711
              Bcc     0.0000     0.000     0.000     0.000  0.1670  0.5063  0.8461
 
              Baa    -0.0000    -0.000    -0.000    -0.000  0.7427 -0.6636 -0.0895
     6 C(13)  Bbb     0.0000     0.000     0.000     0.000  0.3493  0.2699  0.8973
              Bcc     0.0000     0.000     0.000     0.000  0.5713  0.6977 -0.4323
 
              Baa    -0.0000    -0.000    -0.000    -0.000  0.7545  0.6135 -0.2329
     7 C(13)  Bbb    -0.0000    -0.000    -0.000    -0.000  0.2156  0.1034  0.9710
              Bcc     0.0000     0.000     0.000     0.000 -0.6198  0.7829  0.0542
 
              Baa    -0.0000     0.000     0.000     0.000 -0.4761 -0.3080  0.8237
     8 O(17)  Bbb    -0.0000     0.000     0.000     0.000  0.8252 -0.4803  0.2974
              Bcc     0.0000    -0.000    -0.000    -0.000  0.3040  0.8213  0.4828
 
              Baa    -0.0000    -0.000    -0.000    -0.000 -0.5270  0.6728 -0.5192
     9 C(13)  Bbb     0.0000     0.000     0.000     0.000  0.7521  0.6537  0.0837
              Bcc     0.0000     0.000     0.000     0.000 -0.3957  0.3464  0.8506
 
              Baa    -0.0000    -0.000    -0.000    -0.000  0.9986  0.0047 -0.0518
    10 C(13)  Bbb     0.0000     0.000     0.000     0.000  0.0519 -0.0245  0.9984
              Bcc     0.0000     0.000     0.000     0.000 -0.0034  0.9997  0.0247
 
              Baa    -0.0000    -0.000    -0.000    -0.000  0.7494  0.5887 -0.3032
    11 C(13)  Bbb    -0.0000    -0.000    -0.000    -0.000  0.5384 -0.2752  0.7965
              Bcc     0.0000     0.000     0.000     0.000 -0.3855  0.7601  0.5232
 
              Baa    -0.0000    -0.000    -0.000    -0.000 -0.3625  0.9269  0.0968
    12 S(33)  Bbb     0.0000     0.000     0.000     0.000  0.8944  0.3169  0.3155
              Bcc     0.0000     0.000     0.000     0.000 -0.2618 -0.2009  0.9440
 
              Baa    -0.0000    -0.000    -0.000    -0.000  0.8690  0.3491 -0.3506
    13 H(1)   Bbb    -0.0000    -0.000    -0.000    -0.000  0.0990  0.5714  0.8146
              Bcc     0.0000     0.000     0.000     0.000 -0.4848  0.7427 -0.4620
 
              Baa    -0.0000    -0.000    -0.000    -0.000  0.2133  0.4253  0.8796
    14 H(1)   Bbb    -0.0000    -0.000    -0.000    -0.000 -0.2142  0.8987 -0.3826
              Bcc     0.0000     0.000     0.000     0.000  0.9532  0.1068 -0.2828
 
              Baa    -0.0000    -0.000    -0.000    -0.000  0.8708  0.2458 -0.4258
    15 H(1)   Bbb    -0.0000    -0.000    -0.000    -0.000  0.1882  0.6334  0.7506
              Bcc     0.0000     0.000     0.000     0.000 -0.4542  0.7338 -0.5053
 
              Baa    -0.0000    -0.000    -0.000    -0.000 -0.1995  0.4872  0.8502
    16 H(1)   Bbb    -0.0000    -0.000    -0.000    -0.000  0.4535  0.8150 -0.3607
              Bcc     0.0000     0.000     0.000     0.000  0.8686 -0.3136  0.3836
 
              Baa    -0.0000    -0.000    -0.000    -0.000 -0.1426  0.9815 -0.1281
    17 H(1)   Bbb    -0.0000    -0.000    -0.000    -0.000  0.7627  0.1914  0.6178
              Bcc     0.0000     0.000     0.000     0.000 -0.6308  0.0096  0.7759
 
              Baa    -0.0000    -0.000    -0.000    -0.000  0.7990 -0.0418 -0.5998
    18 H(1)   Bbb    -0.0000    -0.000    -0.000    -0.000  0.5997  0.1277  0.7900
              Bcc     0.0000     0.000     0.000     0.000 -0.0436  0.9909 -0.1271
 
              Baa    -0.0000    -0.000    -0.000    -0.000  0.9800 -0.0975  0.1732
    19 H(1)   Bbb     0.0000     0.000     0.000     0.000 -0.0927  0.5466  0.8323
              Bcc     0.0000     0.000     0.000     0.000  0.1758  0.8317 -0.5266
 
              Baa    -0.0000    -0.000    -0.000    -0.000  0.3015  0.9533  0.0158
    20 H(1)   Bbb    -0.0000    -0.000    -0.000    -0.000  0.2174 -0.0849  0.9724
              Bcc     0.0000     0.000     0.000     0.000  0.9284 -0.2897 -0.2328
 

 ---------------------------------------------------------------------------------

 No NMR shielding tensors so no spin-rotation constants.
 Leave Link  601 at Sat Jul 25 01:28:50 2020, MaxMem=  4026531840 cpu:               2.2 elap:               0.3
 (Enter /opt/ohpc/pub/libs/gaussian/g16-A.03/sandybridge/g16/l701.exe)
 ... and contract with generalized density number  0.
 Compute integral first derivatives.
 Leave Link  701 at Sat Jul 25 01:28:50 2020, MaxMem=  4026531840 cpu:               1.2 elap:               0.2
 (Enter /opt/ohpc/pub/libs/gaussian/g16-A.03/sandybridge/g16/l702.exe)
 L702 exits ... SP integral derivatives will be done elsewhere.
 Leave Link  702 at Sat Jul 25 01:28:50 2020, MaxMem=  4026531840 cpu:               0.1 elap:               0.0
 (Enter /opt/ohpc/pub/libs/gaussian/g16-A.03/sandybridge/g16/l703.exe)
 Integral derivatives from FoFJK, PRISM(SPDF).
 Compute integral first derivatives, UseDBF=F ICtDFT=           0.
 Calling FoFJK, ICntrl=      2127 FMM=F ISym2X=0 I1Cent= 0 IOpClX= 1 NMat=1 NMatS=1 NMatT=0.
 FoFJK:  IHMeth= 1 ICntrl=    2127 DoSepK=T KAlg= 0 I1Cent=           0 FoldK=F
 IRaf=         1 NMat=       1 IRICut=       1 DoRegI=T DoRafI=F ISym2E= 0 IDoP0=0 IntGTp=1.
 FoFCou: FMM=F IPFlag=           0 FMFlag=      100000 FMFlg1=         800
         NFxFlg=           0 DoJE=F BraDBF=F KetDBF=F FulRan=T
         wScrn=  0.000000 ICntrl=      2527 IOpCl=  0 I1Cent=           0 NGrid=           0
         NMat0=    1 NMatS0=      1 NMatT0=    0 NMatD0=    1 NMtDS0=    0 NMtDT0=    0
 Symmetry not used in FoFCou.
 Leave Link  703 at Sat Jul 25 01:29:03 2020, MaxMem=  4026531840 cpu:             102.0 elap:              12.8
 (Enter /opt/ohpc/pub/libs/gaussian/g16-A.03/sandybridge/g16/l716.exe)
 Dipole        = 7.85831658D-01 4.94931318D-01 1.32681080D-01
 ***** Axes restored to original set *****
 -------------------------------------------------------------------
 Center     Atomic                   Forces (Hartrees/Bohr)
 Number     Number              X              Y              Z
 -------------------------------------------------------------------
      1        6           0.054658616    0.004747665   -0.010560169
      2        6          -0.081236632   -0.006015534    0.006795610
      3        6           0.060431561   -0.013217673    0.019129897
      4        6          -0.010682062   -0.011931416   -0.005093665
      5       16          -0.017052740   -0.009400651    0.018719410
      6        6          -0.027736048   -0.055107691   -0.006294949
      7        6           0.003741670    0.020702633    0.018048846
      8        8           0.022428673    0.040545154   -0.001010049
      9        6           0.003262819   -0.076998496   -0.000812794
     10        6           0.037290372    0.051832283   -0.008944436
     11        6          -0.039695091   -0.028946342    0.006582612
     12       16          -0.003177971    0.027739705   -0.001655928
     13        1          -0.027379592    0.012685731   -0.006299212
     14        1           0.027653322    0.006358576   -0.007273485
     15        1          -0.004108456    0.019685579   -0.017089463
     16        1          -0.004380920    0.008639482   -0.010731956
     17        1           0.000864394    0.009186113    0.005847549
     18        1          -0.017316740    0.029549388    0.003127376
     19        1          -0.011300090   -0.011180856    0.001971238
     20        1           0.033734916   -0.018873650   -0.004456431
 -------------------------------------------------------------------
 Cartesian Forces:  Max     0.081236632 RMS     0.026106578
 Leave Link  716 at Sat Jul 25 01:29:03 2020, MaxMem=  4026531840 cpu:               0.3 elap:               0.1
 (Enter /opt/ohpc/pub/libs/gaussian/g16-A.03/sandybridge/g16/l103.exe)

 GradGradGradGradGradGradGradGradGradGradGradGradGradGradGradGradGradGrad
 Berny optimization.
 FormGI is forming the generalized inverse of G from B-inverse, IUseBI=4.
 Internal  Forces:  Max     0.043168908 RMS     0.012767835
 Search for a local minimum.
 Step number   1 out of a maximum of  105
 All quantities printed in internal units (Hartrees-Bohrs-Radians)
 RMS Force = .12768D-01 SwitMx=.10000D-02 MixMth= 1
 Mixed Optimization -- RFO/linear search
 Second derivative matrix not updated -- first step.
 ITU=  0
     Eigenvalues ---    0.00510   0.01242   0.01516   0.01656   0.01667
     Eigenvalues ---    0.01788   0.02155   0.02282   0.02308   0.02365
     Eigenvalues ---    0.02376   0.02464   0.02546   0.02571   0.02746
     Eigenvalues ---    0.10242   0.10660   0.15784   0.15831   0.15884
     Eigenvalues ---    0.15923   0.15978   0.16000   0.16000   0.16000
     Eigenvalues ---    0.22066   0.22447   0.23685   0.24548   0.24642
     Eigenvalues ---    0.24692   0.24991   0.25000   0.26413   0.27906
     Eigenvalues ---    0.29362   0.30057   0.30260   0.30963   0.31148
     Eigenvalues ---    0.31832   0.32486   0.33518   0.36465   0.39596
     Eigenvalues ---    0.39671   0.40699   0.41596   0.43463   0.48939
     Eigenvalues ---    0.51826   0.53894   0.55209   0.58732
 RFO step:  Lambda=-4.11277209D-02 EMin= 5.09553092D-03
 Linear search not attempted -- first point.
 Maximum step size (   0.300) exceeded in Quadratic search.
    -- Step size scaled by   0.935
 Iteration  1 RMS(Cart)=  0.04603585 RMS(Int)=  0.00170732
[...]
     3  C   -0.000000   0.000000  -0.000000   0.000000  -0.000000   0.000000
     4  C    0.000000  -0.000000   0.000000  -0.000000  -0.000000   0.000000
     5  S   -0.000000   0.000000  -0.000000  -0.000000   0.000000   0.000000
     6  C   -0.000000  -0.000000   0.000000   0.000000   0.000000   0.000000
     7  C   -0.000000   0.000000  -0.000000   0.000000  -0.000000  -0.000000
     8  O    0.000000  -0.000000   0.000000   0.000000   0.000000  -0.000000
     9  C   -0.000000   0.000000  -0.000000  -0.000000   0.000000   0.000000
    10  C    0.000000  -0.000000   0.000000  -0.000000  -0.000000  -0.000000
    11  C    0.000000  -0.000000   0.000000   0.000000   0.000000  -0.000000
    12  S   -0.000000   0.000000   0.000000  -0.000000   0.000000   0.000000
    13  H   -0.000000   0.000000  -0.000000   0.000000  -0.000000   0.000000
    14  H    0.000000  -0.000000   0.000000  -0.000000   0.000000  -0.000000
    15  H   -0.000000   0.000000  -0.000000   0.000000  -0.000000   0.000000
    16  H    0.000000   0.000000  -0.000000  -0.000000   0.000000   0.000000
    17  H    0.000000  -0.000000   0.000000  -0.000000   0.000000  -0.000000
    18  H   -0.000000  -0.000000   0.000000   0.000000  -0.000000   0.000000
    19  H   -0.000000   0.000000  -0.000000  -0.000000  -0.000000   0.000000
    20  H    0.000000  -0.000000  -0.000000   0.000000   0.000000   0.000000
               7          8          9         10         11         12
     1  C   -0.000000   0.000000  -0.000000   0.000000   0.000000  -0.000000
     2  C    0.000000  -0.000000   0.000000  -0.000000  -0.000000   0.000000
     3  C   -0.000000   0.000000  -0.000000   0.000000   0.000000   0.000000
     4  C    0.000000   0.000000  -0.000000  -0.000000   0.000000  -0.000000
     5  S   -0.000000   0.000000   0.000000  -0.000000   0.000000   0.000000
     6  C   -0.000000  -0.000000   0.000000  -0.000000  -0.000000   0.000000
     7  C   -0.000000  -0.000000   0.000000   0.000000  -0.000000  -0.000000
     8  O   -0.000000   0.000000  -0.000000   0.000000  -0.000000  -0.000000
     9  C    0.000000  -0.000000  -0.000000   0.000000   0.000000  -0.000000
    10  C    0.000000   0.000000   0.000000  -0.000000   0.000000   0.000000
    11  C   -0.000000  -0.000000   0.000000   0.000000  -0.000000  -0.000000
    12  S   -0.000000  -0.000000  -0.000000   0.000000  -0.000000  -0.000000
    13  H   -0.000000   0.000000   0.000000  -0.000000   0.000000  -0.000000
    14  H    0.000000  -0.000000  -0.000000  -0.000000  -0.000000   0.000000
    15  H    0.000000   0.000000   0.000000  -0.000000   0.000000  -0.000000
    16  H    0.000000  -0.000000  -0.000000  -0.000000   0.000000  -0.000000
    17  H    0.000000  -0.000000   0.000000  -0.000000   0.000000  -0.000000
    18  H    0.000000   0.000000  -0.000000   0.000000  -0.000000  -0.000000
    19  H   -0.000000   0.000000  -0.000000  -0.000000  -0.000000   0.000000
    20  H   -0.000000  -0.000000  -0.000000   0.000000  -0.000000  -0.000000
              13         14         15         16         17         18
     1  C   -0.000000   0.000000  -0.000000   0.000000   0.000000  -0.000000
     2  C    0.000000  -0.000000   0.000000   0.000000  -0.000000  -0.000000
     3  C   -0.000000   0.000000  -0.000000  -0.000000   0.000000   0.000000
     4  C    0.000000  -0.000000   0.000000  -0.000000  -0.000000   0.000000
     5  S   -0.000000   0.000000  -0.000000   0.000000   0.000000  -0.000000
     6  C    0.000000  -0.000000   0.000000   0.000000  -0.000000   0.000000
     7  C   -0.000000   0.000000   0.000000   0.000000   0.000000   0.000000
     8  O    0.000000  -0.000000   0.000000  -0.000000  -0.000000   0.000000
     9  C    0.000000  -0.000000   0.000000  -0.000000   0.000000  -0.000000
    10  C   -0.000000  -0.000000  -0.000000  -0.000000  -0.000000   0.000000
    11  C    0.000000  -0.000000   0.000000   0.000000   0.000000  -0.000000
    12  S   -0.000000   0.000000  -0.000000  -0.000000  -0.000000  -0.000000
    13  H   -0.000000   0.000000  -0.000000  -0.000000   0.000000   0.000000
    14  H    0.000000  -0.000000   0.000000  -0.000000  -0.000000   0.000000
    15  H   -0.000000   0.000000  -0.000000  -0.000000  -0.000000   0.000000
    16  H   -0.000000  -0.000000  -0.000000   0.000000   0.000000  -0.000000
    17  H    0.000000  -0.000000  -0.000000   0.000000  -0.000000   0.000000
    18  H    0.000000   0.000000   0.000000  -0.000000   0.000000   0.000000
    19  H   -0.000000  -0.000000  -0.000000  -0.000000  -0.000000   0.000000
    20  H    0.000000   0.000000   0.000000   0.000000   0.000000  -0.000000
              19         20
     1  C   -0.000000   0.000000
     2  C    0.000000  -0.000000
     3  C   -0.000000  -0.000000
     4  C   -0.000000   0.000000
     5  S   -0.000000   0.000000
     6  C    0.000000   0.000000
     7  C   -0.000000  -0.000000
     8  O    0.000000  -0.000000
     9  C   -0.000000  -0.000000
    10  C   -0.000000   0.000000
    11  C   -0.000000  -0.000000
    12  S    0.000000  -0.000000
    13  H   -0.000000   0.000000
    14  H   -0.000000   0.000000
    15  H   -0.000000   0.000000
    16  H   -0.000000   0.000000
    17  H   -0.000000   0.000000
    18  H    0.000000  -0.000000
    19  H    0.000000  -0.000000
    20  H   -0.000000   0.000000
 Mulliken charges and spin densities:
               1          2
     1  C   -0.142932  -0.000000
     2  C    0.058441   0.000000
     3  C   -0.014006  -0.000000
     4  C   -0.099160  -0.000000
     5  S    0.163778   0.000000
     6  C   -0.154802   0.000000
     7  C    0.129631  -0.000000
     8  O   -0.252398   0.000000
     9  C    0.055104   0.000000
    10  C    0.021792  -0.000000
    11  C   -0.127359   0.000000
    12  S    0.160022  -0.000000
    13  H    0.025849  -0.000000
    14  H   -0.007426  -0.000000
    15  H   -0.002859  -0.000000
    16  H    0.046597   0.000000
    17  H    0.046596  -0.000000
    18  H    0.058795   0.000000
    19  H    0.001986   0.000000
    20  H    0.032351   0.000000
 Sum of Mulliken charges =  -0.00000  -0.00000
 Mulliken charges and spin densities with hydrogens summed into heavy atoms:
               1          2
     1  C   -0.117083  -0.000000
     2  C    0.051014   0.000000
     3  C   -0.016865  -0.000000
     4  C   -0.099160  -0.000000
     5  S    0.163778   0.000000
     6  C   -0.154802   0.000000
     7  C    0.129631  -0.000000
     8  O   -0.252398   0.000000
     9  C    0.207092   0.000000
    10  C    0.023778  -0.000000
    11  C   -0.095008   0.000000
    12  S    0.160022  -0.000000
 Electronic spatial extent (au):  <R**2>=           2651.3855
 Charge=             -0.0000 electrons
 Dipole moment (field-independent basis, Debye):
    X=              1.9997    Y=              0.9728    Z=             -0.0002  Tot=              2.2237
 Quadrupole moment (field-independent basis, Debye-Ang):
   XX=            -68.5297   YY=            -74.2837   ZZ=            -88.3792
   XY=              3.2347   XZ=              0.0000   YZ=              0.0000
 Traceless Quadrupole moment (field-independent basis, Debye-Ang):
   XX=              8.5345   YY=              2.7806   ZZ=            -11.3150
   XY=              3.2347   XZ=              0.0000   YZ=              0.0000
 Octapole moment (field-independent basis, Debye-Ang**2):
  XXX=             10.4956  YYY=             21.9774  ZZZ=              0.0002  XYY=             14.8171
  XXY=              8.7647  XXZ=             -0.0013  XZZ=              5.2707  YZZ=              6.8648
  YYZ=             -0.0013  XYZ=             -0.0016
 Hexadecapole moment (field-independent basis, Debye-Ang**3):
 XXXX=          -2051.2505 YYYY=          -1100.6209 ZZZZ=           -106.0953 XXXY=            -17.9388
 XXXZ=              0.0032 YYYX=             30.9241 YYYZ=             -0.0002 ZZZX=             -0.0016
 ZZZY=             -0.0008 XXYY=           -493.2163 XXZZ=           -439.7433 YYZZ=           -225.4229
 XXYZ=              0.0014 YYXZ=              0.0003 ZZXY=              6.3367
 N-N= 8.596832221780D+02 E-N=-4.595458334856D+03  KE= 1.214158514383D+03
                          Isotropic Fermi Contact Couplings
        Atom                 a.u.       MegaHertz       Gauss      10(-4) cm-1
     1  C(13)              0.00000       0.00000       0.00000       0.00000
     2  C(13)              0.00000       0.00000       0.00000       0.00000
     3  C(13)             -0.00000      -0.00000      -0.00000      -0.00000
     4  C(13)              0.00000       0.00000       0.00000       0.00000
     5  S(33)             -0.00000      -0.00000      -0.00000      -0.00000
     6  C(13)             -0.00000      -0.00000      -0.00000      -0.00000
     7  C(13)              0.00000       0.00000       0.00000       0.00000
     8  O(17)              0.00000      -0.00000      -0.00000      -0.00000
     9  C(13)              0.00000       0.00000       0.00000       0.00000
    10  C(13)              0.00000       0.00000       0.00000       0.00000
    11  C(13)             -0.00000      -0.00000      -0.00000      -0.00000
    12  S(33)             -0.00000      -0.00000      -0.00000      -0.00000
    13  H(1)              -0.00000      -0.00000      -0.00000      -0.00000
    14  H(1)               0.00000       0.00000       0.00000       0.00000
    15  H(1)               0.00000       0.00000       0.00000       0.00000
    16  H(1)               0.00000       0.00000       0.00000       0.00000
    17  H(1)               0.00000       0.00000       0.00000       0.00000
    18  H(1)              -0.00000      -0.00000      -0.00000      -0.00000
    19  H(1)               0.00000       0.00000       0.00000       0.00000
    20  H(1)              -0.00000      -0.00000      -0.00000      -0.00000
 --------------------------------------------------------
       Center         ----  Spin Dipole Couplings  ----
                      3XX-RR        3YY-RR        3ZZ-RR
 --------------------------------------------------------
     1   Atom       -0.000000     -0.000000      0.000000
     2   Atom       -0.000000      0.000000      0.000000
     3   Atom        0.000000     -0.000000      0.000000
     4   Atom       -0.000000      0.000000     -0.000000
     5   Atom        0.000000     -0.000000     -0.000000
     6   Atom       -0.000000      0.000000      0.000000
     7   Atom        0.000000     -0.000000     -0.000000
     8   Atom        0.000000      0.000000     -0.000000
     9   Atom        0.000000     -0.000000     -0.000000
    10   Atom       -0.000000      0.000000      0.000000
    11   Atom       -0.000000      0.000000      0.000000
    12   Atom       -0.000000      0.000000      0.000000
    13   Atom        0.000000     -0.000000      0.000000
    14   Atom       -0.000000      0.000000      0.000000
    15   Atom       -0.000000     -0.000000      0.000000
    16   Atom        0.000000      0.000000     -0.000000
    17   Atom       -0.000000      0.000000     -0.000000
    18   Atom       -0.000000      0.000000     -0.000000
    19   Atom        0.000000      0.000000     -0.000000
    20   Atom        0.000000     -0.000000      0.000000
 --------------------------------------------------------
                        XY            XZ            YZ
 --------------------------------------------------------
     1   Atom       -0.000000     -0.000000     -0.000000
     2   Atom       -0.000000     -0.000000      0.000000
     3   Atom       -0.000000     -0.000000     -0.000000
     4   Atom       -0.000000      0.000000      0.000000
     5   Atom        0.000000     -0.000000      0.000000
     6   Atom        0.000000     -0.000000     -0.000000
     7   Atom        0.000000     -0.000000     -0.000000
     8   Atom        0.000000     -0.000000     -0.000000
     9   Atom        0.000000     -0.000000     -0.000000
    10   Atom       -0.000000      0.000000      0.000000
    11   Atom        0.000000      0.000000     -0.000000
    12   Atom       -0.000000      0.000000      0.000000
    13   Atom        0.000000     -0.000000      0.000000
    14   Atom       -0.000000     -0.000000      0.000000
    15   Atom        0.000000     -0.000000      0.000000
    16   Atom       -0.000000     -0.000000     -0.000000
    17   Atom       -0.000000      0.000000      0.000000
    18   Atom       -0.000000      0.000000     -0.000000
    19   Atom        0.000000     -0.000000     -0.000000
    20   Atom        0.000000     -0.000000      0.000000
 --------------------------------------------------------


 ---------------------------------------------------------------------------------
              Anisotropic Spin Dipole Couplings in Principal Axis System
 ---------------------------------------------------------------------------------

       Atom             a.u.   MegaHertz   Gauss  10(-4) cm-1        Axes

              Baa    -0.0000    -0.000    -0.000    -0.000  0.8405  0.5418  0.0036
     1 C(13)  Bbb     0.0000     0.000     0.000     0.000 -0.5417  0.8402  0.0254
              Bcc     0.0000     0.000     0.000     0.000  0.0107 -0.0234  0.9997
 
              Baa    -0.0000    -0.000    -0.000    -0.000  0.8300  0.5577  0.0064
     2 C(13)  Bbb     0.0000     0.000     0.000     0.000 -0.0007 -0.0104  0.9999
              Bcc     0.0000     0.000     0.000     0.000 -0.5577  0.8300  0.0082
 
              Baa    -0.0000    -0.000    -0.000    -0.000  0.0677  0.9977  0.0085
     3 C(13)  Bbb     0.0000     0.000     0.000     0.000  0.9970 -0.0680  0.0362
              Bcc     0.0000     0.000     0.000     0.000 -0.0367 -0.0060  0.9993
 
              Baa    -0.0000    -0.000    -0.000    -0.000  0.9943  0.0210 -0.1043
     4 C(13)  Bbb    -0.0000    -0.000    -0.000    -0.000  0.1045 -0.0091  0.9945
              Bcc     0.0000     0.000     0.000     0.000 -0.0199  0.9997  0.0112
 
              Baa    -0.0000    -0.000    -0.000    -0.000 -0.5269  0.7798 -0.3381
     5 S(33)  Bbb    -0.0000    -0.000    -0.000    -0.000 -0.2073  0.2678  0.9409
              Bcc     0.0000     0.000     0.000     0.000  0.8242  0.5659  0.0206
 
              Baa    -0.0000    -0.000    -0.000    -0.000  0.9852 -0.1712  0.0107
     6 C(13)  Bbb     0.0000     0.000     0.000     0.000  0.0003  0.0637  0.9980
              Bcc     0.0000     0.000     0.000     0.000  0.1715  0.9832 -0.0628
 
              Baa    -0.0000    -0.000    -0.000    -0.000 -0.6094  0.7929 -0.0015
     7 C(13)  Bbb    -0.0000    -0.000    -0.000    -0.000  0.0153  0.0137  0.9998
              Bcc     0.0000     0.000     0.000     0.000  0.7927  0.6093 -0.0205
 
              Baa    -0.0000     0.000     0.000     0.000  0.1182  0.1252  0.9851
     8 O(17)  Bbb     0.0000    -0.000    -0.000    -0.000 -0.0716  0.9905 -0.1173
              Bcc     0.0000    -0.000    -0.000    -0.000  0.9904  0.0567 -0.1261
 
              Baa    -0.0000    -0.000    -0.000    -0.000 -0.3230  0.9463 -0.0154
     9 C(13)  Bbb    -0.0000    -0.000    -0.000    -0.000  0.2028  0.0851  0.9755
              Bcc     0.0000     0.000     0.000     0.000  0.9244  0.3120 -0.2194
 
              Baa    -0.0000    -0.000    -0.000    -0.000  0.9123  0.4091 -0.0201
    10 C(13)  Bbb     0.0000     0.000     0.000     0.000  0.0131  0.0201  0.9997
              Bcc     0.0000     0.000     0.000     0.000 -0.4094  0.9123 -0.0130
 
              Baa    -0.0000    -0.000    -0.000    -0.000  0.9982 -0.0605 -0.0017
    11 C(13)  Bbb     0.0000     0.000     0.000     0.000  0.0605  0.9979  0.0250
              Bcc     0.0000     0.000     0.000     0.000  0.0002 -0.0251  0.9997
 
              Baa    -0.0000    -0.000    -0.000    -0.000  0.9941  0.1046 -0.0299
    12 S(33)  Bbb     0.0000     0.000     0.000     0.000 -0.1071  0.9892 -0.1000
              Bcc     0.0000     0.000     0.000     0.000  0.0191  0.1026  0.9945
 
              Baa    -0.0000    -0.000    -0.000    -0.000 -0.5842  0.8116 -0.0086
    13 H(1)   Bbb     0.0000     0.000     0.000     0.000  0.0236  0.0276  0.9993
              Bcc     0.0000     0.000     0.000     0.000  0.8113  0.5836 -0.0352
 
              Baa    -0.0000    -0.000    -0.000    -0.000  0.8386  0.5446  0.0094
    14 H(1)   Bbb     0.0000     0.000     0.000     0.000  0.1459 -0.2412  0.9594
              Bcc     0.0000     0.000     0.000     0.000 -0.5248  0.8032  0.2818
 
              Baa    -0.0000    -0.000    -0.000    -0.000 -0.4235  0.9059 -0.0081
    15 H(1)   Bbb     0.0000     0.000     0.000     0.000  0.9059  0.4235  0.0043
              Bcc     0.0000     0.000     0.000     0.000 -0.0073  0.0055  1.0000
 
              Baa    -0.0000    -0.000    -0.000    -0.000  0.5000  0.2827  0.8186
    16 H(1)   Bbb     0.0000     0.000     0.000     0.000  0.4382  0.7327 -0.5207
              Bcc     0.0000     0.000     0.000     0.000  0.7470 -0.6190 -0.2425
 
              Baa    -0.0000    -0.000    -0.000    -0.000 -0.6208 -0.1944  0.7595
    17 H(1)   Bbb     0.0000     0.000     0.000     0.000  0.6149  0.4802  0.6255
              Bcc     0.0000     0.000     0.000     0.000 -0.4864  0.8553 -0.1786
 
              Baa    -0.0000    -0.000    -0.000    -0.000  0.1043  0.2218  0.9695
    18 H(1)   Bbb    -0.0000    -0.000    -0.000    -0.000  0.8410  0.5006 -0.2051
              Bcc     0.0000     0.000     0.000     0.000 -0.5308  0.8368 -0.1343
 
              Baa    -0.0000    -0.000    -0.000    -0.000 -0.6779  0.7323  0.0649
    19 H(1)   Bbb    -0.0000    -0.000    -0.000    -0.000  0.0652 -0.0280  0.9975
              Bcc     0.0000     0.000     0.000     0.000  0.7323  0.6804 -0.0288
 
              Baa    -0.0000    -0.000    -0.000    -0.000 -0.4207  0.9071 -0.0137
    20 H(1)   Bbb     0.0000     0.000     0.000     0.000  0.0298  0.0289  0.9991
              Bcc     0.0000     0.000     0.000     0.000  0.9067  0.4199 -0.0392
 

 ---------------------------------------------------------------------------------

 No NMR shielding tensors so no spin-rotation constants.
 Leave Link  601 at Sat Jul 25 01:45:25 2020, MaxMem=  4026531840 cpu:               1.7 elap:               0.3
 (Enter /opt/ohpc/pub/libs/gaussian/g16-A.03/sandybridge/g16/l9999.exe)

 Test job not archived.
 1\1\GINC-SKYLAKE018\FOpt\ULC-wPBE\CC-pVDZ\C9H8O1S2\RDU230\25-Jul-2020\
 0\\#P uLC-wPBE/cc-pVDZ iop(3/107=0305800000, 3/108=0305800000) opt\\H8
  C9 S2 O1\\0,1\C,-3.3161952812,0.6787273018,0.347223958\C,-3.318181583
 9,-0.6876033703,0.3854913195\C,-2.0039464199,-1.2317827328,0.342666790
 3\C,-1.0197096655,-0.2712300095,0.2723815492\S,-1.7222754959,1.3183503
 39,0.2590228727\C,0.4229813106,-0.482543068,0.2146447817\C,1.433350187
 9,0.4561894551,0.1437343821\O,1.1247435087,1.7779592475,0.1203602428\C
 ,2.2023504786,2.691870944,0.0470959742\C,2.7431004831,-0.1170050487,0.
 1019534471\C,2.7007397814,-1.4821704632,0.1420589995\S,1.0966073766,-2
 .081740869,0.2297056092\H,-4.1728844427,1.3542977059,0.3661229165\H,-4
 .2272957674,-1.2908660945,0.4424699272\H,-1.7893121419,-2.3035794156,0
 .3630866185\H,2.8708590052,2.6025036942,0.9236352456\H,2.7911722674,2.
 5519854521,-0.8786091306\H,1.7532962606,3.6953173324,0.0388255338\H,3.
 6721961978,0.4520429914,0.0449737564\H,3.5431179404,-2.1747193919,0.12
 42622063\\Version=EM64L-G16RevA.03\State=1-A\HF=-1218.7936289\S2=0.\S2
 -1=0.\S2A=0.\RMSD=5.125e-09\RMSF=2.003e-06\Dipole=0.8002446,0.3507041,
 -0.0452272\Quadrupole=6.4966081,1.8732547,-8.3698629,2.2098996,-0.7201
 484,-0.3855557\PG=C01 [X(C9H8O1S2)]\\@


 MORNING PEOPLE ARE USUALLY ADMIRED AS EARLY BIRDS.
 RECALL BEN FRANKLIN'S APHORISM THAT THE EARLY BIRD GETS THE WORM.
 I IDENTIFY WITH THE WORM. --  CRAIG JAGGER, MINNEAPOLIS, KS.
 Job cpu time:       0 days  2 hours 17 minutes 48.9 seconds.
 Elapsed time:       0 days  0 hours 17 minutes 33.0 seconds.
 File lengths (MBytes):  RWF=    108 Int=      0 D2E=      0 Chk=     12 Scr=      8
 Normal termination of Gaussian 16 at Sat Jul 25 01:45:25 2020.
