 Entering Gaussian System, Link 0=g16
 Input=mols_66_7_10_c-n-cF-cF_opt_0.gjf
 Output=mols_66_7_10_c-n-cF-cF_opt_0.log
 Initial command:
 /opt/ohpc/pub/libs/gaussian/g16-A.03/sandybridge/g16/l1.exe "/mnt/gpfs2_4m/scratch/rdu230/ondemand/projects/dihedral_energies/7trial/wtuning/mols_66_7_10_c-n-cF-cF/Gau-342674.inp" -scrdir="/mnt/gpfs2_4m/scratch/rdu230/ondemand/projects/dihedral_energies/7trial/wtuning/mols_66_7_10_c-n-cF-cF/"
 Entering Link 1 = /opt/ohpc/pub/libs/gaussian/g16-A.03/sandybridge/g16/l1.exe PID=    342675.
  
 Copyright (c) 1988,1990,1992,1993,1995,1998,2003,2009,2016,
            Gaussian, Inc.  All Rights Reserved.
  
 This is part of the Gaussian(R) 16 program.  It is based on
 the Gaussian(R) 09 system (copyright 2009, Gaussian, Inc.),
 the Gaussian(R) 03 system (copyright 2003, Gaussian, Inc.),
 the Gaussian(R) 98 system (copyright 1998, Gaussian, Inc.),
 the Gaussian(R) 94 system (copyright 1995, Gaussian, Inc.),
 the Gaussian 92(TM) system (copyright 1992, Gaussian, Inc.),
 the Gaussian 90(TM) system (copyright 1990, Gaussian, Inc.),
 the Gaussian 88(TM) system (copyright 1988, Gaussian, Inc.),
 the Gaussian 86(TM) system (copyright 1986, Carnegie Mellon
 University), and the Gaussian 82(TM) system (copyright 1983,
 Carnegie Mellon University). Gaussian is a federally registered
 trademark of Gaussian, Inc.
  
 This software contains proprietary and confidential information,
 including trade secrets, belonging to Gaussian, Inc.
  
 This software is provided under written license and may be
 used, copied, transmitted, or stored only in accord with that
 written license.
  
 The following legend is applicable only to US Government
 contracts under FAR:
  
                    RESTRICTED RIGHTS LEGEND
  
 Use, reproduction and disclosure by the US Government is
 subject to restrictions as set forth in subparagraphs (a)
 and (c) of the Commercial Computer Software - Restricted
 Rights clause in FAR 52.227-19.
  
 Gaussian, Inc.
 340 Quinnipiac St., Bldg. 40, Wallingford CT 06492
  
  
 ---------------------------------------------------------------
 Warning -- This program may not be used in any manner that
 competes with the business of Gaussian, Inc. or will provide
 assistance to any competitor of Gaussian, Inc.  The licensee
 of this program is prohibited from giving any competitor of
 Gaussian, Inc. access to this program.  By using this program,
 the user acknowledges that Gaussian, Inc. is engaged in the
 business of creating and licensing software in the field of
 computational chemistry and represents and warrants to the
 licensee that it is not a competitor of Gaussian, Inc. and that
 it will not use this program in any manner prohibited above.
 ---------------------------------------------------------------
  

 Cite this work as:
 Gaussian 16, Revision A.03,
 M. J. Frisch, G. W. Trucks, H. B. Schlegel, G. E. Scuseria, 
 M. A. Robb, J. R. Cheeseman, G. Scalmani, V. Barone, 
 G. A. Petersson, H. Nakatsuji, X. Li, M. Caricato, A. V. Marenich, 
 J. Bloino, B. G. Janesko, R. Gomperts, B. Mennucci, H. P. Hratchian, 
 J. V. Ortiz, A. F. Izmaylov, J. L. Sonnenberg, D. Williams-Young, 
 F. Ding, F. Lipparini, F. Egidi, J. Goings, B. Peng, A. Petrone, 
 T. Henderson, D. Ranasinghe, V. G. Zakrzewski, J. Gao, N. Rega, 
 G. Zheng, W. Liang, M. Hada, M. Ehara, K. Toyota, R. Fukuda, 
 J. Hasegawa, M. Ishida, T. Nakajima, Y. Honda, O. Kitao, H. Nakai, 
 T. Vreven, K. Throssell, J. A. Montgomery, Jr., J. E. Peralta, 
 F. Ogliaro, M. J. Bearpark, J. J. Heyd, E. N. Brothers, K. N. Kudin, 
 V. N. Staroverov, T. A. Keith, R. Kobayashi, J. Normand, 
 K. Raghavachari, A. P. Rendell, J. C. Burant, S. S. Iyengar, 
 J. Tomasi, M. Cossi, J. M. Millam, M. Klene, C. Adamo, R. Cammi, 
 J. W. Ochterski, R. L. Martin, K. Morokuma, O. Farkas, 
 J. B. Foresman, and D. J. Fox, Gaussian, Inc., Wallingford CT, 2016.
 
 ******************************************
 Gaussian 16:  EM64L-G16RevA.03 25-Dec-2016
                24-Jul-2020 
 ******************************************
 %mem=30GB
 %nproc=8
 Will use up to    8 processors via shared memory.
 ---------------------------------------------------------------
 #P uLC-wPBE/cc-pVDZ iop(3/107=0380100000, 3/108=0380100000) opt
 ---------------------------------------------------------------
 1/18=20,19=15,26=3,38=1/1,3;
 2/9=110,12=2,17=6,18=5,40=1/2;
 3/5=16,11=2,25=1,30=1,71=1,74=-41,107=380100000,108=380100000,116=2/1,2,3;
 4//1;
 5/5=2,38=5/2;
 6/7=2,8=2,9=2,10=2,28=1/1;
 7//1,2,3,16;
 1/18=20,19=15,26=3/3(2);
 2/9=110/2;
 99//99;
 2/9=110/2;
 3/5=16,11=2,25=1,30=1,71=1,74=-41,107=380100000,108=380100000,116=2/1,2,3;
 4/5=5,16=3,69=1/1;
 5/5=2,38=5/2;
 7//1,2,3,16;
 1/18=20,19=15,26=3/3(-5);
 2/9=110/2;
 6/7=2,8=2,9=2,10=2,19=2,28=1/1;
 99/9=1/99;
 Leave Link    1 at Fri Jul 24 21:57:43 2020, MaxMem=  4026531840 cpu:               1.9 elap:               0.3
 (Enter /opt/ohpc/pub/libs/gaussian/g16-A.03/sandybridge/g16/l101.exe)
 --------------
 H37 C77 N7 F14
 --------------
 Symbolic Z-matrix:
 Charge =  0 Multiplicity = 1
 C                     29.17933  -0.03706   0.63229 
 C                     28.46553  -1.10257   1.21369 
 C                     27.00731  -1.09494   1.1649 
 F                     26.29735  -2.0224    1.70761 
 C                     26.43573  -0.04727   0.48251 
 N                     27.06921   1.02854  -0.1269 
 C                     28.48271   0.93371   0.01462 
 C                     24.92702   0.03029   0.3454 
 C                     24.11447   0.32463   1.49401 
 C                     22.74165   0.37897   1.3189 
 C                     22.07313   0.286     0.08728 
 C                     22.92165   0.12955  -0.98655 
 C                     24.34275  -0.04063  -0.86839 
 F                     25.03123  -0.23463  -1.96282 
 C                     20.60708   0.42995  -0.01976 
 C                     19.90448   1.50523   0.51831 
 C                     18.57209   1.59679   0.39022 
 F                     17.94079   2.66078   0.94263 
 C                     17.87611   0.48504  -0.19445 
 N                     18.48369  -0.52558  -0.72752 
 C                     19.86846  -0.59886  -0.61871 
 C                     16.40307   0.44909  -0.29654 
 C                     15.61682   1.61662  -0.65691 
 C                     14.21965   1.61912  -0.75164 
 C                     13.51901   0.46864  -0.37555 
 C                     14.33162  -0.68885   0.00324 
 C                     15.66878  -0.68195  -0.01012 
 F                     16.30265  -1.78085   0.50008 
 C                     12.04677   0.36241  -0.34152 
 C                     11.28533   1.32296   0.34319 
 C                     9.96327   1.28548   0.40921 
 F                     9.29571   2.20832   1.067 
 C                     9.32998   0.20431  -0.32054 
 N                     9.95359  -0.65421  -1.01865 
 C                     11.32999  -0.54852  -1.00846 
 C                     7.81783   0.04903  -0.29567 
 C                     6.9924    1.07347  -0.81757 
 C                     5.62309   0.9988   -0.83027 
 C                     4.98186  -0.12327  -0.28458 
 C                     5.86368  -1.17017   0.26127 
 C                     7.18994  -1.05834   0.28186 
 F                     7.97285  -1.99839   0.85834 
 C                     3.52831  -0.26585  -0.25443 
 C                     2.78431  -0.60974   0.87331 
 C                     1.42105  -0.7171    0.87418 
 F                     0.76728  -1.0999    1.95435 
 C                     0.75919  -0.48808  -0.39124 
 N                     1.44104  -0.15831  -1.51659 
 C                     2.72611  -0.05457  -1.39513 
 C                    -0.76372  -0.46694  -0.47976 
 C                    -1.5045   -1.63867  -0.00972 
 C                    -2.88972  -1.59824  -0.12647 
 C                    -3.58962  -0.51066  -0.63754 
 C                    -2.89044   0.60451  -1.04969 
 C                    -1.42192   0.59525  -1.00375 
 F                    -0.85749   1.70061  -1.40801 
 C                    -5.05655  -0.57359  -0.59708 
 C                    -5.78994   0.46675   0.13622 
 C                    -7.13427   0.42255   0.07598 
 F                    -7.79386   1.32627   0.78946 
 C                    -7.7832   -0.61934  -0.61975 
 N                    -7.14306  -1.59418  -1.30693 
 C                    -5.77145  -1.44703  -1.29137 
 C                    -9.28584  -0.67655  -0.55507 
 C                    -10.0405  -0.35963  -1.66345 
 C                    -11.43281  -0.38718  -1.65375 
 C                    -12.17395  -0.75925  -0.44494 
 C                    -11.35778  -1.19132   0.6532 
 C                    -9.99393  -1.10553   0.576 
 F                    -9.23233  -1.48217   1.63107 
 C                    -13.58787  -0.68807  -0.33983 
 C                    -14.14732   0.15163   0.74361 
 C                    -15.58793   0.24113   0.78841 
 F                    -16.05062   1.03171   1.73608 
 C                    -16.37383  -0.39228  -0.16955 
 N                    -15.79284  -1.20234  -1.11467 
 C                    -14.50036  -1.34045  -1.1808 
 C                    -17.871   -0.28106  -0.08454 
 C                    -18.61383  -1.47216  -0.27665 
 C                    -20.04763  -1.3866   -0.18773 
 C                    -20.70463  -0.15134   0.01639 
 C                    -19.91089   1.00647   0.15467 
 C                    -18.46536   0.89656   0.06578 
 F                    -17.80517   2.09074   0.24419 
 C                    -22.15618   0.03021   0.12933 
 C                    -22.76516   0.46711   1.24574 
 C                    -24.18123   0.54537   1.31963 
 F                    -24.76097   1.01352   2.50131 
 C                    -24.92106   0.19829   0.19633 
 N                    -24.30677  -0.29509  -0.85675 
 C                    -22.96609  -0.38331  -0.97215 
 C                    -26.39309   0.21977   0.21384 
 C                    -27.1354  -0.7881    0.87773 
 C                    -28.54367  -0.64773   0.90666 
 C                    -29.1357   0.33115   0.2756 
 C                    -28.38995   1.34587  -0.3985 
 C                    -27.01448   1.24418  -0.38104 
 F                    -26.33311   2.23211  -0.99583 
 H                     30.2702  -0.04655   0.6831 
 H                     28.94395  -1.88233   1.69684 
 H                     28.99648   1.7517   -0.53925 
 H                     24.61707   0.3431    2.42529 
 H                     22.13907   0.52746   2.30387 
 H                     22.44403  -0.01445  -1.99039 
 H                     20.48797   2.28987   0.99426 
 H                     20.36165  -1.40957  -1.10292 
 H                     16.17093   2.54378  -0.91853 
 H                     13.71885   2.43576  -1.03415 
 H                     13.82639  -1.66768   0.27175 
 H                     11.80062   2.15457   0.94117 
 H                     11.8683  -1.3326   -1.62941 
 H                     7.42703   1.95648  -1.2699 
 H                     5.04623   1.75007  -1.24367 
 H                     5.34584  -2.067     0.71232 
 H                     3.34822  -0.8711    1.77758 
 H                     3.23207   0.16394  -2.41277 
 H                    -0.90518  -2.46686   0.39049 
 H                    -3.38003  -2.55581   0.25648 
 H                    -3.38613   1.49386  -1.43212 
 H                    -5.22863   1.21161   0.65161 
 H                    -5.28262  -2.31048  -1.88541 
 H                    -9.62627  -0.10167  -2.61188 
 H                    -11.99018  -0.09414  -2.51603 
 H                    -11.8119  -1.45256   1.55404 
 H                    -13.49555   0.67465   1.41374 
 H                    -14.10345  -1.91431  -1.92654 
 H                    -18.14096  -2.42353  -0.47326 
 H                    -20.60937  -2.26694  -0.28893 
 H                    -20.25879   1.99256   0.33967 
 H                    -22.13923   0.77104   2.17389 
 H                    -22.52801  -0.73208  -1.89169 
 H                    -26.62578  -1.53159   1.37028 
 H                    -29.04538  -1.44452   1.44188 
 H                    -30.21359   0.40102   0.2625 
 H                    -28.9266   2.15759  -0.95923 
 
 ITRead=  0  0  0  0  0  0  0  0  0  0  0  0  0  0  0  0  0  0  0  0
 ITRead=  0  0  0  0  0  0  0  0  0  0  0  0  0  0  0  0  0  0  0  0
 ITRead=  0  0  0  0  0  0  0  0  0  0  0  0  0  0  0  0  0  0  0  0
 ITRead=  0  0  0  0  0  0  0  0  0  0  0  0  0  0  0  0  0  0  0  0
 ITRead=  0  0  0  0  0  0  0  0  0  0  0  0  0  0  0  0  0  0  0  0
 ITRead=  0  0  0  0  0  0  0  0  0  0  0  0  0  0  0  0  0  0  0  0
 ITRead=  0  0  0  0  0  0  0  0  0  0  0  0  0  0  0
 MicOpt= -1 -1 -1 -1 -1 -1 -1 -1 -1 -1 -1 -1 -1 -1 -1 -1 -1 -1 -1 -1
 MicOpt= -1 -1 -1 -1 -1 -1 -1 -1 -1 -1 -1 -1 -1 -1 -1 -1 -1 -1 -1 -1
 MicOpt= -1 -1 -1 -1 -1 -1 -1 -1 -1 -1 -1 -1 -1 -1 -1 -1 -1 -1 -1 -1
 MicOpt= -1 -1 -1 -1 -1 -1 -1 -1 -1 -1 -1 -1 -1 -1 -1 -1 -1 -1 -1 -1
 MicOpt= -1 -1 -1 -1 -1 -1 -1 -1 -1 -1 -1 -1 -1 -1 -1 -1 -1 -1 -1 -1
 MicOpt= -1 -1 -1 -1 -1 -1 -1 -1 -1 -1 -1 -1 -1 -1 -1 -1 -1 -1 -1 -1
 MicOpt= -1 -1 -1 -1 -1 -1 -1 -1 -1 -1 -1 -1 -1 -1 -1
 NAtoms=    135 NQM=      135 NQMF=       0 NMMI=      0 NMMIF=      0
                NMic=       0 NMicF=      0.
                    Isotopes and Nuclear Properties:
 (Nuclear quadrupole moments (NQMom) in fm**2, nuclear magnetic moments (NMagM)
  in nuclear magnetons)

  Atom         1           2           3           4           5           6           7           8           9          10
 IAtWgt=          12          12          12          19          12          14          12          12          12          12
 AtmWgt=  12.0000000  12.0000000  12.0000000  18.9984033  12.0000000  14.0030740  12.0000000  12.0000000  12.0000000  12.0000000
 NucSpn=           0           0           0           1           0           2           0           0           0           0
 AtZEff=  -0.0000000  -0.0000000  -0.0000000  -0.0000000  -0.0000000  -0.0000000  -0.0000000  -0.0000000  -0.0000000  -0.0000000
 NQMom=    0.0000000   0.0000000   0.0000000   0.0000000   0.0000000   2.0440000   0.0000000   0.0000000   0.0000000   0.0000000
 NMagM=    0.0000000   0.0000000   0.0000000   2.6288670   0.0000000   0.4037610   0.0000000   0.0000000   0.0000000   0.0000000
 AtZNuc=   6.0000000   6.0000000   6.0000000   9.0000000   6.0000000   7.0000000   6.0000000   6.0000000   6.0000000   6.0000000

  Atom        11          12          13          14          15          16          17          18          19          20
 IAtWgt=          12          12          12          19          12          12          12          19          12          14
 AtmWgt=  12.0000000  12.0000000  12.0000000  18.9984033  12.0000000  12.0000000  12.0000000  18.9984033  12.0000000  14.0030740
 NucSpn=           0           0           0           1           0           0           0           1           0           2
 AtZEff=  -0.0000000  -0.0000000  -0.0000000  -0.0000000  -0.0000000  -0.0000000  -0.0000000  -0.0000000  -0.0000000  -0.0000000
 NQMom=    0.0000000   0.0000000   0.0000000   0.0000000   0.0000000   0.0000000   0.0000000   0.0000000   0.0000000   2.0440000
 NMagM=    0.0000000   0.0000000   0.0000000   2.6288670   0.0000000   0.0000000   0.0000000   2.6288670   0.0000000   0.4037610
 AtZNuc=   6.0000000   6.0000000   6.0000000   9.0000000   6.0000000   6.0000000   6.0000000   9.0000000   6.0000000   7.0000000

  Atom        21          22          23          24          25          26          27          28          29          30
 IAtWgt=          12          12          12          12          12          12          12          19          12          12
 AtmWgt=  12.0000000  12.0000000  12.0000000  12.0000000  12.0000000  12.0000000  12.0000000  18.9984033  12.0000000  12.0000000
 NucSpn=           0           0           0           0           0           0           0           1           0           0
 AtZEff=  -0.0000000  -0.0000000  -0.0000000  -0.0000000  -0.0000000  -0.0000000  -0.0000000  -0.0000000  -0.0000000  -0.0000000
 NQMom=    0.0000000   0.0000000   0.0000000   0.0000000   0.0000000   0.0000000   0.0000000   0.0000000   0.0000000   0.0000000
 NMagM=    0.0000000   0.0000000   0.0000000   0.0000000   0.0000000   0.0000000   0.0000000   2.6288670   0.0000000   0.0000000
 AtZNuc=   6.0000000   6.0000000   6.0000000   6.0000000   6.0000000   6.0000000   6.0000000   9.0000000   6.0000000   6.0000000

  Atom        31          32          33          34          35          36          37          38          39          40
 IAtWgt=          12          19          12          14          12          12          12          12          12          12
 AtmWgt=  12.0000000  18.9984033  12.0000000  14.0030740  12.0000000  12.0000000  12.0000000  12.0000000  12.0000000  12.0000000
 NucSpn=           0           1           0           2           0           0           0           0           0           0
 AtZEff=  -0.0000000  -0.0000000  -0.0000000  -0.0000000  -0.0000000  -0.0000000  -0.0000000  -0.0000000  -0.0000000  -0.0000000
 NQMom=    0.0000000   0.0000000   0.0000000   2.0440000   0.0000000   0.0000000   0.0000000   0.0000000   0.0000000   0.0000000
 NMagM=    0.0000000   2.6288670   0.0000000   0.4037610   0.0000000   0.0000000   0.0000000   0.0000000   0.0000000   0.0000000
 AtZNuc=   6.0000000   9.0000000   6.0000000   7.0000000   6.0000000   6.0000000   6.0000000   6.0000000   6.0000000   6.0000000

  Atom        41          42          43          44          45          46          47          48          49          50
 IAtWgt=          12          19          12          12          12          19          12          14          12          12
 AtmWgt=  12.0000000  18.9984033  12.0000000  12.0000000  12.0000000  18.9984033  12.0000000  14.0030740  12.0000000  12.0000000
 NucSpn=           0           1           0           0           0           1           0           2           0           0
 AtZEff=  -0.0000000  -0.0000000  -0.0000000  -0.0000000  -0.0000000  -0.0000000  -0.0000000  -0.0000000  -0.0000000  -0.0000000
 NQMom=    0.0000000   0.0000000   0.0000000   0.0000000   0.0000000   0.0000000   0.0000000   2.0440000   0.0000000   0.0000000
 NMagM=    0.0000000   2.6288670   0.0000000   0.0000000   0.0000000   2.6288670   0.0000000   0.4037610   0.0000000   0.0000000
 AtZNuc=   6.0000000   9.0000000   6.0000000   6.0000000   6.0000000   9.0000000   6.0000000   7.0000000   6.0000000   6.0000000

  Atom        51          52          53          54          55          56          57          58          59          60
 IAtWgt=          12          12          12          12          12          19          12          12          12          19
 AtmWgt=  12.0000000  12.0000000  12.0000000  12.0000000  12.0000000  18.9984033  12.0000000  12.0000000  12.0000000  18.9984033
 NucSpn=           0           0           0           0           0           1           0           0           0           1
 AtZEff=  -0.0000000  -0.0000000  -0.0000000  -0.0000000  -0.0000000  -0.0000000  -0.0000000  -0.0000000  -0.0000000  -0.0000000
 NQMom=    0.0000000   0.0000000   0.0000000   0.0000000   0.0000000   0.0000000   0.0000000   0.0000000   0.0000000   0.0000000
 NMagM=    0.0000000   0.0000000   0.0000000   0.0000000   0.0000000   2.6288670   0.0000000   0.0000000   0.0000000   2.6288670
 AtZNuc=   6.0000000   6.0000000   6.0000000   6.0000000   6.0000000   9.0000000   6.0000000   6.0000000   6.0000000   9.0000000

  Atom        61          62          63          64          65          66          67          68          69          70
 IAtWgt=          12          14          12          12          12          12          12          12          12          19
 AtmWgt=  12.0000000  14.0030740  12.0000000  12.0000000  12.0000000  12.0000000  12.0000000  12.0000000  12.0000000  18.9984033
 NucSpn=           0           2           0           0           0           0           0           0           0           1
 AtZEff=  -0.0000000  -0.0000000  -0.0000000  -0.0000000  -0.0000000  -0.0000000  -0.0000000  -0.0000000  -0.0000000  -0.0000000
 NQMom=    0.0000000   2.0440000   0.0000000   0.0000000   0.0000000   0.0000000   0.0000000   0.0000000   0.0000000   0.0000000
 NMagM=    0.0000000   0.4037610   0.0000000   0.0000000   0.0000000   0.0000000   0.0000000   0.0000000   0.0000000   2.6288670
 AtZNuc=   6.0000000   7.0000000   6.0000000   6.0000000   6.0000000   6.0000000   6.0000000   6.0000000   6.0000000   9.0000000

  Atom        71          72          73          74          75          76          77          78          79          80
 IAtWgt=          12          12          12          19          12          14          12          12          12          12
 AtmWgt=  12.0000000  12.0000000  12.0000000  18.9984033  12.0000000  14.0030740  12.0000000  12.0000000  12.0000000  12.0000000
 NucSpn=           0           0           0           1           0           2           0           0           0           0
 AtZEff=  -0.0000000  -0.0000000  -0.0000000  -0.0000000  -0.0000000  -0.0000000  -0.0000000  -0.0000000  -0.0000000  -0.0000000
 NQMom=    0.0000000   0.0000000   0.0000000   0.0000000   0.0000000   2.0440000   0.0000000   0.0000000   0.0000000   0.0000000
 NMagM=    0.0000000   0.0000000   0.0000000   2.6288670   0.0000000   0.4037610   0.0000000   0.0000000   0.0000000   0.0000000
 AtZNuc=   6.0000000   6.0000000   6.0000000   9.0000000   6.0000000   7.0000000   6.0000000   6.0000000   6.0000000   6.0000000

  Atom        81          82          83          84          85          86          87          88          89          90
 IAtWgt=          12          12          12          19          12          12          12          19          12          14
 AtmWgt=  12.0000000  12.0000000  12.0000000  18.9984033  12.0000000  12.0000000  12.0000000  18.9984033  12.0000000  14.0030740
 NucSpn=           0           0           0           1           0           0           0           1           0           2
 AtZEff=  -0.0000000  -0.0000000  -0.0000000  -0.0000000  -0.0000000  -0.0000000  -0.0000000  -0.0000000  -0.0000000  -0.0000000
 NQMom=    0.0000000   0.0000000   0.0000000   0.0000000   0.0000000   0.0000000   0.0000000   0.0000000   0.0000000   2.0440000
 NMagM=    0.0000000   0.0000000   0.0000000   2.6288670   0.0000000   0.0000000   0.0000000   2.6288670   0.0000000   0.4037610
 AtZNuc=   6.0000000   6.0000000   6.0000000   9.0000000   6.0000000   6.0000000   6.0000000   9.0000000   6.0000000   7.0000000

  Atom        91          92          93          94          95          96          97          98          99         100
 IAtWgt=          12          12          12          12          12          12          12          19           1           1
 AtmWgt=  12.0000000  12.0000000  12.0000000  12.0000000  12.0000000  12.0000000  12.0000000  18.9984033   1.0078250   1.0078250
 NucSpn=           0           0           0           0           0           0           0           1           1           1
 AtZEff=  -0.0000000  -0.0000000  -0.0000000  -0.0000000  -0.0000000  -0.0000000  -0.0000000  -0.0000000  -0.0000000  -0.0000000
 NQMom=    0.0000000   0.0000000   0.0000000   0.0000000   0.0000000   0.0000000   0.0000000   0.0000000   0.0000000   0.0000000
 NMagM=    0.0000000   0.0000000   0.0000000   0.0000000   0.0000000   0.0000000   0.0000000   2.6288670   2.7928460   2.7928460
 AtZNuc=   6.0000000   6.0000000   6.0000000   6.0000000   6.0000000   6.0000000   6.0000000   9.0000000   1.0000000   1.0000000

  Atom       101         102         103         104         105         106         107         108         109         110
 IAtWgt=           1           1           1           1           1           1           1           1           1           1
 AtmWgt=   1.0078250   1.0078250   1.0078250   1.0078250   1.0078250   1.0078250   1.0078250   1.0078250   1.0078250   1.0078250
 NucSpn=           1           1           1           1           1           1           1           1           1           1
 AtZEff=  -0.0000000  -0.0000000  -0.0000000  -0.0000000  -0.0000000  -0.0000000  -0.0000000  -0.0000000  -0.0000000  -0.0000000
 NQMom=    0.0000000   0.0000000   0.0000000   0.0000000   0.0000000   0.0000000   0.0000000   0.0000000   0.0000000   0.0000000
 NMagM=    2.7928460   2.7928460   2.7928460   2.7928460   2.7928460   2.7928460   2.7928460   2.7928460   2.7928460   2.7928460
 AtZNuc=   1.0000000   1.0000000   1.0000000   1.0000000   1.0000000   1.0000000   1.0000000   1.0000000   1.0000000   1.0000000

  Atom       111         112         113         114         115         116         117         118         119         120
 IAtWgt=           1           1           1           1           1           1           1           1           1           1
 AtmWgt=   1.0078250   1.0078250   1.0078250   1.0078250   1.0078250   1.0078250   1.0078250   1.0078250   1.0078250   1.0078250
 NucSpn=           1           1           1           1           1           1           1           1           1           1
 AtZEff=  -0.0000000  -0.0000000  -0.0000000  -0.0000000  -0.0000000  -0.0000000  -0.0000000  -0.0000000  -0.0000000  -0.0000000
 NQMom=    0.0000000   0.0000000   0.0000000   0.0000000   0.0000000   0.0000000   0.0000000   0.0000000   0.0000000   0.0000000
 NMagM=    2.7928460   2.7928460   2.7928460   2.7928460   2.7928460   2.7928460   2.7928460   2.7928460   2.7928460   2.7928460
 AtZNuc=   1.0000000   1.0000000   1.0000000   1.0000000   1.0000000   1.0000000   1.0000000   1.0000000   1.0000000   1.0000000

  Atom       121         122         123         124         125         126         127         128         129         130
 IAtWgt=           1           1           1           1           1           1           1           1           1           1
 AtmWgt=   1.0078250   1.0078250   1.0078250   1.0078250   1.0078250   1.0078250   1.0078250   1.0078250   1.0078250   1.0078250
 NucSpn=           1           1           1           1           1           1           1           1           1           1
 AtZEff=  -0.0000000  -0.0000000  -0.0000000  -0.0000000  -0.0000000  -0.0000000  -0.0000000  -0.0000000  -0.0000000  -0.0000000
 NQMom=    0.0000000   0.0000000   0.0000000   0.0000000   0.0000000   0.0000000   0.0000000   0.0000000   0.0000000   0.0000000
 NMagM=    2.7928460   2.7928460   2.7928460   2.7928460   2.7928460   2.7928460   2.7928460   2.7928460   2.7928460   2.7928460
 AtZNuc=   1.0000000   1.0000000   1.0000000   1.0000000   1.0000000   1.0000000   1.0000000   1.0000000   1.0000000   1.0000000

  Atom       131         132         133         134         135
 IAtWgt=           1           1           1           1           1
 AtmWgt=   1.0078250   1.0078250   1.0078250   1.0078250   1.0078250
 NucSpn=           1           1           1           1           1
 AtZEff=  -0.0000000  -0.0000000  -0.0000000  -0.0000000  -0.0000000
 NQMom=    0.0000000   0.0000000   0.0000000   0.0000000   0.0000000
 NMagM=    2.7928460   2.7928460   2.7928460   2.7928460   2.7928460
 AtZNuc=   1.0000000   1.0000000   1.0000000   1.0000000   1.0000000
 Leave Link  101 at Fri Jul 24 21:57:43 2020, MaxMem=  4026531840 cpu:               3.2 elap:               0.4
 (Enter /opt/ohpc/pub/libs/gaussian/g16-A.03/sandybridge/g16/l103.exe)

 GradGradGradGradGradGradGradGradGradGradGradGradGradGradGradGradGradGrad
 Berny optimization.
 Initialization pass.
                           ----------------------------
                           !    Initial Parameters    !
                           ! (Angstroms and Degrees)  !
 --------------------------                            --------------------------
 ! Name  Definition              Value          Derivative Info.                !
 --------------------------------------------------------------------------------
 ! R1    R(1,2)                  1.4081         estimate D2E/DX2                !
 ! R2    R(1,7)                  1.3451         estimate D2E/DX2                !
 ! R3    R(1,99)                 1.0921         estimate D2E/DX2                !
 ! R4    R(2,3)                  1.4591         estimate D2E/DX2                !
 ! R5    R(2,100)                1.0346         estimate D2E/DX2                !
 ! R6    R(3,4)                  1.2879         estimate D2E/DX2                !
 ! R7    R(3,5)                  1.3748         estimate D2E/DX2                !
 ! R8    R(5,6)                  1.3893         estimate D2E/DX2                !
 ! R9    R(5,8)                  1.5169         estimate D2E/DX2                !
 ! R10   R(6,7)                  1.4237         estimate D2E/DX2                !
 ! R11   R(7,101)                1.1135         estimate D2E/DX2                !
 ! R12   R(8,9)                  1.4374         estimate D2E/DX2                !
 ! R13   R(8,13)                 1.349          estimate D2E/DX2                !
 ! R14   R(9,10)                 1.385          estimate D2E/DX2                !
 ! R15   R(9,102)                1.0584         estimate D2E/DX2                !
 ! R16   R(10,11)                1.4044         estimate D2E/DX2                !
 ! R17   R(10,103)               1.1642         estimate D2E/DX2                !
 ! R18   R(11,12)                1.3775         estimate D2E/DX2                !
 ! R19   R(11,15)                1.477          estimate D2E/DX2                !
 ! R20   R(12,13)                1.4361         estimate D2E/DX2                !
 ! R21   R(12,104)               1.121          estimate D2E/DX2                !
 ! R22   R(13,14)                1.3074         estimate D2E/DX2                !
 ! R23   R(15,16)                1.3926         estimate D2E/DX2                !
 ! R24   R(15,21)                1.401          estimate D2E/DX2                !
 ! R25   R(16,17)                1.3417         estimate D2E/DX2                !
 ! R26   R(16,105)               1.0875         estimate D2E/DX2                !
 ! R27   R(17,18)                1.3549         estimate D2E/DX2                !
 ! R28   R(17,19)                1.436          estimate D2E/DX2                !
 ! R29   R(19,20)                1.2941         estimate D2E/DX2                !
 ! R30   R(19,22)                1.477          estimate D2E/DX2                !
 ! R31   R(20,21)                1.391          estimate D2E/DX2                !
 ! R32   R(21,106)               1.0653         estimate D2E/DX2                !
 ! R33   R(22,23)                1.453          estimate D2E/DX2                !
 ! R34   R(22,27)                1.3786         estimate D2E/DX2                !
 ! R35   R(23,24)                1.4004         estimate D2E/DX2                !
 ! R36   R(23,107)               1.1113         estimate D2E/DX2                !
 ! R37   R(24,25)                1.3986         estimate D2E/DX2                !
 ! R38   R(24,108)               0.9988         estimate D2E/DX2                !
 ! R39   R(25,26)                1.4641         estimate D2E/DX2                !
 ! R40   R(25,29)                1.4765         estimate D2E/DX2                !
 ! R41   R(26,27)                1.3372         estimate D2E/DX2                !
 ! R42   R(26,109)               1.1338         estimate D2E/DX2                !
 ! R43   R(27,28)                1.3674         estimate D2E/DX2                !
 ! R44   R(29,30)                1.404          estimate D2E/DX2                !
 ! R45   R(29,35)                1.3373         estimate D2E/DX2                !
 ! R46   R(30,31)                1.3242         estimate D2E/DX2                !
 ! R47   R(30,110)               1.1466         estimate D2E/DX2                !
 ! R48   R(31,32)                1.3153         estimate D2E/DX2                !
 ! R49   R(31,33)                1.45           estimate D2E/DX2                !
 ! R50   R(33,34)                1.2702         estimate D2E/DX2                !
 ! R51   R(33,36)                1.5203         estimate D2E/DX2                !
 ! R52   R(34,35)                1.3805         estimate D2E/DX2                !
 ! R53   R(35,111)               1.1358         estimate D2E/DX2                !
 ! R54   R(36,37)                1.4153         estimate D2E/DX2                !
 ! R55   R(36,41)                1.3979         estimate D2E/DX2                !
 ! R56   R(37,38)                1.3714         estimate D2E/DX2                !
 ! R57   R(37,112)               1.0831         estimate D2E/DX2                !
 ! R58   R(38,39)                1.4029         estimate D2E/DX2                !
 ! R59   R(38,113)               1.0335         estimate D2E/DX2                !
 ! R60   R(39,40)                1.4736         estimate D2E/DX2                !
 ! R61   R(39,43)                1.4608         estimate D2E/DX2                !
 ! R62   R(40,41)                1.3311         estimate D2E/DX2                !
 ! R63   R(40,114)               1.1296         estimate D2E/DX2                !
 ! R64   R(41,42)                1.3524         estimate D2E/DX2                !
 ! R65   R(43,44)                1.3941         estimate D2E/DX2                !
 ! R66   R(43,49)                1.4104         estimate D2E/DX2                !
 ! R67   R(44,45)                1.3675         estimate D2E/DX2                !
 ! R68   R(44,115)               1.0973         estimate D2E/DX2                !
 ! R69   R(45,46)                1.3194         estimate D2E/DX2                !
 ! R70   R(45,47)                1.4463         estimate D2E/DX2                !
 ! R71   R(47,48)                1.3565         estimate D2E/DX2                !
 ! R72   R(47,50)                1.5256         estimate D2E/DX2                !
 ! R73   R(48,49)                1.295          estimate D2E/DX2                !
 ! R74   R(49,116)               1.1573         estimate D2E/DX2                !
 ! R75   R(50,51)                1.4638         estimate D2E/DX2                !
 ! R76   R(50,55)                1.355          estimate D2E/DX2                !
 ! R77   R(51,52)                1.3907         estimate D2E/DX2                !
 ! R78   R(51,117)               1.0978         estimate D2E/DX2                !
 ! R79   R(52,53)                1.3906         estimate D2E/DX2                !
 ! R80   R(52,118)               1.1419         estimate D2E/DX2                !
 ! R81   R(53,54)                1.3792         estimate D2E/DX2                !
 ! R82   R(53,57)                1.4688         estimate D2E/DX2                !
 ! R83   R(54,55)                1.4693         estimate D2E/DX2                !
 ! R84   R(54,119)               1.0876         estimate D2E/DX2                !
 ! R85   R(55,56)                1.3053         estimate D2E/DX2                !
 ! R86   R(57,58)                1.469          estimate D2E/DX2                !
 ! R87   R(57,63)                1.3251         estimate D2E/DX2                !
 ! R88   R(58,59)                1.3464         estimate D2E/DX2                !
 ! R89   R(58,120)               1.0656         estimate D2E/DX2                !
 ! R90   R(59,60)                1.327          estimate D2E/DX2                !
 ! R91   R(59,61)                1.4109         estimate D2E/DX2                !
 ! R92   R(61,62)                1.3536         estimate D2E/DX2                !
 ! R93   R(61,64)                1.5051         estimate D2E/DX2                !
 ! R94   R(62,63)                1.3796         estimate D2E/DX2                !
 ! R95   R(63,121)               1.1565         estimate D2E/DX2                !
 ! R96   R(64,65)                1.3779         estimate D2E/DX2                !
 ! R97   R(64,69)                1.4017         estimate D2E/DX2                !
 ! R98   R(65,66)                1.3926         estimate D2E/DX2                !
 ! R99   R(65,122)               1.0666         estimate D2E/DX2                !
 ! R100  R(66,67)                1.4659         estimate D2E/DX2                !
 ! R101  R(66,123)               1.0677         estimate D2E/DX2                !
 ! R102  R(67,68)                1.4348         estimate D2E/DX2                !
 ! R103  R(67,71)                1.4196         estimate D2E/DX2                !
 ! R104  R(68,69)                1.3687         estimate D2E/DX2                !
 ! R105  R(68,124)               1.0421         estimate D2E/DX2                !
 ! R106  R(69,70)                1.3547         estimate D2E/DX2                !
 ! R107  R(71,72)                1.4805         estimate D2E/DX2                !
 ! R108  R(71,77)                1.402          estimate D2E/DX2                !
 ! R109  R(72,73)                1.4441         estimate D2E/DX2                !
 ! R110  R(72,125)               1.0712         estimate D2E/DX2                !
 ! R111  R(73,74)                1.318          estimate D2E/DX2                !
 ! R112  R(73,75)                1.3916         estimate D2E/DX2                !
 ! R113  R(75,76)                1.3737         estimate D2E/DX2                !
 ! R114  R(75,78)                1.5037         estimate D2E/DX2                !
 ! R115  R(76,77)                1.3015         estimate D2E/DX2                !
 ! R116  R(77,126)               1.0213         estimate D2E/DX2                !
 ! R117  R(78,79)                1.4168         estimate D2E/DX2                !
 ! R118  R(78,83)                1.3276         estimate D2E/DX2                !
 ! R119  R(79,80)                1.4391         estimate D2E/DX2                !
 ! R120  R(79,127)               1.0804         estimate D2E/DX2                !
 ! R121  R(80,81)                1.4139         estimate D2E/DX2                !
 ! R122  R(80,128)               1.0492         estimate D2E/DX2                !
 ! R123  R(81,82)                1.4106         estimate D2E/DX2                !
 ! R124  R(81,85)                1.4672         estimate D2E/DX2                !
 ! R125  R(82,83)                1.4524         estimate D2E/DX2                !
 ! R126  R(82,129)               1.0619         estimate D2E/DX2                !
 ! R127  R(83,84)                1.3761         estimate D2E/DX2                !
 ! R128  R(85,86)                1.3447         estimate D2E/DX2                !
 ! R129  R(85,91)                1.4284         estimate D2E/DX2                !
 ! R130  R(86,87)                1.4202         estimate D2E/DX2                !
 ! R131  R(86,130)               1.16           estimate D2E/DX2                !
 ! R132  R(87,88)                1.397          estimate D2E/DX2                !
 ! R133  R(87,89)                1.3891         estimate D2E/DX2                !
 ! R134  R(89,90)                1.3152         estimate D2E/DX2                !
 ! R135  R(89,92)                1.4723         estimate D2E/DX2                !
 ! R136  R(90,91)                1.3485         estimate D2E/DX2                !
 ! R137  R(91,131)               1.0766         estimate D2E/DX2                !
 ! R138  R(92,93)                1.4169         estimate D2E/DX2                !
 ! R139  R(92,97)                1.3377         estimate D2E/DX2                !
 ! R140  R(93,94)                1.4155         estimate D2E/DX2                !
 ! R141  R(93,132)               1.0272         estimate D2E/DX2                !
 ! R142  R(94,95)                1.3065         estimate D2E/DX2                !
 ! R143  R(94,133)               1.0831         estimate D2E/DX2                !
 ! R144  R(95,96)                1.4284         estimate D2E/DX2                !
 ! R145  R(95,134)               1.0802         estimate D2E/DX2                !
 ! R146  R(96,97)                1.3793         estimate D2E/DX2                !
 ! R147  R(96,135)               1.1231         estimate D2E/DX2                !
 ! R148  R(97,98)                1.3484         estimate D2E/DX2                !
 ! A1    A(2,1,7)              118.2415         estimate D2E/DX2                !
 ! A2    A(2,1,99)             118.7218         estimate D2E/DX2                !
 ! A3    A(7,1,99)             123.0223         estimate D2E/DX2                !
 ! A4    A(1,2,3)              119.2658         estimate D2E/DX2                !
 ! A5    A(1,2,100)            121.9187         estimate D2E/DX2                !
 ! A6    A(3,2,100)            118.798          estimate D2E/DX2                !
 ! A7    A(2,3,4)              122.2134         estimate D2E/DX2                !
 ! A8    A(2,3,5)              115.856          estimate D2E/DX2                !
 ! A9    A(4,3,5)              121.9212         estimate D2E/DX2                !
 ! A10   A(3,5,6)              128.1908         estimate D2E/DX2                !
 ! A11   A(3,5,8)              119.8247         estimate D2E/DX2                !
 ! A12   A(6,5,8)              111.9798         estimate D2E/DX2                !
 ! A13   A(5,6,7)              110.9484         estimate D2E/DX2                !
 ! A14   A(1,7,6)              127.4381         estimate D2E/DX2                !
 ! A15   A(1,7,101)            121.3094         estimate D2E/DX2                !
 ! A16   A(6,7,101)            111.0829         estimate D2E/DX2                !
 ! A17   A(5,8,9)              120.0313         estimate D2E/DX2                !
 ! A18   A(5,8,13)             120.6254         estimate D2E/DX2                !
 ! A19   A(9,8,13)             119.0083         estimate D2E/DX2                !
 ! A20   A(8,9,10)             117.8604         estimate D2E/DX2                !
 ! A21   A(8,9,102)            115.9915         estimate D2E/DX2                !
 ! A22   A(10,9,102)           125.5379         estimate D2E/DX2                !
 ! A23   A(9,10,11)            125.4567         estimate D2E/DX2                !
 ! A24   A(9,10,103)           114.2733         estimate D2E/DX2                !
 ! A25   A(11,10,103)          120.2658         estimate D2E/DX2                !
 ! A26   A(10,11,12)           113.4485         estimate D2E/DX2                !
 ! A27   A(10,11,15)           121.9771         estimate D2E/DX2                !
 ! A28   A(12,11,15)           124.4711         estimate D2E/DX2                !
 ! A29   A(11,12,13)           123.9764         estimate D2E/DX2                !
 ! A30   A(11,12,104)          116.7583         estimate D2E/DX2                !
 ! A31   A(13,12,104)          118.6905         estimate D2E/DX2                !
 ! A32   A(8,13,12)            119.7619         estimate D2E/DX2                !
 ! A33   A(8,13,14)            122.2033         estimate D2E/DX2                !
 ! A34   A(12,13,14)           118.0204         estimate D2E/DX2                !
 ! A35   A(11,15,16)           123.2322         estimate D2E/DX2                !
 ! A36   A(11,15,21)           118.8633         estimate D2E/DX2                !
 ! A37   A(16,15,21)           117.7884         estimate D2E/DX2                !
 ! A38   A(15,16,17)           121.1202         estimate D2E/DX2                !
 ! A39   A(15,16,105)          117.0971         estimate D2E/DX2                !
 ! A40   A(17,16,105)          121.694          estimate D2E/DX2                !
 ! A41   A(16,17,18)           118.515          estimate D2E/DX2                !
 ! A42   A(16,17,19)           117.8617         estimate D2E/DX2                !
 ! A43   A(18,17,19)           123.2384         estimate D2E/DX2                !
 ! A44   A(17,19,20)           123.008          estimate D2E/DX2                !
 ! A45   A(17,19,22)           122.0278         estimate D2E/DX2                !
 ! A46   A(20,19,22)           114.883          estimate D2E/DX2                !
 ! A47   A(19,20,21)           118.4462         estimate D2E/DX2                !
 ! A48   A(15,21,20)           121.3067         estimate D2E/DX2                !
 ! A49   A(15,21,106)          120.6025         estimate D2E/DX2                !
 ! A50   A(20,21,106)          117.7369         estimate D2E/DX2                !
 ! A51   A(19,22,23)           122.4973         estimate D2E/DX2                !
 ! A52   A(19,22,27)           122.4671         estimate D2E/DX2                !
 ! A53   A(23,22,27)           114.9962         estimate D2E/DX2                !
 ! A54   A(22,23,24)           123.9242         estimate D2E/DX2                !
 ! A55   A(22,23,107)          117.3188         estimate D2E/DX2                !
 ! A56   A(24,23,107)          118.6879         estimate D2E/DX2                !
 ! A57   A(23,24,25)           118.6964         estimate D2E/DX2                !
 ! A58   A(23,24,108)          121.39           estimate D2E/DX2                !
 ! A59   A(25,24,108)          119.8344         estimate D2E/DX2                !
 ! A60   A(24,25,26)           116.2232         estimate D2E/DX2                !
 ! A61   A(24,25,29)           124.3972         estimate D2E/DX2                !
 ! A62   A(26,25,29)           119.3796         estimate D2E/DX2                !
 ! A63   A(25,26,27)           123.2521         estimate D2E/DX2                !
 ! A64   A(25,26,109)          119.7675         estimate D2E/DX2                !
 ! A65   A(27,26,109)          116.898          estimate D2E/DX2                !
 ! A66   A(22,27,26)           122.61           estimate D2E/DX2                !
 ! A67   A(22,27,28)           119.3387         estimate D2E/DX2                !
 ! A68   A(26,27,28)           117.1077         estimate D2E/DX2                !
 ! A69   A(25,29,30)           120.1849         estimate D2E/DX2                !
 ! A70   A(25,29,35)           124.8881         estimate D2E/DX2                !
 ! A71   A(30,29,35)           114.7432         estimate D2E/DX2                !
 ! A72   A(29,30,31)           123.1194         estimate D2E/DX2                !
 ! A73   A(29,30,110)          120.4513         estimate D2E/DX2                !
 ! A74   A(31,30,110)          116.3083         estimate D2E/DX2                !
 ! A75   A(30,31,32)           120.7827         estimate D2E/DX2                !
 ! A76   A(30,31,33)           115.5976         estimate D2E/DX2                !
 ! A77   A(32,31,33)           123.5854         estimate D2E/DX2                !
 ! A78   A(31,33,34)           124.4825         estimate D2E/DX2                !
 ! A79   A(31,33,36)           120.1544         estimate D2E/DX2                !
 ! A80   A(34,33,36)           115.3597         estimate D2E/DX2                !
 ! A81   A(33,34,35)           115.7036         estimate D2E/DX2                !
 ! A82   A(29,35,34)           126.1735         estimate D2E/DX2                !
 ! A83   A(29,35,111)          119.2647         estimate D2E/DX2                !
 ! A84   A(34,35,111)          114.5593         estimate D2E/DX2                !
 ! A85   A(33,36,37)           120.0071         estimate D2E/DX2                !
 ! A86   A(33,36,41)           122.3054         estimate D2E/DX2                !
 ! A87   A(37,36,41)           117.6317         estimate D2E/DX2                !
 ! A88   A(36,37,38)           123.1143         estimate D2E/DX2                !
 ! A89   A(36,37,112)          120.6669         estimate D2E/DX2                !
 ! A90   A(38,37,112)          116.1787         estimate D2E/DX2                !
 ! A91   A(37,38,39)           119.7584         estimate D2E/DX2                !
 ! A92   A(37,38,113)          121.4293         estimate D2E/DX2                !
 ! A93   A(39,38,113)          118.8094         estimate D2E/DX2                !
 ! A94   A(38,39,40)           116.0269         estimate D2E/DX2                !
 ! A95   A(38,39,43)           122.7454         estimate D2E/DX2                !
 ! A96   A(40,39,43)           121.2274         estimate D2E/DX2                !
 ! A97   A(39,40,41)           122.8378         estimate D2E/DX2                !
 ! A98   A(39,40,114)          115.9529         estimate D2E/DX2                !
 ! A99   A(41,40,114)          121.1507         estimate D2E/DX2                !
 ! A100  A(36,41,40)           120.5101         estimate D2E/DX2                !
 ! A101  A(36,41,42)           117.8222         estimate D2E/DX2                !
 ! A102  A(40,41,42)           121.6675         estimate D2E/DX2                !
 ! A103  A(39,43,44)           124.8738         estimate D2E/DX2                !
 ! A104  A(39,43,49)           122.3175         estimate D2E/DX2                !
 ! A105  A(44,43,49)           112.8077         estimate D2E/DX2                !
 ! A106  A(43,44,45)           123.4975         estimate D2E/DX2                !
 ! A107  A(43,44,115)          116.8166         estimate D2E/DX2                !
 ! A108  A(45,44,115)          119.5447         estimate D2E/DX2                !
 ! A109  A(44,45,46)           121.1509         estimate D2E/DX2                !
 ! A110  A(44,45,47)           116.3095         estimate D2E/DX2                !
 ! A111  A(46,45,47)           122.3773         estimate D2E/DX2                !
 ! A112  A(45,47,48)           122.2975         estimate D2E/DX2                !
 ! A113  A(45,47,50)           120.6482         estimate D2E/DX2                !
 ! A114  A(48,47,50)           116.7602         estimate D2E/DX2                !
 ! A115  A(47,48,49)           116.1345         estimate D2E/DX2                !
 ! A116  A(43,49,48)           128.9225         estimate D2E/DX2                !
 ! A117  A(43,49,116)          119.3918         estimate D2E/DX2                !
 ! A118  A(48,49,116)          111.5003         estimate D2E/DX2                !
 ! A119  A(47,50,51)           118.3889         estimate D2E/DX2                !
 ! A120  A(47,50,55)           121.2103         estimate D2E/DX2                !
 ! A121  A(51,50,55)           120.388          estimate D2E/DX2                !
 ! A122  A(50,51,52)           116.9903         estimate D2E/DX2                !
 ! A123  A(50,51,117)          116.4014         estimate D2E/DX2                !
 ! A124  A(52,51,117)          126.6048         estimate D2E/DX2                !
 ! A125  A(51,52,53)           123.7038         estimate D2E/DX2                !
 ! A126  A(51,52,118)          112.033          estimate D2E/DX2                !
 ! A127  A(53,52,118)          124.26           estimate D2E/DX2                !
 ! A128  A(52,53,54)           119.1443         estimate D2E/DX2                !
 ! A129  A(52,53,57)           117.3234         estimate D2E/DX2                !
 ! A130  A(54,53,57)           123.3085         estimate D2E/DX2                !
 ! A131  A(53,54,55)           119.4875         estimate D2E/DX2                !
 ! A132  A(53,54,119)          122.3561         estimate D2E/DX2                !
 ! A133  A(55,54,119)          118.143          estimate D2E/DX2                !
 ! A134  A(50,55,54)           120.1679         estimate D2E/DX2                !
 ! A135  A(50,55,56)           124.9981         estimate D2E/DX2                !
 ! A136  A(54,55,56)           114.6557         estimate D2E/DX2                !
 ! A137  A(53,57,58)           118.8168         estimate D2E/DX2                !
 ! A138  A(53,57,63)           123.5454         estimate D2E/DX2                !
 ! A139  A(58,57,63)           117.3225         estimate D2E/DX2                !
 ! A140  A(57,58,59)           116.9297         estimate D2E/DX2                !
 ! A141  A(57,58,120)          118.2612         estimate D2E/DX2                !
 ! A142  A(59,58,120)          124.7873         estimate D2E/DX2                !
 ! A143  A(58,59,60)           116.736          estimate D2E/DX2                !
 ! A144  A(58,59,61)           120.3668         estimate D2E/DX2                !
 ! A145  A(60,59,61)           122.6451         estimate D2E/DX2                !
 ! A146  A(59,61,62)           124.3764         estimate D2E/DX2                !
 ! A147  A(59,61,64)           117.7786         estimate D2E/DX2                !
 ! A148  A(62,61,64)           117.8121         estimate D2E/DX2                !
 ! A149  A(61,62,63)           112.8074         estimate D2E/DX2                !
 ! A150  A(57,63,62)           127.7774         estimate D2E/DX2                !
 ! A151  A(57,63,121)          122.2231         estimate D2E/DX2                !
 ! A152  A(62,63,121)          109.5616         estimate D2E/DX2                !
 ! A153  A(61,64,65)           120.2316         estimate D2E/DX2                !
 ! A154  A(61,64,69)           123.4115         estimate D2E/DX2                !
 ! A155  A(65,64,69)           116.2843         estimate D2E/DX2                !
 ! A156  A(64,65,66)           122.5094         estimate D2E/DX2                !
 ! A157  A(64,65,122)          123.9324         estimate D2E/DX2                !
 ! A158  A(66,65,122)          113.5319         estimate D2E/DX2                !
 ! A159  A(65,66,67)           121.0795         estimate D2E/DX2                !
 ! A160  A(65,66,123)          120.7196         estimate D2E/DX2                !
 ! A161  A(67,66,123)          118.1435         estimate D2E/DX2                !
 ! A162  A(66,67,68)           114.832          estimate D2E/DX2                !
 ! A163  A(66,67,71)           123.496          estimate D2E/DX2                !
 ! A164  A(68,67,71)           121.6665         estimate D2E/DX2                !
 ! A165  A(67,68,69)           120.3151         estimate D2E/DX2                !
 ! A166  A(67,68,124)          119.2885         estimate D2E/DX2                !
 ! A167  A(69,68,124)          119.9137         estimate D2E/DX2                !
 ! A168  A(64,69,68)           124.6157         estimate D2E/DX2                !
 ! A169  A(64,69,70)           115.4396         estimate D2E/DX2                !
 ! A170  A(68,69,70)           119.9241         estimate D2E/DX2                !
 ! A171  A(67,71,72)           117.3216         estimate D2E/DX2                !
 ! A172  A(67,71,77)           125.4863         estimate D2E/DX2                !
 ! A173  A(72,71,77)           117.191          estimate D2E/DX2                !
 ! A174  A(71,72,73)           115.7739         estimate D2E/DX2                !
 ! A175  A(71,72,125)          120.3198         estimate D2E/DX2                !
 ! A176  A(73,72,125)          123.8707         estimate D2E/DX2                !
 ! A177  A(72,73,74)           114.1852         estimate D2E/DX2                !
 ! A178  A(72,73,75)           120.9186         estimate D2E/DX2                !
 ! A179  A(74,73,75)           124.7313         estimate D2E/DX2                !
 ! A180  A(73,75,76)           120.2106         estimate D2E/DX2                !
 ! A181  A(73,75,78)           119.3214         estimate D2E/DX2                !
 ! A182  A(76,75,78)           120.2402         estimate D2E/DX2                !
 ! A183  A(75,76,77)           121.1677         estimate D2E/DX2                !
 ! A184  A(71,77,76)           124.5056         estimate D2E/DX2                !
 ! A185  A(71,77,126)          116.5229         estimate D2E/DX2                !
 ! A186  A(76,77,126)          118.8599         estimate D2E/DX2                !
 ! A187  A(75,78,79)           116.8827         estimate D2E/DX2                !
 ! A188  A(75,78,83)           121.1811         estimate D2E/DX2                !
 ! A189  A(79,78,83)           121.7567         estimate D2E/DX2                !
 ! A190  A(78,79,80)           117.6454         estimate D2E/DX2                !
 ! A191  A(78,79,127)          122.3747         estimate D2E/DX2                !
 ! A192  A(80,79,127)          119.9766         estimate D2E/DX2                !
 ! A193  A(79,80,81)           121.5883         estimate D2E/DX2                !
 ! A194  A(79,80,128)          118.5281         estimate D2E/DX2                !
 ! A195  A(81,80,128)          119.88           estimate D2E/DX2                !
 ! A196  A(80,81,82)           118.0204         estimate D2E/DX2                !
 ! A197  A(80,81,85)           125.3744         estimate D2E/DX2                !
 ! A198  A(82,81,85)           116.5891         estimate D2E/DX2                !
 ! A199  A(81,82,83)           119.4668         estimate D2E/DX2                !
 ! A200  A(81,82,129)          126.509          estimate D2E/DX2                !
 ! A201  A(83,82,129)          114.0165         estimate D2E/DX2                !
 ! A202  A(78,83,82)           121.3062         estimate D2E/DX2                !
 ! A203  A(78,83,84)           124.724          estimate D2E/DX2                !
 ! A204  A(82,83,84)           113.8195         estimate D2E/DX2                !
 ! A205  A(81,85,86)           123.5157         estimate D2E/DX2                !
 ! A206  A(81,85,91)           117.7614         estimate D2E/DX2                !
 ! A207  A(86,85,91)           118.5232         estimate D2E/DX2                !
 ! A208  A(85,86,87)           120.843          estimate D2E/DX2                !
 ! A209  A(85,86,130)          120.3357         estimate D2E/DX2                !
 ! A210  A(87,86,130)          118.8139         estimate D2E/DX2                !
 ! A211  A(86,87,88)           118.4419         estimate D2E/DX2                !
 ! A212  A(86,87,89)           118.3738         estimate D2E/DX2                !
 ! A213  A(88,87,89)           123.1422         estimate D2E/DX2                !
 ! A214  A(87,89,90)           119.5022         estimate D2E/DX2                !
 ! A215  A(87,89,92)           121.2811         estimate D2E/DX2                !
 ! A216  A(90,89,92)           118.815          estimate D2E/DX2                !
 ! A217  A(89,90,91)           123.877          estimate D2E/DX2                !
 ! A218  A(85,91,90)           118.6068         estimate D2E/DX2                !
 ! A219  A(85,91,131)          121.4459         estimate D2E/DX2                !
 ! A220  A(90,91,131)          119.9221         estimate D2E/DX2                !
 ! A221  A(89,92,93)           121.2653         estimate D2E/DX2                !
 ! A222  A(89,92,97)           118.0552         estimate D2E/DX2                !
 ! A223  A(93,92,97)           120.6468         estimate D2E/DX2                !
 ! A224  A(92,93,94)           117.4028         estimate D2E/DX2                !
 ! A225  A(92,93,132)          118.6609         estimate D2E/DX2                !
 ! A226  A(94,93,132)          123.7496         estimate D2E/DX2                !
 ! A227  A(93,94,95)           121.0138         estimate D2E/DX2                !
 ! A228  A(93,94,133)          113.4531         estimate D2E/DX2                !
 ! A229  A(95,94,133)          125.4485         estimate D2E/DX2                !
 ! A230  A(94,95,96)           121.5757         estimate D2E/DX2                !
 ! A231  A(94,95,134)          120.43           estimate D2E/DX2                !
 ! A232  A(96,95,134)          117.9888         estimate D2E/DX2                !
 ! A233  A(95,96,97)           117.5355         estimate D2E/DX2                !
 ! A234  A(95,96,135)          119.9737         estimate D2E/DX2                !
 ! A235  A(97,96,135)          122.4188         estimate D2E/DX2                !
 ! A236  A(92,97,96)           121.6888         estimate D2E/DX2                !
 ! A237  A(92,97,98)           121.9447         estimate D2E/DX2                !
 ! A238  A(96,97,98)           116.3665         estimate D2E/DX2                !
 ! D1    D(7,1,2,3)             -1.9726         estimate D2E/DX2                !
 ! D2    D(7,1,2,100)          179.5686         estimate D2E/DX2                !
 ! D3    D(99,1,2,3)           179.3666         estimate D2E/DX2                !
 ! D4    D(99,1,2,100)           0.9078         estimate D2E/DX2                !
 ! D5    D(2,1,7,6)              0.2918         estimate D2E/DX2                !
 ! D6    D(2,1,7,101)         -174.5374         estimate D2E/DX2                !
 ! D7    D(99,1,7,6)           178.891          estimate D2E/DX2                !
 ! D8    D(99,1,7,101)           4.0619         estimate D2E/DX2                !
 ! D9    D(1,2,3,4)           -178.2004         estimate D2E/DX2                !
 ! D10   D(1,2,3,5)              2.8972         estimate D2E/DX2                !
 ! D11   D(100,2,3,4)            0.3069         estimate D2E/DX2                !
 ! D12   D(100,2,3,5)         -178.5955         estimate D2E/DX2                !
 ! D13   D(2,3,5,6)             -2.4153         estimate D2E/DX2                !
 ! D14   D(2,3,5,8)            178.4421         estimate D2E/DX2                !
 ! D15   D(4,3,5,6)            178.6788         estimate D2E/DX2                !
 ! D16   D(4,3,5,8)             -0.4638         estimate D2E/DX2                !
 ! D17   D(3,5,6,7)              0.8124         estimate D2E/DX2                !
 ! D18   D(8,5,6,7)           -179.9897         estimate D2E/DX2                !
 ! D19   D(3,5,8,9)             70.1962         estimate D2E/DX2                !
 ! D20   D(3,5,8,13)          -116.5153         estimate D2E/DX2                !
 ! D21   D(6,5,8,9)           -109.0771         estimate D2E/DX2                !
 ! D22   D(6,5,8,13)            64.2113         estimate D2E/DX2                !
 ! D23   D(5,6,7,1)              0.3679         estimate D2E/DX2                !
 ! D24   D(5,6,7,101)          175.6342         estimate D2E/DX2                !
 ! D25   D(5,8,9,10)          -179.7335         estimate D2E/DX2                !
 ! D26   D(5,8,9,102)           -8.1868         estimate D2E/DX2                !
 ! D27   D(13,8,9,10)            6.8698         estimate D2E/DX2                !
 ! D28   D(13,8,9,102)         178.4165         estimate D2E/DX2                !
 ! D29   D(5,8,13,12)         -175.6003         estimate D2E/DX2                !
 ! D30   D(5,8,13,14)            2.9877         estimate D2E/DX2                !
 ! D31   D(9,8,13,12)           -2.2439         estimate D2E/DX2                !
 ! D32   D(9,8,13,14)          176.344          estimate D2E/DX2                !
 ! D33   D(8,9,10,11)           -5.9086         estimate D2E/DX2                !
 ! D34   D(8,9,10,103)         174.8429         estimate D2E/DX2                !
 ! D35   D(102,9,10,11)       -176.5634         estimate D2E/DX2                !
 ! D36   D(102,9,10,103)         4.1881         estimate D2E/DX2                !
 ! D37   D(9,10,11,12)          -0.0132         estimate D2E/DX2                !
 ! D38   D(9,10,11,15)        -176.4735         estimate D2E/DX2                !
 ! D39   D(103,10,11,12)       179.1936         estimate D2E/DX2                !
 ! D40   D(103,10,11,15)         2.7333         estimate D2E/DX2                !
 ! D41   D(10,11,12,13)          5.1501         estimate D2E/DX2                !
 ! D42   D(10,11,12,104)       176.3202         estimate D2E/DX2                !
 ! D43   D(15,11,12,13)       -178.4921         estimate D2E/DX2                !
 ! D44   D(15,11,12,104)        -7.3221         estimate D2E/DX2                !
 ! D45   D(10,11,15,16)         51.6729         estimate D2E/DX2                !
 ! D46   D(10,11,15,21)       -124.3197         estimate D2E/DX2                !
 ! D47   D(12,11,15,16)       -124.3874         estimate D2E/DX2                !
 ! D48   D(12,11,15,21)         59.62           estimate D2E/DX2                !
 ! D49   D(11,12,13,8)          -4.1287         estimate D2E/DX2                !
 ! D50   D(11,12,13,14)        177.2248         estimate D2E/DX2                !
 ! D51   D(104,12,13,8)       -175.1396         estimate D2E/DX2                !
 ! D52   D(104,12,13,14)         6.2139         estimate D2E/DX2                !
 ! D53   D(11,15,16,17)        179.6656         estimate D2E/DX2                !
 ! D54   D(11,15,16,105)         3.0337         estimate D2E/DX2                !
 ! D55   D(21,15,16,17)         -4.3014         estimate D2E/DX2                !
 ! D56   D(21,15,16,105)       179.0667         estimate D2E/DX2                !
 ! D57   D(11,15,21,20)        178.9986         estimate D2E/DX2                !
 ! D58   D(11,15,21,106)        -7.9861         estimate D2E/DX2                !
 ! D59   D(16,15,21,20)          2.7872         estimate D2E/DX2                !
 ! D60   D(16,15,21,106)       175.8025         estimate D2E/DX2                !
 ! D61   D(15,16,17,18)        179.5365         estimate D2E/DX2                !
 ! D62   D(15,16,17,19)          6.4235         estimate D2E/DX2                !
 ! D63   D(105,16,17,18)        -3.9876         estimate D2E/DX2                !
 ! D64   D(105,16,17,19)      -177.1006         estimate D2E/DX2                !
 ! D65   D(16,17,19,20)         -7.6309         estimate D2E/DX2                !
 ! D66   D(16,17,19,22)        175.8141         estimate D2E/DX2                !
 ! D67   D(18,17,19,20)        179.6062         estimate D2E/DX2                !
 ! D68   D(18,17,19,22)          3.0512         estimate D2E/DX2                !
 ! D69   D(17,19,20,21)          6.1955         estimate D2E/DX2                !
 ! D70   D(22,19,20,21)       -177.0237         estimate D2E/DX2                !
 ! D71   D(17,19,22,23)         40.4944         estimate D2E/DX2                !
 ! D72   D(17,19,22,27)       -137.1067         estimate D2E/DX2                !
 ! D73   D(20,19,22,23)       -136.3214         estimate D2E/DX2                !
 ! D74   D(20,19,22,27)         46.0776         estimate D2E/DX2                !
 ! D75   D(19,20,21,15)         -3.8132         estimate D2E/DX2                !
 ! D76   D(19,20,21,106)      -177.0217         estimate D2E/DX2                !
 ! D77   D(19,22,23,24)       -179.4505         estimate D2E/DX2                !
 ! D78   D(19,22,23,107)         3.6186         estimate D2E/DX2                !
 ! D79   D(27,22,23,24)         -1.6835         estimate D2E/DX2                !
 ! D80   D(27,22,23,107)      -178.6144         estimate D2E/DX2                !
 ! D81   D(19,22,27,26)        174.4656         estimate D2E/DX2                !
 ! D82   D(19,22,27,28)          5.9091         estimate D2E/DX2                !
 ! D83   D(23,22,27,26)         -3.3021         estimate D2E/DX2                !
 ! D84   D(23,22,27,28)       -171.8586         estimate D2E/DX2                !
 ! D85   D(22,23,24,25)          5.4309         estimate D2E/DX2                !
 ! D86   D(22,23,24,108)      -177.8104         estimate D2E/DX2                !
 ! D87   D(107,23,24,25)      -177.6775         estimate D2E/DX2                !
 ! D88   D(107,23,24,108)       -0.9188         estimate D2E/DX2                !
 ! D89   D(23,24,25,26)         -4.1507         estimate D2E/DX2                !
 ! D90   D(23,24,25,29)        175.8645         estimate D2E/DX2                !
 ! D91   D(108,24,25,26)       179.039          estimate D2E/DX2                !
 ! D92   D(108,24,25,29)        -0.9459         estimate D2E/DX2                !
 ! D93   D(24,25,26,27)         -0.5573         estimate D2E/DX2                !
 ! D94   D(24,25,26,109)      -177.1496         estimate D2E/DX2                !
 ! D95   D(29,25,26,27)        179.4284         estimate D2E/DX2                !
 ! D96   D(29,25,26,109)         2.8361         estimate D2E/DX2                !
 ! D97   D(24,25,29,30)        -51.5022         estimate D2E/DX2                !
 ! D98   D(24,25,29,35)        123.3027         estimate D2E/DX2                !
 ! D99   D(26,25,29,30)        128.5134         estimate D2E/DX2                !
 ! D100  D(26,25,29,35)        -56.6818         estimate D2E/DX2                !
 ! D101  D(25,26,27,22)          4.514          estimate D2E/DX2                !
 ! D102  D(25,26,27,28)        173.3102         estimate D2E/DX2                !
 ! D103  D(109,26,27,22)      -178.8028         estimate D2E/DX2                !
 ! D104  D(109,26,27,28)       -10.0065         estimate D2E/DX2                !
 ! D105  D(25,29,30,31)        179.889          estimate D2E/DX2                !
 ! D106  D(25,29,30,110)        -4.2593         estimate D2E/DX2                !
 ! D107  D(35,29,30,31)          4.58           estimate D2E/DX2                !
 ! D108  D(35,29,30,110)      -179.5683         estimate D2E/DX2                !
 ! D109  D(25,29,35,34)       -178.5171         estimate D2E/DX2                !
 ! D110  D(25,29,35,111)         2.0834         estimate D2E/DX2                !
 ! D111  D(30,29,35,34)         -3.4611         estimate D2E/DX2                !
 ! D112  D(30,29,35,111)       177.1393         estimate D2E/DX2                !
 ! D113  D(29,30,31,32)        179.8163         estimate D2E/DX2                !
 ! D114  D(29,30,31,33)         -2.2402         estimate D2E/DX2                !
 ! D115  D(110,30,31,32)         3.8053         estimate D2E/DX2                !
 ! D116  D(110,30,31,33)      -178.2511         estimate D2E/DX2                !
 ! D117  D(30,31,33,34)         -1.7554         estimate D2E/DX2                !
 ! D118  D(30,31,33,36)        178.9436         estimate D2E/DX2                !
 ! D119  D(32,31,33,34)        176.1238         estimate D2E/DX2                !
 ! D120  D(32,31,33,36)         -3.1772         estimate D2E/DX2                !
 ! D121  D(31,33,34,35)          2.8572         estimate D2E/DX2                !
 ! D122  D(36,33,34,35)       -177.8116         estimate D2E/DX2                !
 ! D123  D(31,33,36,37)         62.0785         estimate D2E/DX2                !
 ! D124  D(31,33,36,41)       -115.1385         estimate D2E/DX2                !
 ! D125  D(34,33,36,37)       -117.2839         estimate D2E/DX2                !
 ! D126  D(34,33,36,41)         65.4991         estimate D2E/DX2                !
 ! D127  D(33,34,35,29)         -0.081          estimate D2E/DX2                !
 ! D128  D(33,34,35,111)       179.3432         estimate D2E/DX2                !
 ! D129  D(33,36,37,38)        179.8477         estimate D2E/DX2                !
 ! D130  D(33,36,37,112)         2.2398         estimate D2E/DX2                !
 ! D131  D(41,36,37,38)         -2.8073         estimate D2E/DX2                !
 ! D132  D(41,36,37,112)       179.5848         estimate D2E/DX2                !
 ! D133  D(33,36,41,40)       -178.7212         estimate D2E/DX2                !
 ! D134  D(33,36,41,42)          1.4458         estimate D2E/DX2                !
 ! D135  D(37,36,41,40)          3.999          estimate D2E/DX2                !
 ! D136  D(37,36,41,42)       -175.834          estimate D2E/DX2                !
 ! D137  D(36,37,38,39)          1.2252         estimate D2E/DX2                !
 ! D138  D(36,37,38,113)      -178.1457         estimate D2E/DX2                !
 ! D139  D(112,37,38,39)       178.9325         estimate D2E/DX2                !
 ! D140  D(112,37,38,113)       -0.4384         estimate D2E/DX2                !
 ! D141  D(37,38,39,40)         -0.6931         estimate D2E/DX2                !
 ! D142  D(37,38,39,43)        179.5222         estimate D2E/DX2                !
 ! D143  D(113,38,39,40)       178.6943         estimate D2E/DX2                !
 ! D144  D(113,38,39,43)        -1.0904         estimate D2E/DX2                !
 ! D145  D(38,39,40,41)          1.9999         estimate D2E/DX2                !
 ! D146  D(38,39,40,114)       179.2422         estimate D2E/DX2                !
 ! D147  D(43,39,40,41)       -178.2119         estimate D2E/DX2                !
 ! D148  D(43,39,40,114)        -0.9696         estimate D2E/DX2                !
 ! D149  D(38,39,43,44)       -130.3339         estimate D2E/DX2                !
 ! D150  D(38,39,43,49)         49.2896         estimate D2E/DX2                !
 ! D151  D(40,39,43,44)         49.8923         estimate D2E/DX2                !
 ! D152  D(40,39,43,49)       -130.4841         estimate D2E/DX2                !
 ! D153  D(39,40,41,36)         -3.7297         estimate D2E/DX2                !
 ! D154  D(39,40,41,42)        176.0968         estimate D2E/DX2                !
 ! D155  D(114,40,41,36)       179.1678         estimate D2E/DX2                !
 ! D156  D(114,40,41,42)        -1.0057         estimate D2E/DX2                !
 ! D157  D(39,43,44,45)        179.0421         estimate D2E/DX2                !
 ! D158  D(39,43,44,115)        -5.3059         estimate D2E/DX2                !
 ! D159  D(49,43,44,45)         -0.6127         estimate D2E/DX2                !
 ! D160  D(49,43,44,115)       175.0392         estimate D2E/DX2                !
 ! D161  D(39,43,49,48)        179.1871         estimate D2E/DX2                !
 ! D162  D(39,43,49,116)         4.5865         estimate D2E/DX2                !
 ! D163  D(44,43,49,48)         -1.1479         estimate D2E/DX2                !
 ! D164  D(44,43,49,116)      -175.7485         estimate D2E/DX2                !
 ! D165  D(43,44,45,46)        177.1518         estimate D2E/DX2                !
 ! D166  D(43,44,45,47)          1.6765         estimate D2E/DX2                !
 ! D167  D(115,44,45,46)         1.6124         estimate D2E/DX2                !
 ! D168  D(115,44,45,47)      -173.8629         estimate D2E/DX2                !
 ! D169  D(44,45,47,48)         -1.2758         estimate D2E/DX2                !
 ! D170  D(44,45,47,50)       -174.8441         estimate D2E/DX2                !
 ! D171  D(46,45,47,48)       -176.6906         estimate D2E/DX2                !
 ! D172  D(46,45,47,50)          9.7411         estimate D2E/DX2                !
 ! D173  D(45,47,48,49)         -0.2143         estimate D2E/DX2                !
 ! D174  D(50,47,48,49)        173.5896         estimate D2E/DX2                !
 ! D175  D(45,47,50,51)        -56.4314         estimate D2E/DX2                !
 ! D176  D(45,47,50,55)        124.8647         estimate D2E/DX2                !
 ! D177  D(48,47,50,51)        129.6561         estimate D2E/DX2                !
 ! D178  D(48,47,50,55)        -49.0478         estimate D2E/DX2                !
 ! D179  D(47,48,49,43)          1.5273         estimate D2E/DX2                !
 ! D180  D(47,48,49,116)       176.4719         estimate D2E/DX2                !
 ! D181  D(47,50,51,52)       -178.8549         estimate D2E/DX2                !
 ! D182  D(47,50,51,117)         0.5057         estimate D2E/DX2                !
 ! D183  D(55,50,51,52)         -0.14           estimate D2E/DX2                !
 ! D184  D(55,50,51,117)       179.2206         estimate D2E/DX2                !
 ! D185  D(47,50,55,54)       -178.5969         estimate D2E/DX2                !
 ! D186  D(47,50,55,56)         -3.7164         estimate D2E/DX2                !
 ! D187  D(51,50,55,54)          2.725          estimate D2E/DX2                !
 ! D188  D(51,50,55,56)        177.6054         estimate D2E/DX2                !
 ! D189  D(50,51,52,53)         -1.0873         estimate D2E/DX2                !
 ! D190  D(50,51,52,118)       179.5373         estimate D2E/DX2                !
 ! D191  D(117,51,52,53)       179.6261         estimate D2E/DX2                !
 ! D192  D(117,51,52,118)        0.2508         estimate D2E/DX2                !
 ! D193  D(51,52,53,54)         -0.4361         estimate D2E/DX2                !
 ! D194  D(51,52,53,57)       -175.1818         estimate D2E/DX2                !
 ! D195  D(118,52,53,54)       178.8633         estimate D2E/DX2                !
 ! D196  D(118,52,53,57)         4.1175         estimate D2E/DX2                !
 ! D197  D(52,53,54,55)          3.0468         estimate D2E/DX2                !
 ! D198  D(52,53,54,119)      -178.3112         estimate D2E/DX2                !
 ! D199  D(57,53,54,55)        177.4601         estimate D2E/DX2                !
 ! D200  D(57,53,54,119)        -3.8979         estimate D2E/DX2                !
 ! D201  D(52,53,57,58)        120.9593         estimate D2E/DX2                !
 ! D202  D(52,53,57,63)        -65.6707         estimate D2E/DX2                !
 ! D203  D(54,53,57,58)        -53.5489         estimate D2E/DX2                !
 ! D204  D(54,53,57,63)        119.8212         estimate D2E/DX2                !
 ! D205  D(53,54,55,50)         -4.254          estimate D2E/DX2                !
 ! D206  D(53,54,55,56)       -179.6406         estimate D2E/DX2                !
 ! D207  D(119,54,55,50)       177.047          estimate D2E/DX2                !
 ! D208  D(119,54,55,56)         1.6603         estimate D2E/DX2                !
 ! D209  D(53,57,58,59)        175.7772         estimate D2E/DX2                !
 ! D210  D(53,57,58,120)        -2.6075         estimate D2E/DX2                !
 ! D211  D(63,57,58,59)          1.9951         estimate D2E/DX2                !
 ! D212  D(63,57,58,120)      -176.3896         estimate D2E/DX2                !
 ! D213  D(53,57,63,62)        179.142          estimate D2E/DX2                !
 ! D214  D(53,57,63,121)         7.5532         estimate D2E/DX2                !
 ! D215  D(58,57,63,62)         -7.3959         estimate D2E/DX2                !
 ! D216  D(58,57,63,121)      -178.9847         estimate D2E/DX2                !
 ! D217  D(57,58,59,60)        176.9791         estimate D2E/DX2                !
 ! D218  D(57,58,59,61)          2.5949         estimate D2E/DX2                !
 ! D219  D(120,58,59,60)        -4.7534         estimate D2E/DX2                !
 ! D220  D(120,58,59,61)      -179.1375         estimate D2E/DX2                !
 ! D221  D(58,59,61,62)         -2.806          estimate D2E/DX2                !
 ! D222  D(58,59,61,64)        175.0557         estimate D2E/DX2                !
 ! D223  D(60,59,61,62)       -176.8485         estimate D2E/DX2                !
 ! D224  D(60,59,61,64)          1.0133         estimate D2E/DX2                !
 ! D225  D(59,61,62,63)         -1.6909         estimate D2E/DX2                !
 ! D226  D(64,61,62,63)       -179.552          estimate D2E/DX2                !
 ! D227  D(59,61,64,65)        108.6197         estimate D2E/DX2                !
 ! D228  D(59,61,64,69)        -74.5947         estimate D2E/DX2                !
 ! D229  D(62,61,64,65)        -73.3755         estimate D2E/DX2                !
 ! D230  D(62,61,64,69)        103.4101         estimate D2E/DX2                !
 ! D231  D(61,62,63,57)          7.112          estimate D2E/DX2                !
 ! D232  D(61,62,63,121)       179.5658         estimate D2E/DX2                !
 ! D233  D(61,64,65,66)       -179.5222         estimate D2E/DX2                !
 ! D234  D(61,64,65,122)         2.4634         estimate D2E/DX2                !
 ! D235  D(69,64,65,66)          3.4702         estimate D2E/DX2                !
 ! D236  D(69,64,65,122)      -174.5443         estimate D2E/DX2                !
 ! D237  D(61,64,69,68)       -178.7048         estimate D2E/DX2                !
 ! D238  D(61,64,69,70)         -0.3641         estimate D2E/DX2                !
 ! D239  D(65,64,69,68)         -1.8022         estimate D2E/DX2                !
 ! D240  D(65,64,69,70)        176.5386         estimate D2E/DX2                !
 ! D241  D(64,65,66,67)          0.0555         estimate D2E/DX2                !
 ! D242  D(64,65,66,123)       177.2498         estimate D2E/DX2                !
 ! D243  D(122,65,66,67)       178.2588         estimate D2E/DX2                !
 ! D244  D(122,65,66,123)       -4.5469         estimate D2E/DX2                !
 ! D245  D(65,66,67,68)         -5.0866         estimate D2E/DX2                !
 ! D246  D(65,66,67,71)        174.0772         estimate D2E/DX2                !
 ! D247  D(123,66,67,68)       177.6488         estimate D2E/DX2                !
 ! D248  D(123,66,67,71)        -3.1875         estimate D2E/DX2                !
[...]
  Beta virt. eigenvalues --    2.63964   2.64367   2.65098   2.65293   2.65993
  Beta virt. eigenvalues --    2.66191   2.66554   2.66692   2.67232   2.67544
  Beta virt. eigenvalues --    2.67959   2.68227   2.68566   2.69251   2.72767
  Beta virt. eigenvalues --    2.72859   2.73848   2.74757   2.74915   2.75213
  Beta virt. eigenvalues --    2.76013   2.76185   2.76595   2.77093   2.77283
  Beta virt. eigenvalues --    2.77803   2.78145   2.78669   2.79602   2.80392
  Beta virt. eigenvalues --    2.80807   2.81132   2.81282   2.81472   2.83350
  Beta virt. eigenvalues --    2.83657   2.83991   2.85408   2.85735   2.86089
  Beta virt. eigenvalues --    2.86424   2.87741   2.88791   2.90274   2.90567
  Beta virt. eigenvalues --    2.90664   2.90773   2.91131   2.91504   2.91721
  Beta virt. eigenvalues --    2.95014   2.96130   2.96247   2.96437   2.96646
  Beta virt. eigenvalues --    2.96792   2.97231   2.99025   2.99232   2.99666
  Beta virt. eigenvalues --    3.00190   3.00971   3.01875   3.02627   3.04625
  Beta virt. eigenvalues --    3.05976   3.06831   3.07953   3.08808   3.09615
  Beta virt. eigenvalues --    3.10169   3.33905   3.34580   3.35631   3.36776
  Beta virt. eigenvalues --    3.37992   3.39043   3.46769   3.48785   3.49777
  Beta virt. eigenvalues --    3.50801   3.51621   3.52291   3.52793   3.56241
  Beta virt. eigenvalues --    3.65876   3.65899   3.65923   3.65974   3.66479
  Beta virt. eigenvalues --    3.66515   3.66691   3.66713   3.66722   3.66757
  Beta virt. eigenvalues --    3.66775   3.66923   3.67115   3.67723   3.68596
  Beta virt. eigenvalues --    3.68754   3.68845   3.68907   3.69309   3.69452
  Beta virt. eigenvalues --    3.69624   3.71055   3.71269   3.71328   3.71434
  Beta virt. eigenvalues --    3.71558   3.71660   3.72712   3.84938   3.84995
  Beta virt. eigenvalues --    3.85045   3.85051   3.85681   3.85907   3.86041
  Beta virt. eigenvalues --    3.86290   3.86466   3.86818   3.86830   3.86866
  Beta virt. eigenvalues --    3.86899   3.87713   4.06829   4.06923   4.06971
  Beta virt. eigenvalues --    4.07025   4.07621   4.07885   4.08032   4.10071
  Beta virt. eigenvalues --    4.10273   4.10721   4.10732   4.10750   4.10788
  Beta virt. eigenvalues --    4.11386   4.26259   4.26780   4.26947   4.26976
  Beta virt. eigenvalues --    4.27221   4.27339   4.27753   4.30225   4.30443
  Beta virt. eigenvalues --    4.30690   4.30895   4.31273   4.31579   4.32028
          Condensed to atoms (all electrons):
          Atomic-Atomic Spin Densities.
 Mulliken charges and spin densities:
               1          2
     1  C   -0.043878  -0.000000
     2  C    0.046066  -0.000000
     3  C    0.111335   0.000000
     4  F   -0.124562   0.000000
     5  C    0.007003  -0.000000
     6  N   -0.169066   0.000000
     7  C    0.075560   0.000000
     8  C   -0.054769   0.000000
     9  C    0.047573  -0.000000
    10  C   -0.001707  -0.000000
    11  C    0.006573   0.000000
    12  C   -0.011487   0.000000
    13  C    0.132613  -0.000000
    14  F   -0.110326   0.000000
    15  C   -0.063019   0.000000
    16  C    0.059417  -0.000000
    17  C    0.119900  -0.000000
    18  F   -0.123772   0.000000
    19  C    0.010638   0.000000
    20  N   -0.165595   0.000000
    21  C    0.083591  -0.000000
    22  C   -0.055560  -0.000000
    23  C    0.044874   0.000000
    24  C   -0.002196  -0.000000
    25  C    0.008868  -0.000000
    26  C   -0.011335   0.000000
    27  C    0.131760   0.000000
    28  F   -0.109884  -0.000000
    29  C   -0.062579   0.000000
    30  C    0.057359  -0.000000
    31  C    0.118558   0.000000
    32  F   -0.123171  -0.000000
    33  C    0.011695  -0.000000
    34  N   -0.165823  -0.000000
    35  C    0.083996  -0.000000
    36  C   -0.056578  -0.000000
    37  C    0.045533  -0.000000
    38  C   -0.000924   0.000000
    39  C    0.007069  -0.000000
    40  C   -0.012062  -0.000000
    41  C    0.132095   0.000000
    42  F   -0.110669  -0.000000
    43  C   -0.061567   0.000000
    44  C    0.058568  -0.000000
    45  C    0.118811  -0.000000
    46  F   -0.122758   0.000000
    47  C    0.011409   0.000000
    48  N   -0.166056  -0.000000
    49  C    0.083837   0.000000
    50  C   -0.056777  -0.000000
    51  C    0.045522   0.000000
    52  C   -0.000417   0.000000
    53  C    0.007281  -0.000000
    54  C   -0.012049   0.000000
    55  C    0.132102  -0.000000
    56  F   -0.111014   0.000000
    57  C   -0.064424   0.000000
    58  C    0.059358  -0.000000
    59  C    0.129558   0.000000
    60  F   -0.115668  -0.000000
    61  C    0.008775   0.000000
    62  N   -0.178255  -0.000000
    63  C    0.085088   0.000000
    64  C   -0.051560  -0.000000
    65  C    0.049260  -0.000000
    66  C    0.001302   0.000000
    67  C    0.008509  -0.000000
    68  C   -0.007357   0.000000
    69  C    0.120869  -0.000000
    70  F   -0.120263  -0.000000
    71  C   -0.065621  -0.000000
    72  C    0.058905   0.000000
    73  C    0.129288  -0.000000
    74  F   -0.115914  -0.000000
    75  C    0.009103   0.000000
    76  N   -0.178020  -0.000000
    77  C    0.084363   0.000000
    78  C   -0.051746   0.000000
    79  C    0.048933  -0.000000
    80  C    0.001229   0.000000
    81  C    0.008177   0.000000
    82  C   -0.006477  -0.000000
    83  C    0.120580  -0.000000
    84  F   -0.120676   0.000000
    85  C   -0.065051  -0.000000
    86  C    0.057725   0.000000
    87  C    0.120610  -0.000000
    88  F   -0.123207  -0.000000
    89  C    0.012989  -0.000000
    90  N   -0.164705   0.000000
    91  C    0.081758  -0.000000
    92  C   -0.062563   0.000000
    93  C    0.031634  -0.000000
    94  C    0.005152   0.000000
    95  C    0.016366  -0.000000
    96  C   -0.010753   0.000000
    97  C    0.120709  -0.000000
    98  F   -0.115363   0.000000
    99  H    0.020588  -0.000000
   100  H    0.030757  -0.000000
   101  H    0.025733  -0.000000
   102  H    0.007788   0.000000
   103  H    0.000928  -0.000000
   104  H    0.016655  -0.000000
   105  H    0.022761  -0.000000
   106  H    0.023828   0.000000
   107  H    0.007915   0.000000
   108  H    0.000086   0.000000
   109  H    0.017755  -0.000000
   110  H    0.023143   0.000000
   111  H    0.024360   0.000000
   112  H    0.008424   0.000000
   113  H    0.004596   0.000000
   114  H    0.013531   0.000000
   115  H    0.023812   0.000000
   116  H    0.022895   0.000000
   117  H    0.008687   0.000000
   118  H    0.003879   0.000000
   119  H    0.014166   0.000000
   120  H    0.024324   0.000000
   121  H    0.021908   0.000000
   122  H    0.009467   0.000000
   123  H    0.004785   0.000000
   124  H    0.014730   0.000000
   125  H    0.024096   0.000000
   126  H    0.022356   0.000000
   127  H    0.008752   0.000000
   128  H    0.004075   0.000000
   129  H    0.015038  -0.000000
   130  H    0.021996  -0.000000
   131  H    0.022304  -0.000000
   132  H    0.004007  -0.000000
   133  H    0.006207  -0.000000
   134  H    0.011817  -0.000000
   135  H    0.019236   0.000000
 Sum of Mulliken charges =  -0.00000   0.00000
 Mulliken charges and spin densities with hydrogens summed into heavy atoms:
               1          2
     1  C   -0.023291  -0.000000
     2  C    0.076823  -0.000000
     3  C    0.111335   0.000000
     4  F   -0.124562   0.000000
     5  C    0.007003  -0.000000
     6  N   -0.169066   0.000000
     7  C    0.101293  -0.000000
     8  C   -0.054769   0.000000
     9  C    0.055362  -0.000000
    10  C   -0.000779  -0.000000
    11  C    0.006573   0.000000
    12  C    0.005167   0.000000
    13  C    0.132613  -0.000000
    14  F   -0.110326   0.000000
    15  C   -0.063019   0.000000
    16  C    0.082177  -0.000000
    17  C    0.119900  -0.000000
    18  F   -0.123772   0.000000
    19  C    0.010638   0.000000
    20  N   -0.165595   0.000000
    21  C    0.107418  -0.000000
    22  C   -0.055560  -0.000000
    23  C    0.052789   0.000000
    24  C   -0.002109  -0.000000
    25  C    0.008868  -0.000000
    26  C    0.006420   0.000000
    27  C    0.131760   0.000000
    28  F   -0.109884  -0.000000
    29  C   -0.062579   0.000000
    30  C    0.080502  -0.000000
    31  C    0.118558   0.000000
    32  F   -0.123171  -0.000000
    33  C    0.011695  -0.000000
    34  N   -0.165823  -0.000000
    35  C    0.108356  -0.000000
    36  C   -0.056578  -0.000000
    37  C    0.053957  -0.000000
    38  C    0.003672   0.000000
    39  C    0.007069  -0.000000
    40  C    0.001468  -0.000000
    41  C    0.132095   0.000000
    42  F   -0.110669  -0.000000
    43  C   -0.061567   0.000000
    44  C    0.082381  -0.000000
    45  C    0.118811  -0.000000
    46  F   -0.122758   0.000000
    47  C    0.011409   0.000000
    48  N   -0.166056  -0.000000
    49  C    0.106731   0.000000
    50  C   -0.056777  -0.000000
    51  C    0.054209   0.000000
    52  C    0.003461   0.000000
    53  C    0.007281  -0.000000
    54  C    0.002117   0.000000
    55  C    0.132102  -0.000000
    56  F   -0.111014   0.000000
    57  C   -0.064424   0.000000
    58  C    0.083682  -0.000000
    59  C    0.129558   0.000000
    60  F   -0.115668  -0.000000
    61  C    0.008775   0.000000
    62  N   -0.178255  -0.000000
    63  C    0.106995   0.000000
    64  C   -0.051560  -0.000000
    65  C    0.058728  -0.000000
    66  C    0.006087   0.000000
    67  C    0.008509  -0.000000
    68  C    0.007372   0.000000
    69  C    0.120869  -0.000000
    70  F   -0.120263  -0.000000
    71  C   -0.065621  -0.000000
    72  C    0.083000   0.000000
    73  C    0.129288  -0.000000
    74  F   -0.115914  -0.000000
    75  C    0.009103   0.000000
    76  N   -0.178020  -0.000000
    77  C    0.106720   0.000000
    78  C   -0.051746   0.000000
    79  C    0.057686  -0.000000
    80  C    0.005304   0.000000
    81  C    0.008177   0.000000
    82  C    0.008561  -0.000000
    83  C    0.120580  -0.000000
    84  F   -0.120676   0.000000
    85  C   -0.065051  -0.000000
    86  C    0.079720   0.000000
    87  C    0.120610  -0.000000
    88  F   -0.123207  -0.000000
    89  C    0.012989  -0.000000
    90  N   -0.164705   0.000000
    91  C    0.104062  -0.000000
    92  C   -0.062563   0.000000
    93  C    0.035640  -0.000000
    94  C    0.011359   0.000000
    95  C    0.028183  -0.000000
    96  C    0.008483   0.000000
    97  C    0.120709  -0.000000
    98  F   -0.115363   0.000000
 Electronic spatial extent (au):  <R**2>=         718862.6931
 Charge=             -0.0000 electrons
 Dipole moment (field-independent basis, Debye):
    X=              9.2952    Y=              3.1418    Z=              0.5179  Tot=              9.8255
 Quadrupole moment (field-independent basis, Debye-Ang):
   XX=           -338.5354   YY=           -546.1821   ZZ=           -538.0742
   XY=              2.4224   XZ=            -24.3936   YZ=             -4.5052
 Traceless Quadrupole moment (field-independent basis, Debye-Ang):
   XX=            135.7285   YY=            -71.9182   ZZ=            -63.8103
   XY=              2.4224   XZ=            -24.3936   YZ=             -4.5052
 Octapole moment (field-independent basis, Debye-Ang**2):
  XXX=           7574.0975  YYY=             64.5601  ZZZ=             -5.5498  XYY=             89.6739
  XXY=            833.9601  XXZ=            609.0683  XZZ=              8.2568  YZZ=             28.3605
  YYZ=             -9.0888  XYZ=            -51.4216
 Hexadecapole moment (field-independent basis, Debye-Ang**3):
 XXXX=        -641318.6925 YYYY=          -9442.9651 ZZZZ=          -3029.9760 XXXY=         -12484.8360
 XXXZ=          -4688.3460 YYYX=           -753.7875 YYYZ=            -24.5041 ZZZX=            849.8072
 ZZZY=            -34.0880 XXYY=        -161099.9910 XXZZ=        -160311.1728 YYZZ=          -2076.5638
 XXYZ=           -213.5600 YYXZ=            514.6067 ZZXY=           -138.6810
 N-N= 1.258384932703D+04 E-N=-3.624578905513D+04  KE= 4.705983355230D+03
 Leave Link  601 at Sat Jul 25 04:43:11 2020, MaxMem=  4026531840 cpu:              12.9 elap:               1.8
 (Enter /opt/ohpc/pub/libs/gaussian/g16-A.03/sandybridge/g16/l9999.exe)

 Test job not archived.
 1\1\GINC-SKYLAKE017\FOpt\ULC-wPBE\CC-pVDZ\C77H37F14N7\RDU230\25-Jul-20
 20\0\\#P uLC-wPBE/cc-pVDZ iop(3/107=0380100000, 3/108=0380100000) opt\
 \H37 C77 N7 F14\\0,1\C,28.7911688976,-0.7036791194,-2.4889833275\C,28.
 3012575569,-1.5806131527,-1.5333054358\C,26.9564273121,-1.5076204058,-
 1.2269513865\F,26.4477372014,-2.3445805105,-0.3088363797\C,26.12618096
 01,-0.5827490547,-1.8586701953\N,26.6132271403,0.2526625154,-2.7770146
 594\C,27.9055191165,0.190656619,-3.0792423529\C,24.6801988228,-0.48928
 95128,-1.5309187254\C,24.2243942384,-0.4229347842,-0.2140019254\C,22.8
 754904221,-0.2950850416,0.0804293257\C,21.929058708,-0.2392056802,-0.9
 447975462\C,22.3671069327,-0.3189454971,-2.2656652873\C,23.7182168914,
 -0.4420888653,-2.5367207893\F,24.0940716934,-0.5342987057,-3.816947748
 2\C,20.4841021819,-0.1043445484,-0.6403993311\C,20.0257235688,0.751199
 9057,0.3572137957\C,18.6669390906,0.8253835667,0.5850699204\F,18.21323
 41959,1.6498215925,1.5424673066\C,17.7684876531,0.0671530526,-0.162993
 2251\N,18.214932518,-0.7564451991,-1.1120563976\C,19.5190908262,-0.836
 3459689,-1.3378745531\C,16.3029923359,0.1500054046,0.0586569224\C,15.6
 39226828,1.3734841295,0.156128152\C,14.2649295135,1.4406165029,0.32693
 65184\C,13.5039944405,0.2730632187,0.415245403\C,14.1537963795,-0.9574
 355183,0.3320405607\C,15.5255690947,-1.0014993694,0.158435834\F,16.113
 3320125,-2.2020630866,0.1199419651\C,12.0336350285,0.3339118635,0.5959
 084231\C,11.4411291121,1.256269465,1.4536845653\C,10.0663187008,1.2557
 848936,1.5697627288\F,9.4847735025,2.132551582,2.4033577091\C,9.282823
 751,0.3565252741,0.8490506828\N,9.8566053501,-0.5221920848,0.026224350
 3\C,11.177188467,-0.5291275033,-0.0934187164\C,7.8026437938,0.34598102
 48,0.962247937\C,7.0475663403,1.5164212551,0.8815238168\C,5.6627046659
 ,1.492999459,0.9502470508\C,4.9829020682,0.2842193104,1.1131047636\C,5
 .7237668329,-0.892689889,1.2095782981\C,7.1041452444,-0.8467255691,1.1
 351846218\F,7.7763293214,-1.9971306287,1.2534097099\C,3.5024650917,0.2
 484490912,1.1877110022\C,2.8338649436,-0.5710230077,2.0926935469\C,1.4
 543855106,-0.547215503,2.1047544078\F,0.7990472363,-1.3238159505,2.981
 5461071\C,0.7404806872,0.275101617,1.2352097562\N,1.3870670767,1.05396
 73806,0.3670689953\C,2.7127875019,1.0372678635,0.3464791155\C,-0.74361
 2997,0.311788825,1.2370431587\C,-1.5117567384,-0.8527519259,1.22491262
 72\C,-2.8974065989,-0.8076167588,1.1878431315\C,-3.5651808634,0.418557
 4473,1.1713444862\C,-2.8120839382,1.5914148527,1.1977685444\C,-1.43114
 55579,1.5232961948,1.2309065472\F,-0.7482174174,2.672679735,1.27608813
 86\C,-5.0461988804,0.4770838438,1.1295088278\C,-5.7659921477,1.3975288
 245,1.8860294001\C,-7.1432743735,1.3908156039,1.7992362417\F,-7.840325
 6476,2.3021076399,2.4871103935\C,-7.804816306,0.4691814185,0.989711763
 8\N,-7.108365819,-0.3866848907,0.2403111814\C,-5.7835884414,-0.3812961
 514,0.3100712087\C,-9.2823110615,0.4308267747,0.8620545637\C,-9.868630
 9263,0.3032725135,-0.397115679\C,-11.2446965619,0.2527258406,-0.552427
 3507\C,-12.0857001547,0.3150706623,0.5621478599\C,-11.5132780008,0.415
 5679914,1.8290799716\C,-10.1370780852,0.4652599907,1.9585766\F,-9.6217
 111503,0.5073914619,3.1961335673\C,-13.5593399672,0.2646668956,0.40640
 96341\C,-14.4044835233,1.0690574452,1.1656803893\C,-15.7661968686,0.97
 28911379,0.9632391133\F,-16.5873287941,1.7082973747,1.7213082916\C,-16
 .2877172218,0.1069341553,0.0037073363\N,-15.4750230895,-0.6872819937,-
 0.6948916051\C,-14.1651404363,-0.6090214873,-0.5000662519\C,-17.743718
 7331,-0.0304967332,-0.2447899534\C,-18.308977213,-1.2978978307,-0.3862
 554363\C,-19.6627417286,-1.4627968298,-0.631546137\C,-20.5000771774,-0
 .3508243751,-0.7583575956\C,-19.9444176896,0.922555763,-0.6462908385\C
 ,-18.5904149497,1.0617477651,-0.4002118445\F,-18.0827033796,2.30243041
 34,-0.3528491891\C,-21.9507035369,-0.515064051,-1.0179135482\C,-22.901
 7734326,0.2795567114,-0.3839156345\C,-24.2336729652,0.0671212356,-0.67
 42689114\F,-25.1588859136,0.8259369238,-0.0663854954\C,-24.6265898396,
 -0.9192662473,-1.5773421026\N,-23.7094809908,-1.6711959583,-2.18709234
 34\C,-22.4262227072,-1.4736372459,-1.9165134158\C,-26.057675592,-1.170
 3143345,-1.8845596692\C,-27.00959639,-1.3212717341,-0.8747436081\C,-28
 .3384673433,-1.5918146291,-1.171635771\C,-28.7408844542,-1.7065979639,
 -2.497622388\C,-27.8164120685,-1.5478977987,-3.5210586277\C,-26.495401
 9048,-1.2824877145,-3.2022398443\F,-25.6251036137,-1.1056226163,-4.204
 4972655\H,29.8446179419,-0.7136097205,-2.7729442136\H,28.9304354086,-2
 .3156387789,-1.0288455005\H,28.2544830079,0.898012728,-3.837760713\H,2
 4.9500896534,-0.4719677174,0.5991216253\H,22.5526091418,-0.2594369338,
 1.1225662256\H,21.672428221,-0.2691735653,-3.1053545942\H,20.702153479
 6,1.3708713727,0.9483842436\H,19.8270525986,-1.5421655613,-2.115729443
 8\H,16.2171755075,2.2956384491,0.0802903556\H,13.7745188743,2.41499591
 88,0.3672306672\H,13.6130792061,-1.9000081373,0.4284179999\H,12.028201
 2171,1.9560057266,2.050992195\H,11.5893323903,-1.2572865519,-0.7991187
 576\H,7.5630443408,2.4701990149,0.7604396015\H,5.1044151026,2.42919391
 44,0.8974334941\H,5.2442781004,-1.8658433751,1.326239933\H,3.363838642
 3,-1.2070193312,2.8039370105\H,3.1873327094,1.680079356,-0.4015003575\
 H,-1.0061752974,-1.8192582595,1.2437845194\H,-3.4675591165,-1.73815915
 24,1.192784269\H,-3.2809147582,2.576410327,1.1753322043\H,-5.277705018
 5,2.1159096853,2.5468579146\H,-5.2664017877,-1.0932698089,-0.340575513
 3\H,-9.210424925,0.246685078,-1.2655503571\H,-11.6731722689,0.18628102
 33,-1.5539726783\H,-12.1204129277,0.4221148973,2.735571473\H,-14.02472
 15906,1.7744061027,1.9069702125\H,-13.5511296736,-1.297395566,-1.08900
 50922\H,-17.6524904628,-2.1647592941,-0.2956260612\H,-20.0798521051,-2
 .4686154775,-0.7049350254\H,-20.5430263554,1.8245201561,-0.7824376513\
 H,-22.6282280174,1.048788255,0.3405052746\H,-21.7197811118,-2.10729426
 76,-2.4619392454\H,-26.6927708154,-1.231709837,0.1656732786\H,-29.0618
 888315,-1.714580251,-0.3638410467\H,-29.7841493045,-1.918484984,-2.740
 604703\H,-28.0976277438,-1.6207960363,-4.5724523253\\Version=EM64L-G16
 RevA.03\State=1-A\HF=-4734.4947293\S2=0.\S2-1=0.\S2A=0.\RMSD=4.854e-09
 \RMSF=6.448e-07\Dipole=3.6560065,0.4066904,1.1880928\Quadrupole=100.93
 62004,-46.0131752,-54.9230253,16.7635515,-6.8785683,-0.6637403\PG=C01 
 [X(C77H37F14N7)]\\@


 EXPERIMENTALISTS THINK SILICON IS REALLY FUN TO USE
     ITS PLACE IN NOVEL COMPOUNDS IS CERTAIN TO AMUSE
 THEY SIT ALL DAY IN LABORATORIES MAKING ALL THIS SLUDGE
     "LOADED WITH THE SILICON THEY SAY", TO ME IT LOOKS LIKE FUDGE.
 FOR HAPPY THOUGH THEY BE WITH CRUD, I'D LIKE TO KNOW A LITTLE
      ABOUT THE PI BONDS ON THE EDGE AND SIGMAS IN THE MIDDLE.

 SO LETS DERIVE A WAVEFUNCTION.....6-31G*
     USE AN OPTIMAL GEOMETRY AND SEE WHERE ELECTRONS ARE.
 BUT WHAT OF CORRELATION?  ASKS THE WIRY LITTLE SKEPTIC.
     WE'LL THROW IN PERTURBATION AS AN ELECTRON ANTISEPTIC.
 AND WHEN THE PROGRAM GIVES US ANSWERS IN THEM WE CAN TRUST
     SINCE NOBODY CAN MAKE THE STUFF, WE HAVE NO CHOICE, WE MUST.

 SO THEORY GUYS HAVE GOT IT MADE, IN ROOMS FREE OF POLLUTION.
     INSTEAD OF PROBLEMS WITH THE REFLUX, THEY HAVE ONLY SOLUTIONS.
 AND WHEN THE FEDS ANNOUNCE THE LIST OF CARCINOGENIC TERRORS,
     THE THEORISTS SIT SAFELY AT THEIR TERMINALS FIXING ERRORS.
 IN OTHER WORDS, EXPERIMENTALISTS WILL LIKELY DIE OF CANCER
     FROM WORKING HARD YET FRUITLESSLY...TILL THEORY GIVES THE ANSWER.
          -- THOMAS A. HOLME, 1983
 Job cpu time:       2 days  5 hours  2 minutes 51.7 seconds.
 Elapsed time:       0 days  6 hours 45 minutes 25.5 seconds.
 File lengths (MBytes):  RWF=   2692 Int=      0 D2E=      0 Chk=    240 Scr=      8
 Normal termination of Gaussian 16 at Sat Jul 25 04:43:11 2020.
