 Entering Gaussian System, Link 0=g16
 Input=mols_65_5_06_c-n-CF_opt_0.gjf
 Output=mols_65_5_06_c-n-CF_opt_0.log
 Initial command:
 /opt/ohpc/pub/libs/gaussian/g16-A.03/sandybridge/g16/l1.exe "/mnt/gpfs2_4m/scratch/rdu230/ondemand/projects/dihedral_energies/7trial/wtuning/mols_65_5_06_c-n-CF/Gau-359925.inp" -scrdir="/mnt/gpfs2_4m/scratch/rdu230/ondemand/projects/dihedral_energies/7trial/wtuning/mols_65_5_06_c-n-CF/"
 Entering Link 1 = /opt/ohpc/pub/libs/gaussian/g16-A.03/sandybridge/g16/l1.exe PID=    359929.
  
 Copyright (c) 1988,1990,1992,1993,1995,1998,2003,2009,2016,
            Gaussian, Inc.  All Rights Reserved.
  
 This is part of the Gaussian(R) 16 program.  It is based on
 the Gaussian(R) 09 system (copyright 2009, Gaussian, Inc.),
 the Gaussian(R) 03 system (copyright 2003, Gaussian, Inc.),
 the Gaussian(R) 98 system (copyright 1998, Gaussian, Inc.),
 the Gaussian(R) 94 system (copyright 1995, Gaussian, Inc.),
 the Gaussian 92(TM) system (copyright 1992, Gaussian, Inc.),
 the Gaussian 90(TM) system (copyright 1990, Gaussian, Inc.),
 the Gaussian 88(TM) system (copyright 1988, Gaussian, Inc.),
 the Gaussian 86(TM) system (copyright 1986, Carnegie Mellon
 University), and the Gaussian 82(TM) system (copyright 1983,
 Carnegie Mellon University). Gaussian is a federally registered
 trademark of Gaussian, Inc.
  
 This software contains proprietary and confidential information,
 including trade secrets, belonging to Gaussian, Inc.
  
 This software is provided under written license and may be
 used, copied, transmitted, or stored only in accord with that
 written license.
  
 The following legend is applicable only to US Government
 contracts under FAR:
  
                    RESTRICTED RIGHTS LEGEND
  
 Use, reproduction and disclosure by the US Government is
 subject to restrictions as set forth in subparagraphs (a)
 and (c) of the Commercial Computer Software - Restricted
 Rights clause in FAR 52.227-19.
  
 Gaussian, Inc.
 340 Quinnipiac St., Bldg. 40, Wallingford CT 06492
  
  
 ---------------------------------------------------------------
 Warning -- This program may not be used in any manner that
 competes with the business of Gaussian, Inc. or will provide
 assistance to any competitor of Gaussian, Inc.  The licensee
 of this program is prohibited from giving any competitor of
 Gaussian, Inc. access to this program.  By using this program,
 the user acknowledges that Gaussian, Inc. is engaged in the
 business of creating and licensing software in the field of
 computational chemistry and represents and warrants to the
 licensee that it is not a competitor of Gaussian, Inc. and that
 it will not use this program in any manner prohibited above.
 ---------------------------------------------------------------
  

 Cite this work as:
 Gaussian 16, Revision A.03,
 M. J. Frisch, G. W. Trucks, H. B. Schlegel, G. E. Scuseria, 
 M. A. Robb, J. R. Cheeseman, G. Scalmani, V. Barone, 
 G. A. Petersson, H. Nakatsuji, X. Li, M. Caricato, A. V. Marenich, 
 J. Bloino, B. G. Janesko, R. Gomperts, B. Mennucci, H. P. Hratchian, 
 J. V. Ortiz, A. F. Izmaylov, J. L. Sonnenberg, D. Williams-Young, 
 F. Ding, F. Lipparini, F. Egidi, J. Goings, B. Peng, A. Petrone, 
 T. Henderson, D. Ranasinghe, V. G. Zakrzewski, J. Gao, N. Rega, 
 G. Zheng, W. Liang, M. Hada, M. Ehara, K. Toyota, R. Fukuda, 
 J. Hasegawa, M. Ishida, T. Nakajima, Y. Honda, O. Kitao, H. Nakai, 
 T. Vreven, K. Throssell, J. A. Montgomery, Jr., J. E. Peralta, 
 F. Ogliaro, M. J. Bearpark, J. J. Heyd, E. N. Brothers, K. N. Kudin, 
 V. N. Staroverov, T. A. Keith, R. Kobayashi, J. Normand, 
 K. Raghavachari, A. P. Rendell, J. C. Burant, S. S. Iyengar, 
 J. Tomasi, M. Cossi, J. M. Millam, M. Klene, C. Adamo, R. Cammi, 
 J. W. Ochterski, R. L. Martin, K. Morokuma, O. Farkas, 
 J. B. Foresman, and D. J. Fox, Gaussian, Inc., Wallingford CT, 2016.
 
 ******************************************
 Gaussian 16:  EM64L-G16RevA.03 25-Dec-2016
                24-Jul-2020 
 ******************************************
 %mem=30GB
 %nproc=8
 Will use up to    8 processors via shared memory.
 ---------------------------------------------------------------
 #P uLC-wPBE/cc-pVDZ iop(3/107=0462500000, 3/108=0462500000) opt
 ---------------------------------------------------------------
 1/18=20,19=15,26=3,38=1/1,3;
 2/9=110,12=2,17=6,18=5,40=1/2;
 3/5=16,11=2,25=1,30=1,71=1,74=-41,107=462500000,108=462500000,116=2/1,2,3;
 4//1;
 5/5=2,38=5/2;
 6/7=2,8=2,9=2,10=2,28=1/1;
 7//1,2,3,16;
 1/18=20,19=15,26=3/3(2);
 2/9=110/2;
 99//99;
 2/9=110/2;
 3/5=16,11=2,25=1,30=1,71=1,74=-41,107=462500000,108=462500000,116=2/1,2,3;
 4/5=5,16=3,69=1/1;
 5/5=2,38=5/2;
 7//1,2,3,16;
 1/18=20,19=15,26=3/3(-5);
 2/9=110/2;
 6/7=2,8=2,9=2,10=2,19=2,28=1/1;
 99/9=1/99;
 Leave Link    1 at Fri Jul 24 14:40:47 2020, MaxMem=  4026531840 cpu:               1.9 elap:               0.3
 (Enter /opt/ohpc/pub/libs/gaussian/g16-A.03/sandybridge/g16/l101.exe)
 ----------------
 H22 C45 S5 N5 F5
 ----------------
 Symbolic Z-matrix:
 Charge =  0 Multiplicity = 1
 C                    -18.57851  -2.63154  -0.39333 
 C                    -17.84782  -3.81177  -0.42512 
 C                    -16.48818  -3.66181  -0.31365 
 C                    -15.92644  -2.47914  -0.15267 
 N                    -16.60567  -1.36054  -0.10597 
 C                    -17.97419  -1.44279  -0.28734 
 C                    -14.39427  -2.25247   0.03852 
 C                    -13.49355  -3.22479   0.47428 
 F                    -13.75788  -4.47188   0.78385 
 C                    -12.21841  -2.6708    0.517 
 C                    -12.13579  -1.31683   0.187 
 S                    -13.70122  -0.77186  -0.36617 
 C                    -10.97678  -0.48239   0.0826 
 C                    -11.01305   0.87227   0.43485 
 C                    -9.9191    1.71932   0.43882 
 C                    -8.63112   1.17084  -0.03314 
 N                    -8.55587  -0.1722   -0.43511 
 C                    -9.69064  -0.89931  -0.40477 
 C                    -7.449     1.94823  -0.05546 
 C                    -7.23032   3.31217  -0.04896 
 F                    -8.23878   4.21849  -0.08584 
 C                    -5.94133   3.7315   -0.1252 
 C                    -4.99639   2.59585  -0.16723 
 S                    -5.94468   1.1724   -0.16428 
 C                    -3.50606   2.6616   -0.13645 
 C                    -2.86867   3.82469  -0.51815 
 C                    -1.41795   3.87106  -0.44401 
 C                    -0.77898   2.6827   -0.0192 
 N                    -1.44266   1.50259   0.27004 
 C                    -2.71996   1.53026   0.18548 
 C                     0.74476   2.65099   0.0611 
 C                     1.58266   3.66753   0.41763 
 F                     1.22118   4.92108   0.64987 
 C                     2.90154   3.28276   0.4546 
 C                     3.1384    1.88113   0.18897 
 S                     1.54452   1.12636  -0.16098 
 C                     4.36821   1.12911   0.17877 
 C                     4.38621  -0.20709   0.56817 
 C                     5.60097  -0.96461   0.6334 
 C                     6.7011   -0.26821   0.15752 
 N                     6.6834    1.02434  -0.23624 
 C                     5.49658   1.62251  -0.24229 
 C                     8.01302  -0.94595   0.15799 
 C                     8.39987  -2.31113   0.29512 
 F                     7.5102   -3.22798   0.4032 
 C                     9.74469  -2.58898   0.27137 
 C                     10.55901  -1.45838   0.07566 
 S                     9.50621  -0.08267  -0.06319 
 C                     11.99289  -1.26091   0.05481 
 C                     12.68751  -0.13235   0.39644 
 C                     14.04746  -0.07225   0.38032 
 C                     14.80988  -1.22142  -0.06472 
 N                     14.12977  -2.33407  -0.47251 
 C                     12.8037  -2.31654  -0.49535 
 C                     16.20014  -1.23436  -0.21327 
 C                     17.10841  -0.24237  -0.27392 
 F                     16.75795   1.05968  -0.28841 
 C                     18.49337  -0.64559  -0.29802 
 C                     18.66733  -1.98598  -0.25849 
 S                     17.0773  -2.72884  -0.19205 
 H                    -19.72945  -2.70257  -0.50787 
 H                    -18.32434  -4.79559  -0.57696 
 H                    -15.85562  -4.65349  -0.37756 
 H                    -18.50475  -0.52666  -0.15573 
 H                    -11.31081  -3.2556    0.90132 
 H                    -11.94676   1.32993   0.89473 
 H                    -9.96452   2.69959   0.76676 
 H                    -9.54973  -1.95898  -0.68812 
 H                    -5.54569   4.73875  -0.11667 
 H                    -3.33555   4.7671   -0.79987 
 H                    -0.89181   4.73484  -0.72791 
 H                    -3.25013   0.62372   0.45011 
 H                     3.74844   3.93092   0.74757 
 H                     3.53623  -0.72302   0.95665 
 H                     5.58606  -1.93053   0.91412 
 H                     5.62072   2.65311  -0.56201 
 H                     10.21949  -3.57566   0.34971 
 H                     12.13305   0.7271    0.79493 
 H                     14.56018   0.80047   0.74303 
 H                     12.34435  -3.22186  -0.85038 
 H                     19.38082   0.08756  -0.35903 
 H                     19.47988  -2.56294  -0.25842 
 
 ITRead=  0  0  0  0  0  0  0  0  0  0  0  0  0  0  0  0  0  0  0  0
 ITRead=  0  0  0  0  0  0  0  0  0  0  0  0  0  0  0  0  0  0  0  0
 ITRead=  0  0  0  0  0  0  0  0  0  0  0  0  0  0  0  0  0  0  0  0
 ITRead=  0  0  0  0  0  0  0  0  0  0  0  0  0  0  0  0  0  0  0  0
 ITRead=  0  0
 MicOpt= -1 -1 -1 -1 -1 -1 -1 -1 -1 -1 -1 -1 -1 -1 -1 -1 -1 -1 -1 -1
 MicOpt= -1 -1 -1 -1 -1 -1 -1 -1 -1 -1 -1 -1 -1 -1 -1 -1 -1 -1 -1 -1
 MicOpt= -1 -1 -1 -1 -1 -1 -1 -1 -1 -1 -1 -1 -1 -1 -1 -1 -1 -1 -1 -1
 MicOpt= -1 -1 -1 -1 -1 -1 -1 -1 -1 -1 -1 -1 -1 -1 -1 -1 -1 -1 -1 -1
 MicOpt= -1 -1
 NAtoms=     82 NQM=       82 NQMF=       0 NMMI=      0 NMMIF=      0
                NMic=       0 NMicF=      0.
                    Isotopes and Nuclear Properties:
 (Nuclear quadrupole moments (NQMom) in fm**2, nuclear magnetic moments (NMagM)
  in nuclear magnetons)

  Atom         1           2           3           4           5           6           7           8           9          10
 IAtWgt=          12          12          12          12          14          12          12          12          19          12
 AtmWgt=  12.0000000  12.0000000  12.0000000  12.0000000  14.0030740  12.0000000  12.0000000  12.0000000  18.9984033  12.0000000
 NucSpn=           0           0           0           0           2           0           0           0           1           0
 AtZEff=  -0.0000000  -0.0000000  -0.0000000  -0.0000000  -0.0000000  -0.0000000  -0.0000000  -0.0000000  -0.0000000  -0.0000000
 NQMom=    0.0000000   0.0000000   0.0000000   0.0000000   2.0440000   0.0000000   0.0000000   0.0000000   0.0000000   0.0000000
 NMagM=    0.0000000   0.0000000   0.0000000   0.0000000   0.4037610   0.0000000   0.0000000   0.0000000   2.6288670   0.0000000
 AtZNuc=   6.0000000   6.0000000   6.0000000   6.0000000   7.0000000   6.0000000   6.0000000   6.0000000   9.0000000   6.0000000

  Atom        11          12          13          14          15          16          17          18          19          20
 IAtWgt=          12          32          12          12          12          12          14          12          12          12
 AtmWgt=  12.0000000  31.9720718  12.0000000  12.0000000  12.0000000  12.0000000  14.0030740  12.0000000  12.0000000  12.0000000
 NucSpn=           0           0           0           0           0           0           2           0           0           0
 AtZEff=  -0.0000000  -0.0000000  -0.0000000  -0.0000000  -0.0000000  -0.0000000  -0.0000000  -0.0000000  -0.0000000  -0.0000000
 NQMom=    0.0000000   0.0000000   0.0000000   0.0000000   0.0000000   0.0000000   2.0440000   0.0000000   0.0000000   0.0000000
 NMagM=    0.0000000   0.0000000   0.0000000   0.0000000   0.0000000   0.0000000   0.4037610   0.0000000   0.0000000   0.0000000
 AtZNuc=   6.0000000  16.0000000   6.0000000   6.0000000   6.0000000   6.0000000   7.0000000   6.0000000   6.0000000   6.0000000

  Atom        21          22          23          24          25          26          27          28          29          30
 IAtWgt=          19          12          12          32          12          12          12          12          14          12
 AtmWgt=  18.9984033  12.0000000  12.0000000  31.9720718  12.0000000  12.0000000  12.0000000  12.0000000  14.0030740  12.0000000
 NucSpn=           1           0           0           0           0           0           0           0           2           0
 AtZEff=  -0.0000000  -0.0000000  -0.0000000  -0.0000000  -0.0000000  -0.0000000  -0.0000000  -0.0000000  -0.0000000  -0.0000000
 NQMom=    0.0000000   0.0000000   0.0000000   0.0000000   0.0000000   0.0000000   0.0000000   0.0000000   2.0440000   0.0000000
 NMagM=    2.6288670   0.0000000   0.0000000   0.0000000   0.0000000   0.0000000   0.0000000   0.0000000   0.4037610   0.0000000
 AtZNuc=   9.0000000   6.0000000   6.0000000  16.0000000   6.0000000   6.0000000   6.0000000   6.0000000   7.0000000   6.0000000

  Atom        31          32          33          34          35          36          37          38          39          40
 IAtWgt=          12          12          19          12          12          32          12          12          12          12
 AtmWgt=  12.0000000  12.0000000  18.9984033  12.0000000  12.0000000  31.9720718  12.0000000  12.0000000  12.0000000  12.0000000
 NucSpn=           0           0           1           0           0           0           0           0           0           0
 AtZEff=  -0.0000000  -0.0000000  -0.0000000  -0.0000000  -0.0000000  -0.0000000  -0.0000000  -0.0000000  -0.0000000  -0.0000000
 NQMom=    0.0000000   0.0000000   0.0000000   0.0000000   0.0000000   0.0000000   0.0000000   0.0000000   0.0000000   0.0000000
 NMagM=    0.0000000   0.0000000   2.6288670   0.0000000   0.0000000   0.0000000   0.0000000   0.0000000   0.0000000   0.0000000
 AtZNuc=   6.0000000   6.0000000   9.0000000   6.0000000   6.0000000  16.0000000   6.0000000   6.0000000   6.0000000   6.0000000

  Atom        41          42          43          44          45          46          47          48          49          50
 IAtWgt=          14          12          12          12          19          12          12          32          12          12
 AtmWgt=  14.0030740  12.0000000  12.0000000  12.0000000  18.9984033  12.0000000  12.0000000  31.9720718  12.0000000  12.0000000
 NucSpn=           2           0           0           0           1           0           0           0           0           0
 AtZEff=  -0.0000000  -0.0000000  -0.0000000  -0.0000000  -0.0000000  -0.0000000  -0.0000000  -0.0000000  -0.0000000  -0.0000000
 NQMom=    2.0440000   0.0000000   0.0000000   0.0000000   0.0000000   0.0000000   0.0000000   0.0000000   0.0000000   0.0000000
 NMagM=    0.4037610   0.0000000   0.0000000   0.0000000   2.6288670   0.0000000   0.0000000   0.0000000   0.0000000   0.0000000
 AtZNuc=   7.0000000   6.0000000   6.0000000   6.0000000   9.0000000   6.0000000   6.0000000  16.0000000   6.0000000   6.0000000

  Atom        51          52          53          54          55          56          57          58          59          60
 IAtWgt=          12          12          14          12          12          12          19          12          12          32
 AtmWgt=  12.0000000  12.0000000  14.0030740  12.0000000  12.0000000  12.0000000  18.9984033  12.0000000  12.0000000  31.9720718
 NucSpn=           0           0           2           0           0           0           1           0           0           0
 AtZEff=  -0.0000000  -0.0000000  -0.0000000  -0.0000000  -0.0000000  -0.0000000  -0.0000000  -0.0000000  -0.0000000  -0.0000000
 NQMom=    0.0000000   0.0000000   2.0440000   0.0000000   0.0000000   0.0000000   0.0000000   0.0000000   0.0000000   0.0000000
 NMagM=    0.0000000   0.0000000   0.4037610   0.0000000   0.0000000   0.0000000   2.6288670   0.0000000   0.0000000   0.0000000
 AtZNuc=   6.0000000   6.0000000   7.0000000   6.0000000   6.0000000   6.0000000   9.0000000   6.0000000   6.0000000  16.0000000

  Atom        61          62          63          64          65          66          67          68          69          70
 IAtWgt=           1           1           1           1           1           1           1           1           1           1
 AtmWgt=   1.0078250   1.0078250   1.0078250   1.0078250   1.0078250   1.0078250   1.0078250   1.0078250   1.0078250   1.0078250
 NucSpn=           1           1           1           1           1           1           1           1           1           1
 AtZEff=  -0.0000000  -0.0000000  -0.0000000  -0.0000000  -0.0000000  -0.0000000  -0.0000000  -0.0000000  -0.0000000  -0.0000000
 NQMom=    0.0000000   0.0000000   0.0000000   0.0000000   0.0000000   0.0000000   0.0000000   0.0000000   0.0000000   0.0000000
 NMagM=    2.7928460   2.7928460   2.7928460   2.7928460   2.7928460   2.7928460   2.7928460   2.7928460   2.7928460   2.7928460
 AtZNuc=   1.0000000   1.0000000   1.0000000   1.0000000   1.0000000   1.0000000   1.0000000   1.0000000   1.0000000   1.0000000

  Atom        71          72          73          74          75          76          77          78          79          80
 IAtWgt=           1           1           1           1           1           1           1           1           1           1
 AtmWgt=   1.0078250   1.0078250   1.0078250   1.0078250   1.0078250   1.0078250   1.0078250   1.0078250   1.0078250   1.0078250
 NucSpn=           1           1           1           1           1           1           1           1           1           1
 AtZEff=  -0.0000000  -0.0000000  -0.0000000  -0.0000000  -0.0000000  -0.0000000  -0.0000000  -0.0000000  -0.0000000  -0.0000000
 NQMom=    0.0000000   0.0000000   0.0000000   0.0000000   0.0000000   0.0000000   0.0000000   0.0000000   0.0000000   0.0000000
 NMagM=    2.7928460   2.7928460   2.7928460   2.7928460   2.7928460   2.7928460   2.7928460   2.7928460   2.7928460   2.7928460
 AtZNuc=   1.0000000   1.0000000   1.0000000   1.0000000   1.0000000   1.0000000   1.0000000   1.0000000   1.0000000   1.0000000

  Atom        81          82
 IAtWgt=           1           1
 AtmWgt=   1.0078250   1.0078250
 NucSpn=           1           1
 AtZEff=  -0.0000000  -0.0000000
 NQMom=    0.0000000   0.0000000
 NMagM=    2.7928460   2.7928460
 AtZNuc=   1.0000000   1.0000000
 Leave Link  101 at Fri Jul 24 14:40:47 2020, MaxMem=  4026531840 cpu:               3.6 elap:               0.5
 (Enter /opt/ohpc/pub/libs/gaussian/g16-A.03/sandybridge/g16/l103.exe)

 GradGradGradGradGradGradGradGradGradGradGradGradGradGradGradGradGradGrad
 Berny optimization.
 Initialization pass.
                           ----------------------------
                           !    Initial Parameters    !
                           ! (Angstroms and Degrees)  !
 --------------------------                            --------------------------
 ! Name  Definition              Value          Derivative Info.                !
 --------------------------------------------------------------------------------
 ! R1    R(1,2)                  1.3885         estimate D2E/DX2                !
 ! R2    R(1,6)                  1.3377         estimate D2E/DX2                !
 ! R3    R(1,61)                 1.1588         estimate D2E/DX2                !
 ! R4    R(2,3)                  1.3724         estimate D2E/DX2                !
 ! R5    R(2,62)                 1.1036         estimate D2E/DX2                !
 ! R6    R(3,4)                  1.3192         estimate D2E/DX2                !
 ! R7    R(3,63)                 1.178          estimate D2E/DX2                !
 ! R8    R(4,5)                  1.3095         estimate D2E/DX2                !
 ! R9    R(4,7)                  1.5606         estimate D2E/DX2                !
 ! R10   R(5,6)                  1.3829         estimate D2E/DX2                !
 ! R11   R(6,64)                 1.0668         estimate D2E/DX2                !
 ! R12   R(7,8)                  1.3952         estimate D2E/DX2                !
 ! R13   R(7,12)                 1.6841         estimate D2E/DX2                !
 ! R14   R(8,9)                  1.3118         estimate D2E/DX2                !
 ! R15   R(8,10)                 1.3909         estimate D2E/DX2                !
 ! R16   R(10,11)                1.3961         estimate D2E/DX2                !
 ! R17   R(10,65)                1.146          estimate D2E/DX2                !
 ! R18   R(11,12)                1.7474         estimate D2E/DX2                !
 ! R19   R(11,13)                1.432          estimate D2E/DX2                !
 ! R20   R(13,14)                1.4002         estimate D2E/DX2                !
 ! R21   R(13,18)                1.4372         estimate D2E/DX2                !
 ! R22   R(14,15)                1.3836         estimate D2E/DX2                !
 ! R23   R(14,66)                1.137          estimate D2E/DX2                !
 ! R24   R(15,16)                1.4773         estimate D2E/DX2                !
 ! R25   R(15,67)                1.0347         estimate D2E/DX2                !
 ! R26   R(16,17)                1.4039         estimate D2E/DX2                !
 ! R27   R(16,19)                1.415          estimate D2E/DX2                !
 ! R28   R(17,18)                1.3481         estimate D2E/DX2                !
 ! R29   R(18,68)                1.1059         estimate D2E/DX2                !
 ! R30   R(19,20)                1.3814         estimate D2E/DX2                !
 ! R31   R(19,24)                1.6961         estimate D2E/DX2                !
 ! R32   R(20,21)                1.3564         estimate D2E/DX2                !
 ! R33   R(20,22)                1.3576         estimate D2E/DX2                !
 ! R34   R(22,23)                1.478          estimate D2E/DX2                !
 ! R35   R(22,69)                1.0822         estimate D2E/DX2                !
 ! R36   R(23,24)                1.7104         estimate D2E/DX2                !
 ! R37   R(23,25)                1.4921         estimate D2E/DX2                !
 ! R38   R(25,26)                1.3801         estimate D2E/DX2                !
 ! R39   R(25,30)                1.4147         estimate D2E/DX2                !
 ! R40   R(26,27)                1.4534         estimate D2E/DX2                !
 ! R41   R(26,70)                1.0888         estimate D2E/DX2                !
 ! R42   R(27,28)                1.4145         estimate D2E/DX2                !
 ! R43   R(27,71)                1.0505         estimate D2E/DX2                !
 ! R44   R(28,29)                1.3845         estimate D2E/DX2                !
 ! R45   R(28,31)                1.5262         estimate D2E/DX2                !
 ! R46   R(29,30)                1.2804         estimate D2E/DX2                !
 ! R47   R(30,72)                1.083          estimate D2E/DX2                !
 ! R48   R(31,32)                1.3648         estimate D2E/DX2                !
 ! R49   R(31,36)                1.7359         estimate D2E/DX2                !
 ! R50   R(32,33)                1.3251         estimate D2E/DX2                !
 ! R51   R(32,34)                1.3744         estimate D2E/DX2                !
 ! R52   R(34,35)                1.4461         estimate D2E/DX2                !
 ! R53   R(34,73)                1.106          estimate D2E/DX2                !
 ! R54   R(35,36)                1.7979         estimate D2E/DX2                !
 ! R55   R(35,37)                1.4416         estimate D2E/DX2                !
 ! R56   R(37,38)                1.3919         estimate D2E/DX2                !
 ! R57   R(37,42)                1.3015         estimate D2E/DX2                !
 ! R58   R(38,39)                1.4331         estimate D2E/DX2                !
 ! R59   R(38,74)                1.0675         estimate D2E/DX2                !
 ! R60   R(39,40)                1.3863         estimate D2E/DX2                !
 ! R61   R(39,75)                1.006          estimate D2E/DX2                !
 ! R62   R(40,41)                1.3513         estimate D2E/DX2                !
 ! R63   R(40,43)                1.4766         estimate D2E/DX2                !
 ! R64   R(41,42)                1.329          estimate D2E/DX2                !
 ! R65   R(42,76)                1.0862         estimate D2E/DX2                !
 ! R66   R(43,44)                1.4255         estimate D2E/DX2                !
 ! R67   R(43,48)                1.7389         estimate D2E/DX2                !
 ! R68   R(44,45)                1.2821         estimate D2E/DX2                !
 ! R69   R(44,46)                1.3734         estimate D2E/DX2                !
 ! R70   R(46,47)                1.407          estimate D2E/DX2                !
 ! R71   R(46,77)                1.0978         estimate D2E/DX2                !
 ! R72   R(47,48)                1.7379         estimate D2E/DX2                !
 ! R73   R(47,49)                1.4476         estimate D2E/DX2                !
 ! R74   R(49,50)                1.3685         estimate D2E/DX2                !
 ! R75   R(49,54)                1.4403         estimate D2E/DX2                !
 ! R76   R(50,51)                1.3614         estimate D2E/DX2                !
 ! R77   R(50,78)                1.0977         estimate D2E/DX2                !
 ! R78   R(51,52)                1.4491         estimate D2E/DX2                !
 ! R79   R(51,79)                1.0752         estimate D2E/DX2                !
 ! R80   R(52,53)                1.3663         estimate D2E/DX2                !
 ! R81   R(52,55)                1.3982         estimate D2E/DX2                !
 ! R82   R(53,54)                1.3264         estimate D2E/DX2                !
 ! R83   R(54,80)                1.0755         estimate D2E/DX2                !
 ! R84   R(55,56)                1.3464         estimate D2E/DX2                !
 ! R85   R(55,60)                1.733          estimate D2E/DX2                !
 ! R86   R(56,57)                1.3485         estimate D2E/DX2                !
 ! R87   R(56,58)                1.4427         estimate D2E/DX2                !
 ! R88   R(58,59)                1.3522         estimate D2E/DX2                !
 ! R89   R(58,81)                1.1527         estimate D2E/DX2                !
 ! R90   R(59,60)                1.7563         estimate D2E/DX2                !
 ! R91   R(59,82)                0.9966         estimate D2E/DX2                !
 ! A1    A(2,1,6)              121.2937         estimate D2E/DX2                !
 ! A2    A(2,1,61)             117.9248         estimate D2E/DX2                !
 ! A3    A(6,1,61)             120.7295         estimate D2E/DX2                !
 ! A4    A(1,2,3)              115.2527         estimate D2E/DX2                !
 ! A5    A(1,2,62)             122.2532         estimate D2E/DX2                !
 ! A6    A(3,2,62)             122.4342         estimate D2E/DX2                !
 ! A7    A(2,3,4)              121.9879         estimate D2E/DX2                !
 ! A8    A(2,3,63)             115.8228         estimate D2E/DX2                !
 ! A9    A(4,3,63)             122.1881         estimate D2E/DX2                !
 ! A10   A(3,4,5)              123.3199         estimate D2E/DX2                !
 ! A11   A(3,4,7)              124.2804         estimate D2E/DX2                !
 ! A12   A(5,4,7)              112.3833         estimate D2E/DX2                !
 ! A13   A(4,5,6)              117.2456         estimate D2E/DX2                !
 ! A14   A(1,6,5)              120.6825         estimate D2E/DX2                !
 ! A15   A(1,6,64)             123.244          estimate D2E/DX2                !
 ! A16   A(5,6,64)             115.1438         estimate D2E/DX2                !
 ! A17   A(4,7,8)              124.8102         estimate D2E/DX2                !
 ! A18   A(4,7,12)             120.151          estimate D2E/DX2                !
 ! A19   A(8,7,12)             114.9651         estimate D2E/DX2                !
 ! A20   A(7,8,9)              127.31           estimate D2E/DX2                !
 ! A21   A(7,8,10)             108.8969         estimate D2E/DX2                !
 ! A22   A(9,8,10)             123.7859         estimate D2E/DX2                !
 ! A23   A(8,10,11)            115.6749         estimate D2E/DX2                !
 ! A24   A(8,10,65)            122.2135         estimate D2E/DX2                !
 ! A25   A(11,10,65)           121.8232         estimate D2E/DX2                !
 ! A26   A(10,11,12)           108.9221         estimate D2E/DX2                !
 ! A27   A(10,11,13)           129.0715         estimate D2E/DX2                !
 ! A28   A(12,11,13)           121.3507         estimate D2E/DX2                !
 ! A29   A(7,12,11)             91.055          estimate D2E/DX2                !
 ! A30   A(11,13,14)           121.6329         estimate D2E/DX2                !
 ! A31   A(11,13,18)           125.4512         estimate D2E/DX2                !
 ! A32   A(14,13,18)           112.9016         estimate D2E/DX2                !
 ! A33   A(13,14,15)           124.929          estimate D2E/DX2                !
 ! A34   A(13,14,66)           120.8274         estimate D2E/DX2                !
 ! A35   A(15,14,66)           113.6863         estimate D2E/DX2                !
 ! A36   A(14,15,16)           117.4601         estimate D2E/DX2                !
 ! A37   A(14,15,67)           123.1093         estimate D2E/DX2                !
 ! A38   A(16,15,67)           119.4243         estimate D2E/DX2                !
 ! A39   A(15,16,17)           119.5623         estimate D2E/DX2                !
 ! A40   A(15,16,19)           121.966          estimate D2E/DX2                !
 ! A41   A(17,16,19)           118.442          estimate D2E/DX2                !
 ! A42   A(16,17,18)           117.6724         estimate D2E/DX2                !
 ! A43   A(13,18,17)           127.1906         estimate D2E/DX2                !
 ! A44   A(13,18,68)           118.6114         estimate D2E/DX2                !
 ! A45   A(17,18,68)           113.8158         estimate D2E/DX2                !
 ! A46   A(16,19,20)           132.4258         estimate D2E/DX2                !
 ! A47   A(16,19,24)           119.3847         estimate D2E/DX2                !
 ! A48   A(20,19,24)           108.152          estimate D2E/DX2                !
 ! A49   A(19,20,21)           122.8153         estimate D2E/DX2                !
 ! A50   A(19,20,22)           117.0658         estimate D2E/DX2                !
 ! A51   A(21,20,22)           119.8671         estimate D2E/DX2                !
 ! A52   A(20,22,23)           111.7954         estimate D2E/DX2                !
 ! A53   A(20,22,69)           129.3569         estimate D2E/DX2                !
 ! A54   A(23,22,69)           118.7932         estimate D2E/DX2                !
 ! A55   A(22,23,24)           106.556          estimate D2E/DX2                !
 ! A56   A(22,23,25)           127.1678         estimate D2E/DX2                !
 ! A57   A(24,23,25)           126.1857         estimate D2E/DX2                !
 ! A58   A(19,24,23)            96.3829         estimate D2E/DX2                !
 ! A59   A(23,25,26)           119.5192         estimate D2E/DX2                !
 ! A60   A(23,25,30)           121.6309         estimate D2E/DX2                !
 ! A61   A(26,25,30)           118.7011         estimate D2E/DX2                !
 ! A62   A(25,26,27)           118.2795         estimate D2E/DX2                !
 ! A63   A(25,26,70)           127.0821         estimate D2E/DX2                !
 ! A64   A(27,26,70)           114.4325         estimate D2E/DX2                !
 ! A65   A(26,27,28)           116.0663         estimate D2E/DX2                !
 ! A66   A(26,27,71)           120.8227         estimate D2E/DX2                !
 ! A67   A(28,27,71)           123.0731         estimate D2E/DX2                !
 ! A68   A(27,28,29)           124.2145         estimate D2E/DX2                !
 ! A69   A(27,28,31)           118.9627         estimate D2E/DX2                !
 ! A70   A(29,28,31)           116.7375         estimate D2E/DX2                !
 ! A71   A(28,29,30)           116.4872         estimate D2E/DX2                !
 ! A72   A(25,30,29)           125.9166         estimate D2E/DX2                !
 ! A73   A(25,30,72)           116.9337         estimate D2E/DX2                !
 ! A74   A(29,30,72)           117.0091         estimate D2E/DX2                !
 ! A75   A(28,31,32)           127.6801         estimate D2E/DX2                !
 ! A76   A(28,31,36)           118.1308         estimate D2E/DX2                !
 ! A77   A(32,31,36)           113.8755         estimate D2E/DX2                !
 ! A78   A(31,32,33)           125.6555         estimate D2E/DX2                !
 ! A79   A(31,32,34)           112.81           estimate D2E/DX2                !
 ! A80   A(33,32,34)           121.46           estimate D2E/DX2                !
 ! A81   A(32,34,35)           115.0615         estimate D2E/DX2                !
 ! A82   A(32,34,73)           125.3025         estimate D2E/DX2                !
 ! A83   A(35,34,73)           119.4235         estimate D2E/DX2                !
 ! A84   A(34,35,36)           107.3039         estimate D2E/DX2                !
 ! A85   A(34,35,37)           130.2904         estimate D2E/DX2                !
 ! A86   A(36,35,37)           122.4057         estimate D2E/DX2                !
 ! A87   A(31,36,35)            90.849          estimate D2E/DX2                !
 ! A88   A(35,37,38)           120.6542         estimate D2E/DX2                !
 ! A89   A(35,37,42)           122.9665         estimate D2E/DX2                !
 ! A90   A(38,37,42)           116.309          estimate D2E/DX2                !
 ! A91   A(37,38,39)           122.0825         estimate D2E/DX2                !
 ! A92   A(37,38,74)           123.743          estimate D2E/DX2                !
 ! A93   A(39,38,74)           113.7594         estimate D2E/DX2                !
 ! A94   A(38,39,40)           113.0494         estimate D2E/DX2                !
 ! A95   A(38,39,75)           120.5089         estimate D2E/DX2                !
 ! A96   A(40,39,75)           126.1501         estimate D2E/DX2                !
 ! A97   A(39,40,41)           124.7605         estimate D2E/DX2                !
 ! A98   A(39,40,43)           118.3197         estimate D2E/DX2                !
 ! A99   A(41,40,43)           116.7914         estimate D2E/DX2                !
 ! A100  A(40,41,42)           116.3291         estimate D2E/DX2                !
 ! A101  A(37,42,41)           127.0198         estimate D2E/DX2                !
 ! A102  A(37,42,76)           123.6422         estimate D2E/DX2                !
 ! A103  A(41,42,76)           109.0464         estimate D2E/DX2                !
 ! A104  A(40,43,44)           132.8958         estimate D2E/DX2                !
 ! A105  A(40,43,48)           122.3448         estimate D2E/DX2                !
 ! A106  A(44,43,48)           104.7521         estimate D2E/DX2                !
 ! A107  A(43,44,45)           120.3068         estimate D2E/DX2                !
 ! A108  A(43,44,46)           117.2444         estimate D2E/DX2                !
 ! A109  A(45,44,46)           122.4288         estimate D2E/DX2                !
 ! A110  A(44,46,47)           113.9884         estimate D2E/DX2                !
 ! A111  A(44,46,77)           127.1639         estimate D2E/DX2                !
 ! A112  A(47,46,77)           118.8052         estimate D2E/DX2                !
 ! A113  A(46,47,48)           107.2531         estimate D2E/DX2                !
 ! A114  A(46,47,49)           133.2283         estimate D2E/DX2                !
 ! A115  A(48,47,49)           119.4017         estimate D2E/DX2                !
 ! A116  A(43,48,47)            96.7215         estimate D2E/DX2                !
 ! A117  A(47,49,50)           127.7107         estimate D2E/DX2                !
 ! A118  A(47,49,54)           117.5903         estimate D2E/DX2                !
 ! A119  A(50,49,54)           114.4581         estimate D2E/DX2                !
 ! A120  A(49,50,51)           122.7174         estimate D2E/DX2                !
 ! A121  A(49,50,78)           118.6804         estimate D2E/DX2                !
 ! A122  A(51,50,78)           118.3155         estimate D2E/DX2                !
 ! A123  A(50,51,52)           119.6172         estimate D2E/DX2                !
 ! A124  A(50,51,79)           120.544          estimate D2E/DX2                !
 ! A125  A(52,51,79)           119.7607         estimate D2E/DX2                !
 ! A126  A(51,52,53)           118.3951         estimate D2E/DX2                !
 ! A127  A(51,52,55)           124.2702         estimate D2E/DX2                !
 ! A128  A(53,52,55)           117.1091         estimate D2E/DX2                !
 ! A129  A(52,53,54)           119.4741         estimate D2E/DX2                !
 ! A130  A(49,54,53)           124.4667         estimate D2E/DX2                !
 ! A131  A(49,54,80)           120.1732         estimate D2E/DX2                !
 ! A132  A(53,54,80)           114.934          estimate D2E/DX2                !
 ! A133  A(52,55,56)           131.9693         estimate D2E/DX2                !
 ! A134  A(52,55,60)           120.6598         estimate D2E/DX2                !
 ! A135  A(56,55,60)           107.1266         estimate D2E/DX2                !
 ! A136  A(55,56,57)           122.4518         estimate D2E/DX2                !
 ! A137  A(55,56,58)           116.2603         estimate D2E/DX2                !
 ! A138  A(57,56,58)           121.2783         estimate D2E/DX2                !
 ! A139  A(56,58,59)           113.5828         estimate D2E/DX2                !
 ! A140  A(56,58,81)           124.2082         estimate D2E/DX2                !
 ! A141  A(59,58,81)           122.2044         estimate D2E/DX2                !
 ! A142  A(58,59,60)           107.6926         estimate D2E/DX2                !
 ! A143  A(58,59,82)           132.7501         estimate D2E/DX2                !
 ! A144  A(60,59,82)           119.557          estimate D2E/DX2                !
 ! A145  A(55,60,59)            95.3371         estimate D2E/DX2                !
 ! D1    D(6,1,2,3)              1.2545         estimate D2E/DX2                !
 ! D2    D(6,1,2,62)          -175.994          estimate D2E/DX2                !
 ! D3    D(61,1,2,3)           178.6501         estimate D2E/DX2                !
 ! D4    D(61,1,2,62)            1.4017         estimate D2E/DX2                !
 ! D5    D(2,1,6,5)             -4.8462         estimate D2E/DX2                !
 ! D6    D(2,1,6,64)          -173.2698         estimate D2E/DX2                !
 ! D7    D(61,1,6,5)           177.8309         estimate D2E/DX2                !
 ! D8    D(61,1,6,64)            9.4073         estimate D2E/DX2                !
 ! D9    D(1,2,3,4)              1.7025         estimate D2E/DX2                !
 ! D10   D(1,2,3,63)          -177.926          estimate D2E/DX2                !
 ! D11   D(62,2,3,4)           178.9455         estimate D2E/DX2                !
 ! D12   D(62,2,3,63)           -0.6831         estimate D2E/DX2                !
 ! D13   D(2,3,4,5)             -1.0393         estimate D2E/DX2                !
 ! D14   D(2,3,4,7)            177.3687         estimate D2E/DX2                !
 ! D15   D(63,3,4,5)           178.5655         estimate D2E/DX2                !
 ! D16   D(63,3,4,7)            -3.0264         estimate D2E/DX2                !
 ! D17   D(3,4,5,6)             -2.5083         estimate D2E/DX2                !
 ! D18   D(7,4,5,6)            178.9142         estimate D2E/DX2                !
 ! D19   D(3,4,7,8)            -21.0131         estimate D2E/DX2                !
 ! D20   D(3,4,7,12)           155.701          estimate D2E/DX2                !
 ! D21   D(5,4,7,8)            157.5483         estimate D2E/DX2                !
 ! D22   D(5,4,7,12)           -25.7376         estimate D2E/DX2                !
 ! D23   D(4,5,6,1)              5.4068         estimate D2E/DX2                !
 ! D24   D(4,5,6,64)           174.7222         estimate D2E/DX2                !
 ! D25   D(4,7,8,9)              0.5605         estimate D2E/DX2                !
 ! D26   D(4,7,8,10)           179.6065         estimate D2E/DX2                !
 ! D27   D(12,7,8,9)          -176.3055         estimate D2E/DX2                !
 ! D28   D(12,7,8,10)            2.7405         estimate D2E/DX2                !
 ! D29   D(4,7,12,11)          177.5297         estimate D2E/DX2                !
 ! D30   D(8,7,12,11)           -5.4459         estimate D2E/DX2                !
 ! D31   D(7,8,10,11)            2.5569         estimate D2E/DX2                !
 ! D32   D(7,8,10,65)          176.4896         estimate D2E/DX2                !
 ! D33   D(9,8,10,11)         -178.3561         estimate D2E/DX2                !
 ! D34   D(9,8,10,65)           -4.4234         estimate D2E/DX2                !
 ! D35   D(8,10,11,12)          -6.3857         estimate D2E/DX2                !
 ! D36   D(8,10,11,13)        -177.0445         estimate D2E/DX2                !
 ! D37   D(65,10,11,12)        179.6557         estimate D2E/DX2                !
 ! D38   D(65,10,11,13)          8.997          estimate D2E/DX2                !
 ! D39   D(10,11,12,7)           6.4702         estimate D2E/DX2                !
 ! D40   D(13,11,12,7)         177.9848         estimate D2E/DX2                !
 ! D41   D(10,11,13,14)       -145.8071         estimate D2E/DX2                !
 ! D42   D(10,11,13,18)         35.6665         estimate D2E/DX2                !
 ! D43   D(12,11,13,14)         44.5506         estimate D2E/DX2                !
 ! D44   D(12,11,13,18)       -133.9758         estimate D2E/DX2                !
 ! D45   D(11,13,14,15)        175.8542         estimate D2E/DX2                !
 ! D46   D(11,13,14,66)          4.9688         estimate D2E/DX2                !
 ! D47   D(18,13,14,15)         -5.4489         estimate D2E/DX2                !
 ! D48   D(18,13,14,66)       -176.3343         estimate D2E/DX2                !
 ! D49   D(11,13,18,17)       -175.2028         estimate D2E/DX2                !
 ! D50   D(11,13,18,68)         -2.7721         estimate D2E/DX2                !
 ! D51   D(14,13,18,17)          6.1591         estimate D2E/DX2                !
 ! D52   D(14,13,18,68)        178.5899         estimate D2E/DX2                !
 ! D53   D(13,14,15,16)          3.4446         estimate D2E/DX2                !
 ! D54   D(13,14,15,67)       -175.6306         estimate D2E/DX2                !
 ! D55   D(66,14,15,16)        174.9021         estimate D2E/DX2                !
 ! D56   D(66,14,15,67)         -4.1731         estimate D2E/DX2                !
 ! D57   D(14,15,16,17)         -1.3052         estimate D2E/DX2                !
 ! D58   D(14,15,16,19)       -179.2915         estimate D2E/DX2                !
 ! D59   D(67,15,16,17)        177.8055         estimate D2E/DX2                !
 ! D60   D(67,15,16,19)         -0.1808         estimate D2E/DX2                !
 ! D61   D(15,16,17,18)          1.7887         estimate D2E/DX2                !
 ! D62   D(19,16,17,18)        179.8459         estimate D2E/DX2                !
 ! D63   D(15,16,19,20)        -20.3251         estimate D2E/DX2                !
 ! D64   D(15,16,19,24)        162.1964         estimate D2E/DX2                !
 ! D65   D(17,16,19,20)        161.6668         estimate D2E/DX2                !
 ! D66   D(17,16,19,24)        -15.8117         estimate D2E/DX2                !
 ! D67   D(16,17,18,13)         -4.5398         estimate D2E/DX2                !
 ! D68   D(16,17,18,68)       -177.2781         estimate D2E/DX2                !
 ! D69   D(16,19,20,21)         -3.499          estimate D2E/DX2                !
 ! D70   D(16,19,20,22)       -177.7172         estimate D2E/DX2                !
 ! D71   D(24,19,20,21)        174.1889         estimate D2E/DX2                !
 ! D72   D(24,19,20,22)         -0.0293         estimate D2E/DX2                !
 ! D73   D(16,19,24,23)        179.2773         estimate D2E/DX2                !
 ! D74   D(20,19,24,23)          1.2358         estimate D2E/DX2                !
 ! D75   D(19,20,22,23)         -1.4812         estimate D2E/DX2                !
 ! D76   D(19,20,22,69)       -178.7203         estimate D2E/DX2                !
 ! D77   D(21,20,22,23)       -175.8784         estimate D2E/DX2                !
 ! D78   D(21,20,22,69)          6.8824         estimate D2E/DX2                !
 ! D79   D(20,22,23,24)          2.2281         estimate D2E/DX2                !
 ! D80   D(20,22,23,25)       -174.4633         estimate D2E/DX2                !
 ! D81   D(69,22,23,24)        179.7924         estimate D2E/DX2                !
 ! D82   D(69,22,23,25)          3.101          estimate D2E/DX2                !
 ! D83   D(22,23,24,19)         -1.9608         estimate D2E/DX2                !
 ! D84   D(25,23,24,19)        174.7725         estimate D2E/DX2                !
 ! D85   D(22,23,25,26)        -22.1858         estimate D2E/DX2                !
 ! D86   D(22,23,25,30)        162.3069         estimate D2E/DX2                !
 ! D87   D(24,23,25,26)        161.7445         estimate D2E/DX2                !
 ! D88   D(24,23,25,30)        -13.7628         estimate D2E/DX2                !
 ! D89   D(23,25,26,27)        178.3923         estimate D2E/DX2                !
 ! D90   D(23,25,26,70)          3.923          estimate D2E/DX2                !
 ! D91   D(30,25,26,27)         -5.9685         estimate D2E/DX2                !
 ! D92   D(30,25,26,70)        179.5622         estimate D2E/DX2                !
 ! D93   D(23,25,30,29)       -178.0686         estimate D2E/DX2                !
 ! D94   D(23,25,30,72)         -2.5275         estimate D2E/DX2                !
 ! D95   D(26,25,30,29)          6.3884         estimate D2E/DX2                !
 ! D96   D(26,25,30,72)       -178.0705         estimate D2E/DX2                !
 ! D97   D(25,26,27,28)          1.9494         estimate D2E/DX2                !
 ! D98   D(25,26,27,71)        179.7777         estimate D2E/DX2                !
 ! D99   D(70,26,27,28)        177.105          estimate D2E/DX2                !
 ! D100  D(70,26,27,71)         -5.0668         estimate D2E/DX2                !
 ! D101  D(26,27,28,29)          2.5113         estimate D2E/DX2                !
 ! D102  D(26,27,28,31)        179.0362         estimate D2E/DX2                !
 ! D103  D(71,27,28,29)       -175.2631         estimate D2E/DX2                !
 ! D104  D(71,27,28,31)          1.2618         estimate D2E/DX2                !
 ! D105  D(27,28,29,30)         -2.5877         estimate D2E/DX2                !
 ! D106  D(31,28,29,30)       -179.1833         estimate D2E/DX2                !
 ! D107  D(27,28,31,32)         35.1834         estimate D2E/DX2                !
 ! D108  D(27,28,31,36)       -151.6777         estimate D2E/DX2                !
 ! D109  D(29,28,31,32)       -148.0341         estimate D2E/DX2                !
 ! D110  D(29,28,31,36)         25.1049         estimate D2E/DX2                !
 ! D111  D(28,29,30,25)         -1.9675         estimate D2E/DX2                !
 ! D112  D(28,29,30,72)       -177.5056         estimate D2E/DX2                !
 ! D113  D(28,31,32,33)         -6.3779         estimate D2E/DX2                !
 ! D114  D(28,31,32,34)        176.7385         estimate D2E/DX2                !
 ! D115  D(36,31,32,33)       -179.7622         estimate D2E/DX2                !
 ! D116  D(36,31,32,34)          3.3542         estimate D2E/DX2                !
 ! D117  D(28,31,36,35)       -175.9882         estimate D2E/DX2                !
 ! D118  D(32,31,36,35)         -1.9228         estimate D2E/DX2                !
 ! D119  D(31,32,34,35)         -3.3537         estimate D2E/DX2                !
 ! D120  D(31,32,34,73)       -177.9977         estimate D2E/DX2                !
 ! D121  D(33,32,34,35)        179.6147         estimate D2E/DX2                !
 ! D122  D(33,32,34,73)          4.9708         estimate D2E/DX2                !
 ! D123  D(32,34,35,36)          1.8263         estimate D2E/DX2                !
 ! D124  D(32,34,35,37)       -178.185          estimate D2E/DX2                !
 ! D125  D(73,34,35,36)        176.8087         estimate D2E/DX2                !
 ! D126  D(73,34,35,37)         -3.2026         estimate D2E/DX2                !
 ! D127  D(34,35,36,31)          0.0546         estimate D2E/DX2                !
 ! D128  D(37,35,36,31)       -179.9352         estimate D2E/DX2                !
 ! D129  D(34,35,37,38)        147.186          estimate D2E/DX2                !
 ! D130  D(34,35,37,42)        -35.9777         estimate D2E/DX2                !
 ! D131  D(36,35,37,38)        -32.8267         estimate D2E/DX2                !
 ! D132  D(36,35,37,42)        144.0095         estimate D2E/DX2                !
 ! D133  D(35,37,38,39)       -176.8356         estimate D2E/DX2                !
 ! D134  D(35,37,38,74)         -4.6967         estimate D2E/DX2                !
 ! D135  D(42,37,38,39)          6.1253         estimate D2E/DX2                !
 ! D136  D(42,37,38,74)        178.2641         estimate D2E/DX2                !
 ! D137  D(35,37,42,41)        176.9897         estimate D2E/DX2                !
 ! D138  D(35,37,42,76)          3.8849         estimate D2E/DX2                !
 ! D139  D(38,37,42,41)         -6.0463         estimate D2E/DX2                !
 ! D140  D(38,37,42,76)       -179.1511         estimate D2E/DX2                !
 ! D141  D(37,38,39,40)         -5.556          estimate D2E/DX2                !
 ! D142  D(37,38,39,75)       -179.7242         estimate D2E/DX2                !
 ! D143  D(74,38,39,40)       -178.4177         estimate D2E/DX2                !
 ! D144  D(74,38,39,75)          7.414          estimate D2E/DX2                !
 ! D145  D(38,39,40,41)          4.8941         estimate D2E/DX2                !
 ! D146  D(38,39,40,43)       -179.3658         estimate D2E/DX2                !
 ! D147  D(75,39,40,41)        178.6702         estimate D2E/DX2                !
 ! D148  D(75,39,40,43)         -5.5896         estimate D2E/DX2                !
 ! D149  D(39,40,41,42)         -4.665          estimate D2E/DX2                !
 ! D150  D(43,40,41,42)        179.5358         estimate D2E/DX2                !
 ! D151  D(39,40,43,44)         15.4346         estimate D2E/DX2                !
 ! D152  D(39,40,43,48)       -165.7081         estimate D2E/DX2                !
 ! D153  D(41,40,43,44)       -168.4853         estimate D2E/DX2                !
 ! D154  D(41,40,43,48)         10.372          estimate D2E/DX2                !
 ! D155  D(40,41,42,37)          5.2819         estimate D2E/DX2                !
 ! D156  D(40,41,42,76)        179.2124         estimate D2E/DX2                !
 ! D157  D(40,43,44,45)          2.7422         estimate D2E/DX2                !
 ! D158  D(40,43,44,46)       -178.8475         estimate D2E/DX2                !
 ! D159  D(48,43,44,45)       -176.2596         estimate D2E/DX2                !
 ! D160  D(48,43,44,46)          2.1507         estimate D2E/DX2                !
 ! D161  D(40,43,48,47)        179.1586         estimate D2E/DX2                !
 ! D162  D(44,43,48,47)         -1.707          estimate D2E/DX2                !
 ! D163  D(43,44,46,47)         -1.5868         estimate D2E/DX2                !
 ! D164  D(43,44,46,77)       -179.1669         estimate D2E/DX2                !
 ! D165  D(45,44,46,47)        176.7872         estimate D2E/DX2                !
 ! D166  D(45,44,46,77)         -0.7929         estimate D2E/DX2                !
 ! D167  D(44,46,47,48)          0.1456         estimate D2E/DX2                !
 ! D168  D(44,46,47,49)        176.0517         estimate D2E/DX2                !
 ! D169  D(77,46,47,48)        177.9449         estimate D2E/DX2                !
 ! D170  D(77,46,47,49)         -6.149          estimate D2E/DX2                !
 ! D171  D(46,47,48,43)          0.965          estimate D2E/DX2                !
 ! D172  D(49,47,48,43)       -175.612          estimate D2E/DX2                !
 ! D173  D(46,47,49,50)       -150.7126         estimate D2E/DX2                !
 ! D174  D(46,47,49,54)         35.2738         estimate D2E/DX2                !
 ! D175  D(48,47,49,50)         24.7989         estimate D2E/DX2                !
 ! D176  D(48,47,49,54)       -149.2146         estimate D2E/DX2                !
 ! D177  D(47,49,50,51)        177.7795         estimate D2E/DX2                !
 ! D178  D(47,49,50,78)          4.0384         estimate D2E/DX2                !
 ! D179  D(54,49,50,51)         -8.0486         estimate D2E/DX2                !
 ! D180  D(54,49,50,78)        178.2103         estimate D2E/DX2                !
 ! D181  D(47,49,54,53)       -173.6071         estimate D2E/DX2                !
 ! D182  D(47,49,54,80)         -1.4882         estimate D2E/DX2                !
 ! D183  D(50,49,54,53)         11.5934         estimate D2E/DX2                !
 ! D184  D(50,49,54,80)       -176.2878         estimate D2E/DX2                !
 ! D185  D(49,50,51,52)          2.5586         estimate D2E/DX2                !
 ! D186  D(49,50,51,79)       -174.2209         estimate D2E/DX2                !
 ! D187  D(78,50,51,52)        176.3213         estimate D2E/DX2                !
 ! D188  D(78,50,51,79)         -0.4581         estimate D2E/DX2                !
 ! D189  D(50,51,52,53)          0.7523         estimate D2E/DX2                !
 ! D190  D(50,51,52,55)        175.1266         estimate D2E/DX2                !
 ! D191  D(79,51,52,53)        177.5573         estimate D2E/DX2                !
 ! D192  D(79,51,52,55)         -8.0684         estimate D2E/DX2                !
 ! D193  D(51,52,53,54)          2.3698         estimate D2E/DX2                !
 ! D194  D(55,52,53,54)       -172.4086         estimate D2E/DX2                !
 ! D195  D(51,52,55,56)        -15.4981         estimate D2E/DX2                !
 ! D196  D(51,52,55,60)        158.0324         estimate D2E/DX2                !
 ! D197  D(53,52,55,56)        158.9425         estimate D2E/DX2                !
 ! D198  D(53,52,55,60)        -27.527          estimate D2E/DX2                !
 ! D199  D(52,53,54,49)         -8.9117         estimate D2E/DX2                !
 ! D200  D(52,53,54,80)        178.5997         estimate D2E/DX2                !
 ! D201  D(52,55,56,57)         -4.9698         estimate D2E/DX2                !
 ! D202  D(52,55,56,58)        173.9115         estimate D2E/DX2                !
 ! D203  D(60,55,56,57)       -179.1488         estimate D2E/DX2                !
 ! D204  D(60,55,56,58)         -0.2675         estimate D2E/DX2                !
 ! D205  D(52,55,60,59)       -174.7285         estimate D2E/DX2                !
 ! D206  D(56,55,60,59)          0.2425         estimate D2E/DX2                !
 ! D207  D(55,56,58,59)          0.1602         estimate D2E/DX2                !
 ! D208  D(55,56,58,81)        179.3887         estimate D2E/DX2                !
 ! D209  D(57,56,58,59)        179.0557         estimate D2E/DX2                !
 ! D210  D(57,56,58,81)         -1.7158         estimate D2E/DX2                !
 ! D211  D(56,58,59,60)          0.0352         estimate D2E/DX2                !
 ! D212  D(56,58,59,82)       -179.7673         estimate D2E/DX2                !
 ! D213  D(81,58,59,60)       -179.2108         estimate D2E/DX2                !
 ! D214  D(81,58,59,82)          0.9867         estimate D2E/DX2                !
 ! D215  D(58,59,60,55)         -0.16           estimate D2E/DX2                !
 ! D216  D(82,59,60,55)        179.6732         estimate D2E/DX2                !
 --------------------------------------------------------------------------------
 Trust Radius=3.00D-01 FncErr=1.00D-07 GrdErr=1.00D-06 EigMax=2.50D+02 EigMin=1.00D-04
 Number of steps in this run=    462 maximum allowed number of steps=    492.
 GradGradGradGradGradGradGradGradGradGradGradGradGradGradGradGradGradGrad

 Leave Link  103 at Fri Jul 24 14:40:47 2020, MaxMem=  4026531840 cpu:               0.3 elap:               0.1
 (Enter /opt/ohpc/pub/libs/gaussian/g16-A.03/sandybridge/g16/l202.exe)
 Stoichiometry    C45H22F5N5S5
 Framework group  C1[X(C45H22F5N5S5)]
 Deg. of freedom   240
 Full point group                 C1      NOp   1
 Largest Abelian subgroup         C1      NOp   1
 Largest concise Abelian subgroup C1      NOp   1
                         Standard orientation:                         
 ---------------------------------------------------------------------
 Center     Atomic      Atomic             Coordinates (Angstroms)
 Number     Number       Type             X           Y           Z
 ---------------------------------------------------------------------
      1          6           0      -18.575462   -2.626912   -0.388994
      2          6           0      -17.844871   -3.807264   -0.418722
      3          6           0      -16.485210   -3.657218   -0.307554
      4          6           0      -15.923370   -2.474314   -0.148678
      5          7           0      -16.602504   -1.355579   -0.103930
      6          6           0      -17.971036   -1.438033   -0.285119
      7          6           0      -14.391176   -2.247431    0.042065
      8          6           0      -13.490528   -3.219056    0.479516
      9          9           0      -13.754950   -4.465578    0.791291
     10          6           0      -12.215336   -2.665104    0.521224
     11          6           0      -12.132620   -1.311718    0.188832
     12         16           0      -13.698012   -0.767599   -0.365249
     13          6           0      -10.973543   -0.477566    0.082930
     14          6           0      -11.009689    0.877720    0.432791
     15          6           0       -9.915666    1.724680    0.435231
     16          6           0       -8.627747    1.175261   -0.035790
     17          7           0       -8.552619   -0.168485   -0.435396
     18          6           0       -9.687443   -0.895445   -0.403741
     19          6           0       -7.445565    1.952512   -0.059517
     20          6           0       -7.226770    3.316446   -0.055432
     21          9           0       -8.235150    4.222787   -0.093884
     22          6           0       -5.937746    3.735536   -0.132449
     23          6           0       -4.992898    2.599732   -0.172505
     24         16           0       -5.941307    1.176370   -0.167012
     25          6           0       -3.502562    2.665410   -0.141884
     26          6           0       -2.865087    3.827780   -0.525652
     27          6           0       -1.414358    3.874154   -0.451637
     28          6           0       -0.775480    2.686492   -0.024744
     29          7           0       -1.439245    1.506955    0.266589
     30          6           0       -2.716548    1.534577    0.182023
     31          6           0        0.748256    2.654803    0.055569
     32          6           0        1.586259    3.671897    0.410281
     33          9           0        1.224883    4.925887    0.640319
     34          6           0        2.905104    3.287085    0.447889
     35          6           0        3.141839    1.884970    0.184723
     36         16           0        1.547886    1.129709   -0.163848
     37          6           0        4.371584    1.132830    0.175812
     38          6           0        4.389490   -0.202685    0.567570
     39          6           0        5.604187   -0.960186    0.634106
     40          6           0        6.704357   -0.264721    0.156965
     41          7           0        6.686753    1.027130   -0.239075
     42          6           0        5.499988    1.625388   -0.246148
     43          6           0        8.016225   -0.942568    0.158593
     44          6           0        8.402966   -2.307541    0.298120
     45          9           0        7.513223   -3.224119    0.407836
     46          6           0        9.747761   -2.585537    0.274820
     47          6           0       10.562166   -1.455355    0.077087
     48         16           0        9.509482   -0.079809   -0.064149
     49          6           0       11.996063   -1.258040    0.055852
     50          6           0       12.690789   -0.128943    0.395470
     51          6           0       14.050741   -0.068978    0.379206
     52          6           0       14.813057   -1.218996   -0.063824
     53          7           0       14.132837   -2.332303   -0.469639
     54          6           0       12.806772   -2.314705   -0.492466
     55          6           0       16.203313   -1.232314   -0.212395
     56          6           0       17.111660   -0.240509   -0.274818
     57          9           0       16.761307    1.061544   -0.291596
     58          6           0       18.496581   -0.643883   -0.298247
     59          6           0       18.670440   -1.984214   -0.256354
     60         16           0       17.080345   -2.726827   -0.188564
     61          1           0      -19.726410   -2.698052   -0.503380
     62          1           0      -18.321479   -4.791310   -0.568813
     63          1           0      -15.852737   -4.649059   -0.369737
     64          1           0      -18.501516   -0.521631   -0.155105
     65          1           0      -11.307777   -3.249301    0.906541
     66          1           0      -11.943349    1.336263    0.891891
     67          1           0       -9.960991    2.705536    0.761443
     68          1           0       -9.546630   -1.955626   -0.685227
     69          1           0       -5.542016    4.742764   -0.125705
     70          1           0       -3.331902    4.769724   -0.809018
     71          1           0       -0.888160    4.737393   -0.737069
     72          1           0       -3.246791    0.628553    0.448266
     73          1           0        3.752070    3.935689    0.739688
     74          1           0        3.539473   -0.717854    0.956988
     75          1           0        5.589202   -1.925608    0.916529
     76          1           0        5.624199    2.655413   -0.567683
     77          1           0       10.222484   -3.572116    0.354881
     78          1           0       12.136412    0.731253    0.792463
     79          1           0       14.563544    0.804336    0.740362
     80          1           0       12.347331   -3.220612   -0.845887
     81          1           0       19.384099    0.089076   -0.360578
     82          1           0       19.482936   -2.561246   -0.255292
 ---------------------------------------------------------------------
 Rotational constants (GHZ):           0.1034039           0.0046355           0.0044446
 Leave Link  202 at Fri Jul 24 14:40:47 2020, MaxMem=  4026531840 cpu:               0.1 elap:               0.0
 (Enter /opt/ohpc/pub/libs/gaussian/g16-A.03/sandybridge/g16/l301.exe)
 Standard basis: CC-pVDZ (5D, 7F)
 Ernie: Thresh=  0.10000D-02 Tol=  0.10000D-05 Strict=F.
 Ernie:  160 primitive shells out of 1570 were deleted.
 There are  1030 symmetry adapted cartesian basis functions of A   symmetry.
 There are   970 symmetry adapted basis functions of A   symmetry.
   970 basis functions,  2324 primitive gaussians,  1030 cartesian basis functions
   226 alpha electrons      226 beta electrons
       nuclear repulsion energy      7319.2933823115 Hartrees.
 IExCor=32609 DFT=T Ex+Corr=LC-wPBE ExCW=0 ScaHFX=  1.000000
 ScaDFX=  1.000000  0.000000  1.000000  1.000000 ScalE2=  1.000000  1.000000
 IRadAn=      5 IRanWt=     -1 IRanGd=            0 ICorTp=0 IEmpDi=  4
 HFx  wShort=  0.000000 wLong=  0.462500 cFull=  0.000000 cShort=  0.000000 cLong=  1.000000
 DFx  wShort=  0.000000 wLong=  0.462500 cFull=  0.000000 cShort=  0.000000 cLong=  1.000000
 NAtoms=   82 NActive=   82 NUniq=   82 SFac= 1.00D+00 NAtFMM=   60 NAOKFM=T Big=T
 Integral buffers will be    131072 words long.
 Raffenetti 2 integral format.
 Two-electron integral symmetry is turned on.
 Leave Link  301 at Fri Jul 24 14:40:47 2020, MaxMem=  4026531840 cpu:               0.6 elap:               0.1
 (Enter /opt/ohpc/pub/libs/gaussian/g16-A.03/sandybridge/g16/l302.exe)
 NPDir=0 NMtPBC=     1 NCelOv=     1 NCel=       1 NClECP=     1 NCelD=      1
         NCelK=      1 NCelE2=     1 NClLst=     1 CellRange=     0.0.
 One-electron integrals computed using PRISM.
 One-electron integral symmetry used in STVInt
 NBasis=   970 RedAO= T EigKep=  3.64D-04  NBF=   970
 NBsUse=   970 1.00D-06 EigRej= -1.00D+00 NBFU=   970
 Precomputing XC quadrature grid using
 IXCGrd= 4 IRadAn=           5 IRanWt=          -1 IRanGd=           0 AccXCQ= 0.00D+00.
 Generated NRdTot=       0 NPtTot=           0 NUsed=           0 NTot=          32
 NSgBfM=   615   615   615   615   615 MxSgAt=    82 MxSgA2=    73.
 Leave Link  302 at Fri Jul 24 14:40:52 2020, MaxMem=  4026531840 cpu:              39.1 elap:               4.9
 (Enter /opt/ohpc/pub/libs/gaussian/g16-A.03/sandybridge/g16/l303.exe)
 DipDrv:  MaxL=1.
 Leave Link  303 at Fri Jul 24 14:40:53 2020, MaxMem=  4026531840 cpu:               2.4 elap:               0.3
 (Enter /opt/ohpc/pub/libs/gaussian/g16-A.03/sandybridge/g16/l401.exe)
 ExpMin= 1.22D-01 ExpMax= 1.11D+05 ExpMxC= 1.07D+03 IAcc=3 IRadAn=         5 AccDes= 0.00D+00
 Harris functional with IExCor=32609 and IRadAn=       5 diagonalized for initial guess.
 HarFok:  IExCor=32609 AccDes= 0.00D+00 IRadAn=         5 IDoV= 1 UseB2=F ITyADJ=14
 ICtDFT=  3500011 ScaDFX=  1.000000  1.000000  1.000000  1.000000
 FoFCou: FMM=F IPFlag=           0 FMFlag=      100000 FMFlg1=        2001
         NFxFlg=           0 DoJE=T BraDBF=F KetDBF=T FulRan=T
         wScrn=  0.000000 ICntrl=       500 IOpCl=  0 I1Cent=   200000004 NGrid=           0
         NMat0=    1 NMatS0=      1 NMatT0=    0 NMatD0=    1 NMtDS0=    0 NMtDT0=    0
 Petite list used in FoFCou.
 Harris En= -4488.89965590537    
 JPrj=0 DoOrth=F DoCkMO=F.
 Initial guess <Sx>= 0.0000 <Sy>= 0.0000 <Sz>= 0.0000 <S**2>=-0.0000 S=-0.0000
 Leave Link  401 at Fri Jul 24 14:41:08 2020, MaxMem=  4026531840 cpu:             125.9 elap:              15.8
 (Enter /opt/ohpc/pub/libs/gaussian/g16-A.03/sandybridge/g16/l502.exe)
 Integral symmetry usage will be decided dynamically.
 UHF open shell SCF:
 Using DIIS extrapolation, IDIIS=  1040.
 NGot=  4026531840 LenX=  4024391664 LenY=  4023329734
 Requested convergence on RMS density matrix=1.00D-08 within 128 cycles.
 Requested convergence on MAX density matrix=1.00D-06.
 Requested convergence on             energy=1.00D-06.
 No special actions if energy rises.
 Fock matrices will be formed incrementally for  20 cycles.
 Integral accuracy reduced to 1.0D-05 until final iterations.

 Cycle   1  Pass 0  IDiag  1:
 FoFJK:  IHMeth= 1 ICntrl=       0 DoSepK=T KAlg= 0 I1Cent=           0 FoldK=F
 IRaf=         1 NMat=       1 IRICut=       1 DoRegI=T DoRafI=F ISym2E= 0 IDoP0=0 IntGTp=1.
 FoFCou: FMM=T IPFlag=           0 FMFlag=      100000 FMFlg1=        2001
         NFxFlg=           0 DoJE=T BraDBF=F KetDBF=F FulRan=T
         wScrn=  0.000000 ICntrl=       500 IOpCl=  0 I1Cent=           0 NGrid=           0
         NMat0=    1 NMatS0=      1 NMatT0=    0 NMatD0=    1 NMtDS0=    0 NMtDT0=    0
 Symmetry not used in FoFCou.
 FMM levels:  10  Number of levels for PrismC:   9
 E= -4488.54453999008    
 DIIS: error= 1.40D-02 at cycle   1 NSaved=   1.
 NSaved= 1 IEnMin= 1 EnMin= -4488.54453999008     IErMin= 1 ErrMin= 1.40D-02
 ErrMax= 1.40D-02  0.00D+00 EMaxC= 1.00D-01 BMatC= 3.69D+00 BMatP= 3.69D+00
 IDIUse=3 WtCom= 8.60D-01 WtEn= 1.40D-01
 Coeff-Com:  0.100D+01
 Coeff-En:   0.100D+01
 Coeff:      0.100D+01
 Gap=     0.262 Goal=   None    Shift=    0.000
 Gap=     0.262 Goal=   None    Shift=    0.000
 GapD=    0.262 DampG=1.000 DampE=0.500 DampFc=0.5000 IDamp=-1.
 Damping current iteration by 5.00D-01
 RMSDP=2.06D-03 MaxDP=1.30D-01              OVMax= 1.72D-01

 Cycle   2  Pass 0  IDiag  1:
 RMSU=  1.01D-03    CP:  9.86D-01
 E= -4489.10927407104     Delta-E=       -0.564734080957 Rises=F Damp=T
 DIIS: error= 4.55D-03 at cycle   2 NSaved=   2.
 NSaved= 2 IEnMin= 2 EnMin= -4489.10927407104     IErMin= 2 ErrMin= 4.55D-03
 ErrMax= 4.55D-03  0.00D+00 EMaxC= 1.00D-01 BMatC= 2.67D-01 BMatP= 3.69D+00
 IDIUse=3 WtCom= 9.55D-01 WtEn= 4.55D-02
 Coeff-Com: -0.181D+00 0.118D+01
 Coeff-En:   0.000D+00 0.100D+01
 Coeff:     -0.173D+00 0.117D+01
 Gap=     0.259 Goal=   None    Shift=    0.000
 Gap=     0.259 Goal=   None    Shift=    0.000
 RMSDP=7.56D-04 MaxDP=2.57D-02 DE=-5.65D-01 OVMax= 9.03D-02

 Cycle   3  Pass 0  IDiag  1:
 RMSU=  6.08D-04    CP:  9.76D-01  1.42D+00
 E= -4489.60769043679     Delta-E=       -0.498416365752 Rises=F Damp=F
 DIIS: error= 1.45D-03 at cycle   3 NSaved=   3.
 NSaved= 3 IEnMin= 3 EnMin= -4489.60769043679     IErMin= 3 ErrMin= 1.45D-03
 ErrMax= 1.45D-03  0.00D+00 EMaxC= 1.00D-01 BMatC= 4.11D-02 BMatP= 2.67D-01
 IDIUse=3 WtCom= 9.86D-01 WtEn= 1.45D-02
 Coeff-Com: -0.719D-01 0.313D+00 0.759D+00
 Coeff-En:   0.000D+00 0.000D+00 0.100D+01
 Coeff:     -0.709D-01 0.309D+00 0.762D+00
 Gap=     0.257 Goal=   None    Shift=    0.000
 Gap=     0.257 Goal=   None    Shift=    0.000
 RMSDP=1.84D-04 MaxDP=1.18D-02 DE=-4.98D-01 OVMax= 3.14D-02

 Cycle   4  Pass 0  IDiag  1:
 RMSU=  1.73D-04    CP:  9.75D-01  1.46D+00  9.26D-01
 E= -4489.61896043626     Delta-E=       -0.011269999477 Rises=F Damp=F
 DIIS: error= 9.52D-04 at cycle   4 NSaved=   4.
 NSaved= 4 IEnMin= 4 EnMin= -4489.61896043626     IErMin= 4 ErrMin= 9.52D-04
 ErrMax= 9.52D-04  0.00D+00 EMaxC= 1.00D-01 BMatC= 1.26D-02 BMatP= 4.11D-02
 IDIUse=3 WtCom= 9.90D-01 WtEn= 9.52D-03
 Coeff-Com: -0.358D-02-0.802D-02 0.338D+00 0.674D+00
 Coeff-En:   0.000D+00 0.000D+00 0.000D+00 0.100D+01
 Coeff:     -0.354D-02-0.794D-02 0.335D+00 0.677D+00
 Gap=     0.261 Goal=   None    Shift=    0.000
 Gap=     0.261 Goal=   None    Shift=    0.000
 RMSDP=7.71D-05 MaxDP=4.75D-03 DE=-1.13D-02 OVMax= 1.20D-02

 Cycle   5  Pass 0  IDiag  1:
 RMSU=  5.83D-05    CP:  9.74D-01  1.47D+00  1.00D+00  8.95D-01
 E= -4489.62305404887     Delta-E=       -0.004093612610 Rises=F Damp=F
 DIIS: error= 3.10D-04 at cycle   5 NSaved=   5.
 NSaved= 5 IEnMin= 5 EnMin= -4489.62305404887     IErMin= 5 ErrMin= 3.10D-04
 ErrMax= 3.10D-04  0.00D+00 EMaxC= 1.00D-01 BMatC= 1.15D-03 BMatP= 1.26D-02
 IDIUse=3 WtCom= 9.97D-01 WtEn= 3.10D-03
 Coeff-Com:  0.118D-01-0.480D-01-0.181D-02 0.181D+00 0.857D+00
 Coeff-En:   0.000D+00 0.000D+00 0.000D+00 0.000D+00 0.100D+01
 Coeff:      0.118D-01-0.479D-01-0.180D-02 0.181D+00 0.857D+00
 Gap=     0.263 Goal=   None    Shift=    0.000
 Gap=     0.263 Goal=   None    Shift=    0.000
 RMSDP=3.88D-05 MaxDP=2.41D-03 DE=-4.09D-03 OVMax= 7.85D-03

 Cycle   6  Pass 0  IDiag  1:
 RMSU=  2.70D-05    CP:  9.74D-01  1.47D+00  1.03D+00  1.02D+00  1.16D+00
 E= -4489.62382075978     Delta-E=       -0.000766710902 Rises=F Damp=F
 DIIS: error= 1.45D-04 at cycle   6 NSaved=   6.
 NSaved= 6 IEnMin= 6 EnMin= -4489.62382075978     IErMin= 6 ErrMin= 1.45D-04
 ErrMax= 1.45D-04  0.00D+00 EMaxC= 1.00D-01 BMatC= 3.08D-04 BMatP= 1.15D-03
 IDIUse=3 WtCom= 9.99D-01 WtEn= 1.45D-03
 Coeff-Com:  0.646D-02-0.195D-01-0.605D-01-0.537D-01 0.314D+00 0.813D+00
 Coeff-En:   0.000D+00 0.000D+00 0.000D+00 0.000D+00 0.000D+00 0.100D+01
 Coeff:      0.645D-02-0.194D-01-0.604D-01-0.536D-01 0.314D+00 0.814D+00
 Gap=     0.265 Goal=   None    Shift=    0.000
 Gap=     0.265 Goal=   None    Shift=    0.000
 RMSDP=2.19D-05 MaxDP=1.59D-03 DE=-7.67D-04 OVMax= 5.13D-03

 Cycle   7  Pass 0  IDiag  1:
 RMSU=  1.30D-05    CP:  9.74D-01  1.47D+00  1.04D+00  1.07D+00  1.40D+00
                    CP:  1.15D+00
 E= -4489.62406479923     Delta-E=       -0.000244039458 Rises=F Damp=F
 DIIS: error= 8.04D-05 at cycle   7 NSaved=   7.
 NSaved= 7 IEnMin= 7 EnMin= -4489.62406479923     IErMin= 7 ErrMin= 8.04D-05
 ErrMax= 8.04D-05  0.00D+00 EMaxC= 1.00D-01 BMatC= 6.14D-05 BMatP= 3.08D-04
 IDIUse=1 WtCom= 1.00D+00 WtEn= 0.00D+00
 Coeff-Com: -0.783D-03 0.609D-02-0.104D-01-0.538D-01-0.174D+00 0.199D+00
 Coeff-Com:  0.103D+01
 Coeff:     -0.783D-03 0.609D-02-0.104D-01-0.538D-01-0.174D+00 0.199D+00
 Coeff:      0.103D+01
 Gap=     0.265 Goal=   None    Shift=    0.000
 Gap=     0.265 Goal=   None    Shift=    0.000
 RMSDP=1.63D-05 MaxDP=1.01D-03 DE=-2.44D-04 OVMax= 3.26D-03

 Cycle   8  Pass 0  IDiag  1:
 RMSU=  8.05D-06    CP:  9.74D-01  1.47D+00  1.04D+00  1.10D+00  1.52D+00
                    CP:  1.52D+00  1.38D+00
 E= -4489.62412895526     Delta-E=       -0.000064156022 Rises=F Damp=F
 DIIS: error= 2.44D-05 at cycle   8 NSaved=   8.
 NSaved= 8 IEnMin= 8 EnMin= -4489.62412895526     IErMin= 8 ErrMin= 2.44D-05
 ErrMax= 2.44D-05  0.00D+00 EMaxC= 1.00D-01 BMatC= 1.05D-05 BMatP= 6.14D-05
 IDIUse=1 WtCom= 1.00D+00 WtEn= 0.00D+00
 Coeff-Com: -0.886D-03 0.437D-02 0.455D-02-0.108D-01-0.106D+00-0.351D-01
 Coeff-Com:  0.344D+00 0.800D+00
 Coeff:     -0.886D-03 0.437D-02 0.455D-02-0.108D-01-0.106D+00-0.351D-01
 Coeff:      0.344D+00 0.800D+00
 Gap=     0.266 Goal=   None    Shift=    0.000
 Gap=     0.266 Goal=   None    Shift=    0.000
 RMSDP=7.86D-06 MaxDP=2.94D-04 DE=-6.42D-05 OVMax= 9.27D-04

 Initial convergence to 1.0D-05 achieved.  Increase integral accuracy.
 Cycle   9  Pass 1  IDiag  1:
 E= -4489.62328277339     Delta-E=        0.000846181869 Rises=F Damp=F
 DIIS: error= 1.72D-04 at cycle   1 NSaved=   1.
 NSaved= 1 IEnMin= 1 EnMin= -4489.62328277339     IErMin= 1 ErrMin= 1.72D-04
 ErrMax= 1.72D-04  0.00D+00 EMaxC= 1.00D-01 BMatC= 1.31D-04 BMatP= 1.31D-04
 IDIUse=3 WtCom= 9.98D-01 WtEn= 1.72D-03
 Coeff-Com:  0.100D+01
 Coeff-En:   0.100D+01
 Coeff:      0.100D+01
 Gap=     0.266 Goal=   None    Shift=    0.000
 Gap=     0.266 Goal=   None    Shift=    0.000
 RMSDP=7.86D-06 MaxDP=2.94D-04 DE= 8.46D-04 OVMax= 4.24D-04

 Cycle  10  Pass 1  IDiag  1:
 RMSU=  1.01D-04    CP:  1.00D+00
 E= -4489.62330904266     Delta-E=       -0.000026269276 Rises=F Damp=F
 DIIS: error= 1.05D-05 at cycle   2 NSaved=   2.
 NSaved= 2 IEnMin= 2 EnMin= -4489.62330904266     IErMin= 2 ErrMin= 1.05D-05
 ErrMax= 1.05D-05  0.00D+00 EMaxC= 1.00D-01 BMatC= 1.52D-06 BMatP= 1.31D-04
 IDIUse=1 WtCom= 1.00D+00 WtEn= 0.00D+00
 Coeff-Com: -0.195D-01 0.102D+01
 Coeff:     -0.195D-01 0.102D+01
 Gap=     0.266 Goal=   None    Shift=    0.000
 Gap=     0.266 Goal=   None    Shift=    0.000
 RMSDP=5.40D-06 MaxDP=2.32D-04 DE=-2.63D-05 OVMax= 2.74D-04

 Cycle  11  Pass 1  IDiag  1:
 RMSU=  2.12D-06    CP:  1.00D+00  1.05D+00
 E= -4489.62330927792     Delta-E=       -0.000000235255 Rises=F Damp=F
 DIIS: error= 1.46D-05 at cycle   3 NSaved=   3.
 NSaved= 3 IEnMin= 3 EnMin= -4489.62330927792     IErMin= 2 ErrMin= 1.05D-05
 ErrMax= 1.46D-05  0.00D+00 EMaxC= 1.00D-01 BMatC= 1.74D-06 BMatP= 1.52D-06
 IDIUse=1 WtCom= 1.00D+00 WtEn= 0.00D+00
 Coeff-Com: -0.208D-01 0.539D+00 0.482D+00
 Coeff:     -0.208D-01 0.539D+00 0.482D+00
 Gap=     0.266 Goal=   None    Shift=    0.000
 Gap=     0.266 Goal=   None    Shift=    0.000
 RMSDP=6.89D-07 MaxDP=7.01D-05 DE=-2.35D-07 OVMax= 1.11D-04

 Cycle  12  Pass 1  IDiag  1:
 RMSU=  6.42D-07    CP:  1.00D+00  1.05D+00  9.13D-01
 E= -4489.62330975154     Delta-E=       -0.000000473619 Rises=F Damp=F
 DIIS: error= 1.77D-06 at cycle   4 NSaved=   4.
 NSaved= 4 IEnMin= 4 EnMin= -4489.62330975154     IErMin= 4 ErrMin= 1.77D-06
 ErrMax= 1.77D-06  0.00D+00 EMaxC= 1.00D-01 BMatC= 4.24D-08 BMatP= 1.52D-06
 IDIUse=1 WtCom= 1.00D+00 WtEn= 0.00D+00
 Coeff-Com:  0.167D-02-0.785D-01-0.190D-01 0.110D+01
 Coeff:      0.167D-02-0.785D-01-0.190D-01 0.110D+01
 Gap=     0.266 Goal=   None    Shift=    0.000
 Gap=     0.266 Goal=   None    Shift=    0.000
 RMSDP=3.74D-07 MaxDP=2.49D-05 DE=-4.74D-07 OVMax= 9.19D-05

 Cycle  13  Pass 1  IDiag  1:
 RMSU=  2.74D-07    CP:  1.00D+00  1.05D+00  1.01D+00  1.20D+00
 E= -4489.62330976388     Delta-E=       -0.000000012344 Rises=F Damp=F
 DIIS: error= 1.16D-06 at cycle   5 NSaved=   5.
 NSaved= 5 IEnMin= 5 EnMin= -4489.62330976388     IErMin= 5 ErrMin= 1.16D-06
 ErrMax= 1.16D-06  0.00D+00 EMaxC= 1.00D-01 BMatC= 2.26D-08 BMatP= 4.24D-08
 IDIUse=1 WtCom= 1.00D+00 WtEn= 0.00D+00
 Coeff-Com:  0.740D-02-0.208D+00-0.169D+00 0.502D+00 0.867D+00
 Coeff:      0.740D-02-0.208D+00-0.169D+00 0.502D+00 0.867D+00
 Gap=     0.266 Goal=   None    Shift=    0.000
 Gap=     0.266 Goal=   None    Shift=    0.000
 RMSDP=2.54D-07 MaxDP=1.61D-05 DE=-1.23D-08 OVMax= 6.79D-05

 Cycle  14  Pass 1  IDiag  1:
 RMSU=  1.28D-07    CP:  1.00D+00  1.05D+00  1.05D+00  1.39D+00  1.55D+00
 E= -4489.62330978564     Delta-E=       -0.000000021759 Rises=F Damp=F
 DIIS: error= 4.80D-07 at cycle   6 NSaved=   6.
 NSaved= 6 IEnMin= 6 EnMin= -4489.62330978564     IErMin= 6 ErrMin= 4.80D-07
 ErrMax= 4.80D-07  0.00D+00 EMaxC= 1.00D-01 BMatC= 2.68D-09 BMatP= 2.26D-08
 IDIUse=1 WtCom= 1.00D+00 WtEn= 0.00D+00
 Coeff-Com:  0.117D-02-0.257D-01-0.347D-01-0.133D+00 0.192D+00 0.100D+01
 Coeff:      0.117D-02-0.257D-01-0.347D-01-0.133D+00 0.192D+00 0.100D+01
 Gap=     0.266 Goal=   None    Shift=    0.000
 Gap=     0.266 Goal=   None    Shift=    0.000
 RMSDP=1.13D-07 MaxDP=7.36D-06 DE=-2.18D-08 OVMax= 3.60D-05

 Cycle  15  Pass 1  IDiag  1:
 RMSU=  4.29D-08    CP:  1.00D+00  1.05D+00  1.06D+00  1.43D+00  1.90D+00
                    CP:  1.20D+00
 E= -4489.62330978901     Delta-E=       -0.000000003367 Rises=F Damp=F
 DIIS: error= 2.41D-07 at cycle   7 NSaved=   7.
 NSaved= 7 IEnMin= 7 EnMin= -4489.62330978901     IErMin= 7 ErrMin= 2.41D-07
 ErrMax= 2.41D-07  0.00D+00 EMaxC= 1.00D-01 BMatC= 7.69D-10 BMatP= 2.68D-09
 IDIUse=1 WtCom= 1.00D+00 WtEn= 0.00D+00
 Coeff-Com: -0.664D-03 0.219D-01 0.105D-01-0.144D+00-0.579D-01 0.463D+00
 Coeff-Com:  0.707D+00
 Coeff:     -0.664D-03 0.219D-01 0.105D-01-0.144D+00-0.579D-01 0.463D+00
 Coeff:      0.707D+00
 Gap=     0.266 Goal=   None    Shift=    0.000
 Gap=     0.266 Goal=   None    Shift=    0.000
 RMSDP=3.61D-08 MaxDP=2.07D-06 DE=-3.37D-09 OVMax= 1.13D-05

 Cycle  16  Pass 1  IDiag  1:
 RMSU=  1.88D-08    CP:  1.00D+00  1.05D+00  1.06D+00  1.45D+00  1.99D+00
                    CP:  1.32D+00  1.08D+00
 E= -4489.62330978946     Delta-E=       -0.000000000447 Rises=F Damp=F
 DIIS: error= 7.78D-08 at cycle   8 NSaved=   8.
 NSaved= 8 IEnMin= 8 EnMin= -4489.62330978946     IErMin= 8 ErrMin= 7.78D-08
 ErrMax= 7.78D-08  0.00D+00 EMaxC= 1.00D-01 BMatC= 5.51D-11 BMatP= 7.69D-10
 IDIUse=1 WtCom= 1.00D+00 WtEn= 0.00D+00
 Coeff-Com: -0.178D-03 0.456D-02 0.382D-02 0.238D-02-0.280D-01-0.583D-01
 Coeff-Com:  0.220D-01 0.105D+01
 Coeff:     -0.178D-03 0.456D-02 0.382D-02 0.238D-02-0.280D-01-0.583D-01
 Coeff:      0.220D-01 0.105D+01
 Gap=     0.266 Goal=   None    Shift=    0.000
 Gap=     0.266 Goal=   None    Shift=    0.000
 RMSDP=1.39D-08 MaxDP=9.09D-07 DE=-4.47D-10 OVMax= 5.42D-06

 Cycle  17  Pass 1  IDiag  1:
 RMSU=  7.80D-09    CP:  1.00D+00  1.05D+00  1.05D+00  1.45D+00  2.01D+00
                    CP:  1.35D+00  1.26D+00  1.34D+00
 E= -4489.62330979008     Delta-E=       -0.000000000622 Rises=F Damp=F
 DIIS: error= 4.38D-08 at cycle   9 NSaved=   9.
 NSaved= 9 IEnMin= 9 EnMin= -4489.62330979008     IErMin= 9 ErrMin= 4.38D-08
 ErrMax= 4.38D-08  0.00D+00 EMaxC= 1.00D-01 BMatC= 2.75D-11 BMatP= 5.51D-11
[...]
    22 C(13)  Bbb     0.0000     0.000     0.000     0.000  0.1851 -0.0155  0.9826
              Bcc     0.0000     0.000     0.000     0.000  0.9711 -0.1504 -0.1853
 
              Baa    -0.0000    -0.000    -0.000    -0.000 -0.2863 -0.1932  0.9385
    23 C(13)  Bbb    -0.0000    -0.000    -0.000    -0.000  0.9434  0.1142  0.3113
              Bcc     0.0000     0.000     0.000     0.000 -0.1674  0.9745  0.1496
 
              Baa    -0.0000    -0.000    -0.000    -0.000 -0.2429  0.9615  0.1287
    24 S(33)  Bbb     0.0000     0.000     0.000     0.000  0.9689  0.2340  0.0803
              Bcc     0.0000     0.000     0.000     0.000 -0.0471 -0.1442  0.9884
 
              Baa    -0.0000    -0.000    -0.000    -0.000  0.0941  0.4431  0.8915
    25 C(13)  Bbb    -0.0000    -0.000    -0.000    -0.000  0.9879 -0.1526 -0.0284
              Bcc     0.0000     0.000     0.000     0.000  0.1234  0.8834 -0.4520
 
              Baa    -0.0000    -0.000    -0.000    -0.000  0.9782  0.0007 -0.2078
    26 C(13)  Bbb    -0.0000    -0.000    -0.000    -0.000  0.2010 -0.2569  0.9453
              Bcc     0.0000     0.000     0.000     0.000  0.0527  0.9664  0.2514
 
              Baa    -0.0000    -0.000    -0.000    -0.000  0.4344  0.8889  0.1455
    27 C(13)  Bbb    -0.0000    -0.000    -0.000    -0.000 -0.6764  0.2152  0.7044
              Bcc     0.0000     0.000     0.000     0.000  0.5948 -0.4044  0.6947
 
              Baa    -0.0000    -0.000    -0.000    -0.000 -0.0414  0.4340  0.9000
    28 C(13)  Bbb     0.0000     0.000     0.000     0.000 -0.1333  0.8903 -0.4354
              Bcc     0.0000     0.000     0.000     0.000  0.9902  0.1379 -0.0210
 
              Baa    -0.0000    -0.000    -0.000    -0.000  0.1380  0.0419  0.9895
    29 N(14)  Bbb     0.0000     0.000     0.000     0.000  0.9339 -0.3381 -0.1160
              Bcc     0.0000     0.000     0.000     0.000  0.3297  0.9402 -0.0858
 
              Baa    -0.0000    -0.000    -0.000    -0.000  0.7682 -0.4289  0.4753
    30 C(13)  Bbb     0.0000     0.000     0.000     0.000  0.1536  0.8442  0.5135
              Bcc     0.0000     0.000     0.000     0.000 -0.6215 -0.3215  0.7144
 
              Baa    -0.0000    -0.000    -0.000    -0.000  0.9982  0.0426 -0.0431
    31 C(13)  Bbb     0.0000     0.000     0.000     0.000  0.0482 -0.1272  0.9907
              Bcc     0.0000     0.000     0.000     0.000 -0.0367  0.9910  0.1290
 
              Baa    -0.0000    -0.000    -0.000    -0.000  0.9489  0.2812 -0.1435
    32 C(13)  Bbb    -0.0000    -0.000    -0.000    -0.000 -0.3154  0.8638 -0.3929
              Bcc     0.0000     0.000     0.000     0.000  0.0135  0.4181  0.9083
 
              Baa    -0.0000    -0.000    -0.000    -0.000 -0.1417  0.9892  0.0370
    33 F(19)  Bbb    -0.0000    -0.000    -0.000    -0.000 -0.0302 -0.0417  0.9987
              Bcc     0.0000     0.000     0.000     0.000  0.9895  0.1404  0.0358
 
              Baa    -0.0000    -0.000    -0.000    -0.000  0.3953  0.7397 -0.5445
    34 C(13)  Bbb     0.0000     0.000     0.000     0.000  0.7727  0.0528  0.6326
              Bcc     0.0000     0.000     0.000     0.000 -0.4967  0.6708  0.5507
 
              Baa    -0.0000    -0.000    -0.000    -0.000  0.9590 -0.2344  0.1591
    35 C(13)  Bbb     0.0000     0.000     0.000     0.000  0.2703  0.9253 -0.2659
              Bcc     0.0000     0.000     0.000     0.000 -0.0849  0.2980  0.9508
 
              Baa    -0.0000    -0.000    -0.000    -0.000  0.8747 -0.2921  0.3867
    36 S(33)  Bbb     0.0000     0.000     0.000     0.000 -0.2144  0.4824  0.8493
              Bcc     0.0000     0.000     0.000     0.000  0.4347  0.8258 -0.3594
 
              Baa    -0.0000    -0.000    -0.000    -0.000 -0.3917 -0.4799  0.7850
    37 C(13)  Bbb     0.0000     0.000     0.000     0.000  0.9031 -0.3635  0.2284
              Bcc     0.0000     0.000     0.000     0.000  0.1758  0.7985  0.5758
 
              Baa    -0.0000    -0.000    -0.000    -0.000  0.9918 -0.0919 -0.0890
    38 C(13)  Bbb     0.0000     0.000     0.000     0.000  0.0790 -0.1074  0.9911
              Bcc     0.0000     0.000     0.000     0.000  0.1006  0.9900  0.0993
 
              Baa    -0.0000    -0.000    -0.000    -0.000 -0.0018 -0.4806  0.8769
    39 C(13)  Bbb     0.0000     0.000     0.000     0.000  0.8936 -0.3945 -0.2143
              Bcc     0.0000     0.000     0.000     0.000  0.4490  0.7832  0.4302
 
              Baa    -0.0000    -0.000    -0.000    -0.000 -0.5723 -0.3382  0.7471
    40 C(13)  Bbb     0.0000     0.000     0.000     0.000  0.0430  0.8974  0.4392
              Bcc     0.0000     0.000     0.000     0.000  0.8189 -0.2834  0.4990
 
              Baa    -0.0000    -0.000    -0.000    -0.000  0.8066  0.0139 -0.5909
    41 N(14)  Bbb    -0.0000    -0.000    -0.000    -0.000  0.5910 -0.0278  0.8062
              Bcc     0.0000     0.000     0.000     0.000  0.0052  0.9995  0.0306
 
              Baa    -0.0000    -0.000    -0.000    -0.000  0.8027 -0.4766 -0.3585
    42 C(13)  Bbb     0.0000     0.000     0.000     0.000  0.1374  0.7328 -0.6665
              Bcc     0.0000     0.000     0.000     0.000  0.5804  0.4857  0.6537
 
              Baa    -0.0000    -0.000    -0.000    -0.000 -0.4307  0.0460  0.9013
    43 C(13)  Bbb    -0.0000    -0.000    -0.000    -0.000  0.8823  0.2317  0.4098
              Bcc     0.0000     0.000     0.000     0.000 -0.1899  0.9717 -0.1404
 
              Baa    -0.0000    -0.000    -0.000    -0.000  0.4588 -0.0095  0.8885
    44 C(13)  Bbb     0.0000     0.000     0.000     0.000 -0.0095  0.9998  0.0156
              Bcc     0.0000     0.000     0.000     0.000  0.8885  0.0156 -0.4587
 
              Baa    -0.0000    -0.000    -0.000    -0.000  0.9044 -0.3988  0.1519
    45 F(19)  Bbb     0.0000     0.000     0.000     0.000  0.2530  0.7877  0.5617
              Bcc     0.0000     0.000     0.000     0.000 -0.3436 -0.4696  0.8133
 
              Baa    -0.0000    -0.000    -0.000    -0.000  0.3240  0.6891 -0.6483
    46 C(13)  Bbb    -0.0000    -0.000    -0.000    -0.000  0.2253  0.6093  0.7603
              Bcc     0.0000     0.000     0.000     0.000  0.9188 -0.3924  0.0422
 
              Baa    -0.0000    -0.000    -0.000    -0.000  0.7970 -0.5370  0.2765
    47 C(13)  Bbb    -0.0000    -0.000    -0.000    -0.000  0.2400  0.7017  0.6708
              Bcc     0.0000     0.000     0.000     0.000 -0.5542 -0.4682  0.6882
 
              Baa    -0.0000    -0.000    -0.000    -0.000  0.9964 -0.0394 -0.0757
    48 S(33)  Bbb     0.0000     0.000     0.000     0.000  0.0586  0.9607  0.2714
              Bcc     0.0000     0.000     0.000     0.000  0.0621 -0.2749  0.9595
 
              Baa    -0.0000    -0.000    -0.000    -0.000  0.2346  0.5690  0.7882
    49 C(13)  Bbb    -0.0000    -0.000    -0.000    -0.000 -0.3851  0.7989 -0.4621
              Bcc     0.0000     0.000     0.000     0.000  0.8926  0.1951 -0.4065
 
              Baa    -0.0000    -0.000    -0.000    -0.000 -0.0577 -0.1229  0.9907
    50 C(13)  Bbb    -0.0000    -0.000    -0.000    -0.000  0.6942  0.7083  0.1283
              Bcc     0.0000     0.000     0.000     0.000  0.7175 -0.6952 -0.0444
 
              Baa    -0.0000    -0.000    -0.000    -0.000  0.4249  0.8246 -0.3734
    51 C(13)  Bbb     0.0000     0.000     0.000     0.000  0.1095  0.3627  0.9255
              Bcc     0.0000     0.000     0.000     0.000  0.8986 -0.4341  0.0638
 
              Baa    -0.0000    -0.000    -0.000    -0.000  0.9593 -0.0198 -0.2816
    52 C(13)  Bbb     0.0000     0.000     0.000     0.000  0.2124  0.7079  0.6737
              Bcc     0.0000     0.000     0.000     0.000 -0.1860  0.7061 -0.6833
 
              Baa    -0.0000    -0.000    -0.000    -0.000  0.2982  0.9137 -0.2761
    53 N(14)  Bbb     0.0000     0.000     0.000     0.000 -0.3042  0.3652  0.8798
              Bcc     0.0000     0.000     0.000     0.000  0.9048 -0.1783  0.3868
 
              Baa    -0.0000    -0.000    -0.000    -0.000 -0.4136  0.2512  0.8751
    54 C(13)  Bbb     0.0000     0.000     0.000     0.000  0.6268  0.7757  0.0735
              Bcc     0.0000     0.000     0.000     0.000  0.6603 -0.5789  0.4783
 
              Baa    -0.0000    -0.000    -0.000    -0.000  0.8219 -0.4894  0.2914
    55 C(13)  Bbb    -0.0000    -0.000    -0.000    -0.000  0.0726  0.5974  0.7986
              Bcc     0.0000     0.000     0.000     0.000  0.5649  0.6353 -0.5266
 
              Baa    -0.0000    -0.000    -0.000    -0.000  0.9982  0.0318 -0.0517
    56 C(13)  Bbb     0.0000     0.000     0.000     0.000  0.0605 -0.5721  0.8179
              Bcc     0.0000     0.000     0.000     0.000  0.0036  0.8196  0.5730
 
              Baa    -0.0000    -0.000    -0.000    -0.000  0.7390  0.4357 -0.5138
    57 F(19)  Bbb     0.0000     0.000     0.000     0.000 -0.2689  0.8901  0.3680
              Bcc     0.0000     0.000     0.000     0.000  0.6177 -0.1338  0.7750
 
              Baa    -0.0000    -0.000    -0.000    -0.000  0.2773  0.9377 -0.2095
    58 C(13)  Bbb     0.0000     0.000     0.000     0.000  0.8471 -0.3415 -0.4072
              Bcc     0.0000     0.000     0.000     0.000  0.4534  0.0645  0.8890
 
              Baa    -0.0000    -0.000    -0.000    -0.000  0.6724  0.4315  0.6014
    59 C(13)  Bbb    -0.0000    -0.000    -0.000    -0.000  0.7397 -0.3624 -0.5670
              Bcc     0.0000     0.000     0.000     0.000 -0.0268  0.8261 -0.5629
 
              Baa    -0.0000    -0.000    -0.000    -0.000  0.5427  0.8054 -0.2385
    60 S(33)  Bbb    -0.0000    -0.000    -0.000    -0.000  0.6974 -0.5903 -0.4065
              Bcc     0.0000     0.000     0.000     0.000  0.4682 -0.0543  0.8820
 
              Baa    -0.0000    -0.000    -0.000    -0.000  0.9371  0.2732  0.2174
    61 H(1)   Bbb     0.0000     0.000     0.000     0.000 -0.1631  0.8930 -0.4194
              Bcc     0.0000     0.000     0.000     0.000 -0.3088  0.3576  0.8814
 
              Baa    -0.0000    -0.000    -0.000    -0.000  0.3551  0.9179 -0.1769
    62 H(1)   Bbb     0.0000     0.000     0.000     0.000  0.9347 -0.3461  0.0806
              Bcc     0.0000     0.000     0.000     0.000 -0.0128  0.1940  0.9809
 
              Baa    -0.0000    -0.000    -0.000    -0.000 -0.4829  0.7480 -0.4553
    63 H(1)   Bbb     0.0000     0.000     0.000     0.000  0.5714  0.6631  0.4835
              Bcc     0.0000     0.000     0.000     0.000 -0.6636  0.0267  0.7476
 
              Baa    -0.0000    -0.000    -0.000    -0.000  0.8031 -0.1297  0.5815
    64 H(1)   Bbb     0.0000     0.000     0.000     0.000 -0.5490  0.2182  0.8068
              Bcc     0.0000     0.000     0.000     0.000  0.2315  0.9672 -0.1040
 
              Baa    -0.0000    -0.000    -0.000    -0.000  0.9246 -0.0983  0.3680
    65 H(1)   Bbb    -0.0000    -0.000    -0.000    -0.000 -0.3078  0.3761  0.8740
              Bcc     0.0000     0.000     0.000     0.000  0.2243  0.9214 -0.3175
 
              Baa    -0.0000    -0.000    -0.000    -0.000  0.7077  0.7058 -0.0318
    66 H(1)   Bbb    -0.0000    -0.000    -0.000    -0.000  0.1269 -0.0828  0.9885
              Bcc     0.0000     0.000     0.000     0.000 -0.6950  0.7035  0.1481
 
              Baa    -0.0000    -0.000    -0.000    -0.000  0.8114  0.0792  0.5791
    67 H(1)   Bbb    -0.0000    -0.000    -0.000    -0.000 -0.5577 -0.1921  0.8075
              Bcc     0.0000     0.000     0.000     0.000 -0.1752  0.9782  0.1117
 
              Baa    -0.0000    -0.000    -0.000    -0.000 -0.4798  0.8764  0.0426
    68 H(1)   Bbb     0.0000     0.000     0.000     0.000  0.8577  0.4787 -0.1876
              Bcc     0.0000     0.000     0.000     0.000  0.1849  0.0534  0.9813
 
              Baa    -0.0000    -0.000    -0.000    -0.000  0.8948 -0.4252 -0.1364
    69 H(1)   Bbb    -0.0000    -0.000    -0.000    -0.000  0.0744 -0.1593  0.9844
              Bcc     0.0000     0.000     0.000     0.000  0.4403  0.8910  0.1109
 
              Baa    -0.0000    -0.000    -0.000    -0.000 -0.2804 -0.5968  0.7518
    70 H(1)   Bbb     0.0000     0.000     0.000     0.000 -0.6499  0.6944  0.3088
              Bcc     0.0000     0.000     0.000     0.000  0.7064  0.4020  0.5826
 
              Baa    -0.0000    -0.000    -0.000    -0.000  0.8079 -0.5707  0.1465
    71 H(1)   Bbb    -0.0000    -0.000    -0.000    -0.000  0.0343  0.2938  0.9552
              Bcc     0.0000     0.000     0.000     0.000  0.5883  0.7668 -0.2570
 
              Baa    -0.0000    -0.000    -0.000    -0.000  0.6331  0.7048 -0.3202
    72 H(1)   Bbb     0.0000     0.000     0.000     0.000  0.7677 -0.5186  0.3764
              Bcc     0.0000     0.000     0.000     0.000 -0.0992  0.4841  0.8694
 
              Baa    -0.0000    -0.000    -0.000    -0.000  0.4850  0.8558 -0.1800
    73 H(1)   Bbb     0.0000     0.000     0.000     0.000  0.8738 -0.4826  0.0601
              Bcc     0.0000     0.000     0.000     0.000  0.0354  0.1864  0.9818
 
              Baa    -0.0000    -0.000    -0.000    -0.000  0.7267  0.2157 -0.6522
    74 H(1)   Bbb    -0.0000    -0.000    -0.000    -0.000 -0.6029  0.6554 -0.4550
              Bcc     0.0000     0.000     0.000     0.000  0.3293  0.7238  0.6063
 
              Baa    -0.0000    -0.000    -0.000    -0.000 -0.0284  0.9652 -0.2598
    75 H(1)   Bbb    -0.0000    -0.000    -0.000    -0.000  0.3608  0.2523  0.8979
              Bcc     0.0000     0.000     0.000     0.000  0.9322 -0.0683 -0.3554
 
              Baa    -0.0000    -0.000    -0.000    -0.000 -0.2657  0.8233 -0.5015
    76 H(1)   Bbb    -0.0000    -0.000    -0.000    -0.000  0.9211  0.0633 -0.3841
              Bcc     0.0000     0.000     0.000     0.000  0.2845  0.5640  0.7752
 
              Baa    -0.0000    -0.000    -0.000    -0.000  0.5056 -0.5336  0.6779
    77 H(1)   Bbb     0.0000     0.000     0.000     0.000 -0.1798  0.7033  0.6877
              Bcc     0.0000     0.000     0.000     0.000  0.8438  0.4697 -0.2597
 
              Baa    -0.0000    -0.000    -0.000    -0.000  0.9004  0.2789 -0.3341
    78 H(1)   Bbb    -0.0000    -0.000    -0.000    -0.000  0.2457  0.3079  0.9192
              Bcc     0.0000     0.000     0.000     0.000 -0.3592  0.9096 -0.2087
 
              Baa    -0.0000    -0.000    -0.000    -0.000 -0.1962 -0.6455  0.7381
    79 H(1)   Bbb    -0.0000    -0.000    -0.000    -0.000  0.4993  0.5821  0.6418
              Bcc     0.0000     0.000     0.000     0.000  0.8440 -0.4944 -0.2081
 
              Baa    -0.0000    -0.000    -0.000    -0.000 -0.5429  0.6846  0.4864
    80 H(1)   Bbb    -0.0000    -0.000    -0.000    -0.000  0.5516 -0.1462  0.8212
              Bcc     0.0000     0.000     0.000     0.000  0.6333  0.7141 -0.2982
 
              Baa    -0.0000    -0.000    -0.000    -0.000  0.8991  0.1921 -0.3933
    81 H(1)   Bbb     0.0000     0.000     0.000     0.000 -0.2521  0.9618 -0.1065
              Bcc     0.0000     0.000     0.000     0.000  0.3579  0.1949  0.9132
 
              Baa    -0.0000    -0.000    -0.000    -0.000  0.8148  0.5676 -0.1175
    82 H(1)   Bbb    -0.0000    -0.000    -0.000    -0.000  0.2184 -0.1129  0.9693
              Bcc     0.0000     0.000     0.000     0.000 -0.5369  0.8155  0.2160
 

 ---------------------------------------------------------------------------------

 No NMR shielding tensors so no spin-rotation constants.
 Leave Link  601 at Fri Jul 24 19:49:20 2020, MaxMem=  4026531840 cpu:              19.4 elap:               2.6
 (Enter /opt/ohpc/pub/libs/gaussian/g16-A.03/sandybridge/g16/l9999.exe)

 Test job not archived.
 1\1\GINC-SKYLAKE051\FOpt\ULC-wPBE\CC-pVDZ\C45H22F5N5S5\RDU230\24-Jul-2
 020\0\\#P uLC-wPBE/cc-pVDZ iop(3/107=0462500000, 3/108=0462500000) opt
 \\H22 C45 S5 N5 F5\\0,1\C,-17.9322740714,-3.1701873539,-1.5304633453\C
 ,-17.220934638,-4.2735771247,-1.0894281278\C,-15.8975404799,-4.1225827
 117,-0.7200505763\C,-15.3274927903,-2.8543859884,-0.8068455609\N,-16.0
 076718103,-1.7899597618,-1.2300722747\C,-17.2739939302,-1.952374044,-1
 .5804055286\C,-13.9331725514,-2.5897223787,-0.440590402\C,-12.95619487
 21,-3.4141357641,0.0265733857\F,-13.1320787571,-4.7189798528,0.2542858
 442\C,-11.7120315145,-2.7932974492,0.2749647868\C,-11.7585169818,-1.46
 26544826,-0.0169703374\S,-13.3083184356,-0.9931102198,-0.5939649611\C,
 -10.6716506592,-0.4850426722,0.1091144061\C,-10.8997606178,0.851356061
 9,0.4219086208\C,-9.8359494643,1.722509429,0.535280394\C,-8.5480808962
 ,1.2302286124,0.3377687999\N,-8.317161469,-0.0463506692,0.0323773663\C
 ,-9.3452887431,-0.8660037008,-0.0823206398\C,-7.3533414921,2.068525033
 6,0.4454487985\C,-7.2113400344,3.3904472481,0.7391746752\F,-8.23600876
 59,4.2047409499,1.0065790474\C,-5.8812200551,3.8630565985,0.7547492452
 \C,-4.9992896253,2.8647966601,0.4636109192\S,-5.8027071917,1.374603179
 9,0.1673142912\C,-3.5376055377,2.9681804488,0.3862804787\C,-2.91088160
 87,4.1422093495,-0.0210301808\C,-1.5342931805,4.2065690594,-0.06828772
 47\C,-0.8021264594,3.0757489027,0.2887873879\N,-1.3903145842,1.9454960
 708,0.6772687768\C,-2.7091936395,1.9010794393,0.7251230778\C,0.6603860
 311,3.0381142846,0.2624545914\C,1.5742621479,3.9909744337,-0.070588529
 5\F,1.2480582105,5.2283052179,-0.4540935909\C,2.9244562806,3.589673281
 2,0.0257620441\C,3.0250951259,2.2953282652,0.4423757583\S,1.4797340774
 ,1.589052568,0.7013291046\C,4.2534946239,1.5234820437,0.6614795384\C,4
 .3510528996,0.5319375773,1.6328371098\C,5.5358831335,-0.1550720155,1.7
 973288379\C,6.6154926934,0.1732017106,0.9803398158\N,6.5324861632,1.11
 71805148,0.0430376244\C,5.3896255419,1.7596224404,-0.1092456603\C,7.91
 6282814,-0.4888620775,1.0820079999\C,8.3561615089,-1.4736965429,1.9130
 467\F,7.5999628767,-2.0375281096,2.8586733347\C,9.6980213064,-1.868625
 3692,1.7209525831\C,10.2812077853,-1.1590494624,0.7133624342\S,9.18750
 83385,-0.0323503335,0.0143019695\C,11.6570950084,-1.2815909522,0.21860
 98196\C,12.3674619769,-0.2005565288,-0.2938920631\C,13.6621104644,-0.3
 765136122,-0.7364205154\C,14.2299669433,-1.6457095717,-0.6499945932\N,
 13.5573547791,-2.6896503735,-0.1663554132\C,12.3163331582,-2.508377721
 3,0.2448933636\C,15.5993546872,-1.9322156565,-1.0821091356\C,16.554662
 0537,-1.119102991,-1.6127943113\F,16.3747031556,0.1851618568,-1.843033
 8672\C,17.7827267338,-1.7536270436,-1.9142127385\C,17.7272319654,-3.07
 15626102,-1.5953924049\S,16.219797062,-3.5325430733,-0.9444785953\H,-1
 8.9749104801,-3.2474503549,-1.8302965804\H,-17.6944899285,-5.252624028
 4,-1.0324952133\H,-15.310666142,-4.96608821,-0.3701766408\H,-17.793665
 7679,-1.0552467587,-1.9214146103\H,-10.8517049219,-3.3200870359,0.6762
 103167\H,-11.914908103,1.209204711,0.5907295255\H,-9.994942706,2.76734
 64752,0.7822958379\H,-9.1085639586,-1.8949710644,-0.35844788\H,-5.6145
 419222,4.8865292932,0.9999331124\H,-3.5058145517,5.0042525231,-0.31870
 30331\H,-1.028357234,5.1123743619,-0.3870054407\H,-3.1433465237,0.9587
 599365,1.0658913037\H,3.7601956318,4.2513829442,-0.179683641\H,3.49897
 02724,0.305391407,2.2729566768\H,5.6312576942,-0.9290310062,2.55218525
 84\H,5.3622595554,2.5052857292,-0.9057261358\H,10.1920152211,-2.620499
 571,2.3285543676\H,11.9094796538,0.7872717863,-0.3343106126\H,14.23274
 91173,0.455885384,-1.1355516162\H,11.7982763683,-3.397355134,0.6090257
 297\H,18.6379740157,-1.2393829846,-2.3410622552\H,18.5162410196,-3.807
 6124231,-1.7149473226\\Version=EM64L-G16RevA.03\State=1-A\HF=-4489.801
 8007\S2=0.\S2-1=0.\S2A=0.\RMSD=3.442e-09\RMSF=2.166e-06\Dipole=-0.6467
 499,0.2290393,0.136605\Quadrupole=47.0681632,-12.1757323,-34.8924309,1
 0.9462118,-1.3821384,-1.5233746\PG=C01 [X(C45H22F5N5S5)]\\@


 A COMPUTER IS LIKE A HORSE, IT WILL SENSE WEAKNESS.
     -- GREG WETTSTEIN
 Job cpu time:       1 days 16 hours 20 minutes 10.5 seconds.
 Elapsed time:       0 days  5 hours  8 minutes 31.4 seconds.
 File lengths (MBytes):  RWF=   1084 Int=      0 D2E=      0 Chk=     96 Scr=      8
 Normal termination of Gaussian 16 at Fri Jul 24 19:49:20 2020.
