 Entering Gaussian System, Link 0=g16
 Input=mols_66_7_15_c-c-cOC-cOC_opt_0.gjf
 Output=mols_66_7_15_c-c-cOC-cOC_opt_0.log
 Initial command:
 /opt/ohpc/pub/libs/gaussian/g16-A.03/sandybridge/g16/l1.exe "/mnt/gpfs2_4m/scratch/rdu230/ondemand/projects/dihedral_energies/7trial/wtuning/redos_512cycles/mols_66_7_15_c-c-cOC-cOC/Gau-139747.inp" -scrdir="/mnt/gpfs2_4m/scratch/rdu230/ondemand/projects/dihedral_energies/7trial/wtuning/redos_512cycles/mols_66_7_15_c-c-cOC-cOC/"
 Entering Link 1 = /opt/ohpc/pub/libs/gaussian/g16-A.03/sandybridge/g16/l1.exe PID=    139748.
  
 Copyright (c) 1988,1990,1992,1993,1995,1998,2003,2009,2016,
            Gaussian, Inc.  All Rights Reserved.
  
 This is part of the Gaussian(R) 16 program.  It is based on
 the Gaussian(R) 09 system (copyright 2009, Gaussian, Inc.),
 the Gaussian(R) 03 system (copyright 2003, Gaussian, Inc.),
 the Gaussian(R) 98 system (copyright 1998, Gaussian, Inc.),
 the Gaussian(R) 94 system (copyright 1995, Gaussian, Inc.),
 the Gaussian 92(TM) system (copyright 1992, Gaussian, Inc.),
 the Gaussian 90(TM) system (copyright 1990, Gaussian, Inc.),
 the Gaussian 88(TM) system (copyright 1988, Gaussian, Inc.),
 the Gaussian 86(TM) system (copyright 1986, Carnegie Mellon
 University), and the Gaussian 82(TM) system (copyright 1983,
 Carnegie Mellon University). Gaussian is a federally registered
 trademark of Gaussian, Inc.
  
 This software contains proprietary and confidential information,
 including trade secrets, belonging to Gaussian, Inc.
  
 This software is provided under written license and may be
 used, copied, transmitted, or stored only in accord with that
 written license.
  
 The following legend is applicable only to US Government
 contracts under FAR:
  
                    RESTRICTED RIGHTS LEGEND
  
 Use, reproduction and disclosure by the US Government is
 subject to restrictions as set forth in subparagraphs (a)
 and (c) of the Commercial Computer Software - Restricted
 Rights clause in FAR 52.227-19.
  
 Gaussian, Inc.
 340 Quinnipiac St., Bldg. 40, Wallingford CT 06492
  
  
 ---------------------------------------------------------------
 Warning -- This program may not be used in any manner that
 competes with the business of Gaussian, Inc. or will provide
 assistance to any competitor of Gaussian, Inc.  The licensee
 of this program is prohibited from giving any competitor of
 Gaussian, Inc. access to this program.  By using this program,
 the user acknowledges that Gaussian, Inc. is engaged in the
 business of creating and licensing software in the field of
 computational chemistry and represents and warrants to the
 licensee that it is not a competitor of Gaussian, Inc. and that
 it will not use this program in any manner prohibited above.
 ---------------------------------------------------------------
  

 Cite this work as:
 Gaussian 16, Revision A.03,
 M. J. Frisch, G. W. Trucks, H. B. Schlegel, G. E. Scuseria, 
 M. A. Robb, J. R. Cheeseman, G. Scalmani, V. Barone, 
 G. A. Petersson, H. Nakatsuji, X. Li, M. Caricato, A. V. Marenich, 
 J. Bloino, B. G. Janesko, R. Gomperts, B. Mennucci, H. P. Hratchian, 
 J. V. Ortiz, A. F. Izmaylov, J. L. Sonnenberg, D. Williams-Young, 
 F. Ding, F. Lipparini, F. Egidi, J. Goings, B. Peng, A. Petrone, 
 T. Henderson, D. Ranasinghe, V. G. Zakrzewski, J. Gao, N. Rega, 
 G. Zheng, W. Liang, M. Hada, M. Ehara, K. Toyota, R. Fukuda, 
 J. Hasegawa, M. Ishida, T. Nakajima, Y. Honda, O. Kitao, H. Nakai, 
 T. Vreven, K. Throssell, J. A. Montgomery, Jr., J. E. Peralta, 
 F. Ogliaro, M. J. Bearpark, J. J. Heyd, E. N. Brothers, K. N. Kudin, 
 V. N. Staroverov, T. A. Keith, R. Kobayashi, J. Normand, 
 K. Raghavachari, A. P. Rendell, J. C. Burant, S. S. Iyengar, 
 J. Tomasi, M. Cossi, J. M. Millam, M. Klene, C. Adamo, R. Cammi, 
 J. W. Ochterski, R. L. Martin, K. Morokuma, O. Farkas, 
 J. B. Foresman, and D. J. Fox, Gaussian, Inc., Wallingford CT, 2016.
 
 ******************************************
 Gaussian 16:  EM64L-G16RevA.03 25-Dec-2016
                27-Jul-2020 
 ******************************************
 %mem=30GB
 %nproc=8
 Will use up to    8 processors via shared memory.
 ---------------------------------------------------------------
 #P uLC-wPBE/cc-pVDZ iop(3/107=0441800000, 3/108=0441800000) opt
 ---------------------------------------------------------------
 1/18=20,19=15,26=3,38=1/1,3;
 2/9=110,12=2,17=6,18=5,40=1/2;
 3/5=16,11=2,25=1,30=1,71=1,74=-41,107=441800000,108=441800000,116=2/1,2,3;
 4//1;
 5/5=2,38=5/2;
 6/7=2,8=2,9=2,10=2,28=1/1;
 7//1,2,3,16;
 1/18=20,19=15,26=3/3(2);
 2/9=110/2;
 99//99;
 2/9=110/2;
 3/5=16,11=2,25=1,30=1,71=1,74=-41,107=441800000,108=441800000,116=2/1,2,3;
 4/5=5,16=3,69=1/1;
 5/5=2,38=5/2;
 7//1,2,3,16;
 1/18=20,19=15,26=3/3(-5);
 2/9=110/2;
 6/7=2,8=2,9=2,10=2,19=2,28=1/1;
 99/9=1/99;
 Leave Link    1 at Mon Jul 27 10:52:46 2020, MaxMem=  4026531840 cpu:               2.0 elap:               0.3
 (Enter /opt/ohpc/pub/libs/gaussian/g16-A.03/sandybridge/g16/l101.exe)
 -----------
 H86 C98 O14
 -----------
 Symbolic Z-matrix:
 Charge =  0 Multiplicity = 1
 C                    -28.22079   3.63607  -1.00223 
 C                    -27.65505   2.41319  -1.45073 
 C                    -26.26594   2.09301  -1.2972 
 O                    -25.71736   0.92002  -1.71428 
 C                    -26.60593  -0.20775  -2.0263 
 C                    -25.4807   3.06864  -0.78355 
 C                    -25.91877   4.31988  -0.39042 
 C                    -27.3373   4.56466  -0.44679 
 C                    -23.9299   2.8136   -0.64045 
 C                    -23.19818   2.67284  -1.82959 
 C                    -21.84367   2.49236  -1.77261 
 C                    -21.19224   2.37488  -0.48399 
 C                    -21.93867   2.46817   0.67067 
 C                    -23.30953   2.64867   0.57534 
 O                    -24.12933   2.7914    1.66768 
 C                    -23.68295   2.21252   2.86645 
 C                    -19.77666   2.03572  -0.37188 
 C                    -19.29356   0.85305   0.19024 
 C                    -17.89612   0.64995   0.31619 
 O                    -17.33879  -0.51086   0.9112 
 C                    -18.31857  -1.53113   1.42828 
 C                    -16.99844   1.50338  -0.26041 
 C                    -17.42285   2.69184  -0.81161 
 C                    -18.79022   2.90529  -0.91055 
 C                    -15.56094   1.24034  -0.14658 
 C                    -14.83584   0.56707  -1.1814 
 C                    -13.48251   0.25228  -1.07587 
 C                    -12.69633   0.7131   -0.01407 
 C                    -13.41102   1.43542   0.98126 
 C                    -14.7543   1.68977   0.89878 
 O                    -15.38729   2.37253   1.90567 
 C                    -14.93367   2.15862   3.25903 
 C                    -11.32539   0.35269   0.0994 
 C                    -10.79606  -0.4079    1.14222 
 C                    -9.50947  -0.80444   1.18193 
 O                    -8.96007  -1.61138   2.12975 
 C                    -9.8225   -2.36113   2.90244 
 C                    -8.52808  -0.41575   0.14416 
 C                    -9.04218   0.45438  -0.86247 
 C                    -10.37157   0.74542  -0.91375 
 C                    -7.11383  -0.82484   0.13305 
 C                    -6.24244  -0.19956   0.93448 
 C                    -4.84097  -0.62998   0.95631 
 C                    -4.3931   -1.65298   0.1141 
 C                    -5.3544   -2.20822  -0.70792 
 C                    -6.73205  -1.83603  -0.67597 
 O                    -7.63177  -2.43503  -1.52349 
 C                    -7.2782   -3.2833   -2.578 
 C                    -3.05025  -2.05007   0.12368 
 C                    -2.34942  -2.46303   1.29641 
 C                    -1.01444  -2.77278   1.27324 
 O                    -0.25501  -3.22721   2.35199 
 C                    -0.9711   -3.37833   3.60825 
 C                    -0.24271  -2.74846   0.01486 
 C                    -0.96471  -2.38472  -1.10374 
 C                    -2.33444  -2.00101  -1.10028 
 C                     1.17707  -3.10569  -0.09873 
 C                     2.11993  -2.06853   0.32698 
 C                     3.41906  -2.26946   0.23453 
 C                     3.9167   -3.52416  -0.247 
 C                     3.09757  -4.52812  -0.61529 
 C                     1.64485  -4.31654  -0.52629 
 O                     0.76553  -5.21057  -0.97043 
 C                     1.17444  -6.18967  -1.9577 
 C                     5.41155  -3.71667  -0.40329 
 C                     6.23912  -3.64302   0.77566 
 C                     7.6577   -3.6103    0.67201 
 O                     8.50339  -3.54157   1.77344 
 C                     7.89616  -3.44645   3.01918 
 C                     8.21255  -3.81532  -0.60807 
 C                     7.45977  -3.96209  -1.69768 
 C                     5.99164  -3.97379  -1.58445 
 C                     9.74251  -3.74172  -0.73994 
 C                     10.62354  -4.61255  -0.12236 
 C                     11.96911  -4.40816  -0.07169 
 C                     12.52213  -3.322    -0.75539 
 C                     11.72594  -2.43587  -1.39823 
 C                     10.25853  -2.63362  -1.423 
 O                     9.40534  -1.77587  -2.03156 
 C                     9.98846  -0.4996   -2.5691 
 C                     13.97148  -2.95958  -0.57275 
 C                     14.54282  -2.86671   0.76908 
 C                     15.75708  -2.20465   1.01246 
 O                     16.20689  -2.09754   2.22857 
 C                     16.46521  -3.31493   2.8225 
 C                     16.42441  -1.60343  -0.06447 
 C                     16.00028  -1.84377  -1.38143 
 C                     14.73884  -2.48064  -1.65544 
 C                     17.57492  -0.70389   0.06099 
 C                     17.30078   0.46772   0.85816 
 C                     18.24674   1.45834   0.96524 
 C                     19.54572   1.41093   0.3176 
 C                     19.80449   0.19603  -0.42839 
 C                     18.83666  -0.76945  -0.49745 
 O                     19.01538  -1.93055  -1.21894 
 C                     20.35298  -2.36225  -1.39593 
 C                     20.45684   2.54324   0.28622 
 C                     20.78814   3.12006  -0.92345 
 C                     21.58799   4.34034  -0.98177 
 O                     21.99376   4.85525  -2.19751 
 C                     21.82958   4.14355  -3.41819 
 C                     21.9912   4.96884   0.16786 
 C                     21.60565   4.40714   1.43458 
 C                     20.81772   3.21465   1.50394 
 C                     22.60514   6.24204   0.18708 
 C                     21.92936   7.42603  -0.32069 
 C                     22.61339   8.66883  -0.32308 
 C                     23.8498   8.75891   0.07006 
 C                     24.61929   7.69941   0.53421 
 C                     24.02032   6.43269   0.61228 
 O                     24.59778   5.31864   1.14396 
 C                     25.82248   5.44027   1.80749 
 H                    -29.26939   3.83814  -1.15169 
 H                    -28.34424   1.68879  -1.82329 
 H                    -27.28869  -0.4316   -1.17419 
 H                    -26.02014  -1.07537  -2.19897 
 H                    -27.12929   0.02633  -2.91953 
 H                    -25.33102   5.05225   0.00212 
 H                    -27.67613   5.54078  -0.20836 
 H                    -23.69293   2.81989  -2.76008 
 H                    -21.20996   2.43277  -2.64069 
 H                    -21.51291   2.32472   1.60762 
 H                    -24.47599   2.17016   3.6564 
 H                    -23.36619   1.14292   2.81209 
 H                    -22.82536   2.80366   3.31834 
 H                    -19.96669   0.1854    0.6494 
 H                    -17.69712  -2.29363   1.78324 
 H                    -18.9537  -1.85053   0.64646 
 H                    -18.91497  -1.04511   2.20576 
 H                    -16.69852   3.3458   -1.29767 
 H                    -19.08382   3.83512  -1.42108 
 H                    -15.45031   0.14082  -1.99535 
 H                    -13.09654  -0.31282  -1.88656 
 H                    -12.80292   1.75987   1.8287 
 H                    -14.04724   2.59912   3.50727 
 H                    -14.86958   1.02045   3.36799 
 H                    -15.70527   2.47647   3.96654 
 H                    -11.50726  -0.80152   1.89593 
 H                    -9.31043  -3.08262   3.57059 
 H                    -10.47706  -1.72185   3.6397 
 H                    -10.46588  -2.96985   2.33365 
 H                    -8.39972   0.77799  -1.63384 
 H                    -10.73543   1.34896  -1.77706 
 H                    -6.50974   0.62867   1.6452 
 H                    -4.19632  -0.06447   1.66415 
 H                    -5.04863  -3.06497  -1.29308 
 H                    -6.86498  -4.21947  -2.19527 
 H                    -6.55255  -2.73322  -3.21545 
 H                    -8.10875  -3.47578  -3.22319 
 H                    -2.93906  -2.45489   2.22451 
 H                    -1.80523  -4.06992   3.4708 
 H                    -0.26857  -3.69422   4.301 
 H                    -1.4327   -2.39959   3.96025 
 H                    -0.41087  -2.42966  -2.07446 
 H                    -2.80336  -1.68713  -2.01574 
 H                     1.71212  -1.15351   0.67046 
 H                     4.15899  -1.53799   0.52603 
 H                     3.44503  -5.48434  -1.02837 
 H                     1.74724  -6.97537  -1.38679 
 H                     1.75841  -5.75723  -2.75989 
 H                     0.28161  -6.61972  -2.31216 
 H                     5.72334  -3.38084   1.73368 
 H                     7.31315  -4.41092   3.23173 
 H                     8.73404  -3.41897   3.79908 
 H                     7.35659  -2.5598    3.19413 
 H                     7.88243  -4.12501  -2.62951 
 H                     5.47659  -4.01924  -2.51282 
 H                     10.20166  -5.50922   0.40057 
 H                     12.54391  -5.13364   0.41437 
 H                     12.1305  -1.56615  -1.89485 
 H                     10.43144   0.10324  -1.82097 
 H                     9.10557   0.03218  -2.91696 
 H                     10.6447  -0.76209  -3.42144 
 H                     13.91814  -3.15141   1.66507 
 H                     17.08309  -3.08881   3.71587 
 H                     17.02757  -3.9815    2.17484 
 H                     15.53242  -3.82742   3.17996 
 H                     16.44712  -1.43795  -2.21353 
 H                     14.31542  -2.6008   -2.60738 
 H                     16.39094   0.55925   1.43566 
 H                     18.03666   2.41032   1.59032 
 H                     20.67608   0.19864  -0.96113 
 H                     20.36784  -3.44692  -1.69763 
 H                     20.9327  -2.37815  -0.40237 
 H                     20.96571  -1.76514  -2.12233 
 H                     20.53543   2.59064  -1.87096 
 H                     22.37331   3.26157  -3.33735 
 H                     22.23404   4.80134  -4.23031 
 H                     20.7992   4.05284  -3.59645 
 H                     21.84415   4.90527   2.3116 
 H                     20.48539   2.82273   2.44592 
 H                     20.96617   7.30291  -0.60726 
 H                     22.03814   9.46288  -0.7025 
 H                     24.36672   9.72612   0.06513 
 H                     25.63964   7.80353   0.84343 
 H                     26.63849   5.82853   1.04519 
 H                     26.11814   4.52334   2.18953 
 H                     25.77141   6.2058    2.62601 
 
 ITRead=  0  0  0  0  0  0  0  0  0  0  0  0  0  0  0  0  0  0  0  0
 ITRead=  0  0  0  0  0  0  0  0  0  0  0  0  0  0  0  0  0  0  0  0
 ITRead=  0  0  0  0  0  0  0  0  0  0  0  0  0  0  0  0  0  0  0  0
 ITRead=  0  0  0  0  0  0  0  0  0  0  0  0  0  0  0  0  0  0  0  0
 ITRead=  0  0  0  0  0  0  0  0  0  0  0  0  0  0  0  0  0  0  0  0
 ITRead=  0  0  0  0  0  0  0  0  0  0  0  0  0  0  0  0  0  0  0  0
 ITRead=  0  0  0  0  0  0  0  0  0  0  0  0  0  0  0  0  0  0  0  0
 ITRead=  0  0  0  0  0  0  0  0  0  0  0  0  0  0  0  0  0  0  0  0
 ITRead=  0  0  0  0  0  0  0  0  0  0  0  0  0  0  0  0  0  0  0  0
 ITRead=  0  0  0  0  0  0  0  0  0  0  0  0  0  0  0  0  0  0
 MicOpt= -1 -1 -1 -1 -1 -1 -1 -1 -1 -1 -1 -1 -1 -1 -1 -1 -1 -1 -1 -1
 MicOpt= -1 -1 -1 -1 -1 -1 -1 -1 -1 -1 -1 -1 -1 -1 -1 -1 -1 -1 -1 -1
 MicOpt= -1 -1 -1 -1 -1 -1 -1 -1 -1 -1 -1 -1 -1 -1 -1 -1 -1 -1 -1 -1
 MicOpt= -1 -1 -1 -1 -1 -1 -1 -1 -1 -1 -1 -1 -1 -1 -1 -1 -1 -1 -1 -1
 MicOpt= -1 -1 -1 -1 -1 -1 -1 -1 -1 -1 -1 -1 -1 -1 -1 -1 -1 -1 -1 -1
 MicOpt= -1 -1 -1 -1 -1 -1 -1 -1 -1 -1 -1 -1 -1 -1 -1 -1 -1 -1 -1 -1
 MicOpt= -1 -1 -1 -1 -1 -1 -1 -1 -1 -1 -1 -1 -1 -1 -1 -1 -1 -1 -1 -1
 MicOpt= -1 -1 -1 -1 -1 -1 -1 -1 -1 -1 -1 -1 -1 -1 -1 -1 -1 -1 -1 -1
 MicOpt= -1 -1 -1 -1 -1 -1 -1 -1 -1 -1 -1 -1 -1 -1 -1 -1 -1 -1 -1 -1
 MicOpt= -1 -1 -1 -1 -1 -1 -1 -1 -1 -1 -1 -1 -1 -1 -1 -1 -1 -1
 NAtoms=    198 NQM=      198 NQMF=       0 NMMI=      0 NMMIF=      0
                NMic=       0 NMicF=      0.
                    Isotopes and Nuclear Properties:
 (Nuclear quadrupole moments (NQMom) in fm**2, nuclear magnetic moments (NMagM)
  in nuclear magnetons)

  Atom         1           2           3           4           5           6           7           8           9          10
 IAtWgt=          12          12          12          16          12          12          12          12          12          12
 AtmWgt=  12.0000000  12.0000000  12.0000000  15.9949146  12.0000000  12.0000000  12.0000000  12.0000000  12.0000000  12.0000000
 NucSpn=           0           0           0           0           0           0           0           0           0           0
 AtZEff=  -0.0000000  -0.0000000  -0.0000000  -0.0000000  -0.0000000  -0.0000000  -0.0000000  -0.0000000  -0.0000000  -0.0000000
 NQMom=    0.0000000   0.0000000   0.0000000   0.0000000   0.0000000   0.0000000   0.0000000   0.0000000   0.0000000   0.0000000
 NMagM=    0.0000000   0.0000000   0.0000000   0.0000000   0.0000000   0.0000000   0.0000000   0.0000000   0.0000000   0.0000000
 AtZNuc=   6.0000000   6.0000000   6.0000000   8.0000000   6.0000000   6.0000000   6.0000000   6.0000000   6.0000000   6.0000000

  Atom        11          12          13          14          15          16          17          18          19          20
 IAtWgt=          12          12          12          12          16          12          12          12          12          16
 AtmWgt=  12.0000000  12.0000000  12.0000000  12.0000000  15.9949146  12.0000000  12.0000000  12.0000000  12.0000000  15.9949146
 NucSpn=           0           0           0           0           0           0           0           0           0           0
 AtZEff=  -0.0000000  -0.0000000  -0.0000000  -0.0000000  -0.0000000  -0.0000000  -0.0000000  -0.0000000  -0.0000000  -0.0000000
 NQMom=    0.0000000   0.0000000   0.0000000   0.0000000   0.0000000   0.0000000   0.0000000   0.0000000   0.0000000   0.0000000
 NMagM=    0.0000000   0.0000000   0.0000000   0.0000000   0.0000000   0.0000000   0.0000000   0.0000000   0.0000000   0.0000000
 AtZNuc=   6.0000000   6.0000000   6.0000000   6.0000000   8.0000000   6.0000000   6.0000000   6.0000000   6.0000000   8.0000000

  Atom        21          22          23          24          25          26          27          28          29          30
 IAtWgt=          12          12          12          12          12          12          12          12          12          12
 AtmWgt=  12.0000000  12.0000000  12.0000000  12.0000000  12.0000000  12.0000000  12.0000000  12.0000000  12.0000000  12.0000000
 NucSpn=           0           0           0           0           0           0           0           0           0           0
 AtZEff=  -0.0000000  -0.0000000  -0.0000000  -0.0000000  -0.0000000  -0.0000000  -0.0000000  -0.0000000  -0.0000000  -0.0000000
 NQMom=    0.0000000   0.0000000   0.0000000   0.0000000   0.0000000   0.0000000   0.0000000   0.0000000   0.0000000   0.0000000
 NMagM=    0.0000000   0.0000000   0.0000000   0.0000000   0.0000000   0.0000000   0.0000000   0.0000000   0.0000000   0.0000000
 AtZNuc=   6.0000000   6.0000000   6.0000000   6.0000000   6.0000000   6.0000000   6.0000000   6.0000000   6.0000000   6.0000000

  Atom        31          32          33          34          35          36          37          38          39          40
 IAtWgt=          16          12          12          12          12          16          12          12          12          12
 AtmWgt=  15.9949146  12.0000000  12.0000000  12.0000000  12.0000000  15.9949146  12.0000000  12.0000000  12.0000000  12.0000000
 NucSpn=           0           0           0           0           0           0           0           0           0           0
 AtZEff=  -0.0000000  -0.0000000  -0.0000000  -0.0000000  -0.0000000  -0.0000000  -0.0000000  -0.0000000  -0.0000000  -0.0000000
 NQMom=    0.0000000   0.0000000   0.0000000   0.0000000   0.0000000   0.0000000   0.0000000   0.0000000   0.0000000   0.0000000
 NMagM=    0.0000000   0.0000000   0.0000000   0.0000000   0.0000000   0.0000000   0.0000000   0.0000000   0.0000000   0.0000000
 AtZNuc=   8.0000000   6.0000000   6.0000000   6.0000000   6.0000000   8.0000000   6.0000000   6.0000000   6.0000000   6.0000000

  Atom        41          42          43          44          45          46          47          48          49          50
 IAtWgt=          12          12          12          12          12          12          16          12          12          12
 AtmWgt=  12.0000000  12.0000000  12.0000000  12.0000000  12.0000000  12.0000000  15.9949146  12.0000000  12.0000000  12.0000000
 NucSpn=           0           0           0           0           0           0           0           0           0           0
 AtZEff=  -0.0000000  -0.0000000  -0.0000000  -0.0000000  -0.0000000  -0.0000000  -0.0000000  -0.0000000  -0.0000000  -0.0000000
 NQMom=    0.0000000   0.0000000   0.0000000   0.0000000   0.0000000   0.0000000   0.0000000   0.0000000   0.0000000   0.0000000
 NMagM=    0.0000000   0.0000000   0.0000000   0.0000000   0.0000000   0.0000000   0.0000000   0.0000000   0.0000000   0.0000000
 AtZNuc=   6.0000000   6.0000000   6.0000000   6.0000000   6.0000000   6.0000000   8.0000000   6.0000000   6.0000000   6.0000000

  Atom        51          52          53          54          55          56          57          58          59          60
 IAtWgt=          12          16          12          12          12          12          12          12          12          12
 AtmWgt=  12.0000000  15.9949146  12.0000000  12.0000000  12.0000000  12.0000000  12.0000000  12.0000000  12.0000000  12.0000000
 NucSpn=           0           0           0           0           0           0           0           0           0           0
 AtZEff=  -0.0000000  -0.0000000  -0.0000000  -0.0000000  -0.0000000  -0.0000000  -0.0000000  -0.0000000  -0.0000000  -0.0000000
 NQMom=    0.0000000   0.0000000   0.0000000   0.0000000   0.0000000   0.0000000   0.0000000   0.0000000   0.0000000   0.0000000
 NMagM=    0.0000000   0.0000000   0.0000000   0.0000000   0.0000000   0.0000000   0.0000000   0.0000000   0.0000000   0.0000000
 AtZNuc=   6.0000000   8.0000000   6.0000000   6.0000000   6.0000000   6.0000000   6.0000000   6.0000000   6.0000000   6.0000000

  Atom        61          62          63          64          65          66          67          68          69          70
 IAtWgt=          12          12          16          12          12          12          12          16          12          12
 AtmWgt=  12.0000000  12.0000000  15.9949146  12.0000000  12.0000000  12.0000000  12.0000000  15.9949146  12.0000000  12.0000000
 NucSpn=           0           0           0           0           0           0           0           0           0           0
 AtZEff=  -0.0000000  -0.0000000  -0.0000000  -0.0000000  -0.0000000  -0.0000000  -0.0000000  -0.0000000  -0.0000000  -0.0000000
 NQMom=    0.0000000   0.0000000   0.0000000   0.0000000   0.0000000   0.0000000   0.0000000   0.0000000   0.0000000   0.0000000
 NMagM=    0.0000000   0.0000000   0.0000000   0.0000000   0.0000000   0.0000000   0.0000000   0.0000000   0.0000000   0.0000000
 AtZNuc=   6.0000000   6.0000000   8.0000000   6.0000000   6.0000000   6.0000000   6.0000000   8.0000000   6.0000000   6.0000000

  Atom        71          72          73          74          75          76          77          78          79          80
 IAtWgt=          12          12          12          12          12          12          12          12          16          12
 AtmWgt=  12.0000000  12.0000000  12.0000000  12.0000000  12.0000000  12.0000000  12.0000000  12.0000000  15.9949146  12.0000000
 NucSpn=           0           0           0           0           0           0           0           0           0           0
 AtZEff=  -0.0000000  -0.0000000  -0.0000000  -0.0000000  -0.0000000  -0.0000000  -0.0000000  -0.0000000  -0.0000000  -0.0000000
 NQMom=    0.0000000   0.0000000   0.0000000   0.0000000   0.0000000   0.0000000   0.0000000   0.0000000   0.0000000   0.0000000
 NMagM=    0.0000000   0.0000000   0.0000000   0.0000000   0.0000000   0.0000000   0.0000000   0.0000000   0.0000000   0.0000000
 AtZNuc=   6.0000000   6.0000000   6.0000000   6.0000000   6.0000000   6.0000000   6.0000000   6.0000000   8.0000000   6.0000000

  Atom        81          82          83          84          85          86          87          88          89          90
 IAtWgt=          12          12          12          16          12          12          12          12          12          12
 AtmWgt=  12.0000000  12.0000000  12.0000000  15.9949146  12.0000000  12.0000000  12.0000000  12.0000000  12.0000000  12.0000000
 NucSpn=           0           0           0           0           0           0           0           0           0           0
 AtZEff=  -0.0000000  -0.0000000  -0.0000000  -0.0000000  -0.0000000  -0.0000000  -0.0000000  -0.0000000  -0.0000000  -0.0000000
 NQMom=    0.0000000   0.0000000   0.0000000   0.0000000   0.0000000   0.0000000   0.0000000   0.0000000   0.0000000   0.0000000
 NMagM=    0.0000000   0.0000000   0.0000000   0.0000000   0.0000000   0.0000000   0.0000000   0.0000000   0.0000000   0.0000000
 AtZNuc=   6.0000000   6.0000000   6.0000000   8.0000000   6.0000000   6.0000000   6.0000000   6.0000000   6.0000000   6.0000000

  Atom        91          92          93          94          95          96          97          98          99         100
 IAtWgt=          12          12          12          12          16          12          12          12          12          16
 AtmWgt=  12.0000000  12.0000000  12.0000000  12.0000000  15.9949146  12.0000000  12.0000000  12.0000000  12.0000000  15.9949146
 NucSpn=           0           0           0           0           0           0           0           0           0           0
 AtZEff=  -0.0000000  -0.0000000  -0.0000000  -0.0000000  -0.0000000  -0.0000000  -0.0000000  -0.0000000  -0.0000000  -0.0000000
 NQMom=    0.0000000   0.0000000   0.0000000   0.0000000   0.0000000   0.0000000   0.0000000   0.0000000   0.0000000   0.0000000
 NMagM=    0.0000000   0.0000000   0.0000000   0.0000000   0.0000000   0.0000000   0.0000000   0.0000000   0.0000000   0.0000000
 AtZNuc=   6.0000000   6.0000000   6.0000000   6.0000000   8.0000000   6.0000000   6.0000000   6.0000000   6.0000000   8.0000000

  Atom       101         102         103         104         105         106         107         108         109         110
 IAtWgt=          12          12          12          12          12          12          12          12          12          12
 AtmWgt=  12.0000000  12.0000000  12.0000000  12.0000000  12.0000000  12.0000000  12.0000000  12.0000000  12.0000000  12.0000000
 NucSpn=           0           0           0           0           0           0           0           0           0           0
 AtZEff=  -0.0000000  -0.0000000  -0.0000000  -0.0000000  -0.0000000  -0.0000000  -0.0000000  -0.0000000  -0.0000000  -0.0000000
 NQMom=    0.0000000   0.0000000   0.0000000   0.0000000   0.0000000   0.0000000   0.0000000   0.0000000   0.0000000   0.0000000
 NMagM=    0.0000000   0.0000000   0.0000000   0.0000000   0.0000000   0.0000000   0.0000000   0.0000000   0.0000000   0.0000000
 AtZNuc=   6.0000000   6.0000000   6.0000000   6.0000000   6.0000000   6.0000000   6.0000000   6.0000000   6.0000000   6.0000000

  Atom       111         112         113         114         115         116         117         118         119         120
 IAtWgt=          16          12           1           1           1           1           1           1           1           1
 AtmWgt=  15.9949146  12.0000000   1.0078250   1.0078250   1.0078250   1.0078250   1.0078250   1.0078250   1.0078250   1.0078250
 NucSpn=           0           0           1           1           1           1           1           1           1           1
 AtZEff=  -0.0000000  -0.0000000  -0.0000000  -0.0000000  -0.0000000  -0.0000000  -0.0000000  -0.0000000  -0.0000000  -0.0000000
 NQMom=    0.0000000   0.0000000   0.0000000   0.0000000   0.0000000   0.0000000   0.0000000   0.0000000   0.0000000   0.0000000
 NMagM=    0.0000000   0.0000000   2.7928460   2.7928460   2.7928460   2.7928460   2.7928460   2.7928460   2.7928460   2.7928460
 AtZNuc=   8.0000000   6.0000000   1.0000000   1.0000000   1.0000000   1.0000000   1.0000000   1.0000000   1.0000000   1.0000000

  Atom       121         122         123         124         125         126         127         128         129         130
 IAtWgt=           1           1           1           1           1           1           1           1           1           1
 AtmWgt=   1.0078250   1.0078250   1.0078250   1.0078250   1.0078250   1.0078250   1.0078250   1.0078250   1.0078250   1.0078250
 NucSpn=           1           1           1           1           1           1           1           1           1           1
 AtZEff=  -0.0000000  -0.0000000  -0.0000000  -0.0000000  -0.0000000  -0.0000000  -0.0000000  -0.0000000  -0.0000000  -0.0000000
 NQMom=    0.0000000   0.0000000   0.0000000   0.0000000   0.0000000   0.0000000   0.0000000   0.0000000   0.0000000   0.0000000
 NMagM=    2.7928460   2.7928460   2.7928460   2.7928460   2.7928460   2.7928460   2.7928460   2.7928460   2.7928460   2.7928460
 AtZNuc=   1.0000000   1.0000000   1.0000000   1.0000000   1.0000000   1.0000000   1.0000000   1.0000000   1.0000000   1.0000000

  Atom       131         132         133         134         135         136         137         138         139         140
 IAtWgt=           1           1           1           1           1           1           1           1           1           1
 AtmWgt=   1.0078250   1.0078250   1.0078250   1.0078250   1.0078250   1.0078250   1.0078250   1.0078250   1.0078250   1.0078250
 NucSpn=           1           1           1           1           1           1           1           1           1           1
 AtZEff=  -0.0000000  -0.0000000  -0.0000000  -0.0000000  -0.0000000  -0.0000000  -0.0000000  -0.0000000  -0.0000000  -0.0000000
 NQMom=    0.0000000   0.0000000   0.0000000   0.0000000   0.0000000   0.0000000   0.0000000   0.0000000   0.0000000   0.0000000
 NMagM=    2.7928460   2.7928460   2.7928460   2.7928460   2.7928460   2.7928460   2.7928460   2.7928460   2.7928460   2.7928460
 AtZNuc=   1.0000000   1.0000000   1.0000000   1.0000000   1.0000000   1.0000000   1.0000000   1.0000000   1.0000000   1.0000000

  Atom       141         142         143         144         145         146         147         148         149         150
 IAtWgt=           1           1           1           1           1           1           1           1           1           1
 AtmWgt=   1.0078250   1.0078250   1.0078250   1.0078250   1.0078250   1.0078250   1.0078250   1.0078250   1.0078250   1.0078250
 NucSpn=           1           1           1           1           1           1           1           1           1           1
 AtZEff=  -0.0000000  -0.0000000  -0.0000000  -0.0000000  -0.0000000  -0.0000000  -0.0000000  -0.0000000  -0.0000000  -0.0000000
 NQMom=    0.0000000   0.0000000   0.0000000   0.0000000   0.0000000   0.0000000   0.0000000   0.0000000   0.0000000   0.0000000
 NMagM=    2.7928460   2.7928460   2.7928460   2.7928460   2.7928460   2.7928460   2.7928460   2.7928460   2.7928460   2.7928460
 AtZNuc=   1.0000000   1.0000000   1.0000000   1.0000000   1.0000000   1.0000000   1.0000000   1.0000000   1.0000000   1.0000000

  Atom       151         152         153         154         155         156         157         158         159         160
 IAtWgt=           1           1           1           1           1           1           1           1           1           1
 AtmWgt=   1.0078250   1.0078250   1.0078250   1.0078250   1.0078250   1.0078250   1.0078250   1.0078250   1.0078250   1.0078250
 NucSpn=           1           1           1           1           1           1           1           1           1           1
 AtZEff=  -0.0000000  -0.0000000  -0.0000000  -0.0000000  -0.0000000  -0.0000000  -0.0000000  -0.0000000  -0.0000000  -0.0000000
 NQMom=    0.0000000   0.0000000   0.0000000   0.0000000   0.0000000   0.0000000   0.0000000   0.0000000   0.0000000   0.0000000
 NMagM=    2.7928460   2.7928460   2.7928460   2.7928460   2.7928460   2.7928460   2.7928460   2.7928460   2.7928460   2.7928460
 AtZNuc=   1.0000000   1.0000000   1.0000000   1.0000000   1.0000000   1.0000000   1.0000000   1.0000000   1.0000000   1.0000000

  Atom       161         162         163         164         165         166         167         168         169         170
 IAtWgt=           1           1           1           1           1           1           1           1           1           1
 AtmWgt=   1.0078250   1.0078250   1.0078250   1.0078250   1.0078250   1.0078250   1.0078250   1.0078250   1.0078250   1.0078250
 NucSpn=           1           1           1           1           1           1           1           1           1           1
 AtZEff=  -0.0000000  -0.0000000  -0.0000000  -0.0000000  -0.0000000  -0.0000000  -0.0000000  -0.0000000  -0.0000000  -0.0000000
 NQMom=    0.0000000   0.0000000   0.0000000   0.0000000   0.0000000   0.0000000   0.0000000   0.0000000   0.0000000   0.0000000
 NMagM=    2.7928460   2.7928460   2.7928460   2.7928460   2.7928460   2.7928460   2.7928460   2.7928460   2.7928460   2.7928460
 AtZNuc=   1.0000000   1.0000000   1.0000000   1.0000000   1.0000000   1.0000000   1.0000000   1.0000000   1.0000000   1.0000000

  Atom       171         172         173         174         175         176         177         178         179         180
 IAtWgt=           1           1           1           1           1           1           1           1           1           1
 AtmWgt=   1.0078250   1.0078250   1.0078250   1.0078250   1.0078250   1.0078250   1.0078250   1.0078250   1.0078250   1.0078250
 NucSpn=           1           1           1           1           1           1           1           1           1           1
 AtZEff=  -0.0000000  -0.0000000  -0.0000000  -0.0000000  -0.0000000  -0.0000000  -0.0000000  -0.0000000  -0.0000000  -0.0000000
 NQMom=    0.0000000   0.0000000   0.0000000   0.0000000   0.0000000   0.0000000   0.0000000   0.0000000   0.0000000   0.0000000
 NMagM=    2.7928460   2.7928460   2.7928460   2.7928460   2.7928460   2.7928460   2.7928460   2.7928460   2.7928460   2.7928460
 AtZNuc=   1.0000000   1.0000000   1.0000000   1.0000000   1.0000000   1.0000000   1.0000000   1.0000000   1.0000000   1.0000000

  Atom       181         182         183         184         185         186         187         188         189         190
 IAtWgt=           1           1           1           1           1           1           1           1           1           1
 AtmWgt=   1.0078250   1.0078250   1.0078250   1.0078250   1.0078250   1.0078250   1.0078250   1.0078250   1.0078250   1.0078250
 NucSpn=           1           1           1           1           1           1           1           1           1           1
 AtZEff=  -0.0000000  -0.0000000  -0.0000000  -0.0000000  -0.0000000  -0.0000000  -0.0000000  -0.0000000  -0.0000000  -0.0000000
 NQMom=    0.0000000   0.0000000   0.0000000   0.0000000   0.0000000   0.0000000   0.0000000   0.0000000   0.0000000   0.0000000
 NMagM=    2.7928460   2.7928460   2.7928460   2.7928460   2.7928460   2.7928460   2.7928460   2.7928460   2.7928460   2.7928460
 AtZNuc=   1.0000000   1.0000000   1.0000000   1.0000000   1.0000000   1.0000000   1.0000000   1.0000000   1.0000000   1.0000000

  Atom       191         192         193         194         195         196         197         198
 IAtWgt=           1           1           1           1           1           1           1           1
 AtmWgt=   1.0078250   1.0078250   1.0078250   1.0078250   1.0078250   1.0078250   1.0078250   1.0078250
 NucSpn=           1           1           1           1           1           1           1           1
 AtZEff=  -0.0000000  -0.0000000  -0.0000000  -0.0000000  -0.0000000  -0.0000000  -0.0000000  -0.0000000
 NQMom=    0.0000000   0.0000000   0.0000000   0.0000000   0.0000000   0.0000000   0.0000000   0.0000000
 NMagM=    2.7928460   2.7928460   2.7928460   2.7928460   2.7928460   2.7928460   2.7928460   2.7928460
 AtZNuc=   1.0000000   1.0000000   1.0000000   1.0000000   1.0000000   1.0000000   1.0000000   1.0000000
 Leave Link  101 at Mon Jul 27 10:52:46 2020, MaxMem=  4026531840 cpu:               3.5 elap:               0.5
 (Enter /opt/ohpc/pub/libs/gaussian/g16-A.03/sandybridge/g16/l103.exe)

 GradGradGradGradGradGradGradGradGradGradGradGradGradGradGradGradGradGrad
 Berny optimization.
 Initialization pass.
                           ----------------------------
                           !    Initial Parameters    !
                           ! (Angstroms and Degrees)  !
 --------------------------                            --------------------------
 ! Name  Definition              Value          Derivative Info.                !
 --------------------------------------------------------------------------------
 ! R1    R(1,2)                  1.4201         estimate D2E/DX2                !
 ! R2    R(1,8)                  1.3969         estimate D2E/DX2                !
 ! R3    R(1,113)                1.0783         estimate D2E/DX2                !
 ! R4    R(2,3)                  1.4338         estimate D2E/DX2                !
 ! R5    R(2,114)                1.067          estimate D2E/DX2                !
 ! R6    R(3,4)                  1.3604         estimate D2E/DX2                !
 ! R7    R(3,6)                  1.3536         estimate D2E/DX2                !
 ! R8    R(4,5)                  1.4693         estimate D2E/DX2                !
 ! R9    R(5,115)                1.1146         estimate D2E/DX2                !
 ! R10   R(5,116)                1.061          estimate D2E/DX2                !
 ! R11   R(5,117)                1.0614         estimate D2E/DX2                !
 ! R12   R(6,7)                  1.3828         estimate D2E/DX2                !
 ! R13   R(6,9)                  1.5781         estimate D2E/DX2                !
 ! R14   R(7,8)                  1.4406         estimate D2E/DX2                !
 ! R15   R(7,118)                1.0178         estimate D2E/DX2                !
 ! R16   R(8,119)                1.0604         estimate D2E/DX2                !
 ! R17   R(9,10)                 1.4033         estimate D2E/DX2                !
 ! R18   R(9,14)                 1.3748         estimate D2E/DX2                !
 ! R19   R(10,11)                1.3677         estimate D2E/DX2                !
 ! R20   R(10,120)               1.0641         estimate D2E/DX2                !
 ! R21   R(11,12)                1.4487         estimate D2E/DX2                !
 ! R22   R(11,121)               1.0764         estimate D2E/DX2                !
 ! R23   R(12,13)                1.3781         estimate D2E/DX2                !
 ! R24   R(12,17)                1.46           estimate D2E/DX2                !
 ! R25   R(13,14)                1.386          estimate D2E/DX2                !
 ! R26   R(13,122)               1.0391         estimate D2E/DX2                !
 ! R27   R(14,15)                1.3732         estimate D2E/DX2                !
 ! R28   R(15,16)                1.4041         estimate D2E/DX2                !
 ! R29   R(16,123)               1.1201         estimate D2E/DX2                !
 ! R30   R(16,124)               1.1168         estimate D2E/DX2                !
 ! R31   R(16,125)               1.1354         estimate D2E/DX2                !
 ! R32   R(17,18)                1.3957         estimate D2E/DX2                !
 ! R33   R(17,24)                1.421          estimate D2E/DX2                !
 ! R34   R(18,19)                1.4177         estimate D2E/DX2                !
 ! R35   R(18,126)               1.0534         estimate D2E/DX2                !
 ! R36   R(19,20)                1.4185         estimate D2E/DX2                !
 ! R37   R(19,22)                1.3663         estimate D2E/DX2                !
 ! R38   R(20,21)                1.5061         estimate D2E/DX2                !
 ! R39   R(21,127)               1.0458         estimate D2E/DX2                !
 ! R40   R(21,128)               1.0567         estimate D2E/DX2                !
 ! R41   R(21,129)               1.0938         estimate D2E/DX2                !
 ! R42   R(22,23)                1.3771         estimate D2E/DX2                !
 ! R43   R(22,25)                1.4658         estimate D2E/DX2                !
 ! R44   R(23,24)                1.3875         estimate D2E/DX2                !
 ! R45   R(23,130)               1.0902         estimate D2E/DX2                !
 ! R46   R(24,131)               1.1006         estimate D2E/DX2                !
 ! R47   R(25,26)                1.4317         estimate D2E/DX2                !
 ! R48   R(25,30)                1.3948         estimate D2E/DX2                !
 ! R49   R(26,27)                1.3935         estimate D2E/DX2                !
 ! R50   R(26,132)               1.1053         estimate D2E/DX2                !
 ! R51   R(27,28)                1.3992         estimate D2E/DX2                !
 ! R52   R(27,133)               1.0609         estimate D2E/DX2                !
 ! R53   R(28,29)                1.4224         estimate D2E/DX2                !
 ! R54   R(28,33)                1.4221         estimate D2E/DX2                !
 ! R55   R(29,30)                1.3696         estimate D2E/DX2                !
 ! R56   R(29,134)               1.0923         estimate D2E/DX2                !
 ! R57   R(30,31)                1.3714         estimate D2E/DX2                !
 ! R58   R(31,32)                1.4433         estimate D2E/DX2                !
 ! R59   R(32,135)               1.0205         estimate D2E/DX2                !
 ! R60   R(32,136)               1.1452         estimate D2E/DX2                !
 ! R61   R(32,137)               1.0941         estimate D2E/DX2                !
 ! R62   R(33,34)                1.395          estimate D2E/DX2                !
 ! R63   R(33,40)                1.4458         estimate D2E/DX2                !
 ! R64   R(34,35)                1.3469         estimate D2E/DX2                !
 ! R65   R(34,138)               1.1085         estimate D2E/DX2                !
 ! R66   R(35,36)                1.3606         estimate D2E/DX2                !
 ! R67   R(35,38)                1.4803         estimate D2E/DX2                !
 ! R68   R(36,37)                1.3795         estimate D2E/DX2                !
 ! R69   R(37,139)               1.1087         estimate D2E/DX2                !
 ! R70   R(37,140)               1.175          estimate D2E/DX2                !
 ! R71   R(37,141)               1.0526         estimate D2E/DX2                !
 ! R72   R(38,39)                1.4264         estimate D2E/DX2                !
 ! R73   R(38,41)                1.4723         estimate D2E/DX2                !
 ! R74   R(39,40)                1.3618         estimate D2E/DX2                !
 ! R75   R(39,142)               1.0547         estimate D2E/DX2                !
 ! R76   R(40,143)               1.1144         estimate D2E/DX2                !
 ! R77   R(41,42)                1.3389         estimate D2E/DX2                !
 ! R78   R(41,46)                1.3501         estimate D2E/DX2                !
 ! R79   R(42,43)                1.4662         estimate D2E/DX2                !
 ! R80   R(42,144)               1.1236         estimate D2E/DX2                !
 ! R81   R(43,44)                1.3987         estimate D2E/DX2                !
 ! R82   R(43,145)               1.1119         estimate D2E/DX2                !
 ! R83   R(44,45)                1.3813         estimate D2E/DX2                !
 ! R84   R(44,49)                1.4004         estimate D2E/DX2                !
 ! R85   R(45,46)                1.4274         estimate D2E/DX2                !
 ! R86   R(45,146)               1.0816         estimate D2E/DX2                !
 ! R87   R(46,47)                1.3735         estimate D2E/DX2                !
 ! R88   R(47,48)                1.3988         estimate D2E/DX2                !
 ! R89   R(48,147)               1.0925         estimate D2E/DX2                !
 ! R90   R(48,148)               1.1115         estimate D2E/DX2                !
 ! R91   R(48,149)               1.0692         estimate D2E/DX2                !
 ! R92   R(49,50)                1.4272         estimate D2E/DX2                !
 ! R93   R(49,56)                1.4188         estimate D2E/DX2                !
 ! R94   R(50,51)                1.3706         estimate D2E/DX2                !
 ! R95   R(50,150)               1.0996         estimate D2E/DX2                !
 ! R96   R(51,52)                1.3953         estimate D2E/DX2                !
 ! R97   R(51,54)                1.4764         estimate D2E/DX2                !
 ! R98   R(52,53)                1.4539         estimate D2E/DX2                !
 ! R99   R(53,151)               1.0922         estimate D2E/DX2                !
 ! R100  R(53,152)               1.036          estimate D2E/DX2                !
 ! R101  R(53,153)               1.1379         estimate D2E/DX2                !
 ! R102  R(54,55)                1.3802         estimate D2E/DX2                !
 ! R103  R(54,57)                1.4684         estimate D2E/DX2                !
 ! R104  R(55,56)                1.4225         estimate D2E/DX2                !
 ! R105  R(55,154)               1.1185         estimate D2E/DX2                !
 ! R106  R(56,155)               1.0754         estimate D2E/DX2                !
 ! R107  R(57,58)                1.4649         estimate D2E/DX2                !
 ! R108  R(57,62)                1.3667         estimate D2E/DX2                !
 ! R109  R(58,59)                1.3178         estimate D2E/DX2                !
 ! R110  R(58,156)               1.059          estimate D2E/DX2                !
 ! R111  R(59,60)                1.4331         estimate D2E/DX2                !
 ! R112  R(59,157)               1.0805         estimate D2E/DX2                !
 ! R113  R(60,61)                1.3471         estimate D2E/DX2                !
 ! R114  R(60,65)                1.5153         estimate D2E/DX2                !
 ! R115  R(61,62)                1.4707         estimate D2E/DX2                !
 ! R116  R(61,158)               1.0981         estimate D2E/DX2                !
 ! R117  R(62,63)                1.3303         estimate D2E/DX2                !
 ! R118  R(63,64)                1.4493         estimate D2E/DX2                !
 ! R119  R(64,159)               1.1275         estimate D2E/DX2                !
 ! R120  R(64,160)               1.0824         estimate D2E/DX2                !
 ! R121  R(64,161)               1.0525         estimate D2E/DX2                !
 ! R122  R(65,66)                1.4423         estimate D2E/DX2                !
 ! R123  R(65,72)                1.3408         estimate D2E/DX2                !
 ! R124  R(66,67)                1.4227         estimate D2E/DX2                !
 ! R125  R(66,162)               1.1192         estimate D2E/DX2                !
 ! R126  R(67,68)                1.3903         estimate D2E/DX2                !
 ! R127  R(67,70)                1.4101         estimate D2E/DX2                !
 ! R128  R(68,69)                1.3891         estimate D2E/DX2                !
 ! R129  R(69,163)               1.1469         estimate D2E/DX2                !
 ! R130  R(69,164)               1.145          estimate D2E/DX2                !
 ! R131  R(69,165)               1.0526         estimate D2E/DX2                !
 ! R132  R(70,71)                1.3325         estimate D2E/DX2                !
 ! R133  R(70,73)                1.5374         estimate D2E/DX2                !
 ! R134  R(71,72)                1.4725         estimate D2E/DX2                !
 ! R135  R(71,166)               1.0361         estimate D2E/DX2                !
 ! R136  R(72,167)               1.0626         estimate D2E/DX2                !
 ! R137  R(73,74)                1.3842         estimate D2E/DX2                !
 ! R138  R(73,78)                1.4003         estimate D2E/DX2                !
 ! R139  R(74,75)                1.3619         estimate D2E/DX2                !
 ! R140  R(74,168)               1.1205         estimate D2E/DX2                !
 ! R141  R(75,76)                1.3975         estimate D2E/DX2                !
 ! R142  R(75,169)               1.0455         estimate D2E/DX2                !
 ! R143  R(76,77)                1.3537         estimate D2E/DX2                !
 ! R144  R(76,81)                1.5051         estimate D2E/DX2                !
 ! R145  R(77,78)                1.4809         estimate D2E/DX2                !
 ! R146  R(77,170)               1.0801         estimate D2E/DX2                !
 ! R147  R(78,79)                1.3543         estimate D2E/DX2                !
 ! R148  R(79,80)                1.5026         estimate D2E/DX2                !
 ! R149  R(80,171)               1.058          estimate D2E/DX2                !
 ! R150  R(80,172)               1.0878         estimate D2E/DX2                !
 ! R151  R(80,173)               1.1073         estimate D2E/DX2                !
 ! R152  R(81,82)                1.4614         estimate D2E/DX2                !
 ! R153  R(81,88)                1.4108         estimate D2E/DX2                !
 ! R154  R(82,83)                1.4043         estimate D2E/DX2                !
 ! R155  R(82,174)               1.1288         estimate D2E/DX2                !
 ! R156  R(83,84)                1.301          estimate D2E/DX2                !
 ! R157  R(83,86)                1.4023         estimate D2E/DX2                !
 ! R158  R(84,85)                1.379          estimate D2E/DX2                !
 ! R159  R(85,175)               1.1095         estimate D2E/DX2                !
 ! R160  R(85,176)               1.0863         estimate D2E/DX2                !
 ! R161  R(85,177)               1.1227         estimate D2E/DX2                !
 ! R162  R(86,87)                1.4043         estimate D2E/DX2                !
 ! R163  R(86,89)                1.4658         estimate D2E/DX2                !
 ! R164  R(87,88)                1.4394         estimate D2E/DX2                !
 ! R165  R(87,178)               1.028          estimate D2E/DX2                !
 ! R166  R(88,179)               1.0488         estimate D2E/DX2                !
 ! R167  R(89,90)                1.4434         estimate D2E/DX2                !
 ! R168  R(89,94)                1.3814         estimate D2E/DX2                !
 ! R169  R(90,91)                1.3739         estimate D2E/DX2                !
 ! R170  R(90,180)               1.0815         estimate D2E/DX2                !
 ! R171  R(91,92)                1.4522         estimate D2E/DX2                !
 ! R172  R(91,181)               1.1581         estimate D2E/DX2                !
 ! R173  R(92,93)                1.4489         estimate D2E/DX2                !
 ! R174  R(92,97)                1.4537         estimate D2E/DX2                !
 ! R175  R(93,94)                1.3688         estimate D2E/DX2                !
 ! R176  R(93,182)               1.0215         estimate D2E/DX2                !
 ! R177  R(94,95)                1.3786         estimate D2E/DX2                !
 ! R178  R(95,96)                1.4166         estimate D2E/DX2                !
 ! R179  R(96,183)               1.1259         estimate D2E/DX2                !
 ! R180  R(96,184)               1.1504         estimate D2E/DX2                !
 ! R181  R(96,185)               1.1223         estimate D2E/DX2                !
 ! R182  R(97,98)                1.3805         estimate D2E/DX2                !
 ! R183  R(97,104)               1.4366         estimate D2E/DX2                !
 ! R184  R(98,99)                1.4602         estimate D2E/DX2                !
 ! R185  R(98,186)               1.1144         estimate D2E/DX2                !
 ! R186  R(99,100)               1.3812         estimate D2E/DX2                !
 ! R187  R(99,102)               1.3708         estimate D2E/DX2                !
 ! R188  R(100,101)              1.4225         estimate D2E/DX2                !
 ! R189  R(101,187)              1.0393         estimate D2E/DX2                !
 ! R190  R(101,188)              1.1206         estimate D2E/DX2                !
 ! R191  R(101,189)              1.0496         estimate D2E/DX2                !
 ! R192  R(102,103)              1.4383         estimate D2E/DX2                !
 ! R193  R(102,105)              1.4136         estimate D2E/DX2                !
 ! R194  R(103,104)              1.431          estimate D2E/DX2                !
 ! R195  R(103,190)              1.0364         estimate D2E/DX2                !
 ! R196  R(104,191)              1.073          estimate D2E/DX2                !
 ! R197  R(105,106)              1.4548         estimate D2E/DX2                !
 ! R198  R(105,110)              1.4899         estimate D2E/DX2                !
 ! R199  R(106,107)              1.4186         estimate D2E/DX2                !
 ! R200  R(106,192)              1.0124         estimate D2E/DX2                !
 ! R201  R(107,108)              1.3005         estimate D2E/DX2                !
 ! R202  R(107,193)              1.0514         estimate D2E/DX2                !
 ! R203  R(108,109)              1.3893         estimate D2E/DX2                !
 ! R204  R(108,194)              1.0967         estimate D2E/DX2                !
 ! R205  R(109,110)              1.4034         estimate D2E/DX2                !
 ! R206  R(109,195)              1.0712         estimate D2E/DX2                !
 ! R207  R(110,111)              1.3628         estimate D2E/DX2                !
 ! R208  R(111,112)              1.3982         estimate D2E/DX2                !
 ! R209  R(112,196)              1.1823         estimate D2E/DX2                !
 ! R210  R(112,197)              1.0364         estimate D2E/DX2                !
 ! R211  R(112,198)              1.1219         estimate D2E/DX2                !
 ! A1    A(2,1,8)              116.4903         estimate D2E/DX2                !
 ! A2    A(2,1,113)            120.3318         estimate D2E/DX2                !
 ! A3    A(8,1,113)            123.0647         estimate D2E/DX2                !
 ! A4    A(1,2,3)              122.9877         estimate D2E/DX2                !
 ! A5    A(1,2,114)            115.9497         estimate D2E/DX2                !
 ! A6    A(3,2,114)            120.7672         estimate D2E/DX2                !
 ! A7    A(2,3,4)              123.3937         estimate D2E/DX2                !
 ! A8    A(2,3,6)              116.2126         estimate D2E/DX2                !
 ! A9    A(4,3,6)              120.2563         estimate D2E/DX2                !
 ! A10   A(3,4,5)              118.8848         estimate D2E/DX2                !
 ! A11   A(4,5,115)            111.2389         estimate D2E/DX2                !
 ! A12   A(4,5,116)            109.1672         estimate D2E/DX2                !
 ! A13   A(4,5,117)            107.9167         estimate D2E/DX2                !
 ! A14   A(115,5,116)          107.3612         estimate D2E/DX2                !
 ! A15   A(115,5,117)          112.6818         estimate D2E/DX2                !
 ! A16   A(116,5,117)          108.3983         estimate D2E/DX2                !
 ! A17   A(3,6,7)              125.191          estimate D2E/DX2                !
 ! A18   A(3,6,9)              119.2081         estimate D2E/DX2                !
 ! A19   A(7,6,9)              115.58           estimate D2E/DX2                !
 ! A20   A(6,7,8)              117.038          estimate D2E/DX2                !
 ! A21   A(6,7,118)            125.2976         estimate D2E/DX2                !
 ! A22   A(8,7,118)            117.4809         estimate D2E/DX2                !
 ! A23   A(1,8,7)              121.6941         estimate D2E/DX2                !
 ! A24   A(1,8,119)            119.9482         estimate D2E/DX2                !
 ! A25   A(7,8,119)            117.5325         estimate D2E/DX2                !
 ! A26   A(6,9,10)             116.8569         estimate D2E/DX2                !
 ! A27   A(6,9,14)             122.887          estimate D2E/DX2                !
 ! A28   A(10,9,14)            120.1347         estimate D2E/DX2                !
 ! A29   A(9,10,11)            119.6264         estimate D2E/DX2                !
 ! A30   A(9,10,120)           118.9937         estimate D2E/DX2                !
 ! A31   A(11,10,120)          121.0077         estimate D2E/DX2                !
 ! A32   A(10,11,12)           119.544          estimate D2E/DX2                !
 ! A33   A(10,11,121)          123.832          estimate D2E/DX2                !
 ! A34   A(12,11,121)          116.6237         estimate D2E/DX2                !
 ! A35   A(11,12,13)           119.7521         estimate D2E/DX2                !
 ! A36   A(11,12,17)           121.5431         estimate D2E/DX2                !
 ! A37   A(13,12,17)           118.4617         estimate D2E/DX2                !
 ! A38   A(12,13,14)           119.1387         estimate D2E/DX2                !
 ! A39   A(12,13,122)          121.616          estimate D2E/DX2                !
 ! A40   A(14,13,122)          119.0306         estimate D2E/DX2                !
 ! A41   A(9,14,13)            121.5173         estimate D2E/DX2                !
 ! A42   A(9,14,15)            114.9352         estimate D2E/DX2                !
 ! A43   A(13,14,15)           123.3199         estimate D2E/DX2                !
 ! A44   A(14,15,16)           116.5204         estimate D2E/DX2                !
 ! A45   A(15,16,123)          113.1178         estimate D2E/DX2                !
 ! A46   A(15,16,124)          116.3242         estimate D2E/DX2                !
 ! A47   A(15,16,125)          111.425          estimate D2E/DX2                !
 ! A48   A(123,16,124)         101.4727         estimate D2E/DX2                !
 ! A49   A(123,16,125)         105.889          estimate D2E/DX2                !
 ! A50   A(124,16,125)         107.6844         estimate D2E/DX2                !
 ! A51   A(12,17,18)           124.2898         estimate D2E/DX2                !
 ! A52   A(12,17,24)           120.1189         estimate D2E/DX2                !
 ! A53   A(18,17,24)           115.5254         estimate D2E/DX2                !
 ! A54   A(17,18,19)           119.8905         estimate D2E/DX2                !
 ! A55   A(17,18,126)          119.4335         estimate D2E/DX2                !
 ! A56   A(19,18,126)          120.0221         estimate D2E/DX2                !
 ! A57   A(18,19,20)           122.8049         estimate D2E/DX2                !
 ! A58   A(18,19,22)           121.3763         estimate D2E/DX2                !
 ! A59   A(20,19,22)           115.4707         estimate D2E/DX2                !
 ! A60   A(19,20,21)           116.2815         estimate D2E/DX2                !
 ! A61   A(20,21,127)          102.9374         estimate D2E/DX2                !
 ! A62   A(20,21,128)          109.9838         estimate D2E/DX2                !
 ! A63   A(20,21,129)          107.3222         estimate D2E/DX2                !
 ! A64   A(127,21,128)         112.825          estimate D2E/DX2                !
 ! A65   A(127,21,129)         114.0006         estimate D2E/DX2                !
 ! A66   A(128,21,129)         109.4188         estimate D2E/DX2                !
 ! A67   A(19,22,23)           120.3655         estimate D2E/DX2                !
 ! A68   A(19,22,25)           119.9662         estimate D2E/DX2                !
 ! A69   A(23,22,25)           119.2223         estimate D2E/DX2                !
 ! A70   A(22,23,24)           117.7132         estimate D2E/DX2                !
 ! A71   A(22,23,130)          119.4306         estimate D2E/DX2                !
 ! A72   A(24,23,130)          122.0523         estimate D2E/DX2                !
 ! A73   A(17,24,23)           124.2589         estimate D2E/DX2                !
 ! A74   A(17,24,131)          120.5054         estimate D2E/DX2                !
 ! A75   A(23,24,131)          115.2096         estimate D2E/DX2                !
 ! A76   A(22,25,26)           121.6635         estimate D2E/DX2                !
 ! A77   A(22,25,30)           124.5783         estimate D2E/DX2                !
 ! A78   A(26,25,30)           113.5989         estimate D2E/DX2                !
 ! A79   A(25,26,27)           122.9119         estimate D2E/DX2                !
 ! A80   A(25,26,132)          115.5967         estimate D2E/DX2                !
 ! A81   A(27,26,132)          120.5674         estimate D2E/DX2                !
 ! A82   A(26,27,28)           121.9216         estimate D2E/DX2                !
 ! A83   A(26,27,133)          114.5693         estimate D2E/DX2                !
 ! A84   A(28,27,133)          123.427          estimate D2E/DX2                !
 ! A85   A(27,28,29)           114.5782         estimate D2E/DX2                !
 ! A86   A(27,28,33)           121.2484         estimate D2E/DX2                !
 ! A87   A(29,28,33)           123.8668         estimate D2E/DX2                !
 ! A88   A(28,29,30)           123.0214         estimate D2E/DX2                !
 ! A89   A(28,29,134)          114.4555         estimate D2E/DX2                !
 ! A90   A(30,29,134)          122.5169         estimate D2E/DX2                !
 ! A91   A(25,30,29)           123.538          estimate D2E/DX2                !
 ! A92   A(25,30,31)           116.3447         estimate D2E/DX2                !
 ! A93   A(29,30,31)           120.0615         estimate D2E/DX2                !
 ! A94   A(30,31,32)           118.0093         estimate D2E/DX2                !
 ! A95   A(31,32,135)          115.92           estimate D2E/DX2                !
 ! A96   A(31,32,136)          104.7207         estimate D2E/DX2                !
 ! A97   A(31,32,137)          109.9786         estimate D2E/DX2                !
 ! A98   A(135,32,136)         110.9318         estimate D2E/DX2                !
 ! A99   A(135,32,137)         109.2625         estimate D2E/DX2                !
 ! A100  A(136,32,137)         105.4679         estimate D2E/DX2                !
 ! A101  A(28,33,34)           124.3061         estimate D2E/DX2                !
 ! A102  A(28,33,40)           120.7456         estimate D2E/DX2                !
 ! A103  A(34,33,40)           114.9353         estimate D2E/DX2                !
 ! A104  A(33,34,35)           123.0238         estimate D2E/DX2                !
 ! A105  A(33,34,138)          117.2849         estimate D2E/DX2                !
 ! A106  A(35,34,138)          119.2269         estimate D2E/DX2                !
 ! A107  A(34,35,36)           125.509          estimate D2E/DX2                !
 ! A108  A(34,35,38)           122.3662         estimate D2E/DX2                !
 ! A109  A(36,35,38)           112.1105         estimate D2E/DX2                !
 ! A110  A(35,36,37)           117.3923         estimate D2E/DX2                !
 ! A111  A(36,37,139)          113.7347         estimate D2E/DX2                !
 ! A112  A(36,37,140)          113.8296         estimate D2E/DX2                !
 ! A113  A(36,37,141)          113.1888         estimate D2E/DX2                !
 ! A114  A(139,37,140)         103.4861         estimate D2E/DX2                !
 ! A115  A(139,37,141)         103.3926         estimate D2E/DX2                !
 ! A116  A(140,37,141)         108.2509         estimate D2E/DX2                !
 ! A117  A(35,38,39)           114.581          estimate D2E/DX2                !
 ! A118  A(35,38,41)           124.6935         estimate D2E/DX2                !
 ! A119  A(39,38,41)           120.6885         estimate D2E/DX2                !
 ! A120  A(38,39,40)           120.5805         estimate D2E/DX2                !
 ! A121  A(38,39,142)          118.9296         estimate D2E/DX2                !
 ! A122  A(40,39,142)          120.0985         estimate D2E/DX2                !
 ! A123  A(33,40,39)           124.024          estimate D2E/DX2                !
 ! A124  A(33,40,143)          118.3301         estimate D2E/DX2                !
 ! A125  A(39,40,143)          117.6209         estimate D2E/DX2                !
 ! A126  A(38,41,42)           119.4004         estimate D2E/DX2                !
 ! A127  A(38,41,46)           118.9647         estimate D2E/DX2                !
 ! A128  A(42,41,46)           121.6294         estimate D2E/DX2                !
 ! A129  A(41,42,43)           119.5981         estimate D2E/DX2                !
 ! A130  A(41,42,144)          124.6128         estimate D2E/DX2                !
 ! A131  A(43,42,144)          115.7434         estimate D2E/DX2                !
 ! A132  A(42,43,44)           120.7829         estimate D2E/DX2                !
 ! A133  A(42,43,145)          114.477          estimate D2E/DX2                !
 ! A134  A(44,43,145)          124.7245         estimate D2E/DX2                !
 ! A135  A(43,44,45)           115.4336         estimate D2E/DX2                !
 ! A136  A(43,44,49)           120.6851         estimate D2E/DX2                !
 ! A137  A(45,44,49)           123.8785         estimate D2E/DX2                !
 ! A138  A(44,45,46)           123.6103         estimate D2E/DX2                !
 ! A139  A(44,45,146)          116.3333         estimate D2E/DX2                !
 ! A140  A(46,45,146)          119.4379         estimate D2E/DX2                !
 ! A141  A(41,46,45)           118.7918         estimate D2E/DX2                !
 ! A142  A(41,46,47)           120.7398         estimate D2E/DX2                !
 ! A143  A(45,46,47)           120.311          estimate D2E/DX2                !
 ! A144  A(46,47,48)           124.3376         estimate D2E/DX2                !
 ! A145  A(47,48,147)          110.5581         estimate D2E/DX2                !
 ! A146  A(47,48,148)          107.2918         estimate D2E/DX2                !
 ! A147  A(47,48,149)          111.5767         estimate D2E/DX2                !
 ! A148  A(147,48,148)         112.2119         estimate D2E/DX2                !
 ! A149  A(147,48,149)         110.5453         estimate D2E/DX2                !
 ! A150  A(148,48,149)         104.4866         estimate D2E/DX2                !
 ! A151  A(44,49,50)           123.9547         estimate D2E/DX2                !
 ! A152  A(44,49,56)           117.9115         estimate D2E/DX2                !
 ! A153  A(50,49,56)           118.1073         estimate D2E/DX2                !
 ! A154  A(49,50,51)           121.9893         estimate D2E/DX2                !
 ! A155  A(49,50,150)          115.3453         estimate D2E/DX2                !
 ! A156  A(51,50,150)          122.5631         estimate D2E/DX2                !
 ! A157  A(50,51,52)           126.2021         estimate D2E/DX2                !
 ! A158  A(50,51,54)           121.3193         estimate D2E/DX2                !
 ! A159  A(52,51,54)           112.3231         estimate D2E/DX2                !
 ! A160  A(51,52,53)           115.7095         estimate D2E/DX2                !
 ! A161  A(52,53,151)          109.4643         estimate D2E/DX2                !
 ! A162  A(52,53,152)          105.991          estimate D2E/DX2                !
 ! A163  A(52,53,153)          112.1891         estimate D2E/DX2                !
 ! A164  A(151,53,152)         114.1403         estimate D2E/DX2                !
 ! A165  A(151,53,153)         105.888          estimate D2E/DX2                !
 ! A166  A(152,53,153)         109.2987         estimate D2E/DX2                !
 ! A167  A(51,54,55)           114.9421         estimate D2E/DX2                !
 ! A168  A(51,54,57)           124.5636         estimate D2E/DX2                !
 ! A169  A(55,54,57)           120.4789         estimate D2E/DX2                !
 ! A170  A(54,55,56)           124.9498         estimate D2E/DX2                !
 ! A171  A(54,55,154)          115.7072         estimate D2E/DX2                !
 ! A172  A(56,55,154)          119.3241         estimate D2E/DX2                !
 ! A173  A(49,56,55)           118.5937         estimate D2E/DX2                !
 ! A174  A(49,56,155)          121.6344         estimate D2E/DX2                !
 ! A175  A(55,56,155)          119.7713         estimate D2E/DX2                !
 ! A176  A(54,57,58)           115.3148         estimate D2E/DX2                !
 ! A177  A(54,57,62)           124.7973         estimate D2E/DX2                !
 ! A178  A(58,57,62)           119.8613         estimate D2E/DX2                !
 ! A179  A(57,58,59)           120.409          estimate D2E/DX2                !
 ! A180  A(57,58,156)          117.267          estimate D2E/DX2                !
 ! A181  A(59,58,156)          122.2832         estimate D2E/DX2                !
 ! A182  A(58,59,60)           119.9588         estimate D2E/DX2                !
 ! A183  A(58,59,157)          123.5685         estimate D2E/DX2                !
 ! A184  A(60,59,157)          116.4587         estimate D2E/DX2                !
 ! A185  A(59,60,61)           122.2244         estimate D2E/DX2                !
 ! A186  A(59,60,65)           119.2388         estimate D2E/DX2                !
 ! A187  A(61,60,65)           118.4896         estimate D2E/DX2                !
 ! A188  A(60,61,62)           118.481          estimate D2E/DX2                !
 ! A189  A(60,61,158)          124.0192         estimate D2E/DX2                !
 ! A190  A(62,61,158)          117.426          estimate D2E/DX2                !
 ! A191  A(57,62,61)           118.9783         estimate D2E/DX2                !
 ! A192  A(57,62,63)           118.2701         estimate D2E/DX2                !
 ! A193  A(61,62,63)           122.4113         estimate D2E/DX2                !
 ! A194  A(62,63,64)           119.6659         estimate D2E/DX2                !
 ! A195  A(63,64,159)          105.6147         estimate D2E/DX2                !
 ! A196  A(63,64,160)          112.7784         estimate D2E/DX2                !
 ! A197  A(63,64,161)          105.4332         estimate D2E/DX2                !
 ! A198  A(159,64,160)         112.3074         estimate D2E/DX2                !
 ! A199  A(159,64,161)         108.4661         estimate D2E/DX2                !
 ! A200  A(160,64,161)         111.7977         estimate D2E/DX2                !
 ! A201  A(60,65,66)           118.3758         estimate D2E/DX2                !
 ! A202  A(60,65,72)           122.8225         estimate D2E/DX2                !
 ! A203  A(66,65,72)           118.7921         estimate D2E/DX2                !
 ! A204  A(65,66,67)           120.9132         estimate D2E/DX2                !
 ! A205  A(65,66,162)          116.5667         estimate D2E/DX2                !
 ! A206  A(67,66,162)          121.0958         estimate D2E/DX2                !
 ! A207  A(66,67,68)           123.3609         estimate D2E/DX2                !
 ! A208  A(66,67,70)           117.0718         estimate D2E/DX2                !
 ! A209  A(68,67,70)           119.1424         estimate D2E/DX2                !
 ! A210  A(67,68,69)           116.6105         estimate D2E/DX2                !
 ! A211  A(68,69,163)          109.3197         estimate D2E/DX2                !
 ! A212  A(68,69,164)          107.0132         estimate D2E/DX2                !
 ! A213  A(68,69,165)          115.5204         estimate D2E/DX2                !
 ! A214  A(163,69,164)         105.4224         estimate D2E/DX2                !
 ! A215  A(163,69,165)         114.6456         estimate D2E/DX2                !
 ! A216  A(164,69,165)         103.9867         estimate D2E/DX2                !
 ! A217  A(67,70,71)           122.4144         estimate D2E/DX2                !
 ! A218  A(67,70,73)           117.547          estimate D2E/DX2                !
 ! A219  A(71,70,73)           119.8246         estimate D2E/DX2                !
 ! A220  A(70,71,72)           120.0834         estimate D2E/DX2                !
 ! A221  A(70,71,166)          121.4872         estimate D2E/DX2                !
 ! A222  A(72,71,166)          118.3344         estimate D2E/DX2                !
 ! A223  A(65,72,71)           119.8387         estimate D2E/DX2                !
 ! A224  A(65,72,167)          124.6199         estimate D2E/DX2                !
 ! A225  A(71,72,167)          114.6075         estimate D2E/DX2                !
 ! A226  A(70,73,74)           124.4042         estimate D2E/DX2                !
 ! A227  A(70,73,78)           116.5169         estimate D2E/DX2                !
 ! A228  A(74,73,78)           118.7473         estimate D2E/DX2                !
 ! A229  A(73,74,75)           123.4374         estimate D2E/DX2                !
 ! A230  A(73,74,168)          118.1667         estimate D2E/DX2                !
 ! A231  A(75,74,168)          118.342          estimate D2E/DX2                !
 ! A232  A(74,75,76)           119.301          estimate D2E/DX2                !
 ! A233  A(74,75,169)          117.1517         estimate D2E/DX2                !
 ! A234  A(76,75,169)          123.3143         estimate D2E/DX2                !
 ! A235  A(75,76,77)           120.5547         estimate D2E/DX2                !
 ! A236  A(75,76,81)           120.5865         estimate D2E/DX2                !
 ! A237  A(77,76,81)           117.8002         estimate D2E/DX2                !
 ! A238  A(76,77,78)           120.2221         estimate D2E/DX2                !
 ! A239  A(76,77,170)          121.678          estimate D2E/DX2                !
 ! A240  A(78,77,170)          118.0966         estimate D2E/DX2                !
 ! A241  A(73,78,77)           117.5601         estimate D2E/DX2                !
 ! A242  A(73,78,79)           119.226          estimate D2E/DX2                !
 ! A243  A(77,78,79)           123.1763         estimate D2E/DX2                !
 ! A244  A(78,79,80)           117.0154         estimate D2E/DX2                !
 ! A245  A(79,80,171)          113.1715         estimate D2E/DX2                !
 ! A246  A(79,80,172)          102.395          estimate D2E/DX2                !
 ! A247  A(79,80,173)          107.6997         estimate D2E/DX2                !
 ! A248  A(171,80,172)         106.7029         estimate D2E/DX2                !
 ! A249  A(171,80,173)         115.5467         estimate D2E/DX2                !
 ! A250  A(172,80,173)         110.5336         estimate D2E/DX2                !
 ! A251  A(76,81,82)           120.2123         estimate D2E/DX2                !
 ! A252  A(76,81,88)           120.8224         estimate D2E/DX2                !
 ! A253  A(82,81,88)           118.0621         estimate D2E/DX2                !
 ! A254  A(81,82,83)           121.8138         estimate D2E/DX2                !
 ! A255  A(81,82,174)          119.7671         estimate D2E/DX2                !
 ! A256  A(83,82,174)          117.379          estimate D2E/DX2                !
 ! A257  A(82,83,84)           119.984          estimate D2E/DX2                !
 ! A258  A(82,83,86)           118.7182         estimate D2E/DX2                !
 ! A259  A(84,83,86)           121.1986         estimate D2E/DX2                !
 ! A260  A(83,84,85)           113.2463         estimate D2E/DX2                !
 ! A261  A(84,85,175)          105.7364         estimate D2E/DX2                !
 ! A262  A(84,85,176)          112.4518         estimate D2E/DX2                !
 ! A263  A(84,85,177)          112.6115         estimate D2E/DX2                !
 ! A264  A(175,85,176)         108.4711         estimate D2E/DX2                !
 ! A265  A(175,85,177)         107.4184         estimate D2E/DX2                !
 ! A266  A(176,85,177)         109.8665         estimate D2E/DX2                !
 ! A267  A(83,86,87)           120.2051         estimate D2E/DX2                !
 ! A268  A(83,86,89)           124.811          estimate D2E/DX2                !
 ! A269  A(87,86,89)           114.9838         estimate D2E/DX2                !
 ! A270  A(86,87,88)           121.2605         estimate D2E/DX2                !
 ! A271  A(86,87,178)          124.0739         estimate D2E/DX2                !
 ! A272  A(88,87,178)          113.6726         estimate D2E/DX2                !
 ! A273  A(81,88,87)           118.7355         estimate D2E/DX2                !
 ! A274  A(81,88,179)          115.9815         estimate D2E/DX2                !
 ! A275  A(87,88,179)          125.2602         estimate D2E/DX2                !
 ! A276  A(86,89,90)           113.3491         estimate D2E/DX2                !
 ! A277  A(86,89,94)           130.7837         estimate D2E/DX2                !
 ! A278  A(90,89,94)           115.8037         estimate D2E/DX2                !
 ! A279  A(89,90,91)           119.8373         estimate D2E/DX2                !
 ! A280  A(89,90,180)          121.5598         estimate D2E/DX2                !
 ! A281  A(91,90,180)          118.4627         estimate D2E/DX2                !
 ! A282  A(90,91,92)           123.8868         estimate D2E/DX2                !
 ! A283  A(90,91,181)          120.6554         estimate D2E/DX2                !
 ! A284  A(92,91,181)          115.4555         estimate D2E/DX2                !
 ! A285  A(91,92,93)           114.6278         estimate D2E/DX2                !
 ! A286  A(91,92,97)           123.0113         estimate D2E/DX2                !
 ! A287  A(93,92,97)           122.0087         estimate D2E/DX2                !
 ! A288  A(92,93,94)           119.4137         estimate D2E/DX2                !
 ! A289  A(92,93,182)          114.7556         estimate D2E/DX2                !
 ! A290  A(94,93,182)          125.3646         estimate D2E/DX2                !
 ! A291  A(89,94,93)           126.2965         estimate D2E/DX2                !
 ! A292  A(89,94,95)           111.7122         estimate D2E/DX2                !
 ! A293  A(93,94,95)           121.9244         estimate D2E/DX2                !
 ! A294  A(94,95,96)           116.387          estimate D2E/DX2                !
 ! A295  A(95,96,183)          109.8465         estimate D2E/DX2                !
 ! A296  A(95,96,184)          111.8461         estimate D2E/DX2                !
 ! A297  A(95,96,185)          115.7357         estimate D2E/DX2                !
 ! A298  A(183,96,184)         102.2071         estimate D2E/DX2                !
[...]
    54  C   -0.039425  -0.000000
    55  C    0.056696   0.000000
    56  C   -0.018520   0.000000
    57  C   -0.039580   0.000000
    58  C    0.056606  -0.000000
    59  C   -0.018103  -0.000000
    60  C   -0.008940   0.000000
    61  C   -0.054820  -0.000000
    62  C    0.117334   0.000000
    63  O   -0.254462   0.000000
    64  C    0.040494  -0.000000
    65  C   -0.010380   0.000000
    66  C   -0.054557   0.000000
    67  C    0.119630  -0.000000
    68  O   -0.254624   0.000000
    69  C    0.040480  -0.000000
    70  C   -0.041981   0.000000
    71  C    0.057376  -0.000000
    72  C   -0.018482   0.000000
    73  C   -0.040290   0.000000
    74  C    0.056199  -0.000000
    75  C   -0.018111   0.000000
    76  C   -0.009210  -0.000000
    77  C   -0.054662  -0.000000
    78  C    0.117818   0.000000
    79  O   -0.253914   0.000000
    80  C    0.040207   0.000000
    81  C   -0.010526   0.000000
    82  C   -0.054426   0.000000
    83  C    0.119925  -0.000000
    84  O   -0.254122  -0.000000
    85  C    0.040291  -0.000000
    86  C   -0.041902  -0.000000
    87  C    0.057200  -0.000000
    88  C   -0.018428  -0.000000
    89  C   -0.040331   0.000000
    90  C    0.055928   0.000000
    91  C   -0.015331  -0.000000
    92  C   -0.009582   0.000000
    93  C   -0.056397  -0.000000
    94  C    0.117668   0.000000
    95  O   -0.253719  -0.000000
    96  C    0.041059   0.000000
    97  C   -0.011145   0.000000
    98  C   -0.056981   0.000000
    99  C    0.120431  -0.000000
   100  O   -0.253346   0.000000
   101  C    0.041043  -0.000000
   102  C   -0.041117   0.000000
   103  C    0.059096   0.000000
   104  C   -0.015401  -0.000000
   105  C   -0.049183   0.000000
   106  C    0.044016   0.000000
   107  C   -0.008874  -0.000000
   108  C    0.001403  -0.000000
   109  C   -0.066567   0.000000
   110  C    0.108510  -0.000000
   111  O   -0.252414   0.000000
   112  C    0.038090   0.000000
   113  H    0.007049  -0.000000
   114  H    0.009425   0.000000
   115  H    0.050430  -0.000000
   116  H    0.064563   0.000000
   117  H    0.049208  -0.000000
   118  H   -0.001353  -0.000000
   119  H    0.002603   0.000000
   120  H   -0.001981  -0.000000
   121  H   -0.003204   0.000000
   122  H    0.002363  -0.000000
   123  H    0.063780   0.000000
   124  H    0.047081   0.000000
   125  H    0.051806  -0.000000
   126  H    0.002740   0.000000
   127  H    0.061050   0.000000
   128  H    0.052458   0.000000
   129  H    0.045482   0.000000
   130  H   -0.001517   0.000000
   131  H   -0.001407   0.000000
   132  H   -0.001817   0.000000
   133  H   -0.001437   0.000000
   134  H    0.002092   0.000000
   135  H    0.052532  -0.000000
   136  H    0.045266   0.000000
   137  H    0.061181   0.000000
   138  H    0.002566  -0.000000
   139  H    0.062729   0.000000
   140  H    0.045542   0.000000
   141  H    0.053822   0.000000
   142  H   -0.001676  -0.000000
   143  H   -0.003186  -0.000000
   144  H   -0.003529  -0.000000
   145  H   -0.005894  -0.000000
   146  H    0.005030  -0.000000
   147  H    0.053312  -0.000000
   148  H    0.048890   0.000000
   149  H    0.063810  -0.000000
   150  H    0.004586  -0.000000
   151  H    0.053421   0.000000
   152  H    0.062425   0.000000
   153  H    0.048643  -0.000000
   154  H   -0.002426   0.000000
   155  H   -0.005316  -0.000000
   156  H   -0.002554  -0.000000
   157  H   -0.005004  -0.000000
   158  H    0.004612   0.000000
   159  H    0.053615   0.000000
   160  H    0.048971   0.000000
   161  H    0.062703  -0.000000
   162  H    0.004534   0.000000
   163  H    0.051543  -0.000000
   164  H    0.062624  -0.000000
   165  H    0.050728   0.000000
   166  H   -0.002438   0.000000
   167  H   -0.005395   0.000000
   168  H   -0.002729  -0.000000
   169  H   -0.005254  -0.000000
   170  H    0.004677   0.000000
   171  H    0.053615  -0.000000
   172  H    0.064268  -0.000000
   173  H    0.048514  -0.000000
   174  H    0.004692   0.000000
   175  H    0.063638   0.000000
   176  H    0.050356   0.000000
   177  H    0.051697  -0.000000
   178  H   -0.003313  -0.000000
   179  H   -0.005708  -0.000000
   180  H   -0.001974   0.000000
   181  H   -0.003038   0.000000
   182  H    0.002715  -0.000000
   183  H    0.064328  -0.000000
   184  H    0.053790   0.000000
   185  H    0.045462   0.000000
   186  H    0.001752   0.000000
   187  H    0.047240   0.000000
   188  H    0.063929  -0.000000
   189  H    0.051837   0.000000
   190  H   -0.002224  -0.000000
   191  H   -0.002749  -0.000000
   192  H   -0.001329   0.000000
   193  H    0.002622  -0.000000
   194  H    0.007029  -0.000000
   195  H    0.009371  -0.000000
   196  H    0.050496   0.000000
   197  H    0.064492  -0.000000
   198  H    0.049071   0.000000
 Sum of Mulliken charges =  -0.00000  -0.00000
 Mulliken charges and spin densities with hydrogens summed into heavy atoms:
               1          2
     1  C    0.008465   0.000000
     2  C   -0.057149   0.000000
     3  C    0.108519  -0.000000
     4  O   -0.252421  -0.000000
     5  C    0.202260   0.000000
     6  C   -0.049220   0.000000
     7  C    0.042710  -0.000000
     8  C   -0.006283   0.000000
     9  C   -0.041116   0.000000
    10  C    0.057174  -0.000000
    11  C   -0.018696   0.000000
    12  C   -0.012188  -0.000000
    13  C   -0.053872  -0.000000
    14  C    0.120347   0.000000
    15  O   -0.253296   0.000000
    16  C    0.203720   0.000000
    17  C   -0.009631   0.000000
    18  C   -0.054537  -0.000000
    19  C    0.143861   0.000000
    20  O   -0.249454  -0.000000
    21  C    0.200243  -0.000000
    22  C   -0.044830  -0.000000
    23  C    0.031350   0.000000
    24  C   -0.015864  -0.000000
    25  C   -0.044675  -0.000000
    26  C    0.031157   0.000000
    27  C   -0.015949  -0.000000
    28  C   -0.009529   0.000000
    29  C   -0.055572   0.000000
    30  C    0.143999  -0.000000
    31  O   -0.249403   0.000000
    32  C    0.200264  -0.000000
    33  C   -0.010531   0.000000
    34  C   -0.053431  -0.000000
    35  C    0.117144   0.000000
    36  O   -0.254278   0.000000
    37  C    0.203507  -0.000000
    38  C   -0.039513  -0.000000
    39  C    0.054670   0.000000
    40  C   -0.018436  -0.000000
    41  C   -0.039298  -0.000000
    42  C    0.052907   0.000000
    43  C   -0.024622  -0.000000
    44  C   -0.008664  -0.000000
    45  C   -0.049930   0.000000
    46  C    0.117779   0.000000
    47  O   -0.253958  -0.000000
    48  C    0.206300   0.000000
    49  C   -0.008745  -0.000000
    50  C   -0.050448   0.000000
    51  C    0.117375  -0.000000
    52  O   -0.254464   0.000000
    53  C    0.205134  -0.000000
    54  C   -0.039425  -0.000000
    55  C    0.054270   0.000000
    56  C   -0.023837   0.000000
    57  C   -0.039580   0.000000
    58  C    0.054053  -0.000000
    59  C   -0.023106  -0.000000
    60  C   -0.008940   0.000000
    61  C   -0.050208  -0.000000
    62  C    0.117334   0.000000
    63  O   -0.254462   0.000000
    64  C    0.205783  -0.000000
    65  C   -0.010380   0.000000
    66  C   -0.050024   0.000000
    67  C    0.119630  -0.000000
    68  O   -0.254624   0.000000
    69  C    0.205376  -0.000000
    70  C   -0.041981   0.000000
    71  C    0.054938  -0.000000
    72  C   -0.023878   0.000000
    73  C   -0.040290   0.000000
    74  C    0.053470  -0.000000
    75  C   -0.023366   0.000000
    76  C   -0.009210  -0.000000
    77  C   -0.049985  -0.000000
    78  C    0.117818   0.000000
    79  O   -0.253914   0.000000
    80  C    0.206604   0.000000
    81  C   -0.010526   0.000000
    82  C   -0.049734   0.000000
    83  C    0.119925  -0.000000
    84  O   -0.254122  -0.000000
    85  C    0.205981  -0.000000
    86  C   -0.041902  -0.000000
    87  C    0.053887  -0.000000
    88  C   -0.024136  -0.000000
    89  C   -0.040331   0.000000
    90  C    0.053953   0.000000
    91  C   -0.018370  -0.000000
    92  C   -0.009582   0.000000
    93  C   -0.053682  -0.000000
    94  C    0.117668   0.000000
    95  O   -0.253719  -0.000000
    96  C    0.204639   0.000000
    97  C   -0.011145   0.000000
    98  C   -0.055230   0.000000
    99  C    0.120431  -0.000000
   100  O   -0.253346   0.000000
   101  C    0.204050  -0.000000
   102  C   -0.041117   0.000000
   103  C    0.056872   0.000000
   104  C   -0.018150  -0.000000
   105  C   -0.049183   0.000000
   106  C    0.042686   0.000000
   107  C   -0.006252  -0.000000
   108  C    0.008431  -0.000000
   109  C   -0.057196   0.000000
   110  C    0.108510  -0.000000
   111  O   -0.252414   0.000000
   112  C    0.202150   0.000000
 Electronic spatial extent (au):  <R**2>=         859691.1597
 Charge=              0.0000 electrons
 Dipole moment (field-independent basis, Debye):
    X=             -0.1414    Y=              2.9766    Z=              4.7370  Tot=              5.5964
 Quadrupole moment (field-independent basis, Debye-Ang):
   XX=           -565.4770   YY=           -547.6753   ZZ=           -621.5101
   XY=            -57.4848   XZ=            -10.3419   YZ=             -0.8837
 Traceless Quadrupole moment (field-independent basis, Debye-Ang):
   XX=             12.7438   YY=             30.5455   ZZ=            -43.2893
   XY=            -57.4848   XZ=            -10.3419   YZ=             -0.8837
 Octapole moment (field-independent basis, Debye-Ang**2):
  XXX=           -125.4493  YYY=             89.9408  ZZZ=             89.0125  XYY=            -29.6775
  XXY=            467.3545  XXZ=           2218.4136  XZZ=             70.9750  YZZ=             -9.8060
  YYZ=             69.8465  XYZ=            242.9817
 Hexadecapole moment (field-independent basis, Debye-Ang**3):
 XXXX=       -1031159.0434 YYYY=          -9048.2884 ZZZZ=          -4616.4159 XXXY=          -7771.9003
 XXXZ=            331.4363 YYYX=          -1408.3166 YYYZ=            -59.7654 ZZZX=           -266.3155
 ZZZY=            -21.9263 XXYY=        -171846.0845 XXZZ=        -186060.3385 YYZZ=          -2235.5495
 XXYZ=             -1.9811 YYXZ=           -243.4625 ZZXY=           -485.3344
 N-N= 1.635830835530D+04 E-N=-4.397740090949D+04  KE= 4.804158693008D+03
 Leave Link  601 at Tue Jul 28 03:49:59 2020, MaxMem=  4026531840 cpu:              18.3 elap:               2.5
 (Enter /opt/ohpc/pub/libs/gaussian/g16-A.03/sandybridge/g16/l9999.exe)

 Test job not archived.
 1\1\GINC-SKYLAKE017\FOpt\ULC-wPBE\CC-pVDZ\C98H86O14\RDU230\28-Jul-2020
 \0\\#P uLC-wPBE/cc-pVDZ iop(3/107=0441800000, 3/108=0441800000) opt\\H
 86 C98 O14\\0,1\C,-29.3033889996,0.3337566283,-0.8517670704\C,-28.6461
 186763,-0.7755278385,-1.3680105755\C,-27.2600613048,-0.8597023108,-1.2
 95621249\O,-26.5490204953,-1.908247304,-1.7754372047\C,-27.2479959431,
 -2.981906461,-2.3464902034\C,-26.5192460895,0.1734036562,-0.7008633867
 \C,-27.2052532096,1.2657721079,-0.1893455465\C,-28.5886206792,1.359214
 3188,-0.2609781511\C,-25.0355097383,0.1116126062,-0.6402611716\C,-24.2
 792339353,-0.0194070653,-1.7955314124\C,-22.8930199273,-0.0473819134,-
 1.767290176\C,-22.2223341541,0.0468784973,-0.5552270994\C,-22.96580504
 64,0.1723585261,0.6181966186\C,-24.3540320212,0.2075269615,0.582143734
 1\O,-25.1235862756,0.3388265903,1.6894248777\C,-24.4905103441,0.406917
 7864,2.9389659023\C,-20.7393641492,0.017776347,-0.5004196062\C,-20.087
 8368089,-0.7513222658,0.4669522782\C,-18.7024961889,-0.7890026283,0.53
 04682595\O,-18.0109323832,-1.5440864837,1.4129496634\C,-18.7298094526,
 -2.2906603477,2.356725324\C,-17.9323637037,-0.040385996,-0.3724077353\
 C,-18.5933622794,0.7094924204,-1.3306934765\C,-19.9803550483,0.7452757
 189,-1.4051474785\C,-16.4495723516,-0.0802046049,-0.3310547682\C,-15.7
 249432592,-0.5719507856,-1.4037439668\C,-14.3357656967,-0.5984733032,-
 1.399476837\C,-13.6395149946,-0.1255704504,-0.2969746656\C,-14.3554422
 201,0.3824073886,0.7898925694\C,-15.7423495019,0.4133488422,0.77569970
 89\O,-16.4928166615,0.9292043668,1.774620884\C,-15.8392445279,1.412978
 1229,2.9163831485\C,-12.155859563,-0.1509523581,-0.266336644\C,-11.484
 3160925,-0.567399272,0.883094778\C,-10.0962840783,-0.5971552449,0.9266
 253487\O,-9.3954874584,-1.0040027612,2.0127393716\C,-10.105132238,-1.4
 578471653,3.133977727\C,-9.3414940259,-0.2041945688,-0.1889792135\C,-1
 0.0274262996,0.201781138,-1.3244111332\C,-11.4128385354,0.2340345306,-
 1.3742640365\C,-7.8566770035,-0.2024797353,-0.1511917561\C,-7.16767607
 18,0.5098056354,0.8194071597\C,-5.782025953,0.5480978779,0.8581102609\
 C,-5.041813103,-0.1440133639,-0.0914593292\C,-5.7167304623,-0.86958633
 02,-1.0728250683\C,-7.1049366822,-0.9026262369,-1.1072764283\O,-7.8086
 8367,-1.5989991574,-2.0312738898\C,-7.1025620077,-2.3466750442,-2.9857
 167549\C,-3.558137782,-0.1194931471,-0.0744584835\C,-2.8717987054,-0.2
 454984883,1.1330719898\C,-1.4835105175,-0.222092754,1.1701152719\O,-0.
 768872103,-0.3505807992,2.3137896921\C,-1.4633474369,-0.5464713312,3.5
 168446573\C,-0.7430868549,-0.0696219246,-0.0121054562\C,-1.4432241671,
 0.0497074951,-1.2036841819\C,-2.8290921535,0.0288334583,-1.247081375\C
 ,0.7409917161,-0.0146742716,0.0114384701\C,1.4085195214,0.9194010043,0
 .7900508906\C,2.7922867937,1.0074682376,0.8074420142\C,3.5525971418,0.
 1413065824,0.0326723131\C,2.8996296708,-0.8075129616,-0.7536633009\C,1
 .5130971637,-0.8896688631,-0.7679466282\O,0.8305589077,-1.7983156047,-
 1.5050532626\C,1.5595614745,-2.7217183808,-2.2694680901\C,5.0348077317
 ,0.2143407292,0.0311966423\C,5.726539057,0.3813791128,1.2305143489\C,7
 .1137807329,0.4494456645,1.250211416\O,7.8334220753,0.6014835441,2.387
 7595514\C,7.1430560806,0.7518359609,3.5997903652\C,7.8473173271,0.3543
 766902,0.0577745522\C,7.141259268,0.1960890894,-1.1257851766\C,5.75683
 01463,0.1209774805,-1.1513909957\C,9.3320469572,0.3989899192,0.0616544
 374\C,10.0716420462,-0.4938063151,0.8233206315\C,11.4583718781,-0.4881
 064802,0.8217473066\C,12.147694738,0.4334108876,0.0444904585\C,11.4214
 922431,1.3421153047,-0.7248713325\C,10.0324992412,1.3305532757,-0.7200
 19094\O,9.2798394306,2.19652595,-1.4394898289\C,9.9329560799,3.1758342
 963,-2.2031377208\C,13.6313138229,0.4606927386,0.0228690268\C,14.34906
 45695,0.3345435636,1.2118414528\C,15.7379138851,0.3602284751,1.2126819
 359\O,16.4818856582,0.2514370638,2.3391255272\C,15.8205710307,0.053174
 1041,3.5605214999\C,16.4468677588,0.5104531033,0.0110253749\C,15.71562
 2388,0.6268852678,-1.1619980508\C,14.3290237259,0.6087360549,-1.168704
 0342\C,17.9311697467,0.5658156216,-0.0047559525\C,18.6194392636,1.5028
 198716,0.7520149229\C,20.0032769369,1.590064803,0.7329021372\C,20.7422
 917153,0.7206240482,-0.0582290167\C,20.0684755447,-0.2321976591,-0.822
 2848924\C,18.6820293731,-0.3142574201,-0.798890487\O,17.9793144805,-1.
 2272844103,-1.5115933613\C,18.6862050106,-2.1644699391,-2.2792235659\C
 ,22.2240263384,0.7959687673,-0.0928554047\C,22.9047387327,0.7071486022
 ,-1.3070549414\C,24.2911335357,0.7813660973,-1.3542267222\O,25.0007791
 126,0.7115956539,-2.5061505437\C,24.3057356269,0.5178714453,-3.7087777
 977\C,25.0343626246,0.9426493126,-0.1754624783\C,24.340205393,1.022516
 7291,1.0226964645\C,22.9560532273,0.9568306805,1.0760124591\C,26.51636
 65461,1.0498123944,-0.2089604785\C,27.1396082137,2.0363033429,-0.95992
 13178\C,28.5209274976,2.1740661494,-0.9834483154\C,29.2976848113,1.301
 2489623,-0.2443021379\C,28.703935391,0.2997686307,0.5130013264\C,27.31
 95895815,0.170865012,0.5340980682\O,26.6684089967,-0.7795366126,1.2468
 541035\C,27.4301131526,-1.7048761986,1.9754834193\H,-30.3900402557,0.3
 865323914,-0.9177703772\H,-29.2260010991,-1.5732010445,-1.8258740596\H
 ,-27.9338364974,-3.4505618417,-1.6248766693\H,-26.4925591672,-3.714223
 4111,-2.6465662793\H,-27.818240785,-2.6719569277,-3.2352467463\H,-26.6
 30302688,2.063711655,0.2782244277\H,-29.1005629381,2.2308215629,0.1441
 522683\H,-24.8001157338,-0.1087060645,-2.7475703096\H,-22.3308903791,-
 0.1663638488,-2.6924027847\H,-22.4372756874,0.2695836606,1.5635397048\
 H,-25.2888785139,0.4891013505,3.6825098077\H,-23.9009858103,-0.4988649
 505,3.1460783837\H,-23.8355347183,1.2876339674,3.0182852033\H,-20.6875
 500105,-1.3494300429,1.1490974492\H,-17.986227701,-2.8055017307,2.9724
 411845\H,-19.376577617,-3.0411371184,1.8777730861\H,-19.3450193111,-1.
 6455846127,3.0020926293\H,-17.9989555297,1.2983333902,-2.0295904493\H,
 -20.4713366029,1.3659462553,-2.1532175989\H,-16.2706440618,-0.96291069
 13,-2.2627375751\H,-13.7947545281,-1.0164367789,-2.2471026479\H,-13.80
 37066272,0.7868532545,1.6352963742\H,-15.1711570062,2.2546276006,2.679
 3084637\H,-15.2588815242,0.6236424457,3.4176427963\H,-16.6233849735,1.
 7636199817,3.5940611525\H,-12.0688649573,-0.8977339052,1.7384433244\H,
 -9.3540942144,-1.7530153268,3.8728100669\H,-10.738548335,-0.6675012532
 ,3.5646443494\H,-10.7322621584,-2.329209726,2.8933829127\H,-9.45058258
 62,0.5081944411,-2.1955452348\H,-11.9180441738,0.583013329,-2.27368151
 8\H,-7.7421733526,1.057759496,1.56458923\H,-5.2753425813,1.1422066278,
 1.6174451424\H,-5.1343207247,-1.4325964928,-1.7980147065\H,-6.47724104
 95,-3.1198685201,-2.5150931337\H,-6.4683386726,-1.7071413305,-3.617885
 5281\H,-7.8564589167,-2.8315197976,-3.6129798551\H,-3.4449101653,-0.38
 93026739,2.045726484\H,-2.0654170833,-1.4669900211,3.4937609396\H,-0.7
 025767547,-0.6383018625,4.2977387207\H,-2.1184997419,0.305311609,3.753
 9349424\H,-0.8776561763,0.1699636287,-2.1262987363\H,-3.3453047815,0.1
 548162834,-2.1978293348\H,0.8179968422,1.6039775225,1.3968477062\H,3.2
 811440765,1.7729902532,1.4085051471\H,3.4985919776,-1.5016795659,-1.33
 80395686\H,2.209074591,-3.348022729,-1.6400290101\H,2.1732632789,-2.22
 40908628,-3.0353908961\H,0.8212504243,-3.3596472363,-2.764350866\H,5.1
 592343931,0.4341415573,2.1565172301\H,6.5447851795,-0.1390904511,3.843
 0311607\H,7.9062692931,0.8893931903,4.3715264265\H,6.4851113205,1.6335
 057192,3.585919425\H,7.7008249732,0.1377277133,-2.0579733475\H,5.23532
 74833,0.0151093626,-2.1017134616\H,9.5370819326,-1.2209364429,1.432480
 3495\H,12.0061030168,-1.2230579503,1.4100855775\H,11.9640215177,2.0799
 602103,-1.3108770444\H,10.5465692829,3.8387115713,-1.5751590224\H,9.14
 55787552,3.766265461,-2.6809456936\H,10.5686721604,2.7294252813,-2.982
 5611361\H,13.7994051557,0.2389155233,2.1450335372\H,16.6023890785,-0.0
 348892333,4.3207380468\H,15.2224267425,-0.8701972606,3.5533800273\H,15
 .1681496962,0.9020188313,3.8146875088\H,16.2571114,0.7278036893,-2.101
 229442\H,13.7884357137,0.6845326416,-2.1112093238\H,18.0456715576,2.18
 94311056,1.3723828905\H,20.5095001497,2.3547120601,1.3203007888\H,20.6
 50805032,-0.9323434312,-1.4165415921\H,17.9340690905,-2.8077090029,-2.
 7455809401\H,19.3498416129,-2.78272599,-1.6565315604\H,19.2817257395,-
 1.6808299248,-3.0683568397\H,22.3280527573,0.605071612,-2.2232809332\H
 ,23.7379251127,-0.4246832233,-3.7030277988\H,25.0637457258,0.471318988
 3,-4.4963254842\H,23.6182507745,1.3500753185,-3.9226202609\H,24.909684
 8176,1.1335990847,1.9441250376\H,22.4440732258,1.0077068373,2.03582083
 19\H,26.5161217229,2.7134358302,-1.5418449717\H,28.9829615651,2.960898
 0523,-1.5778658528\H,30.3838960063,1.3911249179,-0.2492911027\H,29.331
 8808321,-0.379028871,1.0849249901\H,28.0947033104,-2.2892149548,1.3215
 681753\H,26.7152361878,-2.3819267623,2.4525347648\H,28.0329486041,-1.2
 146220874,2.7548441457\\Version=EM64L-G16RevA.03\State=1-A\HF=-4836.24
 07395\S2=0.\S2-1=0.\S2A=0.\RMSD=4.853e-09\RMSF=1.818e-06\Dipole=-0.023
 6449,-1.7262635,1.3665105\Quadrupole=9.3435279,-31.2708092,21.9272813,
 3.7561789,-43.4336478,5.7649621\PG=C01 [X(C98H86O14)]\\@


 SLITHERY-DITHERY
 FRIEDRICH A. KEKULE
 DREAMT ON A BUS OF THINGS
 FREUD WOULD THINK KEEN.
 MOST OF THE TIME THEY WERE
 HERPETOLOGICAL
 BITING THEIR TAILS IN THE
 SHAPE OF BENZENE.
 Job cpu time:       5 days 13 hours 49 minutes  0.8 seconds.
 Elapsed time:       0 days 16 hours 57 minutes  9.0 seconds.
 File lengths (MBytes):  RWF=   4392 Int=      0 D2E=      0 Chk=    396 Scr=      8
 Normal termination of Gaussian 16 at Tue Jul 28 03:50:00 2020.
