 Entering Gaussian System, Link 0=g16
 Input=mols_65_1_33_cF-cOC-N_opt_0.gjf
 Output=mols_65_1_33_cF-cOC-N_opt_0.log
 Initial command:
 /opt/ohpc/pub/libs/gaussian/g16-A.03/sandybridge/g16/l1.exe "/mnt/gpfs2_4m/scratch/rdu230/ondemand/projects/dihedral_energies/7trial/wtuning/mols_65_1_33_cF-cOC-N/Gau-318093.inp" -scrdir="/mnt/gpfs2_4m/scratch/rdu230/ondemand/projects/dihedral_energies/7trial/wtuning/mols_65_1_33_cF-cOC-N/"
 Entering Link 1 = /opt/ohpc/pub/libs/gaussian/g16-A.03/sandybridge/g16/l1.exe PID=    318094.
  
 Copyright (c) 1988,1990,1992,1993,1995,1998,2003,2009,2016,
            Gaussian, Inc.  All Rights Reserved.
  
 This is part of the Gaussian(R) 16 program.  It is based on
 the Gaussian(R) 09 system (copyright 2009, Gaussian, Inc.),
 the Gaussian(R) 03 system (copyright 2003, Gaussian, Inc.),
 the Gaussian(R) 98 system (copyright 1998, Gaussian, Inc.),
 the Gaussian(R) 94 system (copyright 1995, Gaussian, Inc.),
 the Gaussian 92(TM) system (copyright 1992, Gaussian, Inc.),
 the Gaussian 90(TM) system (copyright 1990, Gaussian, Inc.),
 the Gaussian 88(TM) system (copyright 1988, Gaussian, Inc.),
 the Gaussian 86(TM) system (copyright 1986, Carnegie Mellon
 University), and the Gaussian 82(TM) system (copyright 1983,
 Carnegie Mellon University). Gaussian is a federally registered
 trademark of Gaussian, Inc.
  
 This software contains proprietary and confidential information,
 including trade secrets, belonging to Gaussian, Inc.
  
 This software is provided under written license and may be
 used, copied, transmitted, or stored only in accord with that
 written license.
  
 The following legend is applicable only to US Government
 contracts under FAR:
  
                    RESTRICTED RIGHTS LEGEND
  
 Use, reproduction and disclosure by the US Government is
 subject to restrictions as set forth in subparagraphs (a)
 and (c) of the Commercial Computer Software - Restricted
 Rights clause in FAR 52.227-19.
  
 Gaussian, Inc.
 340 Quinnipiac St., Bldg. 40, Wallingford CT 06492
  
  
 ---------------------------------------------------------------
 Warning -- This program may not be used in any manner that
 competes with the business of Gaussian, Inc. or will provide
 assistance to any competitor of Gaussian, Inc.  The licensee
 of this program is prohibited from giving any competitor of
 Gaussian, Inc. access to this program.  By using this program,
 the user acknowledges that Gaussian, Inc. is engaged in the
 business of creating and licensing software in the field of
 computational chemistry and represents and warrants to the
 licensee that it is not a competitor of Gaussian, Inc. and that
 it will not use this program in any manner prohibited above.
 ---------------------------------------------------------------
  

 Cite this work as:
 Gaussian 16, Revision A.03,
 M. J. Frisch, G. W. Trucks, H. B. Schlegel, G. E. Scuseria, 
 M. A. Robb, J. R. Cheeseman, G. Scalmani, V. Barone, 
 G. A. Petersson, H. Nakatsuji, X. Li, M. Caricato, A. V. Marenich, 
 J. Bloino, B. G. Janesko, R. Gomperts, B. Mennucci, H. P. Hratchian, 
 J. V. Ortiz, A. F. Izmaylov, J. L. Sonnenberg, D. Williams-Young, 
 F. Ding, F. Lipparini, F. Egidi, J. Goings, B. Peng, A. Petrone, 
 T. Henderson, D. Ranasinghe, V. G. Zakrzewski, J. Gao, N. Rega, 
 G. Zheng, W. Liang, M. Hada, M. Ehara, K. Toyota, R. Fukuda, 
 J. Hasegawa, M. Ishida, T. Nakajima, Y. Honda, O. Kitao, H. Nakai, 
 T. Vreven, K. Throssell, J. A. Montgomery, Jr., J. E. Peralta, 
 F. Ogliaro, M. J. Bearpark, J. J. Heyd, E. N. Brothers, K. N. Kudin, 
 V. N. Staroverov, T. A. Keith, R. Kobayashi, J. Normand, 
 K. Raghavachari, A. P. Rendell, J. C. Burant, S. S. Iyengar, 
 J. Tomasi, M. Cossi, J. M. Millam, M. Klene, C. Adamo, R. Cammi, 
 J. W. Ochterski, R. L. Martin, K. Morokuma, O. Farkas, 
 J. B. Foresman, and D. J. Fox, Gaussian, Inc., Wallingford CT, 2016.
 
 ******************************************
 Gaussian 16:  EM64L-G16RevA.03 25-Dec-2016
                25-Jul-2020 
 ******************************************
 %mem=30GB
 %nproc=8
 Will use up to    8 processors via shared memory.
 ---------------------------------------------------------------
 #P uLC-wPBE/cc-pVDZ iop(3/107=0223500000, 3/108=0223500000) opt
 ---------------------------------------------------------------
 1/18=20,19=15,26=3,38=1/1,3;
 2/9=110,12=2,17=6,18=5,40=1/2;
 3/5=16,11=2,25=1,30=1,71=1,74=-41,107=223500000,108=223500000,116=2/1,2,3;
 4//1;
 5/5=2,38=5/2;
 6/7=2,8=2,9=2,10=2,28=1/1;
 7//1,2,3,16;
 1/18=20,19=15,26=3/3(2);
 2/9=110/2;
 99//99;
 2/9=110/2;
 3/5=16,11=2,25=1,30=1,71=1,74=-41,107=223500000,108=223500000,116=2/1,2,3;
 4/5=5,16=3,69=1/1;
 5/5=2,38=5/2;
 7//1,2,3,16;
 1/18=20,19=15,26=3/3(-5);
 2/9=110/2;
 6/7=2,8=2,9=2,10=2,19=2,28=1/1;
 99/9=1/99;
 Leave Link    1 at Sat Jul 25 01:19:48 2020, MaxMem=  4026531840 cpu:               0.9 elap:               0.1
 (Enter /opt/ohpc/pub/libs/gaussian/g16-A.03/sandybridge/g16/l101.exe)
 ------------------
 H8 C10 S1 N1 O1 F1
 ------------------
 Symbolic Z-matrix:
 Charge =  0 Multiplicity = 1
 C                    -3.16809  -0.90596  -0.13845 
 C                    -2.2602   -1.8713   -0.11831 
 C                    -0.89484  -1.71057   0.0061 
 F                    -0.06294  -2.75885  -0.04107 
 C                    -0.36184  -0.39539   0.07059 
 C                    -1.29922   0.66965   0.08691 
 O                    -0.79966   2.0144    0.1613 
 C                    -1.65055   3.03934   0.31663 
 C                    -2.65092   0.45816  -0.07856 
 C                     1.07844  -0.18784   0.17472 
 N                     1.78821  -0.48095   1.26234 
 C                     3.0407   -0.15016   1.02159 
 C                     3.40837   0.30784  -0.20651 
 S                     1.98485   0.43016  -1.16443 
 H                    -4.21258  -1.03399  -0.16895 
 H                    -2.65135  -2.93526  -0.19076 
 H                    -1.05096   3.99837   0.36775 
 H                    -2.2817    2.96691   1.12357 
 H                    -2.27526   3.14026  -0.63326 
 H                    -3.37033   1.25376  -0.03295 
 H                     3.82249  -0.28204   1.77953 
 H                     4.30052   0.59894  -0.6254 
 
 ITRead=  0  0  0  0  0  0  0  0  0  0  0  0  0  0  0  0  0  0  0  0
 ITRead=  0  0
 MicOpt= -1 -1 -1 -1 -1 -1 -1 -1 -1 -1 -1 -1 -1 -1 -1 -1 -1 -1 -1 -1
 MicOpt= -1 -1
 NAtoms=     22 NQM=       22 NQMF=       0 NMMI=      0 NMMIF=      0
                NMic=       0 NMicF=      0.
                    Isotopes and Nuclear Properties:
 (Nuclear quadrupole moments (NQMom) in fm**2, nuclear magnetic moments (NMagM)
  in nuclear magnetons)

  Atom         1           2           3           4           5           6           7           8           9          10
 IAtWgt=          12          12          12          19          12          12          16          12          12          12
 AtmWgt=  12.0000000  12.0000000  12.0000000  18.9984033  12.0000000  12.0000000  15.9949146  12.0000000  12.0000000  12.0000000
 NucSpn=           0           0           0           1           0           0           0           0           0           0
 AtZEff=  -0.0000000  -0.0000000  -0.0000000  -0.0000000  -0.0000000  -0.0000000  -0.0000000  -0.0000000  -0.0000000  -0.0000000
 NQMom=    0.0000000   0.0000000   0.0000000   0.0000000   0.0000000   0.0000000   0.0000000   0.0000000   0.0000000   0.0000000
 NMagM=    0.0000000   0.0000000   0.0000000   2.6288670   0.0000000   0.0000000   0.0000000   0.0000000   0.0000000   0.0000000
 AtZNuc=   6.0000000   6.0000000   6.0000000   9.0000000   6.0000000   6.0000000   8.0000000   6.0000000   6.0000000   6.0000000

  Atom        11          12          13          14          15          16          17          18          19          20
 IAtWgt=          14          12          12          32           1           1           1           1           1           1
 AtmWgt=  14.0030740  12.0000000  12.0000000  31.9720718   1.0078250   1.0078250   1.0078250   1.0078250   1.0078250   1.0078250
 NucSpn=           2           0           0           0           1           1           1           1           1           1
 AtZEff=  -0.0000000  -0.0000000  -0.0000000  -0.0000000  -0.0000000  -0.0000000  -0.0000000  -0.0000000  -0.0000000  -0.0000000
 NQMom=    2.0440000   0.0000000   0.0000000   0.0000000   0.0000000   0.0000000   0.0000000   0.0000000   0.0000000   0.0000000
 NMagM=    0.4037610   0.0000000   0.0000000   0.0000000   2.7928460   2.7928460   2.7928460   2.7928460   2.7928460   2.7928460
 AtZNuc=   7.0000000   6.0000000   6.0000000  16.0000000   1.0000000   1.0000000   1.0000000   1.0000000   1.0000000   1.0000000

  Atom        21          22
 IAtWgt=           1           1
 AtmWgt=   1.0078250   1.0078250
 NucSpn=           1           1
 AtZEff=  -0.0000000  -0.0000000
 NQMom=    0.0000000   0.0000000
 NMagM=    2.7928460   2.7928460
 AtZNuc=   1.0000000   1.0000000
 Leave Link  101 at Sat Jul 25 01:19:49 2020, MaxMem=  4026531840 cpu:               3.0 elap:               0.4
 (Enter /opt/ohpc/pub/libs/gaussian/g16-A.03/sandybridge/g16/l103.exe)

 GradGradGradGradGradGradGradGradGradGradGradGradGradGradGradGradGradGrad
 Berny optimization.
 Initialization pass.
                           ----------------------------
                           !    Initial Parameters    !
                           ! (Angstroms and Degrees)  !
 --------------------------                            --------------------------
 ! Name  Definition              Value          Derivative Info.                !
 --------------------------------------------------------------------------------
 ! R1    R(1,2)                  1.3253         estimate D2E/DX2                !
 ! R2    R(1,9)                  1.4601         estimate D2E/DX2                !
 ! R3    R(1,15)                 1.0528         estimate D2E/DX2                !
 ! R4    R(2,3)                  1.3804         estimate D2E/DX2                !
 ! R5    R(2,16)                 1.1359         estimate D2E/DX2                !
 ! R6    R(3,4)                  1.3391         estimate D2E/DX2                !
 ! R7    R(3,5)                  1.4205         estimate D2E/DX2                !
 ! R8    R(5,6)                  1.4189         estimate D2E/DX2                !
 ! R9    R(5,10)                 1.4589         estimate D2E/DX2                !
 ! R10   R(6,7)                  1.4365         estimate D2E/DX2                !
 ! R11   R(6,9)                  1.3781         estimate D2E/DX2                !
 ! R12   R(7,8)                  1.3411         estimate D2E/DX2                !
 ! R13   R(8,17)                 1.1322         estimate D2E/DX2                !
 ! R14   R(8,18)                 1.027          estimate D2E/DX2                !
 ! R15   R(8,19)                 1.1414         estimate D2E/DX2                !
 ! R16   R(9,20)                 1.0736         estimate D2E/DX2                !
 ! R17   R(10,11)                1.3314         estimate D2E/DX2                !
 ! R18   R(10,14)                1.7311         estimate D2E/DX2                !
 ! R19   R(11,12)                1.3176         estimate D2E/DX2                !
 ! R20   R(12,13)                1.3613         estimate D2E/DX2                !
 ! R21   R(12,21)                1.0968         estimate D2E/DX2                !
 ! R22   R(13,14)                1.7202         estimate D2E/DX2                !
 ! R23   R(13,22)                1.0277         estimate D2E/DX2                !
 ! A1    A(2,1,9)              115.9274         estimate D2E/DX2                !
 ! A2    A(2,1,15)             126.264          estimate D2E/DX2                !
 ! A3    A(9,1,15)             117.7899         estimate D2E/DX2                !
 ! A4    A(1,2,3)              126.4495         estimate D2E/DX2                !
 ! A5    A(1,2,16)             116.4478         estimate D2E/DX2                !
 ! A6    A(3,2,16)             117.0914         estimate D2E/DX2                !
 ! A7    A(2,3,4)              121.3421         estimate D2E/DX2                !
 ! A8    A(2,3,5)              118.8824         estimate D2E/DX2                !
 ! A9    A(4,3,5)              119.5553         estimate D2E/DX2                !
 ! A10   A(3,5,6)              116.5886         estimate D2E/DX2                !
 ! A11   A(3,5,10)             120.357          estimate D2E/DX2                !
 ! A12   A(6,5,10)             122.9978         estimate D2E/DX2                !
 ! A13   A(5,6,7)              118.2637         estimate D2E/DX2                !
 ! A14   A(5,6,9)              122.1008         estimate D2E/DX2                !
 ! A15   A(7,6,9)              119.4052         estimate D2E/DX2                !
 ! A16   A(6,7,8)              120.0523         estimate D2E/DX2                !
 ! A17   A(7,8,17)             108.4564         estimate D2E/DX2                !
 ! A18   A(7,8,18)             115.2778         estimate D2E/DX2                !
 ! A19   A(7,8,19)             108.5686         estimate D2E/DX2                !
 ! A20   A(17,8,18)            110.4702         estimate D2E/DX2                !
 ! A21   A(17,8,19)            104.6278         estimate D2E/DX2                !
 ! A22   A(18,8,19)            108.8911         estimate D2E/DX2                !
 ! A23   A(1,9,6)              119.7165         estimate D2E/DX2                !
 ! A24   A(1,9,20)             117.1772         estimate D2E/DX2                !
 ! A25   A(6,9,20)             122.5768         estimate D2E/DX2                !
 ! A26   A(5,10,11)            123.5932         estimate D2E/DX2                !
 ! A27   A(5,10,14)            120.8301         estimate D2E/DX2                !
 ! A28   A(11,10,14)           115.5561         estimate D2E/DX2                !
 ! A29   A(10,11,12)           107.5912         estimate D2E/DX2                !
 ! A30   A(11,12,13)           120.3998         estimate D2E/DX2                !
 ! A31   A(11,12,21)           121.4053         estimate D2E/DX2                !
 ! A32   A(13,12,21)           118.1219         estimate D2E/DX2                !
 ! A33   A(12,13,14)           107.6259         estimate D2E/DX2                !
 ! A34   A(12,13,22)           134.2251         estimate D2E/DX2                !
 ! A35   A(14,13,22)           118.1174         estimate D2E/DX2                !
 ! A36   A(10,14,13)            88.6896         estimate D2E/DX2                !
 ! D1    D(9,1,2,3)              2.7484         estimate D2E/DX2                !
 ! D2    D(9,1,2,16)          -178.5181         estimate D2E/DX2                !
 ! D3    D(15,1,2,3)          -175.6336         estimate D2E/DX2                !
 ! D4    D(15,1,2,16)            3.0999         estimate D2E/DX2                !
 ! D5    D(2,1,9,6)             -4.4866         estimate D2E/DX2                !
 ! D6    D(2,1,9,20)          -176.3563         estimate D2E/DX2                !
 ! D7    D(15,1,9,6)           174.0388         estimate D2E/DX2                !
 ! D8    D(15,1,9,20)            2.169          estimate D2E/DX2                !
 ! D9    D(1,2,3,4)           -177.2046         estimate D2E/DX2                !
 ! D10   D(1,2,3,5)             -2.6208         estimate D2E/DX2                !
 ! D11   D(16,2,3,4)             4.0691         estimate D2E/DX2                !
 ! D12   D(16,2,3,5)           178.6529         estimate D2E/DX2                !
 ! D13   D(2,3,5,6)              3.9059         estimate D2E/DX2                !
 ! D14   D(2,3,5,10)          -178.7495         estimate D2E/DX2                !
 ! D15   D(4,3,5,6)            178.5884         estimate D2E/DX2                !
 ! D16   D(4,3,5,10)            -4.067          estimate D2E/DX2                !
 ! D17   D(3,5,6,7)            179.5638         estimate D2E/DX2                !
 ! D18   D(3,5,6,9)             -5.9867         estimate D2E/DX2                !
 ! D19   D(10,5,6,7)             2.2958         estimate D2E/DX2                !
 ! D20   D(10,5,6,9)           176.7453         estimate D2E/DX2                !
 ! D21   D(3,5,10,11)          -69.9572         estimate D2E/DX2                !
 ! D22   D(3,5,10,14)          108.3151         estimate D2E/DX2                !
 ! D23   D(6,5,10,11)          107.2115         estimate D2E/DX2                !
 ! D24   D(6,5,10,14)          -74.5162         estimate D2E/DX2                !
 ! D25   D(5,6,7,8)           -173.1832         estimate D2E/DX2                !
 ! D26   D(9,6,7,8)             12.2135         estimate D2E/DX2                !
 ! D27   D(5,6,9,1)              6.3667         estimate D2E/DX2                !
 ! D28   D(5,6,9,20)           177.7804         estimate D2E/DX2                !
 ! D29   D(7,6,9,1)           -179.2451         estimate D2E/DX2                !
 ! D30   D(7,6,9,20)            -7.8314         estimate D2E/DX2                !
 ! D31   D(6,7,8,17)           179.0701         estimate D2E/DX2                !
 ! D32   D(6,7,8,18)            54.645          estimate D2E/DX2                !
 ! D33   D(6,7,8,19)           -67.7905         estimate D2E/DX2                !
 ! D34   D(5,10,11,12)        -178.9948         estimate D2E/DX2                !
 ! D35   D(14,10,11,12)          2.6496         estimate D2E/DX2                !
 ! D36   D(5,10,14,13)        -179.0425         estimate D2E/DX2                !
 ! D37   D(11,10,14,13)         -0.6377         estimate D2E/DX2                !
 ! D38   D(10,11,12,13)         -4.1872         estimate D2E/DX2                !
 ! D39   D(10,11,12,21)        178.9777         estimate D2E/DX2                !
 ! D40   D(11,12,13,14)          3.7445         estimate D2E/DX2                !
 ! D41   D(11,12,13,22)       -178.42           estimate D2E/DX2                !
 ! D42   D(21,12,13,14)       -179.3182         estimate D2E/DX2                !
 ! D43   D(21,12,13,22)         -1.4827         estimate D2E/DX2                !
 ! D44   D(12,13,14,10)         -1.5312         estimate D2E/DX2                !
 ! D45   D(22,13,14,10)       -179.7727         estimate D2E/DX2                !
 --------------------------------------------------------------------------------
 Trust Radius=3.00D-01 FncErr=1.00D-07 GrdErr=1.00D-06 EigMax=2.50D+02 EigMin=1.00D-04
 Number of steps in this run=    114 maximum allowed number of steps=    132.
 GradGradGradGradGradGradGradGradGradGradGradGradGradGradGradGradGradGrad

 Leave Link  103 at Sat Jul 25 01:19:49 2020, MaxMem=  4026531840 cpu:               0.1 elap:               0.0
 (Enter /opt/ohpc/pub/libs/gaussian/g16-A.03/sandybridge/g16/l202.exe)
                          Input orientation:                          
 ---------------------------------------------------------------------
 Center     Atomic      Atomic             Coordinates (Angstroms)
 Number     Number       Type             X           Y           Z
 ---------------------------------------------------------------------
      1          6           0       -3.168089   -0.905964   -0.138450
      2          6           0       -2.260198   -1.871303   -0.118309
      3          6           0       -0.894841   -1.710571    0.006096
      4          9           0       -0.062935   -2.758849   -0.041074
      5          6           0       -0.361840   -0.395394    0.070587
      6          6           0       -1.299220    0.669645    0.086907
      7          8           0       -0.799657    2.014402    0.161300
      8          6           0       -1.650547    3.039344    0.316629
      9          6           0       -2.650923    0.458160   -0.078557
     10          6           0        1.078439   -0.187835    0.174716
     11          7           0        1.788211   -0.480951    1.262337
     12          6           0        3.040702   -0.150162    1.021589
     13          6           0        3.408367    0.307843   -0.206510
     14         16           0        1.984848    0.430159   -1.164431
     15          1           0       -4.212581   -1.033994   -0.168951
     16          1           0       -2.651345   -2.935261   -0.190764
     17          1           0       -1.050960    3.998373    0.367747
     18          1           0       -2.281698    2.966912    1.123569
     19          1           0       -2.275259    3.140260   -0.633258
     20          1           0       -3.370333    1.253756   -0.032953
     21          1           0        3.822493   -0.282040    1.779533
     22          1           0        4.300519    0.598939   -0.625401
 ---------------------------------------------------------------------
                    Distance matrix (angstroms):
                    1          2          3          4          5
     1  C    0.000000
     2  C    1.325349   0.000000
     3  C    2.415770   1.380403   0.000000
     4  F    3.617271   2.371006   1.339096   0.000000
     5  C    2.859967   2.412002   1.420542   2.384897   0.000000
     6  C    2.454791   2.724336   2.415674   3.646828   1.418892
     7  O    3.771983   4.160537   3.729420   4.834009   2.450924
     8  C    4.251527   4.967424   4.819670   6.022251   3.676782
     9  C    1.460097   2.362339   2.791842   4.128951   2.447591
    10  C    4.318192   3.750523   2.498198   2.821243   1.458879
    11  N    5.167954   4.497652   3.207628   3.211610   2.459737
    12  C    6.361290   5.688694   4.353688   4.191308   3.541445
    13  C    6.687880   6.073639   4.757814   4.634858   3.845229
    14  S    5.421312   4.940801   3.774317   3.952862   2.777364
    15  H    1.052751   2.124959   3.390545   4.495669   3.910677
    16  H    2.094709   1.135893   2.150332   2.598729   3.429440
    17  H    5.365724   6.012620   5.722517   6.841299   4.457396
    18  H    4.168639   4.995102   5.005094   6.250091   4.012447
    19  H    4.172998   5.037972   5.083787   6.328076   4.081350
    20  H    2.171733   3.317481   3.862230   5.199995   3.432411
    21  H    7.275725   6.567092   5.238227   4.954366   4.521282
    22  H    7.634262   7.028673   5.720524   5.536778   4.817747
                    6          7          8          9         10
     6  C    0.000000
     7  O    1.436478   0.000000
     8  C    2.406590   1.341136   0.000000
     9  C    1.378117   2.430351   2.796325   0.000000
    10  C    2.529080   2.894352   4.228734   3.793362   0.000000
    11  N    3.498248   3.759804   5.011177   4.731367   1.331395
    12  C    4.514492   4.491524   5.716444   5.828805   2.137543
    13  C    4.730578   4.555776   5.772987   6.062505   2.412384
    14  S    3.522542   3.467111   4.713542   4.761332   1.731129
    15  H    3.384601   4.588010   4.836516   2.161821   5.369263
    16  H    3.860141   5.296401   6.079058   3.395276   4.646850
    17  H    3.349766   2.010451   1.132190   3.910521   4.700632
    18  H    2.705063   2.007407   1.027010   2.806291   4.705664
    19  H    2.752313   2.018980   1.141374   2.764503   4.793363
    20  H    2.155240   2.687879   2.503637   1.073594   4.681120
    21  H    5.477466   5.408937   6.567027   6.775360   3.180274
    22  H    5.645304   5.351096   6.500629   6.974339   3.411891
                   11         12         13         14         15
    11  N    0.000000
    12  C    1.317617   0.000000
    13  C    2.324782   1.361313   0.000000
    14  S    2.599614   2.496054   1.720169   0.000000
    15  H    6.193864   7.403287   7.738268   6.445374   0.000000
    16  H    5.276817   6.451820   6.872997   5.811055   2.460234
    17  H    5.378246   5.863408   5.816819   4.929082   5.967295
    18  H    5.335839   6.168832   6.420015   5.465663   4.626680
    19  H    5.763527   6.467212   6.364613   5.076938   4.625278
    20  H    5.594422   6.647136   6.846579   5.535026   2.441655
    21  H    2.108402   1.096845   2.112778   3.542752   8.302074
    22  H    3.322862   2.204737   1.027688   2.383563   8.680305
                   16         17         18         19         20
    16  H    0.000000
    17  H    7.137818   0.000000
    18  H    6.058032   1.774794   0.000000
    19  H    6.103212   1.799243   1.765370   0.000000
    20  H    4.253200   3.615657   2.336145   2.262399   0.000000
    21  H    7.268578   6.638194   6.946015   7.397045   7.574993
    22  H    7.810755   6.417229   7.210532   7.049768   7.721512
                   21         22
    21  H    0.000000
    22  H    2.605444   0.000000
 Stoichiometry    C10H8FNOS
 Framework group  C1[X(C10H8FNOS)]
 Deg. of freedom    60
 Full point group                 C1      NOp   1
 Largest Abelian subgroup         C1      NOp   1
 Largest concise Abelian subgroup C1      NOp   1
                         Standard orientation:                         
 ---------------------------------------------------------------------
 Center     Atomic      Atomic             Coordinates (Angstroms)
 Number     Number       Type             X           Y           Z
 ---------------------------------------------------------------------
      1          6           0       -3.177360   -0.887853   -0.142479
      2          6           0       -2.269544   -1.853178   -0.118625
      3          6           0       -0.904549   -1.692318    0.009536
      4          9           0       -0.072524   -2.740657   -0.034046
      5          6           0       -0.371719   -0.377074    0.074073
      6          6           0       -1.309129    0.687992    0.086481
      7          8           0       -0.809765    2.032828    0.160791
      8          6           0       -1.661086    3.057953    0.312502
      9          6           0       -2.660351    0.476333   -0.082641
     10          6           0        1.068256   -0.169411    0.182121
     11          7           0        1.774884   -0.461300    1.272117
     12          6           0        3.028069   -0.130797    1.034608
     13          6           0        3.399281    0.325812   -0.192944
     14         16           0        1.978532    0.447056   -1.155106
     15          1           0       -4.221761   -1.015908   -0.175848
     16          1           0       -2.660494   -2.917213   -0.191002
     17          1           0       -1.061636    4.017034    0.364262
     18          1           0       -2.294563    2.986443    1.117700
     19          1           0       -2.283054    3.157798   -0.639297
     20          1           0       -3.379880    1.271987   -0.040015
     21          1           0        3.807668   -0.261823    1.794953
     22          1           0        4.292641    0.616424   -0.609589
 ---------------------------------------------------------------------
 Rotational constants (GHZ):           0.9019502           0.5356649           0.3798845
 Leave Link  202 at Sat Jul 25 01:19:49 2020, MaxMem=  4026531840 cpu:               0.1 elap:               0.0
 (Enter /opt/ohpc/pub/libs/gaussian/g16-A.03/sandybridge/g16/l301.exe)
 Standard basis: CC-pVDZ (5D, 7F)
 Ernie: Thresh=  0.10000D-02 Tol=  0.10000D-05 Strict=F.
 Ernie:  36 primitive shells out of 376 were deleted.
 There are   254 symmetry adapted cartesian basis functions of A   symmetry.
 There are   240 symmetry adapted basis functions of A   symmetry.
   240 basis functions,   556 primitive gaussians,   254 cartesian basis functions
    54 alpha electrons       54 beta electrons
       nuclear repulsion energy       967.2029447963 Hartrees.
 IExCor=32609 DFT=T Ex+Corr=LC-wPBE ExCW=0 ScaHFX=  1.000000
 ScaDFX=  1.000000  0.000000  1.000000  1.000000 ScalE2=  1.000000  1.000000
 IRadAn=      5 IRanWt=     -1 IRanGd=            0 ICorTp=0 IEmpDi=  4
 HFx  wShort=  0.000000 wLong=  0.223500 cFull=  0.000000 cShort=  0.000000 cLong=  1.000000
 DFx  wShort=  0.000000 wLong=  0.223500 cFull=  0.000000 cShort=  0.000000 cLong=  1.000000
 NAtoms=   22 NActive=   22 NUniq=   22 SFac= 1.00D+00 NAtFMM=   60 NAOKFM=F Big=F
 Integral buffers will be    131072 words long.
 Raffenetti 2 integral format.
 Two-electron integral symmetry is turned on.
 Leave Link  301 at Sat Jul 25 01:19:49 2020, MaxMem=  4026531840 cpu:               0.7 elap:               0.1
 (Enter /opt/ohpc/pub/libs/gaussian/g16-A.03/sandybridge/g16/l302.exe)
 NPDir=0 NMtPBC=     1 NCelOv=     1 NCel=       1 NClECP=     1 NCelD=      1
         NCelK=      1 NCelE2=     1 NClLst=     1 CellRange=     0.0.
 One-electron integrals computed using PRISM.
 One-electron integral symmetry used in STVInt
 NBasis=   240 RedAO= T EigKep=  3.89D-04  NBF=   240
 NBsUse=   240 1.00D-06 EigRej= -1.00D+00 NBFU=   240
 Precomputing XC quadrature grid using
 IXCGrd= 4 IRadAn=           5 IRanWt=          -1 IRanGd=           0 AccXCQ= 0.00D+00.
 Generated NRdTot=       0 NPtTot=           0 NUsed=           0 NTot=          32
 NSgBfM=   254   254   254   254   254 MxSgAt=    22 MxSgA2=    22.
 Leave Link  302 at Sat Jul 25 01:19:49 2020, MaxMem=  4026531840 cpu:               2.4 elap:               0.4
 (Enter /opt/ohpc/pub/libs/gaussian/g16-A.03/sandybridge/g16/l303.exe)
 DipDrv:  MaxL=1.
 Leave Link  303 at Sat Jul 25 01:19:49 2020, MaxMem=  4026531840 cpu:               0.3 elap:               0.1
 (Enter /opt/ohpc/pub/libs/gaussian/g16-A.03/sandybridge/g16/l401.exe)
 ExpMin= 1.22D-01 ExpMax= 1.11D+05 ExpMxC= 1.07D+03 IAcc=3 IRadAn=         5 AccDes= 0.00D+00
 Harris functional with IExCor=32609 and IRadAn=       5 diagonalized for initial guess.
 HarFok:  IExCor=32609 AccDes= 0.00D+00 IRadAn=         5 IDoV= 1 UseB2=F ITyADJ=14
 ICtDFT=  3500011 ScaDFX=  1.000000  1.000000  1.000000  1.000000
 FoFCou: FMM=F IPFlag=           0 FMFlag=      100000 FMFlg1=           0
         NFxFlg=           0 DoJE=T BraDBF=F KetDBF=T FulRan=T
         wScrn=  0.000000 ICntrl=       500 IOpCl=  0 I1Cent=   200000004 NGrid=           0
         NMat0=    1 NMatS0=      1 NMatT0=    0 NMatD0=    1 NMtDS0=    0 NMtDT0=    0
 Petite list used in FoFCou.
 Harris En= -1013.18689155268    
 JPrj=0 DoOrth=F DoCkMO=F.
 Initial guess <Sx>= 0.0000 <Sy>= 0.0000 <Sz>= 0.0000 <S**2>= 0.0000 S= 0.0000
 Leave Link  401 at Sat Jul 25 01:19:51 2020, MaxMem=  4026531840 cpu:              11.7 elap:               1.5
 (Enter /opt/ohpc/pub/libs/gaussian/g16-A.03/sandybridge/g16/l502.exe)
 Integral symmetry usage will be decided dynamically.
 UHF open shell SCF:
 Using DIIS extrapolation, IDIIS=  1040.
 NGot=  4026531840 LenX=  4026398048 LenY=  4026333091
 Requested convergence on RMS density matrix=1.00D-08 within 128 cycles.
 Requested convergence on MAX density matrix=1.00D-06.
 Requested convergence on             energy=1.00D-06.
 No special actions if energy rises.
 Fock matrices will be formed incrementally for  20 cycles.
 Integral accuracy reduced to 1.0D-05 until final iterations.

 Cycle   1  Pass 0  IDiag  1:
 FoFJK:  IHMeth= 1 ICntrl=       0 DoSepK=T KAlg= 0 I1Cent=           0 FoldK=F
 IRaf=         1 NMat=       1 IRICut=       1 DoRegI=T DoRafI=F ISym2E= 0 IDoP0=0 IntGTp=1.
 FoFCou: FMM=F IPFlag=           0 FMFlag=      100000 FMFlg1=           0
         NFxFlg=           0 DoJE=T BraDBF=F KetDBF=F FulRan=T
         wScrn=  0.000000 ICntrl=       500 IOpCl=  0 I1Cent=           0 NGrid=           0
         NMat0=    1 NMatS0=      1 NMatT0=    0 NMatD0=    1 NMtDS0=    0 NMtDT0=    0
 Symmetry not used in FoFCou.
 E= -1012.92662437718    
 DIIS: error= 2.32D-02 at cycle   1 NSaved=   1.
 NSaved= 1 IEnMin= 1 EnMin= -1012.92662437718     IErMin= 1 ErrMin= 2.32D-02
 ErrMax= 2.32D-02  0.00D+00 EMaxC= 1.00D-01 BMatC= 1.04D+00 BMatP= 1.04D+00
 IDIUse=3 WtCom= 7.68D-01 WtEn= 2.32D-01
 Coeff-Com:  0.100D+01
 Coeff-En:   0.100D+01
 Coeff:      0.100D+01
 Gap=     0.413 Goal=   None    Shift=    0.000
 Gap=     0.413 Goal=   None    Shift=    0.000
 GapD=    0.413 DampG=2.000 DampE=0.500 DampFc=1.0000 IDamp=-1.
 RMSDP=4.63D-03 MaxDP=1.53D-01              OVMax= 2.44D-01

 Cycle   2  Pass 0  IDiag  1:
 RMSU=  4.62D-03    CP:  9.87D-01
 E= -1012.87127662706     Delta-E=        0.055347750118 Rises=F Damp=F
 DIIS: error= 2.64D-02 at cycle   2 NSaved=   2.
 NSaved= 2 IEnMin= 1 EnMin= -1012.92662437718     IErMin= 1 ErrMin= 2.32D-02
 ErrMax= 2.64D-02  0.00D+00 EMaxC= 1.00D-01 BMatC= 1.36D+00 BMatP= 1.04D+00
 IDIUse=2 WtCom= 0.00D+00 WtEn= 1.00D+00
 Coeff-En:   0.544D+00 0.456D+00
 Coeff:      0.544D+00 0.456D+00
 Gap=     0.450 Goal=   None    Shift=    0.000
 Gap=     0.450 Goal=   None    Shift=    0.000
 RMSDP=2.66D-03 MaxDP=9.68D-02 DE= 5.53D-02 OVMax= 1.67D-01

 Cycle   3  Pass 0  IDiag  1:
 RMSU=  1.26D-03    CP:  9.91D-01  4.95D-01
 E= -1013.20862795016     Delta-E=       -0.337351323102 Rises=F Damp=F
 DIIS: error= 4.52D-03 at cycle   3 NSaved=   3.
 NSaved= 3 IEnMin= 3 EnMin= -1013.20862795016     IErMin= 3 ErrMin= 4.52D-03
 ErrMax= 4.52D-03  0.00D+00 EMaxC= 1.00D-01 BMatC= 4.02D-02 BMatP= 1.04D+00
 IDIUse=3 WtCom= 9.55D-01 WtEn= 4.52D-02
 Coeff-Com:  0.213D+00 0.201D+00 0.586D+00
 Coeff-En:   0.000D+00 0.000D+00 0.100D+01
 Coeff:      0.203D+00 0.192D+00 0.605D+00
 Gap=     0.325 Goal=   None    Shift=    0.000
 Gap=     0.325 Goal=   None    Shift=    0.000
 RMSDP=4.86D-04 MaxDP=2.32D-02 DE=-3.37D-01 OVMax= 3.58D-02

 Cycle   4  Pass 0  IDiag  1:
 RMSU=  3.70D-04    CP:  9.93D-01  5.18D-01  7.67D-01
 E= -1013.21667215715     Delta-E=       -0.008044206988 Rises=F Damp=F
 DIIS: error= 2.01D-03 at cycle   4 NSaved=   4.
 NSaved= 4 IEnMin= 4 EnMin= -1013.21667215715     IErMin= 4 ErrMin= 2.01D-03
 ErrMax= 2.01D-03  0.00D+00 EMaxC= 1.00D-01 BMatC= 6.78D-03 BMatP= 4.02D-02
 IDIUse=3 WtCom= 9.80D-01 WtEn= 2.01D-02
 Coeff-Com:  0.231D-01 0.155D-01 0.286D+00 0.676D+00
 Coeff-En:   0.000D+00 0.000D+00 0.943D-01 0.906D+00
 Coeff:      0.226D-01 0.152D-01 0.282D+00 0.680D+00
 Gap=     0.323 Goal=   None    Shift=    0.000
 Gap=     0.323 Goal=   None    Shift=    0.000
 RMSDP=1.72D-04 MaxDP=7.40D-03 DE=-8.04D-03 OVMax= 8.85D-03

 Cycle   5  Pass 0  IDiag  1:
 RMSU=  1.22D-04    CP:  9.92D-01  5.11D-01  8.25D-01  7.60D-01
 E= -1013.21814798822     Delta-E=       -0.001475831067 Rises=F Damp=F
 DIIS: error= 5.24D-04 at cycle   5 NSaved=   5.
 NSaved= 5 IEnMin= 5 EnMin= -1013.21814798822     IErMin= 5 ErrMin= 5.24D-04
 ErrMax= 5.24D-04  0.00D+00 EMaxC= 1.00D-01 BMatC= 4.80D-04 BMatP= 6.78D-03
 IDIUse=3 WtCom= 9.95D-01 WtEn= 5.24D-03
 Coeff-Com: -0.512D-02-0.110D-01 0.788D-01 0.299D+00 0.639D+00
 Coeff-En:   0.000D+00 0.000D+00 0.000D+00 0.000D+00 0.100D+01
 Coeff:     -0.509D-02-0.110D-01 0.784D-01 0.297D+00 0.640D+00
 Gap=     0.324 Goal=   None    Shift=    0.000
 Gap=     0.324 Goal=   None    Shift=    0.000
 RMSDP=5.72D-05 MaxDP=1.57D-03 DE=-1.48D-03 OVMax= 2.13D-03

 Cycle   6  Pass 0  IDiag  1:
 RMSU=  4.00D-05    CP:  9.92D-01  5.09D-01  8.48D-01  8.20D-01  8.66D-01
 E= -1013.21826210632     Delta-E=       -0.000114118098 Rises=F Damp=F
 DIIS: error= 1.11D-04 at cycle   6 NSaved=   6.
 NSaved= 6 IEnMin= 6 EnMin= -1013.21826210632     IErMin= 6 ErrMin= 1.11D-04
 ErrMax= 1.11D-04  0.00D+00 EMaxC= 1.00D-01 BMatC= 3.02D-05 BMatP= 4.80D-04
 IDIUse=3 WtCom= 9.99D-01 WtEn= 1.11D-03
 Coeff-Com: -0.439D-02-0.715D-02-0.941D-04 0.409D-01 0.201D+00 0.770D+00
 Coeff-En:   0.000D+00 0.000D+00 0.000D+00 0.000D+00 0.000D+00 0.100D+01
 Coeff:     -0.439D-02-0.715D-02-0.939D-04 0.409D-01 0.201D+00 0.770D+00
 Gap=     0.324 Goal=   None    Shift=    0.000
 Gap=     0.324 Goal=   None    Shift=    0.000
 RMSDP=2.06D-05 MaxDP=7.72D-04 DE=-1.14D-04 OVMax= 1.51D-03

 Cycle   7  Pass 0  IDiag  1:
 RMSU=  1.44D-05    CP:  9.92D-01  5.08D-01  8.54D-01  8.28D-01  9.61D-01
                    CP:  1.04D+00
 E= -1013.21827440669     Delta-E=       -0.000012300378 Rises=F Damp=F
 DIIS: error= 8.95D-05 at cycle   7 NSaved=   7.
 NSaved= 7 IEnMin= 7 EnMin= -1013.21827440669     IErMin= 7 ErrMin= 8.95D-05
 ErrMax= 8.95D-05  0.00D+00 EMaxC= 1.00D-01 BMatC= 6.48D-06 BMatP= 3.02D-05
 IDIUse=1 WtCom= 1.00D+00 WtEn= 0.00D+00
 Coeff-Com: -0.149D-02-0.226D-02-0.838D-02-0.159D-01-0.415D-02 0.313D+00
 Coeff-Com:  0.719D+00
 Coeff:     -0.149D-02-0.226D-02-0.838D-02-0.159D-01-0.415D-02 0.313D+00
 Coeff:      0.719D+00
 Gap=     0.324 Goal=   None    Shift=    0.000
 Gap=     0.324 Goal=   None    Shift=    0.000
 RMSDP=1.09D-05 MaxDP=2.56D-04 DE=-1.23D-05 OVMax= 8.88D-04

 Cycle   8  Pass 0  IDiag  1:
 RMSU=  7.05D-06    CP:  9.92D-01  5.07D-01  8.56D-01  8.38D-01  9.84D-01
                    CP:  1.19D+00  9.57D-01
 E= -1013.21827700344     Delta-E=       -0.000002596747 Rises=F Damp=F
 DIIS: error= 3.14D-05 at cycle   8 NSaved=   8.
 NSaved= 8 IEnMin= 8 EnMin= -1013.21827700344     IErMin= 8 ErrMin= 3.14D-05
 ErrMax= 3.14D-05  0.00D+00 EMaxC= 1.00D-01 BMatC= 1.55D-06 BMatP= 6.48D-06
 IDIUse=1 WtCom= 1.00D+00 WtEn= 0.00D+00
 Coeff-Com:  0.311D-03 0.544D-03-0.389D-02-0.183D-01-0.606D-01-0.580D-01
 Coeff-Com:  0.364D+00 0.776D+00
 Coeff:      0.311D-03 0.544D-03-0.389D-02-0.183D-01-0.606D-01-0.580D-01
 Coeff:      0.364D+00 0.776D+00
 Gap=     0.324 Goal=   None    Shift=    0.000
 Gap=     0.324 Goal=   None    Shift=    0.000
 RMSDP=5.80D-06 MaxDP=2.09D-04 DE=-2.60D-06 OVMax= 5.24D-04

 Initial convergence to 1.0D-05 achieved.  Increase integral accuracy.
 Cycle   9  Pass 1  IDiag  1:
 E= -1013.21813497406     Delta-E=        0.000142029378 Rises=F Damp=F
 DIIS: error= 5.79D-05 at cycle   1 NSaved=   1.
 NSaved= 1 IEnMin= 1 EnMin= -1013.21813497406     IErMin= 1 ErrMin= 5.79D-05
 ErrMax= 5.79D-05  0.00D+00 EMaxC= 1.00D-01 BMatC= 1.58D-06 BMatP= 1.58D-06
 IDIUse=1 WtCom= 1.00D+00 WtEn= 0.00D+00
 Coeff-Com:  0.100D+01
 Coeff:      0.100D+01
 Gap=     0.324 Goal=   None    Shift=    0.000
 Gap=     0.324 Goal=   None    Shift=    0.000
 RMSDP=5.80D-06 MaxDP=2.09D-04 DE= 1.42D-04 OVMax= 1.08D-04

 Cycle  10  Pass 1  IDiag  1:
 RMSU=  3.79D-05    CP:  1.00D+00
 E= -1013.21813530159     Delta-E=       -0.000000327524 Rises=F Damp=F
 DIIS: error= 9.55D-06 at cycle   2 NSaved=   2.
 NSaved= 2 IEnMin= 2 EnMin= -1013.21813530159     IErMin= 2 ErrMin= 9.55D-06
 ErrMax= 9.55D-06  0.00D+00 EMaxC= 1.00D-01 BMatC= 1.83D-07 BMatP= 1.58D-06
 IDIUse=1 WtCom= 1.00D+00 WtEn= 0.00D+00
 Coeff-Com:  0.133D+00 0.867D+00
 Coeff:      0.133D+00 0.867D+00
 Gap=     0.324 Goal=   None    Shift=    0.000
 Gap=     0.324 Goal=   None    Shift=    0.000
 RMSDP=2.54D-06 MaxDP=5.81D-05 DE=-3.28D-07 OVMax= 1.20D-04

 Cycle  11  Pass 1  IDiag  1:
 RMSU=  1.89D-06    CP:  1.00D+00  1.04D+00
 E= -1013.21813529099     Delta-E=        0.000000010601 Rises=F Damp=F
 DIIS: error= 1.41D-05 at cycle   3 NSaved=   3.
 NSaved= 3 IEnMin= 2 EnMin= -1013.21813530159     IErMin= 2 ErrMin= 9.55D-06
 ErrMax= 1.41D-05  0.00D+00 EMaxC= 1.00D-01 BMatC= 2.33D-07 BMatP= 1.83D-07
 IDIUse=1 WtCom= 1.00D+00 WtEn= 0.00D+00
 Coeff-Com: -0.216D-01 0.537D+00 0.485D+00
 Coeff:     -0.216D-01 0.537D+00 0.485D+00
 Gap=     0.324 Goal=   None    Shift=    0.000
 Gap=     0.324 Goal=   None    Shift=    0.000
 RMSDP=1.06D-06 MaxDP=3.40D-05 DE= 1.06D-08 OVMax= 5.75D-05

 Cycle  12  Pass 1  IDiag  1:
 RMSU=  5.26D-07    CP:  1.00D+00  1.06D+00  5.58D-01
 E= -1013.21813535048     Delta-E=       -0.000000059493 Rises=F Damp=F
 DIIS: error= 1.02D-06 at cycle   4 NSaved=   4.
 NSaved= 4 IEnMin= 4 EnMin= -1013.21813535048     IErMin= 4 ErrMin= 1.02D-06
 ErrMax= 1.02D-06  0.00D+00 EMaxC= 1.00D-01 BMatC= 2.88D-09 BMatP= 1.83D-07
 IDIUse=1 WtCom= 1.00D+00 WtEn= 0.00D+00
 Coeff-Com: -0.127D-01 0.209D+00 0.198D+00 0.606D+00
 Coeff:     -0.127D-01 0.209D+00 0.198D+00 0.606D+00
 Gap=     0.324 Goal=   None    Shift=    0.000
 Gap=     0.324 Goal=   None    Shift=    0.000
 RMSDP=1.70D-07 MaxDP=5.43D-06 DE=-5.95D-08 OVMax= 1.07D-05

 Cycle  13  Pass 1  IDiag  1:
 RMSU=  1.59D-07    CP:  1.00D+00  1.06D+00  5.81D-01  1.02D+00
 E= -1013.21813535152     Delta-E=       -0.000000001040 Rises=F Damp=F
 DIIS: error= 1.03D-06 at cycle   5 NSaved=   5.
 NSaved= 5 IEnMin= 5 EnMin= -1013.21813535152     IErMin= 4 ErrMin= 1.02D-06
 ErrMax= 1.03D-06  0.00D+00 EMaxC= 1.00D-01 BMatC= 5.21D-10 BMatP= 2.88D-09
 IDIUse=1 WtCom= 1.00D+00 WtEn= 0.00D+00
 Coeff-Com:  0.274D-02-0.924D-01-0.937D-01 0.142D+00 0.104D+01
 Coeff:      0.274D-02-0.924D-01-0.937D-01 0.142D+00 0.104D+01
 Gap=     0.324 Goal=   None    Shift=    0.000
 Gap=     0.324 Goal=   None    Shift=    0.000
 RMSDP=1.47D-07 MaxDP=5.04D-06 DE=-1.04D-09 OVMax= 1.39D-05

 Cycle  14  Pass 1  IDiag  1:
 RMSU=  8.38D-08    CP:  1.00D+00  1.06D+00  5.94D-01  1.23D+00  1.20D+00
 E= -1013.21813535200     Delta-E=       -0.000000000478 Rises=F Damp=F
 DIIS: error= 3.09D-07 at cycle   6 NSaved=   6.
 NSaved= 6 IEnMin= 6 EnMin= -1013.21813535200     IErMin= 6 ErrMin= 3.09D-07
 ErrMax= 3.09D-07  0.00D+00 EMaxC= 1.00D-01 BMatC= 1.43D-10 BMatP= 5.21D-10
 IDIUse=1 WtCom= 1.00D+00 WtEn= 0.00D+00
 Coeff-Com:  0.375D-02-0.849D-01-0.863D-01-0.390D-01 0.518D+00 0.689D+00
 Coeff:      0.375D-02-0.849D-01-0.863D-01-0.390D-01 0.518D+00 0.689D+00
 Gap=     0.324 Goal=   None    Shift=    0.000
 Gap=     0.324 Goal=   None    Shift=    0.000
 RMSDP=5.41D-08 MaxDP=1.35D-06 DE=-4.78D-10 OVMax= 4.03D-06

 Cycle  15  Pass 1  IDiag  1:
 RMSU=  3.12D-08    CP:  1.00D+00  1.06D+00  5.94D-01  1.28D+00  1.41D+00
                    CP:  1.13D+00
 E= -1013.21813535208     Delta-E=       -0.000000000086 Rises=F Damp=F
 DIIS: error= 7.07D-08 at cycle   7 NSaved=   7.
 NSaved= 7 IEnMin= 7 EnMin= -1013.21813535208     IErMin= 7 ErrMin= 7.07D-08
 ErrMax= 7.07D-08  0.00D+00 EMaxC= 1.00D-01 BMatC= 1.21D-11 BMatP= 1.43D-10
 IDIUse=1 WtCom= 1.00D+00 WtEn= 0.00D+00
 Coeff-Com:  0.113D-02-0.225D-01-0.237D-01-0.285D-01 0.865D-01 0.271D+00
 Coeff-Com:  0.716D+00
 Coeff:      0.113D-02-0.225D-01-0.237D-01-0.285D-01 0.865D-01 0.271D+00
 Coeff:      0.716D+00
 Gap=     0.324 Goal=   None    Shift=    0.000
 Gap=     0.324 Goal=   None    Shift=    0.000
 RMSDP=1.41D-08 MaxDP=4.13D-07 DE=-8.64D-11 OVMax= 1.35D-06

 Cycle  16  Pass 1  IDiag  1:
 RMSU=  9.20D-09    CP:  1.00D+00  1.06D+00  5.94D-01  1.29D+00  1.42D+00
                    CP:  1.23D+00  1.03D+00
 E= -1013.21813535207     Delta-E=        0.000000000018 Rises=F Damp=F
 DIIS: error= 3.51D-08 at cycle   8 NSaved=   8.
 NSaved= 8 IEnMin= 7 EnMin= -1013.21813535208     IErMin= 8 ErrMin= 3.51D-08
 ErrMax= 3.51D-08  0.00D+00 EMaxC= 1.00D-01 BMatC= 2.43D-12 BMatP= 1.21D-11
 IDIUse=1 WtCom= 1.00D+00 WtEn= 0.00D+00
 Coeff-Com: -0.108D-03 0.395D-02 0.348D-02-0.649D-02-0.497D-01 0.721D-02
 Coeff-Com:  0.350D+00 0.692D+00
 Coeff:     -0.108D-03 0.395D-02 0.348D-02-0.649D-02-0.497D-01 0.721D-02
 Coeff:      0.350D+00 0.692D+00
 Gap=     0.324 Goal=   None    Shift=    0.000
 Gap=     0.324 Goal=   None    Shift=    0.000
 RMSDP=6.13D-09 MaxDP=1.41D-07 DE= 1.80D-11 OVMax= 4.29D-07

 SCF Done:  E(ULC-wPBE) =  -1013.21813535     A.U. after   16 cycles
            NFock= 16  Conv=0.61D-08     -V/T= 2.0042
 <Sx>= 0.0000 <Sy>= 0.0000 <Sz>= 0.0000 <S**2>=-0.0000 S=-0.0000
 <L.S>= 0.000000000000E+00
 KE= 1.008980752644D+03 PE=-4.318646046453D+03 EE= 1.329244213660D+03
 Annihilation of the first spin contaminant:
 S**2 before annihilation    -0.0000,   after     0.0000
 Leave Link  502 at Sat Jul 25 01:21:01 2020, MaxMem=  4026531840 cpu:             561.0 elap:              70.5
 (Enter /opt/ohpc/pub/libs/gaussian/g16-A.03/sandybridge/g16/l601.exe)
 Copying SCF densities to generalized density rwf, IOpCl= 1 IROHF=0.

 **********************************************************************

            Population analysis using the SCF density.

 **********************************************************************

 Orbital symmetries:
 Alpha Orbitals:
       Occupied  (A) (A) (A) (A) (A) (A) (A) (A) (A) (A) (A) (A)
                 (A) (A) (A) (A) (A) (A) (A) (A) (A) (A) (A) (A)
                 (A) (A) (A) (A) (A) (A) (A) (A) (A) (A) (A) (A)
                 (A) (A) (A) (A) (A) (A) (A) (A) (A) (A) (A) (A)
                 (A) (A) (A) (A) (A) (A)
       Virtual   (A) (A) (A) (A) (A) (A) (A) (A) (A) (A) (A) (A)
                 (A) (A) (A) (A) (A) (A) (A) (A) (A) (A) (A) (A)
                 (A) (A) (A) (A) (A) (A) (A) (A) (A) (A) (A) (A)
                 (A) (A) (A) (A) (A) (A) (A) (A) (A) (A) (A) (A)
                 (A) (A) (A) (A) (A) (A) (A) (A) (A) (A) (A) (A)
                 (A) (A) (A) (A) (A) (A) (A) (A) (A) (A) (A) (A)
                 (A) (A) (A) (A) (A) (A) (A) (A) (A) (A) (A) (A)
                 (A) (A) (A) (A) (A) (A) (A) (A) (A) (A) (A) (A)
                 (A) (A) (A) (A) (A) (A) (A) (A) (A) (A) (A) (A)
                 (A) (A) (A) (A) (A) (A) (A) (A) (A) (A) (A) (A)
                 (A) (A) (A) (A) (A) (A) (A) (A) (A) (A) (A) (A)
                 (A) (A) (A) (A) (A) (A) (A) (A) (A) (A) (A) (A)
                 (A) (A) (A) (A) (A) (A) (A) (A) (A) (A) (A) (A)
                 (A) (A) (A) (A) (A) (A) (A) (A) (A) (A) (A) (A)
                 (A) (A) (A) (A) (A) (A) (A) (A) (A) (A) (A) (A)
                 (A) (A) (A) (A) (A) (A)
 Beta  Orbitals:
       Occupied  (A) (A) (A) (A) (A) (A) (A) (A) (A) (A) (A) (A)
                 (A) (A) (A) (A) (A) (A) (A) (A) (A) (A) (A) (A)
                 (A) (A) (A) (A) (A) (A) (A) (A) (A) (A) (A) (A)
                 (A) (A) (A) (A) (A) (A) (A) (A) (A) (A) (A) (A)
                 (A) (A) (A) (A) (A) (A)
       Virtual   (A) (A) (A) (A) (A) (A) (A) (A) (A) (A) (A) (A)
                 (A) (A) (A) (A) (A) (A) (A) (A) (A) (A) (A) (A)
                 (A) (A) (A) (A) (A) (A) (A) (A) (A) (A) (A) (A)
                 (A) (A) (A) (A) (A) (A) (A) (A) (A) (A) (A) (A)
                 (A) (A) (A) (A) (A) (A) (A) (A) (A) (A) (A) (A)
                 (A) (A) (A) (A) (A) (A) (A) (A) (A) (A) (A) (A)
                 (A) (A) (A) (A) (A) (A) (A) (A) (A) (A) (A) (A)
                 (A) (A) (A) (A) (A) (A) (A) (A) (A) (A) (A) (A)
                 (A) (A) (A) (A) (A) (A) (A) (A) (A) (A) (A) (A)
                 (A) (A) (A) (A) (A) (A) (A) (A) (A) (A) (A) (A)
                 (A) (A) (A) (A) (A) (A) (A) (A) (A) (A) (A) (A)
                 (A) (A) (A) (A) (A) (A) (A) (A) (A) (A) (A) (A)
                 (A) (A) (A) (A) (A) (A) (A) (A) (A) (A) (A) (A)
                 (A) (A) (A) (A) (A) (A) (A) (A) (A) (A) (A) (A)
                 (A) (A) (A) (A) (A) (A) (A) (A) (A) (A) (A) (A)
                 (A) (A) (A) (A) (A) (A)
 The electronic state is 1-A.
 Alpha  occ. eigenvalues --  -88.22922 -24.42015 -18.91947 -14.12044 -10.11906
 Alpha  occ. eigenvalues --  -10.10022 -10.08761 -10.07032 -10.05264 -10.04498
 Alpha  occ. eigenvalues --  -10.04399 -10.04093 -10.03313 -10.03156  -7.83437
 Alpha  occ. eigenvalues --   -5.85337  -5.84912  -5.84637  -1.26006  -1.11019
 Alpha  occ. eigenvalues --   -1.02071  -0.92863  -0.86387  -0.85176  -0.81916
 Alpha  occ. eigenvalues --   -0.78610  -0.75694  -0.70786  -0.67242  -0.65339
 Alpha  occ. eigenvalues --   -0.63601  -0.61220  -0.58185  -0.58020  -0.56500
 Alpha  occ. eigenvalues --   -0.54390  -0.54052  -0.53085  -0.51114  -0.50036
 Alpha  occ. eigenvalues --   -0.49457  -0.48295  -0.46344  -0.44976  -0.44596
 Alpha  occ. eigenvalues --   -0.42207  -0.41962  -0.39578  -0.37776  -0.35599
 Alpha  occ. eigenvalues --   -0.34211  -0.33059  -0.30888  -0.30357
 Alpha virt. eigenvalues --    0.02041   0.04315   0.06332   0.09993   0.11988
 Alpha virt. eigenvalues --    0.12320   0.14549   0.16298   0.17090   0.17867
 Alpha virt. eigenvalues --    0.18488   0.19892   0.20561   0.20935   0.22305
 Alpha virt. eigenvalues --    0.22479   0.23628   0.28508   0.31030   0.32693
 Alpha virt. eigenvalues --    0.33720   0.36368   0.38909   0.40207   0.41798
 Alpha virt. eigenvalues --    0.43024   0.47757   0.49230   0.50434   0.50788
 Alpha virt. eigenvalues --    0.51333   0.51821   0.52127   0.52571   0.53296
 Alpha virt. eigenvalues --    0.53841   0.54697   0.54947   0.56275   0.56936
 Alpha virt. eigenvalues --    0.57743   0.58212   0.58568   0.59515   0.60842
 Alpha virt. eigenvalues --    0.61004   0.62454   0.63234   0.65005   0.66390
 Alpha virt. eigenvalues --    0.66617   0.67262   0.68138   0.68364   0.70179
 Alpha virt. eigenvalues --    0.71081   0.71913   0.73771   0.74005   0.75796
 Alpha virt. eigenvalues --    0.77223   0.78084   0.79828   0.80928   0.81849
 Alpha virt. eigenvalues --    0.83904   0.84381   0.89147   0.89828   0.90311
 Alpha virt. eigenvalues --    0.94098   0.94390   0.95792   0.96291   0.97397
 Alpha virt. eigenvalues --    0.98596   1.00435   1.01601   1.02105   1.05239
 Alpha virt. eigenvalues --    1.05911   1.06989   1.07849   1.08315   1.10211
 Alpha virt. eigenvalues --    1.12000   1.12545   1.14084   1.15634   1.16028
 Alpha virt. eigenvalues --    1.18103   1.21556   1.23793   1.26548   1.28013
 Alpha virt. eigenvalues --    1.30501   1.32331   1.32929   1.34877   1.36284
 Alpha virt. eigenvalues --    1.37209   1.40291   1.41483   1.44055   1.45644
 Alpha virt. eigenvalues --    1.47365   1.49874   1.50271   1.53717   1.54125
 Alpha virt. eigenvalues --    1.54883   1.57165   1.58064   1.60120   1.62260
 Alpha virt. eigenvalues --    1.63364   1.65680   1.66070   1.67366   1.68095
 Alpha virt. eigenvalues --    1.68848   1.70216   1.71337   1.71836   1.72997
 Alpha virt. eigenvalues --    1.74102   1.75229   1.77383   1.78168   1.79079
 Alpha virt. eigenvalues --    1.80297   1.82766   1.84367   1.85835   1.87353
 Alpha virt. eigenvalues --    1.89957   1.91028   1.91970   1.94576   1.97482
 Alpha virt. eigenvalues --    1.99407   2.01032   2.02346   2.03414   2.06207
 Alpha virt. eigenvalues --    2.06545   2.09563   2.11013   2.12093   2.17350
 Alpha virt. eigenvalues --    2.19088   2.21361   2.24008   2.26483   2.27954
 Alpha virt. eigenvalues --    2.30657   2.35708   2.37902   2.40844   2.43699
 Alpha virt. eigenvalues --    2.44553   2.46028   2.48687   2.49767   2.53085
 Alpha virt. eigenvalues --    2.55006   2.63207   2.63934   2.65420   2.71372
 Alpha virt. eigenvalues --    2.76350   2.80273   2.81382   2.87245   2.91699
 Alpha virt. eigenvalues --    3.06553   3.10891   3.16088   3.24364   3.41091
 Alpha virt. eigenvalues --    3.54091   3.58693   3.63340   3.78830   3.99507
 Alpha virt. eigenvalues --    4.21870
  Beta  occ. eigenvalues --  -88.22922 -24.42015 -18.91947 -14.12044 -10.11906
  Beta  occ. eigenvalues --  -10.10022 -10.08761 -10.07032 -10.05264 -10.04498
  Beta  occ. eigenvalues --  -10.04399 -10.04093 -10.03313 -10.03156  -7.83437
  Beta  occ. eigenvalues --   -5.85337  -5.84912  -5.84637  -1.26006  -1.11019
  Beta  occ. eigenvalues --   -1.02071  -0.92863  -0.86387  -0.85176  -0.81916
  Beta  occ. eigenvalues --   -0.78610  -0.75694  -0.70786  -0.67242  -0.65339
  Beta  occ. eigenvalues --   -0.63601  -0.61220  -0.58185  -0.58020  -0.56500
  Beta  occ. eigenvalues --   -0.54390  -0.54052  -0.53085  -0.51114  -0.50036
  Beta  occ. eigenvalues --   -0.49457  -0.48295  -0.46344  -0.44976  -0.44596
  Beta  occ. eigenvalues --   -0.42207  -0.41962  -0.39578  -0.37776  -0.35599
  Beta  occ. eigenvalues --   -0.34211  -0.33059  -0.30888  -0.30357
  Beta virt. eigenvalues --    0.02041   0.04315   0.06332   0.09993   0.11988
  Beta virt. eigenvalues --    0.12320   0.14549   0.16298   0.17090   0.17867
  Beta virt. eigenvalues --    0.18488   0.19892   0.20561   0.20935   0.22305
  Beta virt. eigenvalues --    0.22479   0.23628   0.28508   0.31030   0.32693
  Beta virt. eigenvalues --    0.33720   0.36368   0.38909   0.40207   0.41798
  Beta virt. eigenvalues --    0.43024   0.47757   0.49230   0.50434   0.50788
  Beta virt. eigenvalues --    0.51333   0.51821   0.52127   0.52571   0.53296
  Beta virt. eigenvalues --    0.53841   0.54697   0.54947   0.56275   0.56936
  Beta virt. eigenvalues --    0.57743   0.58212   0.58568   0.59515   0.60842
  Beta virt. eigenvalues --    0.61004   0.62454   0.63234   0.65005   0.66390
  Beta virt. eigenvalues --    0.66617   0.67262   0.68138   0.68364   0.70179
  Beta virt. eigenvalues --    0.71081   0.71913   0.73771   0.74005   0.75796
  Beta virt. eigenvalues --    0.77223   0.78084   0.79828   0.80928   0.81849
  Beta virt. eigenvalues --    0.83904   0.84381   0.89147   0.89828   0.90311
  Beta virt. eigenvalues --    0.94098   0.94390   0.95792   0.96291   0.97397
  Beta virt. eigenvalues --    0.98596   1.00435   1.01601   1.02105   1.05239
  Beta virt. eigenvalues --    1.05911   1.06989   1.07849   1.08315   1.10211
  Beta virt. eigenvalues --    1.12000   1.12545   1.14084   1.15634   1.16028
  Beta virt. eigenvalues --    1.18103   1.21556   1.23793   1.26548   1.28013
  Beta virt. eigenvalues --    1.30501   1.32331   1.32929   1.34877   1.36284
  Beta virt. eigenvalues --    1.37209   1.40291   1.41483   1.44055   1.45644
  Beta virt. eigenvalues --    1.47365   1.49874   1.50271   1.53717   1.54125
  Beta virt. eigenvalues --    1.54883   1.57165   1.58064   1.60120   1.62260
  Beta virt. eigenvalues --    1.63364   1.65680   1.66070   1.67366   1.68095
  Beta virt. eigenvalues --    1.68848   1.70216   1.71337   1.71836   1.72997
  Beta virt. eigenvalues --    1.74102   1.75229   1.77383   1.78168   1.79079
  Beta virt. eigenvalues --    1.80297   1.82766   1.84367   1.85835   1.87353
  Beta virt. eigenvalues --    1.89957   1.91028   1.91970   1.94576   1.97482
  Beta virt. eigenvalues --    1.99407   2.01032   2.02346   2.03414   2.06207
  Beta virt. eigenvalues --    2.06545   2.09563   2.11013   2.12093   2.17350
  Beta virt. eigenvalues --    2.19088   2.21361   2.24008   2.26483   2.27954
  Beta virt. eigenvalues --    2.30657   2.35708   2.37902   2.40844   2.43699
  Beta virt. eigenvalues --    2.44553   2.46028   2.48687   2.49767   2.53085
  Beta virt. eigenvalues --    2.55006   2.63207   2.63934   2.65420   2.71372
  Beta virt. eigenvalues --    2.76350   2.80273   2.81382   2.87245   2.91699
  Beta virt. eigenvalues --    3.06553   3.10891   3.16088   3.24364   3.41091
  Beta virt. eigenvalues --    3.54091   3.58693   3.63340   3.78830   3.99507
  Beta virt. eigenvalues --    4.21870
          Condensed to atoms (all electrons):
               1          2          3          4          5          6
     1  C    4.716601   0.449282   0.050418   0.004346  -0.074711   0.039747
     2  C    0.449282   5.005308   0.357259  -0.057728  -0.020961  -0.107943
     3  C    0.050418   0.357259   4.874909   0.471786   0.274764   0.061191
     4  F    0.004346  -0.057728   0.471786   8.750749  -0.084642   0.004650
     5  C   -0.074711  -0.020961   0.274764  -0.084642   5.640012   0.350308
     6  C    0.039747  -0.107943   0.061191   0.004650   0.350308   4.983040
     7  O    0.004113  -0.000218   0.001492  -0.000001  -0.072514   0.445039
     8  C    0.000719  -0.000026   0.000161   0.000000   0.007487  -0.076370
     9  C    0.421032   0.026118  -0.105074  -0.000318  -0.011774   0.326252
    10  C   -0.001453   0.014999  -0.097223   0.008718   0.154367  -0.093508
    11  N    0.000008   0.000270   0.002243  -0.001599  -0.036518   0.000005
    12  C   -0.000003   0.000059   0.001133   0.000131  -0.000122   0.000108
    13  C    0.000000  -0.000001  -0.000081  -0.000051   0.005132  -0.000019
    14  S   -0.000052   0.000045   0.001874  -0.000004  -0.062757  -0.009109
    15  H    0.402020  -0.049128   0.010628  -0.000022  -0.001236   0.010620
    16  H   -0.051844   0.370395  -0.040525   0.000909   0.014283  -0.000869
    17  H   -0.000007  -0.000002   0.000025  -0.000000  -0.000005   0.004660
    18  H   -0.000001  -0.000023  -0.000087   0.000000   0.000708  -0.007412
    19  H    0.000085   0.000035  -0.000122   0.000000  -0.001137  -0.017731
    20  H   -0.038777   0.011267  -0.000186  -0.000000   0.007741  -0.051259
    21  H    0.000000  -0.000001  -0.000031   0.000006  -0.000971   0.000016
    22  H    0.000000  -0.000000  -0.000008  -0.000001  -0.000231  -0.000002
               7          8          9         10         11         12
     1  C    0.004113   0.000719   0.421032  -0.001453   0.000008  -0.000003
     2  C   -0.000218  -0.000026   0.026118   0.014999   0.000270   0.000059
     3  C    0.001492   0.000161  -0.105074  -0.097223   0.002243   0.001133
     4  F   -0.000001   0.000000  -0.000318   0.008718  -0.001599   0.000131
     5  C   -0.072514   0.007487  -0.011774   0.154367  -0.036518  -0.000122
     6  C    0.445039  -0.076370   0.326252  -0.093508   0.000005   0.000108
     7  O    7.643660   0.385336  -0.073711   0.010932  -0.000509   0.000113
     8  C    0.385336   4.428166  -0.000496  -0.000658   0.000004  -0.000007
     9  C   -0.073711  -0.000496   5.063521   0.016913  -0.000035   0.000028
    10  C    0.010932  -0.000658   0.016913   5.302725   0.586597  -0.137755
    11  N   -0.000509   0.000004  -0.000035   0.586597   6.193530   0.555182
    12  C    0.000113  -0.000007   0.000028  -0.137755   0.555182   4.621716
    13  C   -0.000033   0.000001  -0.000001  -0.087869  -0.050669   0.554796
    14  S    0.001813   0.000062  -0.000273   0.343692  -0.093265  -0.093128
    15  H   -0.000051  -0.000004  -0.044055   0.000021  -0.000000  -0.000000
    16  H    0.000004  -0.000001   0.011426  -0.000398   0.000004  -0.000000
    17  H   -0.021917   0.393866  -0.000689  -0.000171   0.000004  -0.000004
    18  H   -0.030481   0.391582   0.009114   0.000152   0.000001   0.000002
    19  H   -0.040713   0.381942   0.014982   0.000234  -0.000003   0.000001
    20  H   -0.010690   0.008835   0.388804  -0.000256   0.000001   0.000000
    21  H    0.000002  -0.000000   0.000000   0.003135  -0.024896   0.400052
    22  H   -0.000001  -0.000000  -0.000000   0.003193   0.005576  -0.019161
              13         14         15         16         17         18
     1  C    0.000000  -0.000052   0.402020  -0.051844  -0.000007  -0.000001
     2  C   -0.000001   0.000045  -0.049128   0.370395  -0.000002  -0.000023
     3  C   -0.000081   0.001874   0.010628  -0.040525   0.000025  -0.000087
     4  F   -0.000051  -0.000004  -0.000022   0.000909  -0.000000   0.000000
     5  C    0.005132  -0.062757  -0.001236   0.014283  -0.000005   0.000708
     6  C   -0.000019  -0.009109   0.010620  -0.000869   0.004660  -0.007412
     7  O   -0.000033   0.001813  -0.000051   0.000004  -0.021917  -0.030481
     8  C    0.000001   0.000062  -0.000004  -0.000001   0.393866   0.391582
     9  C   -0.000001  -0.000273  -0.044055   0.011426  -0.000689   0.009114
    10  C   -0.087869   0.343692   0.000021  -0.000398  -0.000171   0.000152
    11  N   -0.050669  -0.093265  -0.000000   0.000004   0.000004   0.000001
    12  C    0.554796  -0.093128  -0.000000  -0.000000  -0.000004   0.000002
    13  C    4.996816   0.371423  -0.000000   0.000000  -0.000002   0.000001
    14  S    0.371423  15.399229  -0.000000   0.000007   0.000056   0.000010
    15  H   -0.000000  -0.000000   0.727806  -0.017984  -0.000000   0.000024
    16  H    0.000000   0.000007  -0.017984   0.707753  -0.000000  -0.000000
    17  H   -0.000002   0.000056  -0.000000  -0.000000   0.634935  -0.030490
    18  H    0.000001   0.000010   0.000024  -0.000000  -0.030490   0.701298
    19  H   -0.000001  -0.000008   0.000001   0.000001  -0.028953  -0.054293
    20  H   -0.000000   0.000003  -0.014268  -0.000282  -0.000715   0.002873
    21  H   -0.059485   0.008234   0.000000  -0.000000  -0.000000  -0.000000
    22  H    0.399277  -0.040068   0.000000  -0.000000   0.000000   0.000000
              19         20         21         22
     1  C    0.000085  -0.038777   0.000000   0.000000
     2  C    0.000035   0.011267  -0.000001  -0.000000
     3  C   -0.000122  -0.000186  -0.000031  -0.000008
     4  F    0.000000  -0.000000   0.000006  -0.000001
     5  C   -0.001137   0.007741  -0.000971  -0.000231
     6  C   -0.017731  -0.051259   0.000016  -0.000002
     7  O   -0.040713  -0.010690   0.000002  -0.000001
     8  C    0.381942   0.008835  -0.000000  -0.000000
     9  C    0.014982   0.388804   0.000000  -0.000000
    10  C    0.000234  -0.000256   0.003135   0.003193
    11  N   -0.000003   0.000001  -0.024896   0.005576
    12  C    0.000001   0.000000   0.400052  -0.019161
    13  C   -0.000001  -0.000000  -0.059485   0.399277
    14  S   -0.000008   0.000003   0.008234  -0.040068
    15  H    0.000001  -0.014268   0.000000   0.000000
    16  H    0.000001  -0.000282  -0.000000  -0.000000
    17  H   -0.028953  -0.000715  -0.000000   0.000000
    18  H   -0.054293   0.002873  -0.000000   0.000000
    19  H    0.721466   0.004580   0.000000  -0.000000
    20  H    0.004580   0.706637   0.000000  -0.000000
    21  H    0.000000   0.000000   0.686302  -0.005666
    22  H   -0.000000  -0.000000  -0.005666   0.667774
          Atomic-Atomic Spin Densities.
               1          2          3          4          5          6
     1  C    0.000000  -0.000000   0.000000   0.000000  -0.000000   0.000000
     2  C   -0.000000   0.000000  -0.000000  -0.000000   0.000000  -0.000000
     3  C    0.000000  -0.000000   0.000000   0.000000  -0.000000   0.000000
     4  F    0.000000  -0.000000   0.000000  -0.000000  -0.000000   0.000000
     5  C   -0.000000   0.000000  -0.000000  -0.000000  -0.000000  -0.000000
     6  C    0.000000  -0.000000   0.000000   0.000000  -0.000000   0.000000
     7  O    0.000000  -0.000000   0.000000   0.000000  -0.000000   0.000000
     8  C    0.000000   0.000000   0.000000   0.000000  -0.000000   0.000000
     9  C   -0.000000   0.000000  -0.000000  -0.000000   0.000000  -0.000000
    10  C   -0.000000   0.000000  -0.000000  -0.000000  -0.000000  -0.000000
    11  N    0.000000   0.000000   0.000000   0.000000  -0.000000  -0.000000
    12  C   -0.000000  -0.000000  -0.000000  -0.000000   0.000000  -0.000000
    13  C   -0.000000   0.000000  -0.000000   0.000000  -0.000000   0.000000
    14  S    0.000000   0.000000  -0.000000  -0.000000   0.000000  -0.000000
    15  H   -0.000000  -0.000000   0.000000   0.000000  -0.000000   0.000000
    16  H   -0.000000   0.000000  -0.000000  -0.000000   0.000000  -0.000000
    17  H    0.000000  -0.000000   0.000000  -0.000000   0.000000   0.000000
    18  H   -0.000000   0.000000  -0.000000   0.000000   0.000000  -0.000000
    19  H   -0.000000   0.000000  -0.000000   0.000000   0.000000  -0.000000
    20  H   -0.000000   0.000000  -0.000000  -0.000000   0.000000  -0.000000
    21  H    0.000000   0.000000   0.000000  -0.000000  -0.000000   0.000000
    22  H    0.000000   0.000000   0.000000  -0.000000  -0.000000  -0.000000
               7          8          9         10         11         12
     1  C    0.000000   0.000000  -0.000000  -0.000000   0.000000  -0.000000
     2  C   -0.000000   0.000000   0.000000   0.000000   0.000000  -0.000000
     3  C    0.000000   0.000000  -0.000000  -0.000000   0.000000  -0.000000
     4  F    0.000000   0.000000  -0.000000  -0.000000   0.000000  -0.000000
     5  C   -0.000000  -0.000000   0.000000  -0.000000  -0.000000   0.000000
     6  C    0.000000   0.000000  -0.000000  -0.000000  -0.000000  -0.000000
     7  O   -0.000000   0.000000  -0.000000  -0.000000   0.000000  -0.000000
     8  C    0.000000  -0.000000   0.000000  -0.000000  -0.000000   0.000000
     9  C   -0.000000   0.000000   0.000000   0.000000  -0.000000   0.000000
    10  C   -0.000000  -0.000000   0.000000  -0.000000   0.000000   0.000000
    11  N    0.000000  -0.000000  -0.000000   0.000000  -0.000000   0.000000
    12  C   -0.000000   0.000000   0.000000   0.000000   0.000000  -0.000000
    13  C    0.000000  -0.000000   0.000000   0.000000  -0.000000   0.000000
    14  S    0.000000  -0.000000  -0.000000   0.000000  -0.000000   0.000000
    15  H    0.000000   0.000000  -0.000000  -0.000000   0.000000  -0.000000
    16  H   -0.000000  -0.000000   0.000000   0.000000  -0.000000   0.000000
    17  H   -0.000000  -0.000000  -0.000000  -0.000000  -0.000000   0.000000
    18  H    0.000000  -0.000000   0.000000   0.000000   0.000000  -0.000000
    19  H   -0.000000   0.000000   0.000000  -0.000000   0.000000  -0.000000
    20  H   -0.000000   0.000000   0.000000   0.000000  -0.000000   0.000000
    21  H   -0.000000   0.000000  -0.000000  -0.000000   0.000000  -0.000000
    22  H    0.000000  -0.000000  -0.000000  -0.000000   0.000000   0.000000
              13         14         15         16         17         18
     1  C   -0.000000   0.000000  -0.000000  -0.000000   0.000000  -0.000000
     2  C    0.000000   0.000000  -0.000000   0.000000  -0.000000   0.000000
     3  C   -0.000000  -0.000000   0.000000  -0.000000   0.000000  -0.000000
     4  F    0.000000  -0.000000   0.000000  -0.000000  -0.000000   0.000000
     5  C   -0.000000   0.000000  -0.000000   0.000000   0.000000   0.000000
     6  C    0.000000  -0.000000   0.000000  -0.000000   0.000000  -0.000000
     7  O    0.000000   0.000000   0.000000  -0.000000  -0.000000   0.000000
     8  C   -0.000000  -0.000000   0.000000  -0.000000  -0.000000  -0.000000
     9  C    0.000000  -0.000000  -0.000000   0.000000  -0.000000   0.000000
    10  C    0.000000   0.000000  -0.000000   0.000000  -0.000000   0.000000
    11  N   -0.000000  -0.000000   0.000000  -0.000000  -0.000000   0.000000
    12  C    0.000000   0.000000  -0.000000   0.000000   0.000000  -0.000000
    13  C    0.000000  -0.000000  -0.000000   0.000000  -0.000000   0.000000
    14  S   -0.000000   0.000000   0.000000  -0.000000  -0.000000   0.000000
    15  H   -0.000000   0.000000   0.000000  -0.000000   0.000000  -0.000000
    16  H    0.000000  -0.000000  -0.000000   0.000000  -0.000000   0.000000
    17  H   -0.000000  -0.000000   0.000000  -0.000000   0.000000   0.000000
    18  H    0.000000   0.000000  -0.000000   0.000000   0.000000   0.000000
    19  H    0.000000   0.000000  -0.000000   0.000000  -0.000000  -0.000000
    20  H    0.000000  -0.000000  -0.000000   0.000000  -0.000000   0.000000
    21  H    0.000000   0.000000   0.000000  -0.000000   0.000000  -0.000000
    22  H    0.000000  -0.000000   0.000000  -0.000000  -0.000000   0.000000
              19         20         21         22
     1  C   -0.000000  -0.000000   0.000000   0.000000
     2  C    0.000000   0.000000   0.000000   0.000000
     3  C   -0.000000  -0.000000   0.000000   0.000000
     4  F    0.000000  -0.000000  -0.000000  -0.000000
     5  C    0.000000   0.000000  -0.000000  -0.000000
     6  C   -0.000000  -0.000000   0.000000  -0.000000
     7  O   -0.000000  -0.000000  -0.000000   0.000000
     8  C    0.000000   0.000000   0.000000  -0.000000
     9  C    0.000000   0.000000  -0.000000  -0.000000
    10  C   -0.000000   0.000000  -0.000000  -0.000000
    11  N    0.000000  -0.000000   0.000000   0.000000
    12  C   -0.000000   0.000000  -0.000000   0.000000
    13  C    0.000000   0.000000   0.000000   0.000000
    14  S    0.000000  -0.000000   0.000000  -0.000000
    15  H   -0.000000  -0.000000   0.000000   0.000000
    16  H    0.000000   0.000000  -0.000000  -0.000000
    17  H   -0.000000  -0.000000   0.000000  -0.000000
    18  H   -0.000000   0.000000  -0.000000   0.000000
    19  H   -0.000000   0.000000  -0.000000   0.000000
    20  H    0.000000   0.000000  -0.000000  -0.000000
    21  H   -0.000000  -0.000000   0.000000  -0.000000
    22  H    0.000000  -0.000000  -0.000000   0.000000
 Mulliken charges and spin densities:
               1          2
     1  C    0.078477  -0.000000
     2  C    0.000994  -0.000000
     3  C    0.135455   0.000000
     4  F   -0.096929  -0.000000
     5  C   -0.087222  -0.000000
     6  C    0.138586   0.000000
     7  O   -0.241665  -0.000000
     8  C    0.079402   0.000000
     9  C   -0.041762  -0.000000
    10  C   -0.026386  -0.000000
    11  N   -0.135927  -0.000000
    12  C    0.116861  -0.000000
    13  C   -0.129234   0.000000
    14  S    0.172217   0.000000
    15  H   -0.024372   0.000000
    16  H    0.007123   0.000000
    17  H    0.049409   0.000000
    18  H    0.017022   0.000000
    19  H    0.019637   0.000000
    20  H   -0.014307   0.000000
    21  H   -0.006696   0.000000
    22  H   -0.010682   0.000000
 Sum of Mulliken charges =  -0.00000   0.00000
 Mulliken charges and spin densities with hydrogens summed into heavy atoms:
               1          2
     1  C    0.054105  -0.000000
     2  C    0.008116  -0.000000
     3  C    0.135455   0.000000
     4  F   -0.096929  -0.000000
     5  C   -0.087222  -0.000000
     6  C    0.138586   0.000000
     7  O   -0.241665  -0.000000
     8  C    0.165469   0.000000
     9  C   -0.056069  -0.000000
    10  C   -0.026386  -0.000000
    11  N   -0.135927  -0.000000
    12  C    0.110165  -0.000000
    13  C   -0.139916   0.000000
    14  S    0.172217   0.000000
 Electronic spatial extent (au):  <R**2>=           2933.2895
 Charge=             -0.0000 electrons
 Dipole moment (field-independent basis, Debye):
    X=             -1.4434    Y=              1.6645    Z=             -1.0118  Tot=              2.4244
 Quadrupole moment (field-independent basis, Debye-Ang):
   XX=            -69.3040   YY=            -82.4959   ZZ=            -89.2328
   XY=              0.7671   XZ=             -1.9249   YZ=              1.2285
 Traceless Quadrupole moment (field-independent basis, Debye-Ang):
   XX=             11.0402   YY=             -2.1516   ZZ=             -8.8886
   XY=              0.7671   XZ=             -1.9249   YZ=              1.2285
 Octapole moment (field-independent basis, Debye-Ang**2):
  XXX=              9.8606  YYY=             11.4291  ZZZ=             -3.5497  XYY=            -20.3917
  XXY=              2.9605  XXZ=             -1.4054  XZZ=              7.2810  YZZ=              0.3648
  YYZ=              1.2556  XYZ=             -4.3748
 Hexadecapole moment (field-independent basis, Debye-Ang**3):
 XXXX=          -2053.3295 YYYY=          -1113.2170 ZZZZ=           -314.3290 XXXY=             32.9539
 XXXZ=             -2.7175 YYYX=            -21.2950 YYYZ=             14.1016 ZZZX=             -7.2550
 ZZZY=              2.9576 XXYY=           -563.5539 XXZZ=           -442.9063 YYZZ=           -253.6042
 XXYZ=             -3.9207 YYXZ=             -8.6433 ZZXY=             -4.2138
 N-N= 9.672029447963D+02 E-N=-4.318646037871D+03  KE= 1.008980752644D+03
                          Isotropic Fermi Contact Couplings
        Atom                 a.u.       MegaHertz       Gauss      10(-4) cm-1
     1  C(13)              0.00000       0.00000       0.00000       0.00000
     2  C(13)              0.00000       0.00000       0.00000       0.00000
     3  C(13)              0.00000       0.00000       0.00000       0.00000
     4  F(19)              0.00000       0.00000       0.00000       0.00000
     5  C(13)              0.00000       0.00000       0.00000       0.00000
     6  C(13)              0.00000       0.00000       0.00000       0.00000
     7  O(17)              0.00000      -0.00000      -0.00000      -0.00000
     8  C(13)              0.00000       0.00000       0.00000       0.00000
     9  C(13)              0.00000       0.00000       0.00000       0.00000
    10  C(13)              0.00000       0.00000       0.00000       0.00000
    11  N(14)              0.00000       0.00000       0.00000       0.00000
    12  C(13)             -0.00000      -0.00000      -0.00000      -0.00000
    13  C(13)              0.00000       0.00000       0.00000       0.00000
    14  S(33)              0.00000       0.00000       0.00000       0.00000
    15  H(1)               0.00000       0.00000       0.00000       0.00000
    16  H(1)               0.00000       0.00000       0.00000       0.00000
    17  H(1)               0.00000       0.00000       0.00000       0.00000
    18  H(1)               0.00000       0.00000       0.00000       0.00000
    19  H(1)               0.00000       0.00000       0.00000       0.00000
    20  H(1)               0.00000       0.00000       0.00000       0.00000
    21  H(1)               0.00000       0.00000       0.00000       0.00000
    22  H(1)               0.00000       0.00000       0.00000       0.00000
 --------------------------------------------------------
       Center         ----  Spin Dipole Couplings  ----
                      3XX-RR        3YY-RR        3ZZ-RR
 --------------------------------------------------------
     1   Atom       -0.000000      0.000000     -0.000000
     2   Atom       -0.000000      0.000000     -0.000000
     3   Atom        0.000000      0.000000     -0.000000
     4   Atom       -0.000000      0.000000     -0.000000
     5   Atom        0.000000      0.000000     -0.000000
     6   Atom        0.000000      0.000000     -0.000000
     7   Atom        0.000000     -0.000000     -0.000000
     8   Atom       -0.000000      0.000000      0.000000
     9   Atom        0.000000     -0.000000      0.000000
    10   Atom       -0.000000      0.000000      0.000000
    11   Atom        0.000000      0.000000     -0.000000
    12   Atom       -0.000000      0.000000      0.000000
    13   Atom       -0.000000      0.000000     -0.000000
    14   Atom        0.000000     -0.000000     -0.000000
    15   Atom       -0.000000      0.000000     -0.000000
    16   Atom       -0.000000      0.000000     -0.000000
    17   Atom        0.000000     -0.000000      0.000000
    18   Atom       -0.000000      0.000000      0.000000
    19   Atom        0.000000     -0.000000     -0.000000
    20   Atom        0.000000     -0.000000      0.000000
    21   Atom       -0.000000     -0.000000      0.000000
    22   Atom        0.000000     -0.000000     -0.000000
 --------------------------------------------------------
                        XY            XZ            YZ
 --------------------------------------------------------
     1   Atom       -0.000000     -0.000000      0.000000
     2   Atom        0.000000      0.000000      0.000000
     3   Atom       -0.000000      0.000000     -0.000000
     4   Atom       -0.000000      0.000000     -0.000000
     5   Atom        0.000000     -0.000000     -0.000000
     6   Atom        0.000000      0.000000      0.000000
     7   Atom        0.000000      0.000000      0.000000
     8   Atom       -0.000000      0.000000     -0.000000
     9   Atom        0.000000      0.000000      0.000000
    10   Atom        0.000000     -0.000000     -0.000000
    11   Atom        0.000000      0.000000      0.000000
    12   Atom        0.000000     -0.000000     -0.000000
    13   Atom        0.000000     -0.000000     -0.000000
    14   Atom        0.000000     -0.000000      0.000000
    15   Atom       -0.000000     -0.000000      0.000000
    16   Atom        0.000000     -0.000000      0.000000
    17   Atom       -0.000000      0.000000      0.000000
    18   Atom       -0.000000      0.000000      0.000000
    19   Atom       -0.000000      0.000000     -0.000000
    20   Atom        0.000000      0.000000     -0.000000
    21   Atom        0.000000      0.000000     -0.000000
    22   Atom       -0.000000     -0.000000      0.000000
 --------------------------------------------------------


 ---------------------------------------------------------------------------------
              Anisotropic Spin Dipole Couplings in Principal Axis System
 ---------------------------------------------------------------------------------

       Atom             a.u.   MegaHertz   Gauss  10(-4) cm-1        Axes

              Baa    -0.0000    -0.000    -0.000    -0.000  0.8596  0.4884  0.1503
     1 C(13)  Bbb    -0.0000    -0.000    -0.000    -0.000 -0.0972 -0.1325  0.9864
              Bcc     0.0000     0.000     0.000     0.000 -0.5017  0.8625  0.0665
 
              Baa    -0.0000    -0.000    -0.000    -0.000  0.8896 -0.3364 -0.3090
     2 C(13)  Bbb    -0.0000    -0.000    -0.000    -0.000  0.2665 -0.1672  0.9492
              Bcc     0.0000     0.000     0.000     0.000  0.3710  0.9268  0.0591
 
              Baa    -0.0000    -0.000    -0.000    -0.000 -0.1093  0.0135  0.9939
     3 C(13)  Bbb     0.0000     0.000     0.000     0.000  0.7630  0.6420  0.0752
              Bcc     0.0000     0.000     0.000     0.000 -0.6371  0.7666 -0.0805
 
              Baa    -0.0000    -0.000    -0.000    -0.000  0.8198  0.5335 -0.2081
     4 F(19)  Bbb    -0.0000    -0.000    -0.000    -0.000  0.1285  0.1829  0.9747
              Bcc     0.0000     0.000     0.000     0.000 -0.5581  0.8258 -0.0814
 
              Baa    -0.0000    -0.000    -0.000    -0.000  0.2308  0.0093  0.9730
     5 C(13)  Bbb     0.0000     0.000     0.000     0.000  0.8366 -0.5125 -0.1935
              Bcc     0.0000     0.000     0.000     0.000  0.4968  0.8586 -0.1260
 
              Baa    -0.0000    -0.000    -0.000    -0.000 -0.1180 -0.1407  0.9830
     6 C(13)  Bbb     0.0000     0.000     0.000     0.000 -0.6999  0.7140  0.0182
              Bcc     0.0000     0.000     0.000     0.000  0.7044  0.6859  0.1827
 
              Baa    -0.0000     0.000     0.000     0.000 -0.3455  0.0152  0.9383
     7 O(17)  Bbb    -0.0000     0.000     0.000     0.000 -0.3784  0.9127 -0.1541
              Bcc     0.0000    -0.000    -0.000    -0.000  0.8588  0.4083  0.3096
 
              Baa    -0.0000    -0.000    -0.000    -0.000  0.7692 -0.1503 -0.6211
     8 C(13)  Bbb    -0.0000    -0.000    -0.000    -0.000  0.4712  0.7899  0.3924
              Bcc     0.0000     0.000     0.000     0.000  0.4317 -0.5945  0.6784
 
              Baa    -0.0000    -0.000    -0.000    -0.000 -0.0249  0.9862 -0.1636
     9 C(13)  Bbb     0.0000     0.000     0.000     0.000 -0.0498  0.1623  0.9855
              Bcc     0.0000     0.000     0.000     0.000  0.9985  0.0327  0.0450
 
              Baa    -0.0000    -0.000    -0.000    -0.000  0.9060 -0.3678  0.2096
    10 C(13)  Bbb     0.0000     0.000     0.000     0.000 -0.0322  0.4339  0.9004
              Bcc     0.0000     0.000     0.000     0.000  0.4221  0.8225 -0.3812
 
              Baa    -0.0000    -0.000    -0.000    -0.000  0.0026 -0.3106  0.9505
    11 N(14)  Bbb     0.0000     0.000     0.000     0.000 -0.3893  0.8752  0.2871
              Bcc     0.0000     0.000     0.000     0.000  0.9211  0.3708  0.1186
 
              Baa    -0.0000    -0.000    -0.000    -0.000  0.8496  0.0966  0.5184
    12 C(13)  Bbb     0.0000     0.000     0.000     0.000 -0.4741  0.5706  0.6706
              Bcc     0.0000     0.000     0.000     0.000  0.2310  0.8156 -0.5306
 
              Baa    -0.0000    -0.000    -0.000    -0.000  0.8117  0.0068  0.5841
    13 C(13)  Bbb     0.0000     0.000     0.000     0.000 -0.4504  0.6440  0.6184
              Bcc     0.0000     0.000     0.000     0.000  0.3719  0.7650 -0.5258
 
              Baa    -0.0000    -0.000    -0.000    -0.000  0.3322 -0.4838  0.8097
    14 S(33)  Bbb    -0.0000    -0.000    -0.000    -0.000 -0.0888  0.8386  0.5375
              Bcc     0.0000     0.000     0.000     0.000  0.9390  0.2504 -0.2356
 
              Baa    -0.0000    -0.000    -0.000    -0.000  0.9737  0.0809  0.2131
    15 H(1)   Bbb    -0.0000    -0.000    -0.000    -0.000 -0.2111 -0.0331  0.9769
              Bcc     0.0000     0.000     0.000     0.000 -0.0861  0.9962  0.0152
 
              Baa    -0.0000    -0.000    -0.000    -0.000  0.7091 -0.2345  0.6649
    16 H(1)   Bbb    -0.0000    -0.000    -0.000    -0.000 -0.6437  0.1694  0.7463
              Bcc     0.0000     0.000     0.000     0.000  0.2877  0.9572  0.0309
 
              Baa    -0.0000    -0.000    -0.000    -0.000  0.5206  0.6638 -0.5370
    17 H(1)   Bbb     0.0000     0.000     0.000     0.000  0.7539 -0.6526 -0.0758
              Bcc     0.0000     0.000     0.000     0.000  0.4008  0.3654  0.8401
 
              Baa    -0.0000    -0.000    -0.000    -0.000  0.8657  0.4940 -0.0804
    18 H(1)   Bbb     0.0000     0.000     0.000     0.000 -0.4571  0.7148 -0.5293
              Bcc     0.0000     0.000     0.000     0.000 -0.2041  0.4950  0.8446
 
              Baa    -0.0000    -0.000    -0.000    -0.000 -0.5047 -0.1442  0.8512
    19 H(1)   Bbb    -0.0000    -0.000    -0.000    -0.000  0.2073  0.9369  0.2817
              Bcc     0.0000     0.000     0.000     0.000  0.8381 -0.3186  0.4429
 
[...]
     8  C    0.000000  -0.000000  -0.000000  -0.000000  -0.000000  -0.000000
     9  C   -0.000000  -0.000000   0.000000   0.000000  -0.000000   0.000000
    10  C    0.000000  -0.000000   0.000000  -0.000000  -0.000000  -0.000000
    11  N    0.000000  -0.000000  -0.000000  -0.000000   0.000000  -0.000000
    12  C   -0.000000  -0.000000   0.000000  -0.000000  -0.000000   0.000000
    13  C    0.000000  -0.000000   0.000000   0.000000  -0.000000  -0.000000
    14  S   -0.000000   0.000000  -0.000000  -0.000000   0.000000  -0.000000
    15  H    0.000000  -0.000000   0.000000   0.000000   0.000000  -0.000000
    16  H   -0.000000  -0.000000   0.000000   0.000000  -0.000000  -0.000000
    17  H   -0.000000   0.000000  -0.000000  -0.000000  -0.000000   0.000000
    18  H    0.000000  -0.000000   0.000000   0.000000   0.000000  -0.000000
    19  H    0.000000   0.000000   0.000000   0.000000   0.000000  -0.000000
    20  H   -0.000000   0.000000   0.000000   0.000000   0.000000   0.000000
    21  H    0.000000   0.000000  -0.000000  -0.000000   0.000000   0.000000
    22  H    0.000000   0.000000   0.000000   0.000000  -0.000000   0.000000
              13         14         15         16         17         18
     1  C   -0.000000   0.000000   0.000000  -0.000000  -0.000000  -0.000000
     2  C    0.000000  -0.000000  -0.000000   0.000000  -0.000000   0.000000
     3  C   -0.000000  -0.000000  -0.000000  -0.000000   0.000000  -0.000000
     4  F    0.000000   0.000000  -0.000000   0.000000  -0.000000  -0.000000
     5  C   -0.000000   0.000000   0.000000   0.000000   0.000000  -0.000000
     6  C   -0.000000   0.000000   0.000000  -0.000000   0.000000  -0.000000
     7  O    0.000000  -0.000000   0.000000  -0.000000  -0.000000   0.000000
     8  C   -0.000000   0.000000  -0.000000  -0.000000   0.000000  -0.000000
     9  C    0.000000  -0.000000   0.000000   0.000000  -0.000000   0.000000
    10  C    0.000000  -0.000000   0.000000   0.000000  -0.000000   0.000000
    11  N   -0.000000   0.000000   0.000000  -0.000000  -0.000000   0.000000
    12  C   -0.000000  -0.000000  -0.000000  -0.000000   0.000000  -0.000000
    13  C    0.000000   0.000000  -0.000000   0.000000  -0.000000   0.000000
    14  S    0.000000  -0.000000   0.000000  -0.000000  -0.000000  -0.000000
    15  H   -0.000000   0.000000   0.000000  -0.000000   0.000000  -0.000000
    16  H    0.000000  -0.000000  -0.000000   0.000000  -0.000000   0.000000
    17  H   -0.000000  -0.000000   0.000000  -0.000000  -0.000000   0.000000
    18  H    0.000000  -0.000000  -0.000000   0.000000   0.000000   0.000000
    19  H    0.000000   0.000000  -0.000000   0.000000  -0.000000  -0.000000
    20  H    0.000000  -0.000000  -0.000000   0.000000  -0.000000   0.000000
    21  H    0.000000  -0.000000   0.000000  -0.000000   0.000000   0.000000
    22  H   -0.000000   0.000000   0.000000  -0.000000   0.000000   0.000000
              19         20         21         22
     1  C    0.000000   0.000000   0.000000   0.000000
     2  C    0.000000   0.000000  -0.000000  -0.000000
     3  C   -0.000000  -0.000000  -0.000000  -0.000000
     4  F   -0.000000   0.000000   0.000000   0.000000
     5  C   -0.000000  -0.000000   0.000000   0.000000
     6  C   -0.000000  -0.000000   0.000000   0.000000
     7  O    0.000000  -0.000000   0.000000   0.000000
     8  C    0.000000   0.000000   0.000000   0.000000
     9  C    0.000000   0.000000  -0.000000   0.000000
    10  C    0.000000   0.000000  -0.000000   0.000000
    11  N    0.000000   0.000000   0.000000  -0.000000
    12  C   -0.000000   0.000000   0.000000   0.000000
    13  C    0.000000   0.000000   0.000000  -0.000000
    14  S    0.000000  -0.000000  -0.000000   0.000000
    15  H   -0.000000  -0.000000   0.000000   0.000000
    16  H    0.000000   0.000000  -0.000000  -0.000000
    17  H   -0.000000  -0.000000   0.000000   0.000000
    18  H   -0.000000   0.000000   0.000000   0.000000
    19  H   -0.000000   0.000000   0.000000   0.000000
    20  H    0.000000   0.000000  -0.000000  -0.000000
    21  H    0.000000  -0.000000  -0.000000   0.000000
    22  H    0.000000  -0.000000   0.000000  -0.000000
 Mulliken charges and spin densities:
               1          2
     1  C    0.039065   0.000000
     2  C    0.009648  -0.000000
     3  C    0.104258   0.000000
     4  F   -0.098573   0.000000
     5  C   -0.024284  -0.000000
     6  C    0.111828   0.000000
     7  O   -0.251779  -0.000000
     8  C    0.063310   0.000000
     9  C   -0.029755  -0.000000
    10  C   -0.017244  -0.000000
    11  N   -0.168593   0.000000
    12  C    0.115162   0.000000
    13  C   -0.171509   0.000000
    14  S    0.158192  -0.000000
    15  H   -0.007077   0.000000
    16  H   -0.003426   0.000000
    17  H    0.057206  -0.000000
    18  H    0.050649   0.000000
    19  H    0.049876   0.000000
    20  H   -0.011542   0.000000
    21  H    0.000283  -0.000000
    22  H    0.024303  -0.000000
 Sum of Mulliken charges =  -0.00000  -0.00000
 Mulliken charges and spin densities with hydrogens summed into heavy atoms:
               1          2
     1  C    0.031989   0.000000
     2  C    0.006222  -0.000000
     3  C    0.104258   0.000000
     4  F   -0.098573   0.000000
     5  C   -0.024284  -0.000000
     6  C    0.111828   0.000000
     7  O   -0.251779  -0.000000
     8  C    0.221042   0.000000
     9  C   -0.041297  -0.000000
    10  C   -0.017244  -0.000000
    11  N   -0.168593   0.000000
    12  C    0.115445   0.000000
    13  C   -0.147205  -0.000000
    14  S    0.158192  -0.000000
 Electronic spatial extent (au):  <R**2>=           2952.1578
 Charge=              0.0000 electrons
 Dipole moment (field-independent basis, Debye):
    X=             -1.7519    Y=              3.2808    Z=             -0.2481  Tot=              3.7275
 Quadrupole moment (field-independent basis, Debye-Ang):
   XX=            -70.8556   YY=            -79.9347   ZZ=            -89.5774
   XY=             -1.0434   XZ=             -0.3928   YZ=              0.6466
 Traceless Quadrupole moment (field-independent basis, Debye-Ang):
   XX=              9.2670   YY=              0.1878   ZZ=             -9.4548
   XY=             -1.0434   XZ=             -0.3928   YZ=              0.6466
 Octapole moment (field-independent basis, Debye-Ang**2):
  XXX=             13.4450  YYY=             27.2582  ZZZ=             -0.7000  XYY=            -19.9089
  XXY=              0.0756  XXZ=             -0.1204  XZZ=              0.9493  YZZ=             -1.0665
  YYZ=             -0.0750  XYZ=             -3.6428
 Hexadecapole moment (field-independent basis, Debye-Ang**3):
 XXXX=          -2108.8653 YYYY=          -1251.5460 ZZZZ=           -127.5701 XXXY=             10.6573
 XXXZ=              3.7398 YYYX=            -20.3056 YYYZ=             11.1924 ZZZX=             -1.6172
 ZZZY=              4.8676 XXYY=           -562.0170 XXZZ=           -456.0748 YYZZ=           -248.6740
 XXYZ=             -7.2166 YYXZ=             -0.9359 ZZXY=             -6.6663
 N-N= 9.698502398513D+02 E-N=-4.323878990501D+03  KE= 1.008461573552D+03
                          Isotropic Fermi Contact Couplings
        Atom                 a.u.       MegaHertz       Gauss      10(-4) cm-1
     1  C(13)             -0.00000      -0.00000      -0.00000      -0.00000
     2  C(13)             -0.00000      -0.00000      -0.00000      -0.00000
     3  C(13)              0.00000       0.00000       0.00000       0.00000
     4  F(19)             -0.00000      -0.00000      -0.00000      -0.00000
     5  C(13)              0.00000       0.00000       0.00000       0.00000
     6  C(13)              0.00000       0.00000       0.00000       0.00000
     7  O(17)              0.00000      -0.00000      -0.00000      -0.00000
     8  C(13)             -0.00000      -0.00000      -0.00000      -0.00000
     9  C(13)              0.00000       0.00000       0.00000       0.00000
    10  C(13)             -0.00000      -0.00000      -0.00000      -0.00000
    11  N(14)              0.00000       0.00000       0.00000       0.00000
    12  C(13)              0.00000       0.00000       0.00000       0.00000
    13  C(13)              0.00000       0.00000       0.00000       0.00000
    14  S(33)              0.00000       0.00000       0.00000       0.00000
    15  H(1)               0.00000       0.00000       0.00000       0.00000
    16  H(1)               0.00000       0.00000       0.00000       0.00000
    17  H(1)              -0.00000      -0.00000      -0.00000      -0.00000
    18  H(1)               0.00000       0.00000       0.00000       0.00000
    19  H(1)              -0.00000      -0.00000      -0.00000      -0.00000
    20  H(1)              -0.00000      -0.00000      -0.00000      -0.00000
    21  H(1)              -0.00000      -0.00000      -0.00000      -0.00000
    22  H(1)              -0.00000      -0.00000      -0.00000      -0.00000
 --------------------------------------------------------
       Center         ----  Spin Dipole Couplings  ----
                      3XX-RR        3YY-RR        3ZZ-RR
 --------------------------------------------------------
     1   Atom       -0.000000      0.000000      0.000000
     2   Atom        0.000000     -0.000000      0.000000
     3   Atom        0.000000     -0.000000     -0.000000
     4   Atom        0.000000     -0.000000     -0.000000
     5   Atom        0.000000      0.000000     -0.000000
     6   Atom        0.000000      0.000000     -0.000000
     7   Atom       -0.000000      0.000000      0.000000
     8   Atom       -0.000000     -0.000000      0.000000
     9   Atom        0.000000     -0.000000      0.000000
    10   Atom       -0.000000     -0.000000      0.000000
    11   Atom        0.000000     -0.000000     -0.000000
    12   Atom        0.000000      0.000000     -0.000000
    13   Atom       -0.000000      0.000000      0.000000
    14   Atom        0.000000     -0.000000      0.000000
    15   Atom        0.000000      0.000000     -0.000000
    16   Atom       -0.000000     -0.000000      0.000000
    17   Atom       -0.000000      0.000000     -0.000000
    18   Atom        0.000000      0.000000     -0.000000
    19   Atom        0.000000     -0.000000     -0.000000
    20   Atom       -0.000000     -0.000000      0.000000
    21   Atom       -0.000000     -0.000000      0.000000
    22   Atom       -0.000000     -0.000000      0.000000
 --------------------------------------------------------
                        XY            XZ            YZ
 --------------------------------------------------------
     1   Atom       -0.000000     -0.000000     -0.000000
     2   Atom        0.000000      0.000000     -0.000000
     3   Atom       -0.000000      0.000000     -0.000000
     4   Atom       -0.000000     -0.000000     -0.000000
     5   Atom       -0.000000      0.000000     -0.000000
     6   Atom        0.000000     -0.000000      0.000000
     7   Atom       -0.000000      0.000000     -0.000000
     8   Atom        0.000000      0.000000     -0.000000
     9   Atom       -0.000000      0.000000     -0.000000
    10   Atom       -0.000000      0.000000      0.000000
    11   Atom       -0.000000      0.000000      0.000000
    12   Atom       -0.000000      0.000000     -0.000000
    13   Atom        0.000000      0.000000     -0.000000
    14   Atom       -0.000000      0.000000      0.000000
    15   Atom       -0.000000     -0.000000      0.000000
    16   Atom       -0.000000     -0.000000     -0.000000
    17   Atom       -0.000000      0.000000      0.000000
    18   Atom       -0.000000      0.000000     -0.000000
    19   Atom       -0.000000      0.000000      0.000000
    20   Atom       -0.000000     -0.000000     -0.000000
    21   Atom        0.000000     -0.000000      0.000000
    22   Atom       -0.000000      0.000000      0.000000
 --------------------------------------------------------


 ---------------------------------------------------------------------------------
              Anisotropic Spin Dipole Couplings in Principal Axis System
 ---------------------------------------------------------------------------------

       Atom             a.u.   MegaHertz   Gauss  10(-4) cm-1        Axes

              Baa    -0.0000    -0.000    -0.000    -0.000  0.8803  0.4669  0.0841
     1 C(13)  Bbb     0.0000     0.000     0.000     0.000 -0.4728  0.8483  0.2385
              Bcc     0.0000     0.000     0.000     0.000  0.0400 -0.2497  0.9675
 
              Baa    -0.0000    -0.000    -0.000    -0.000 -0.4478  0.8907  0.0789
     2 C(13)  Bbb     0.0000     0.000     0.000     0.000  0.0246 -0.0759  0.9968
              Bcc     0.0000     0.000     0.000     0.000  0.8938  0.4483  0.0121
 
              Baa    -0.0000    -0.000    -0.000    -0.000  0.0717  0.9353  0.3466
     3 C(13)  Bbb    -0.0000    -0.000    -0.000    -0.000 -0.0527 -0.3435  0.9377
              Bcc     0.0000     0.000     0.000     0.000  0.9960 -0.0855  0.0247
 
              Baa    -0.0000    -0.000    -0.000    -0.000  0.0150  0.9980  0.0622
     4 F(19)  Bbb    -0.0000    -0.000    -0.000    -0.000  0.0270 -0.0626  0.9977
              Bcc     0.0000     0.000     0.000     0.000  0.9995 -0.0133 -0.0279
 
              Baa    -0.0000    -0.000    -0.000    -0.000 -0.0408 -0.0095  0.9991
     5 C(13)  Bbb     0.0000     0.000     0.000     0.000  0.6578  0.7524  0.0340
              Bcc     0.0000     0.000     0.000     0.000  0.7521 -0.6587  0.0244
 
              Baa    -0.0000    -0.000    -0.000    -0.000  0.0403 -0.1342  0.9901
     6 C(13)  Bbb     0.0000     0.000     0.000     0.000 -0.5512  0.8235  0.1341
              Bcc     0.0000     0.000     0.000     0.000  0.8334  0.5512  0.0408
 
              Baa    -0.0000     0.000     0.000     0.000  0.7611  0.6486 -0.0094
     7 O(17)  Bbb     0.0000    -0.000    -0.000    -0.000 -0.0916  0.1218  0.9883
              Bcc     0.0000    -0.000    -0.000    -0.000 -0.6421  0.7513 -0.1521
 
              Baa    -0.0000    -0.000    -0.000    -0.000  0.6514 -0.5461 -0.5268
     8 C(13)  Bbb    -0.0000    -0.000    -0.000    -0.000  0.6646  0.7456  0.0487
              Bcc     0.0000     0.000     0.000     0.000  0.3662 -0.3818  0.8486
 
              Baa    -0.0000    -0.000    -0.000    -0.000  0.1751  0.9844  0.0196
     9 C(13)  Bbb     0.0000     0.000     0.000     0.000 -0.0321 -0.0142  0.9994
              Bcc     0.0000     0.000     0.000     0.000  0.9840 -0.1756  0.0291
 
              Baa    -0.0000    -0.000    -0.000    -0.000  0.9307  0.3519 -0.0995
    10 C(13)  Bbb     0.0000     0.000     0.000     0.000 -0.3643  0.9162 -0.1670
              Bcc     0.0000     0.000     0.000     0.000  0.0325  0.1916  0.9809
 
              Baa    -0.0000    -0.000    -0.000    -0.000 -0.2626 -0.5163  0.8152
    11 N(14)  Bbb     0.0000     0.000     0.000     0.000  0.1258  0.8193  0.5594
              Bcc     0.0000     0.000     0.000     0.000  0.9567 -0.2494  0.1502
 
              Baa    -0.0000    -0.000    -0.000    -0.000 -0.0527  0.3349  0.9408
    12 C(13)  Bbb    -0.0000    -0.000    -0.000    -0.000  0.6556  0.7223 -0.2203
              Bcc     0.0000     0.000     0.000     0.000  0.7533 -0.6051  0.2576
 
              Baa    -0.0000    -0.000    -0.000    -0.000  0.8667 -0.3500 -0.3555
    13 C(13)  Bbb     0.0000     0.000     0.000     0.000  0.4363  0.1862  0.8803
              Bcc     0.0000     0.000     0.000     0.000  0.2419  0.9181 -0.3141
 
              Baa    -0.0000    -0.000    -0.000    -0.000  0.4201  0.8992 -0.1223
    14 S(33)  Bbb     0.0000     0.000     0.000     0.000  0.8892 -0.4348 -0.1424
              Bcc     0.0000     0.000     0.000     0.000  0.1812  0.0490  0.9822
 
              Baa    -0.0000    -0.000    -0.000    -0.000 -0.0020 -0.0743  0.9972
    15 H(1)   Bbb    -0.0000    -0.000    -0.000    -0.000  0.6169  0.7848  0.0597
              Bcc     0.0000     0.000     0.000     0.000  0.7871 -0.6153 -0.0443
 
              Baa    -0.0000    -0.000    -0.000    -0.000  0.6336  0.7688  0.0868
    16 H(1)   Bbb     0.0000     0.000     0.000     0.000 -0.5825  0.4002  0.7075
              Bcc     0.0000     0.000     0.000     0.000  0.5092 -0.4988  0.7014
 
              Baa    -0.0000    -0.000    -0.000    -0.000 -0.6445 -0.3335  0.6881
    17 H(1)   Bbb     0.0000     0.000     0.000     0.000 -0.6567  0.7024 -0.2746
              Bcc     0.0000     0.000     0.000     0.000  0.3917  0.6289  0.6716
 
              Baa    -0.0000    -0.000    -0.000    -0.000 -0.4586 -0.1712  0.8720
    18 H(1)   Bbb    -0.0000    -0.000    -0.000    -0.000  0.4576  0.7957  0.3969
              Bcc     0.0000     0.000     0.000     0.000  0.7618 -0.5810  0.2866
 
              Baa    -0.0000    -0.000    -0.000    -0.000 -0.2632 -0.2156  0.9403
    19 H(1)   Bbb    -0.0000    -0.000    -0.000    -0.000 -0.0287  0.9760  0.2157
              Bcc     0.0000     0.000     0.000     0.000  0.9643 -0.0298  0.2631
 
              Baa    -0.0000    -0.000    -0.000    -0.000  0.7937  0.5834  0.1722
    20 H(1)   Bbb     0.0000     0.000     0.000     0.000 -0.5930  0.8052  0.0055
              Bcc     0.0000     0.000     0.000     0.000 -0.1355 -0.1065  0.9850
 
              Baa    -0.0000    -0.000    -0.000    -0.000 -0.3982  0.8593 -0.3209
    21 H(1)   Bbb     0.0000     0.000     0.000     0.000  0.9081  0.4187 -0.0058
              Bcc     0.0000     0.000     0.000     0.000 -0.1294  0.2937  0.9471
 
              Baa    -0.0000    -0.000    -0.000    -0.000  0.6976  0.6269 -0.3469
    22 H(1)   Bbb     0.0000     0.000     0.000     0.000 -0.4382  0.7564  0.4857
              Bcc     0.0000     0.000     0.000     0.000  0.5669 -0.1868  0.8024
 

 ---------------------------------------------------------------------------------

 No NMR shielding tensors so no spin-rotation constants.
 Leave Link  601 at Sat Jul 25 01:43:16 2020, MaxMem=  4026531840 cpu:               1.7 elap:               0.2
 (Enter /opt/ohpc/pub/libs/gaussian/g16-A.03/sandybridge/g16/l9999.exe)

 Test job not archived.
 1\1\GINC-SKYLAKE041\FOpt\ULC-wPBE\CC-pVDZ\C10H8F1N1O1S1\RDU230\25-Jul-
 2020\0\\#P uLC-wPBE/cc-pVDZ iop(3/107=0223500000, 3/108=0223500000) op
 t\\H8 C10 S1 N1 O1 F1\\0,1\C,-3.1751148164,-0.8651860554,-0.0001078369
 \C,-2.2845292793,-1.9325774588,0.0542267195\C,-0.917238052,-1.66633946
 39,0.1255051105\F,-0.0928704124,-2.7251284739,0.1515128865\C,-0.387885
 1939,-0.3626283765,0.150379098\C,-1.3300944079,0.6986102705,0.07448193
 5\O,-0.7954329427,1.9505966974,0.0701850615\C,-1.6720468466,3.06508105
 04,-0.0104711365\C,-2.7069564165,0.4515247433,0.0065823569\C,1.0691942
 862,-0.1360066925,0.2578625189\N,1.9052376997,-1.0411450269,0.71521247
 38\C,3.199783059,-0.5990992962,0.6521819716\C,3.3810053088,0.658073801
 9,0.1359818115\S,1.8579999329,1.3470538771,-0.2743378894\H,-4.25405586
 4,-1.0551037775,-0.0548313052\H,-2.6150381361,-2.9765140552,0.03866420
 17\H,-1.0235261558,3.9561059346,-0.0043913471\H,-2.3577424133,3.105859
 318,0.859496582\H,-2.2656618899,3.0496388769,-0.9466311277\H,-3.418226
 6963,1.2810055634,-0.0432196681\H,4.003393866,-1.2522304049,1.01041537
 91\H,4.3129583706,1.2138779479,0.0036542043\\Version=EM64L-G16RevA.03\
 State=1-A\HF=-1013.2597982\S2=0.\S2-1=0.\S2A=0.\RMSD=6.337e-09\RMSF=6.
 403e-06\Dipole=-0.7852046,1.2182038,-0.2237721\Quadrupole=6.9716311,0.
 0859606,-7.0575917,-0.224425,0.318385,-0.0827018\PG=C01 [X(C10H8F1N1O1
 S1)]\\@


 IN SO FAR AS QUANTUM MECHANICS IS CORRECT, CHEMICAL 
 QUESTIONS ARE PROBLEMS IN APPLIED MATHEMATICS.

                    -- EYRING, WALTER, & KIMBALL, 1944
 Job cpu time:       0 days  3 hours  4 minutes 26.6 seconds.
 Elapsed time:       0 days  0 hours 23 minutes 26.9 seconds.
 File lengths (MBytes):  RWF=    124 Int=      0 D2E=      0 Chk=     12 Scr=      8
 Normal termination of Gaussian 16 at Sat Jul 25 01:43:16 2020.
