 Entering Gaussian System, Link 0=g16
 Input=mols_65_1_16_n-n-C_opt_0.gjf
 Output=mols_65_1_16_n-n-C_opt_0.log
 Initial command:
 /opt/ohpc/pub/libs/gaussian/g16-A.03/sandybridge/g16/l1.exe "/mnt/gpfs2_4m/scratch/rdu230/ondemand/projects/dihedral_energies/7trial/wtuning/mols_65_1_16_n-n-C/Gau-87634.inp" -scrdir="/mnt/gpfs2_4m/scratch/rdu230/ondemand/projects/dihedral_energies/7trial/wtuning/mols_65_1_16_n-n-C/"
 Entering Link 1 = /opt/ohpc/pub/libs/gaussian/g16-A.03/sandybridge/g16/l1.exe PID=     87635.
  
 Copyright (c) 1988,1990,1992,1993,1995,1998,2003,2009,2016,
            Gaussian, Inc.  All Rights Reserved.
  
 This is part of the Gaussian(R) 16 program.  It is based on
 the Gaussian(R) 09 system (copyright 2009, Gaussian, Inc.),
 the Gaussian(R) 03 system (copyright 2003, Gaussian, Inc.),
 the Gaussian(R) 98 system (copyright 1998, Gaussian, Inc.),
 the Gaussian(R) 94 system (copyright 1995, Gaussian, Inc.),
 the Gaussian 92(TM) system (copyright 1992, Gaussian, Inc.),
 the Gaussian 90(TM) system (copyright 1990, Gaussian, Inc.),
 the Gaussian 88(TM) system (copyright 1988, Gaussian, Inc.),
 the Gaussian 86(TM) system (copyright 1986, Carnegie Mellon
 University), and the Gaussian 82(TM) system (copyright 1983,
 Carnegie Mellon University). Gaussian is a federally registered
 trademark of Gaussian, Inc.
  
 This software contains proprietary and confidential information,
 including trade secrets, belonging to Gaussian, Inc.
  
 This software is provided under written license and may be
 used, copied, transmitted, or stored only in accord with that
 written license.
  
 The following legend is applicable only to US Government
 contracts under FAR:
  
                    RESTRICTED RIGHTS LEGEND
  
 Use, reproduction and disclosure by the US Government is
 subject to restrictions as set forth in subparagraphs (a)
 and (c) of the Commercial Computer Software - Restricted
 Rights clause in FAR 52.227-19.
  
 Gaussian, Inc.
 340 Quinnipiac St., Bldg. 40, Wallingford CT 06492
  
  
 ---------------------------------------------------------------
 Warning -- This program may not be used in any manner that
 competes with the business of Gaussian, Inc. or will provide
 assistance to any competitor of Gaussian, Inc.  The licensee
 of this program is prohibited from giving any competitor of
 Gaussian, Inc. access to this program.  By using this program,
 the user acknowledges that Gaussian, Inc. is engaged in the
 business of creating and licensing software in the field of
 computational chemistry and represents and warrants to the
 licensee that it is not a competitor of Gaussian, Inc. and that
 it will not use this program in any manner prohibited above.
 ---------------------------------------------------------------
  

 Cite this work as:
 Gaussian 16, Revision A.03,
 M. J. Frisch, G. W. Trucks, H. B. Schlegel, G. E. Scuseria, 
 M. A. Robb, J. R. Cheeseman, G. Scalmani, V. Barone, 
 G. A. Petersson, H. Nakatsuji, X. Li, M. Caricato, A. V. Marenich, 
 J. Bloino, B. G. Janesko, R. Gomperts, B. Mennucci, H. P. Hratchian, 
 J. V. Ortiz, A. F. Izmaylov, J. L. Sonnenberg, D. Williams-Young, 
 F. Ding, F. Lipparini, F. Egidi, J. Goings, B. Peng, A. Petrone, 
 T. Henderson, D. Ranasinghe, V. G. Zakrzewski, J. Gao, N. Rega, 
 G. Zheng, W. Liang, M. Hada, M. Ehara, K. Toyota, R. Fukuda, 
 J. Hasegawa, M. Ishida, T. Nakajima, Y. Honda, O. Kitao, H. Nakai, 
 T. Vreven, K. Throssell, J. A. Montgomery, Jr., J. E. Peralta, 
 F. Ogliaro, M. J. Bearpark, J. J. Heyd, E. N. Brothers, K. N. Kudin, 
 V. N. Staroverov, T. A. Keith, R. Kobayashi, J. Normand, 
 K. Raghavachari, A. P. Rendell, J. C. Burant, S. S. Iyengar, 
 J. Tomasi, M. Cossi, J. M. Millam, M. Klene, C. Adamo, R. Cammi, 
 J. W. Ochterski, R. L. Martin, K. Morokuma, O. Farkas, 
 J. B. Foresman, and D. J. Fox, Gaussian, Inc., Wallingford CT, 2016.
 
 ******************************************
 Gaussian 16:  EM64L-G16RevA.03 25-Dec-2016
                25-Jul-2020 
 ******************************************
 %mem=30GB
 %nproc=8
 Will use up to    8 processors via shared memory.
 ---------------------------------------------------------------
 #P uLC-wPBE/cc-pVDZ iop(3/107=0141700000, 3/108=0141700000) opt
 ---------------------------------------------------------------
 1/18=20,19=15,26=3,38=1/1,3;
 2/9=110,12=2,17=6,18=5,40=1/2;
 3/5=16,11=2,25=1,30=1,71=1,74=-41,107=141700000,108=141700000,116=2/1,2,3;
 4//1;
 5/5=2,38=5/2;
 6/7=2,8=2,9=2,10=2,28=1/1;
 7//1,2,3,16;
 1/18=20,19=15,26=3/3(2);
 2/9=110/2;
 99//99;
 2/9=110/2;
 3/5=16,11=2,25=1,30=1,71=1,74=-41,107=141700000,108=141700000,116=2/1,2,3;
 4/5=5,16=3,69=1/1;
 5/5=2,38=5/2;
 7//1,2,3,16;
 1/18=20,19=15,26=3/3(-5);
 2/9=110/2;
 6/7=2,8=2,9=2,10=2,19=2,28=1/1;
 99/9=1/99;
 Leave Link    1 at Sat Jul 25 15:02:57 2020, MaxMem=  4026531840 cpu:               1.9 elap:               0.3
 (Enter /opt/ohpc/pub/libs/gaussian/g16-A.03/sandybridge/g16/l101.exe)
 -----------
 H6 C8 S1 N2
 -----------
 Symbolic Z-matrix:
 Charge =  0 Multiplicity = 1
 C                     3.4441   -0.05714   0.04329 
 C                     2.63818  -1.2255   -0.00604 
 N                     1.26735  -1.10163   0.03943 
 C                     0.76365   0.07824  -0.02629 
 N                     1.46043   1.23983   0.01728 
 C                     2.71111   1.12361   0.00163 
 C                    -0.78597   0.22502   0.0048 
 C                    -1.49705   1.3219   -0.01376 
 C                    -2.90756   1.13914  -0.03889 
 C                    -3.21609  -0.21554  -0.01443 
 S                    -1.71675  -1.1831    0.03959 
 H                     4.47812  -0.14012  -0.04356 
 H                     3.06808  -2.17395  -0.04501 
 H                     3.26948   2.11255  -0.02485 
 H                    -1.09982   2.33517   0.03249 
 H                    -3.69395   1.85684   0.04501 
 H                    -4.13805  -0.75829  -0.03791 
 
 ITRead=  0  0  0  0  0  0  0  0  0  0  0  0  0  0  0  0  0
 MicOpt= -1 -1 -1 -1 -1 -1 -1 -1 -1 -1 -1 -1 -1 -1 -1 -1 -1
 NAtoms=     17 NQM=       17 NQMF=       0 NMMI=      0 NMMIF=      0
                NMic=       0 NMicF=      0.
                    Isotopes and Nuclear Properties:
 (Nuclear quadrupole moments (NQMom) in fm**2, nuclear magnetic moments (NMagM)
  in nuclear magnetons)

  Atom         1           2           3           4           5           6           7           8           9          10
 IAtWgt=          12          12          14          12          14          12          12          12          12          12
 AtmWgt=  12.0000000  12.0000000  14.0030740  12.0000000  14.0030740  12.0000000  12.0000000  12.0000000  12.0000000  12.0000000
 NucSpn=           0           0           2           0           2           0           0           0           0           0
 AtZEff=  -0.0000000  -0.0000000  -0.0000000  -0.0000000  -0.0000000  -0.0000000  -0.0000000  -0.0000000  -0.0000000  -0.0000000
 NQMom=    0.0000000   0.0000000   2.0440000   0.0000000   2.0440000   0.0000000   0.0000000   0.0000000   0.0000000   0.0000000
 NMagM=    0.0000000   0.0000000   0.4037610   0.0000000   0.4037610   0.0000000   0.0000000   0.0000000   0.0000000   0.0000000
 AtZNuc=   6.0000000   6.0000000   7.0000000   6.0000000   7.0000000   6.0000000   6.0000000   6.0000000   6.0000000   6.0000000

  Atom        11          12          13          14          15          16          17
 IAtWgt=          32           1           1           1           1           1           1
 AtmWgt=  31.9720718   1.0078250   1.0078250   1.0078250   1.0078250   1.0078250   1.0078250
 NucSpn=           0           1           1           1           1           1           1
 AtZEff=  -0.0000000  -0.0000000  -0.0000000  -0.0000000  -0.0000000  -0.0000000  -0.0000000
 NQMom=    0.0000000   0.0000000   0.0000000   0.0000000   0.0000000   0.0000000   0.0000000
 NMagM=    0.0000000   2.7928460   2.7928460   2.7928460   2.7928460   2.7928460   2.7928460
 AtZNuc=  16.0000000   1.0000000   1.0000000   1.0000000   1.0000000   1.0000000   1.0000000
 Leave Link  101 at Sat Jul 25 15:02:57 2020, MaxMem=  4026531840 cpu:               2.8 elap:               0.4
 (Enter /opt/ohpc/pub/libs/gaussian/g16-A.03/sandybridge/g16/l103.exe)

 GradGradGradGradGradGradGradGradGradGradGradGradGradGradGradGradGradGrad
 Berny optimization.
 Initialization pass.
                           ----------------------------
                           !    Initial Parameters    !
                           ! (Angstroms and Degrees)  !
 --------------------------                            --------------------------
 ! Name  Definition              Value          Derivative Info.                !
 --------------------------------------------------------------------------------
 ! R1    R(1,2)                  1.4202         estimate D2E/DX2                !
 ! R2    R(1,6)                  1.3904         estimate D2E/DX2                !
 ! R3    R(1,12)                 1.041          estimate D2E/DX2                !
 ! R4    R(2,3)                  1.3772         estimate D2E/DX2                !
 ! R5    R(2,13)                 1.0421         estimate D2E/DX2                !
 ! R6    R(3,4)                  1.2846         estimate D2E/DX2                !
 ! R7    R(4,5)                  1.3552         estimate D2E/DX2                !
 ! R8    R(4,7)                  1.5569         estimate D2E/DX2                !
 ! R9    R(5,6)                  1.2562         estimate D2E/DX2                !
 ! R10   R(6,14)                 1.136          estimate D2E/DX2                !
 ! R11   R(7,8)                  1.3073         estimate D2E/DX2                !
 ! R12   R(7,11)                 1.6883         estimate D2E/DX2                !
 ! R13   R(8,9)                  1.4225         estimate D2E/DX2                !
 ! R14   R(8,15)                 1.0893         estimate D2E/DX2                !
 ! R15   R(9,10)                 1.3896         estimate D2E/DX2                !
 ! R16   R(9,16)                 1.068          estimate D2E/DX2                !
 ! R17   R(10,11)                1.7852         estimate D2E/DX2                !
 ! R18   R(10,17)                1.0701         estimate D2E/DX2                !
 ! A1    A(2,1,6)              113.4801         estimate D2E/DX2                !
 ! A2    A(2,1,12)             119.6833         estimate D2E/DX2                !
 ! A3    A(6,1,12)             126.0752         estimate D2E/DX2                !
 ! A4    A(1,2,3)              119.3215         estimate D2E/DX2                !
 ! A5    A(1,2,13)             121.0612         estimate D2E/DX2                !
 ! A6    A(3,2,13)             119.5877         estimate D2E/DX2                !
 ! A7    A(2,3,4)              118.1147         estimate D2E/DX2                !
 ! A8    A(3,4,5)              125.7321         estimate D2E/DX2                !
 ! A9    A(3,4,7)              118.4156         estimate D2E/DX2                !
 ! A10   A(5,4,7)              115.4865         estimate D2E/DX2                !
 ! A11   A(4,5,6)              115.6072         estimate D2E/DX2                !
 ! A12   A(1,6,5)              127.0902         estimate D2E/DX2                !
 ! A13   A(1,6,14)             118.7418         estimate D2E/DX2                !
 ! A14   A(5,6,14)             114.1506         estimate D2E/DX2                !
 ! A15   A(4,7,8)              128.3313         estimate D2E/DX2                !
 ! A16   A(4,7,11)             118.0682         estimate D2E/DX2                !
 ! A17   A(8,7,11)             113.5908         estimate D2E/DX2                !
 ! A18   A(7,8,9)              115.5808         estimate D2E/DX2                !
 ! A19   A(7,8,15)             125.5549         estimate D2E/DX2                !
 ! A20   A(9,8,15)             118.8053         estimate D2E/DX2                !
 ! A21   A(8,9,10)             110.1875         estimate D2E/DX2                !
 ! A22   A(8,9,16)             129.9713         estimate D2E/DX2                !
 ! A23   A(10,9,16)            119.3584         estimate D2E/DX2                !
 ! A24   A(9,10,11)            110.0245         estimate D2E/DX2                !
 ! A25   A(9,10,17)            133.2634         estimate D2E/DX2                !
 ! A26   A(11,10,17)           116.7025         estimate D2E/DX2                !
 ! A27   A(7,11,10)             90.5938         estimate D2E/DX2                !
 ! D1    D(6,1,2,3)             -6.0303         estimate D2E/DX2                !
 ! D2    D(6,1,2,13)           175.9574         estimate D2E/DX2                !
 ! D3    D(12,1,2,3)          -176.6352         estimate D2E/DX2                !
 ! D4    D(12,1,2,13)            5.3525         estimate D2E/DX2                !
 ! D5    D(2,1,6,5)              5.1126         estimate D2E/DX2                !
 ! D6    D(2,1,6,14)          -176.4998         estimate D2E/DX2                !
 ! D7    D(12,1,6,5)           175.0068         estimate D2E/DX2                !
 ! D8    D(12,1,6,14)           -6.6056         estimate D2E/DX2                !
 ! D9    D(1,2,3,4)              7.6894         estimate D2E/DX2                !
 ! D10   D(13,2,3,4)          -174.2686         estimate D2E/DX2                !
 ! D11   D(2,3,4,5)             -8.1064         estimate D2E/DX2                !
 ! D12   D(2,3,4,7)            179.1733         estimate D2E/DX2                !
 ! D13   D(3,4,5,6)              6.6205         estimate D2E/DX2                !
 ! D14   D(7,4,5,6)            179.5286         estimate D2E/DX2                !
 ! D15   D(3,4,7,8)            177.9863         estimate D2E/DX2                !
 ! D16   D(3,4,7,11)            -3.2274         estimate D2E/DX2                !
 ! D17   D(5,4,7,8)              4.5293         estimate D2E/DX2                !
 ! D18   D(5,4,7,11)          -176.6843         estimate D2E/DX2                !
 ! D19   D(4,5,6,1)             -5.0789         estimate D2E/DX2                !
 ! D20   D(4,5,6,14)           176.4704         estimate D2E/DX2                !
 ! D21   D(4,7,8,9)            177.1652         estimate D2E/DX2                !
 ! D22   D(4,7,8,15)            -5.6757         estimate D2E/DX2                !
 ! D23   D(11,7,8,9)            -1.6663         estimate D2E/DX2                !
 ! D24   D(11,7,8,15)          175.4929         estimate D2E/DX2                !
 ! D25   D(4,7,11,10)         -177.5865         estimate D2E/DX2                !
 ! D26   D(8,7,11,10)            1.3747         estimate D2E/DX2                !
 ! D27   D(7,8,9,10)             1.0299         estimate D2E/DX2                !
 ! D28   D(7,8,9,16)           172.8447         estimate D2E/DX2                !
 ! D29   D(15,8,9,10)         -176.3327         estimate D2E/DX2                !
 ! D30   D(15,8,9,16)           -4.5179         estimate D2E/DX2                !
 ! D31   D(8,9,10,11)            0.0284         estimate D2E/DX2                !
 ! D32   D(8,9,10,17)         -178.7721         estimate D2E/DX2                !
 ! D33   D(16,9,10,11)        -172.78           estimate D2E/DX2                !
 ! D34   D(16,9,10,17)           8.4196         estimate D2E/DX2                !
 ! D35   D(9,10,11,7)           -0.7575         estimate D2E/DX2                !
 ! D36   D(17,10,11,7)         178.2647         estimate D2E/DX2                !
 --------------------------------------------------------------------------------
 Trust Radius=3.00D-01 FncErr=1.00D-07 GrdErr=1.00D-06 EigMax=2.50D+02 EigMin=1.00D-04
 Number of steps in this run=     91 maximum allowed number of steps=    102.
 GradGradGradGradGradGradGradGradGradGradGradGradGradGradGradGradGradGrad

 Leave Link  103 at Sat Jul 25 15:02:58 2020, MaxMem=  4026531840 cpu:               0.1 elap:               0.0
 (Enter /opt/ohpc/pub/libs/gaussian/g16-A.03/sandybridge/g16/l202.exe)
                          Input orientation:                          
 ---------------------------------------------------------------------
 Center     Atomic      Atomic             Coordinates (Angstroms)
 Number     Number       Type             X           Y           Z
 ---------------------------------------------------------------------
      1          6           0        3.444096   -0.057144    0.043292
      2          6           0        2.638176   -1.225502   -0.006041
      3          7           0        1.267348   -1.101629    0.039428
      4          6           0        0.763648    0.078242   -0.026289
      5          7           0        1.460434    1.239826    0.017284
      6          6           0        2.711108    1.123612    0.001632
      7          6           0       -0.785967    0.225023    0.004796
      8          6           0       -1.497054    1.321900   -0.013758
      9          6           0       -2.907556    1.139140   -0.038885
     10          6           0       -3.216085   -0.215539   -0.014426
     11         16           0       -1.716746   -1.183098    0.039587
     12          1           0        4.478116   -0.140115   -0.043564
     13          1           0        3.068080   -2.173952   -0.045013
     14          1           0        3.269484    2.112546   -0.024848
     15          1           0       -1.099819    2.335167    0.032488
     16          1           0       -3.693948    1.856837    0.045013
     17          1           0       -4.138047   -0.758288   -0.037913
 ---------------------------------------------------------------------
                    Distance matrix (angstroms):
                    1          2          3          4          5
     1  C    0.000000
     2  C    1.420212   0.000000
     3  N    2.414373   1.377164   0.000000
     4  C    2.684767   2.283421   1.284573   0.000000
     5  N    2.370174   2.732300   2.349507   1.355244   0.000000
     6  C    1.390393   2.350258   2.652842   2.210470   1.256159
     7  C    4.239638   3.718722   2.444853   1.556861   2.465015
     8  C    5.130300   4.856897   3.676716   2.580236   2.958789
     9  C    6.463848   6.028910   4.738882   3.821440   4.369511
    10  C    6.662314   5.940746   4.570473   3.990579   4.897849
    11  S    5.282242   4.355367   2.985206   2.783464   3.995689
    12  H    1.040973   2.136551   3.352675   3.720921   3.318787
    13  H    2.151758   1.042062   2.097533   3.222287   3.773895
    14  H    2.177771   3.397274   3.787295   3.227632   2.008999
    15  H    5.135215   5.162602   4.173140   2.927401   2.784762
    16  H    7.390196   7.042671   5.776418   4.799859   5.191255
    17  H    7.614925   6.792386   5.416840   4.972578   5.944619
                    6          7          8          9         10
     6  C    0.000000
     7  C    3.610679   0.000000
     8  C    4.212859   1.307336   0.000000
     9  C    5.618832   2.310554   1.422515   0.000000
    10  C    6.076611   2.469805   2.306249   1.389584   0.000000
    11  S    4.992819   1.688302   2.515179   2.610934   1.785247
    12  H    2.172870   5.276953   6.151507   7.495643   7.694626
    13  H    3.317157   4.539960   5.749992   6.832631   6.582328
    14  H    1.135991   4.473288   4.831680   6.253282   6.890769
    15  H    3.998998   2.133536   1.089332   2.168753   3.314647
    16  H    6.447034   3.334785   2.261848   1.067961   2.127587
    17  H    7.103100   3.493589   3.361935   2.261491   1.070113
                   11         12         13         14         15
    11  S    0.000000
    12  H    6.282598   0.000000
    13  H    4.887076   2.474812   0.000000
    14  H    5.977283   2.556486   4.291274   0.000000
    15  H    3.571952   6.102964   6.140810   4.375346   0.000000
    16  H    3.626370   8.412984   7.872762   6.968476   2.637890
    17  H    2.459506   8.638312   7.343870   7.944393   4.336502
                   16         17
    16  H    0.000000
    17  H    2.653861   0.000000
 Stoichiometry    C8H6N2S
 Framework group  C1[X(C8H6N2S)]
 Deg. of freedom    45
 Full point group                 C1      NOp   1
 Largest Abelian subgroup         C1      NOp   1
 Largest concise Abelian subgroup C1      NOp   1
                         Standard orientation:                         
 ---------------------------------------------------------------------
 Center     Atomic      Atomic             Coordinates (Angstroms)
 Number     Number       Type             X           Y           Z
 ---------------------------------------------------------------------
      1          6           0       -3.439476   -0.033847   -0.029234
      2          6           0       -2.639918   -1.206073    0.030709
      3          7           0       -1.268508   -1.090244   -0.018288
      4          6           0       -0.758209    0.087437    0.034532
      5          7           0       -1.448662    1.252346   -0.019763
      6          6           0       -2.699929    1.143207   -0.000858
      7          6           0        0.792136    0.225333   -0.000612
      8          6           0        1.509281    1.318398    0.005554
      9          6           0        2.918797    1.128117    0.030218
     10          6           0        3.219820   -0.228424    0.019099
     11         16           0        1.715087   -1.188189   -0.022543
     12          1           0       -4.473788   -0.110215    0.060173
     13          1           0       -3.074970   -2.151687    0.080085
     14          1           0       -3.252806    2.135428    0.016433
     15          1           0        1.117553    2.333318   -0.050392
     16          1           0        3.708984    1.840566   -0.062311
     17          1           0        4.138819   -0.775988    0.046611
 ---------------------------------------------------------------------
 Rotational constants (GHZ):           2.9194729           0.6314675           0.5192748
 Leave Link  202 at Sat Jul 25 15:02:58 2020, MaxMem=  4026531840 cpu:               0.1 elap:               0.0
 (Enter /opt/ohpc/pub/libs/gaussian/g16-A.03/sandybridge/g16/l301.exe)
 Standard basis: CC-pVDZ (5D, 7F)
 Ernie: Thresh=  0.10000D-02 Tol=  0.10000D-05 Strict=F.
 Ernie:  30 primitive shells out of 300 were deleted.
 There are   199 symmetry adapted cartesian basis functions of A   symmetry.
 There are   188 symmetry adapted basis functions of A   symmetry.
   188 basis functions,   443 primitive gaussians,   199 cartesian basis functions
    42 alpha electrons       42 beta electrons
       nuclear repulsion energy       627.4384247729 Hartrees.
 IExCor=32609 DFT=T Ex+Corr=LC-wPBE ExCW=0 ScaHFX=  1.000000
 ScaDFX=  1.000000  0.000000  1.000000  1.000000 ScalE2=  1.000000  1.000000
 IRadAn=      5 IRanWt=     -1 IRanGd=            0 ICorTp=0 IEmpDi=  4
 HFx  wShort=  0.000000 wLong=  0.141700 cFull=  0.000000 cShort=  0.000000 cLong=  1.000000
 DFx  wShort=  0.000000 wLong=  0.141700 cFull=  0.000000 cShort=  0.000000 cLong=  1.000000
 NAtoms=   17 NActive=   17 NUniq=   17 SFac= 1.00D+00 NAtFMM=   60 NAOKFM=F Big=F
 Integral buffers will be    131072 words long.
 Raffenetti 2 integral format.
 Two-electron integral symmetry is turned on.
 Leave Link  301 at Sat Jul 25 15:02:58 2020, MaxMem=  4026531840 cpu:               0.5 elap:               0.1
 (Enter /opt/ohpc/pub/libs/gaussian/g16-A.03/sandybridge/g16/l302.exe)
 NPDir=0 NMtPBC=     1 NCelOv=     1 NCel=       1 NClECP=     1 NCelD=      1
         NCelK=      1 NCelE2=     1 NClLst=     1 CellRange=     0.0.
 One-electron integrals computed using PRISM.
 One-electron integral symmetry used in STVInt
 NBasis=   188 RedAO= T EigKep=  5.78D-04  NBF=   188
 NBsUse=   188 1.00D-06 EigRej= -1.00D+00 NBFU=   188
 Precomputing XC quadrature grid using
 IXCGrd= 4 IRadAn=           5 IRanWt=          -1 IRanGd=           0 AccXCQ= 0.00D+00.
 Generated NRdTot=       0 NPtTot=           0 NUsed=           0 NTot=          32
 NSgBfM=   199   199   199   199   199 MxSgAt=    17 MxSgA2=    17.
 Leave Link  302 at Sat Jul 25 15:02:58 2020, MaxMem=  4026531840 cpu:               1.7 elap:               0.2
 (Enter /opt/ohpc/pub/libs/gaussian/g16-A.03/sandybridge/g16/l303.exe)
 DipDrv:  MaxL=1.
 Leave Link  303 at Sat Jul 25 15:02:58 2020, MaxMem=  4026531840 cpu:               0.3 elap:               0.1
 (Enter /opt/ohpc/pub/libs/gaussian/g16-A.03/sandybridge/g16/l401.exe)
 ExpMin= 1.22D-01 ExpMax= 1.11D+05 ExpMxC= 1.07D+03 IAcc=3 IRadAn=         5 AccDes= 0.00D+00
 Harris functional with IExCor=32609 and IRadAn=       5 diagonalized for initial guess.
 HarFok:  IExCor=32609 AccDes= 0.00D+00 IRadAn=         5 IDoV= 1 UseB2=F ITyADJ=14
 ICtDFT=  3500011 ScaDFX=  1.000000  1.000000  1.000000  1.000000
 FoFCou: FMM=F IPFlag=           0 FMFlag=      100000 FMFlg1=           0
         NFxFlg=           0 DoJE=T BraDBF=F KetDBF=T FulRan=T
         wScrn=  0.000000 ICntrl=       500 IOpCl=  0 I1Cent=   200000004 NGrid=           0
         NMat0=    1 NMatS0=      1 NMatT0=    0 NMatD0=    1 NMtDS0=    0 NMtDT0=    0
 Petite list used in FoFCou.
 Harris En= -815.615827382588    
 JPrj=0 DoOrth=F DoCkMO=F.
 Initial guess <Sx>= 0.0000 <Sy>= 0.0000 <Sz>= 0.0000 <S**2>=-0.0000 S=-0.0000
 Leave Link  401 at Sat Jul 25 15:02:59 2020, MaxMem=  4026531840 cpu:               7.4 elap:               1.0
 (Enter /opt/ohpc/pub/libs/gaussian/g16-A.03/sandybridge/g16/l502.exe)
 Integral symmetry usage will be decided dynamically.
 UHF open shell SCF:
 Using DIIS extrapolation, IDIIS=  1040.
 NGot=  4026531840 LenX=  4026448913 LenY=  4026408871
 Requested convergence on RMS density matrix=1.00D-08 within 128 cycles.
 Requested convergence on MAX density matrix=1.00D-06.
 Requested convergence on             energy=1.00D-06.
 No special actions if energy rises.
 Fock matrices will be formed incrementally for  20 cycles.
 Integral accuracy reduced to 1.0D-05 until final iterations.

 Cycle   1  Pass 0  IDiag  1:
 FoFJK:  IHMeth= 1 ICntrl=       0 DoSepK=T KAlg= 0 I1Cent=           0 FoldK=F
 IRaf=         1 NMat=       1 IRICut=       1 DoRegI=T DoRafI=F ISym2E= 0 IDoP0=0 IntGTp=1.
 FoFCou: FMM=F IPFlag=           0 FMFlag=      100000 FMFlg1=           0
         NFxFlg=           0 DoJE=T BraDBF=F KetDBF=F FulRan=T
         wScrn=  0.000000 ICntrl=       500 IOpCl=  0 I1Cent=           0 NGrid=           0
         NMat0=    1 NMatS0=      1 NMatT0=    0 NMatD0=    1 NMtDS0=    0 NMtDT0=    0
 Symmetry not used in FoFCou.
 E= -815.341027058334    
 DIIS: error= 2.95D-02 at cycle   1 NSaved=   1.
 NSaved= 1 IEnMin= 1 EnMin= -815.341027058334     IErMin= 1 ErrMin= 2.95D-02
 ErrMax= 2.95D-02  0.00D+00 EMaxC= 1.00D-01 BMatC= 9.04D-01 BMatP= 9.04D-01
 IDIUse=3 WtCom= 7.05D-01 WtEn= 2.95D-01
 Coeff-Com:  0.100D+01
 Coeff-En:   0.100D+01
 Coeff:      0.100D+01
 Gap=     0.313 Goal=   None    Shift=    0.000
 Gap=     0.313 Goal=   None    Shift=    0.000
 GapD=    0.313 DampG=1.000 DampE=0.500 DampFc=0.5000 IDamp=-1.
 Damping current iteration by 5.00D-01
 RMSDP=6.04D-03 MaxDP=1.74D-01              OVMax= 2.92D-01

 Cycle   2  Pass 0  IDiag  1:
 RMSU=  3.01D-03    CP:  9.90D-01
 E= -815.436578372506     Delta-E=       -0.095551314172 Rises=F Damp=T
 DIIS: error= 9.91D-03 at cycle   2 NSaved=   2.
 NSaved= 2 IEnMin= 2 EnMin= -815.436578372506     IErMin= 2 ErrMin= 9.91D-03
 ErrMax= 9.91D-03  0.00D+00 EMaxC= 1.00D-01 BMatC= 6.87D-02 BMatP= 9.04D-01
 IDIUse=3 WtCom= 9.01D-01 WtEn= 9.91D-02
 Coeff-Com:  0.151D+00 0.849D+00
 Coeff-En:   0.249D+00 0.751D+00
 Coeff:      0.160D+00 0.840D+00
 Gap=     0.257 Goal=   None    Shift=    0.000
 Gap=     0.257 Goal=   None    Shift=    0.000
 RMSDP=1.52D-03 MaxDP=3.14D-02 DE=-9.56D-02 OVMax= 2.28D-01

 Cycle   3  Pass 0  IDiag  1:
 RMSU=  1.45D-03    CP:  9.87D-01  8.47D-01
 E= -815.589603154493     Delta-E=       -0.153024781986 Rises=F Damp=F
 DIIS: error= 4.47D-03 at cycle   3 NSaved=   3.
 NSaved= 3 IEnMin= 3 EnMin= -815.589603154493     IErMin= 3 ErrMin= 4.47D-03
 ErrMax= 4.47D-03  0.00D+00 EMaxC= 1.00D-01 BMatC= 2.83D-02 BMatP= 6.87D-02
 IDIUse=3 WtCom= 9.55D-01 WtEn= 4.47D-02
 Coeff-Com:  0.492D-01 0.387D+00 0.563D+00
 Coeff-En:   0.000D+00 0.000D+00 0.100D+01
 Coeff:      0.470D-01 0.370D+00 0.583D+00
 Gap=     0.270 Goal=   None    Shift=    0.000
 Gap=     0.270 Goal=   None    Shift=    0.000
 RMSDP=6.24D-04 MaxDP=1.80D-02 DE=-1.53D-01 OVMax= 3.17D-02

 Cycle   4  Pass 0  IDiag  1:
 RMSU=  4.31D-04    CP:  9.88D-01  8.74D-01  6.94D-01
 E= -815.595930395127     Delta-E=       -0.006327240634 Rises=F Damp=F
 DIIS: error= 2.78D-03 at cycle   4 NSaved=   4.
 NSaved= 4 IEnMin= 4 EnMin= -815.595930395127     IErMin= 4 ErrMin= 2.78D-03
 ErrMax= 2.78D-03  0.00D+00 EMaxC= 1.00D-01 BMatC= 5.48D-03 BMatP= 2.83D-02
 IDIUse=3 WtCom= 9.72D-01 WtEn= 2.78D-02
 Coeff-Com:  0.141D-01 0.878D-01 0.312D+00 0.586D+00
 Coeff-En:   0.000D+00 0.000D+00 0.112D+00 0.888D+00
 Coeff:      0.137D-01 0.854D-01 0.307D+00 0.594D+00
 Gap=     0.258 Goal=   None    Shift=    0.000
 Gap=     0.258 Goal=   None    Shift=    0.000
 RMSDP=2.04D-04 MaxDP=8.54D-03 DE=-6.33D-03 OVMax= 1.07D-02

 Cycle   5  Pass 0  IDiag  1:
 RMSU=  1.49D-04    CP:  9.88D-01  8.64D-01  7.54D-01  7.56D-01
 E= -815.597149438949     Delta-E=       -0.001219043822 Rises=F Damp=F
 DIIS: error= 8.56D-04 at cycle   5 NSaved=   5.
 NSaved= 5 IEnMin= 5 EnMin= -815.597149438949     IErMin= 5 ErrMin= 8.56D-04
 ErrMax= 8.56D-04  0.00D+00 EMaxC= 1.00D-01 BMatC= 5.17D-04 BMatP= 5.48D-03
 IDIUse=3 WtCom= 9.91D-01 WtEn= 8.56D-03
 Coeff-Com:  0.453D-02-0.548D-02 0.835D-01 0.293D+00 0.625D+00
 Coeff-En:   0.000D+00 0.000D+00 0.000D+00 0.000D+00 0.100D+01
 Coeff:      0.449D-02-0.543D-02 0.828D-01 0.290D+00 0.628D+00
 Gap=     0.260 Goal=   None    Shift=    0.000
 Gap=     0.260 Goal=   None    Shift=    0.000
 RMSDP=6.94D-05 MaxDP=2.14D-03 DE=-1.22D-03 OVMax= 2.88D-03

 Cycle   6  Pass 0  IDiag  1:
 RMSU=  5.41D-05    CP:  9.88D-01  8.61D-01  7.63D-01  8.23D-01  8.09D-01
 E= -815.597268273785     Delta-E=       -0.000118834836 Rises=F Damp=F
 DIIS: error= 2.17D-04 at cycle   6 NSaved=   6.
 NSaved= 6 IEnMin= 6 EnMin= -815.597268273785     IErMin= 6 ErrMin= 2.17D-04
 ErrMax= 2.17D-04  0.00D+00 EMaxC= 1.00D-01 BMatC= 5.37D-05 BMatP= 5.17D-04
 IDIUse=3 WtCom= 9.98D-01 WtEn= 2.17D-03
 Coeff-Com:  0.149D-02-0.158D-01 0.346D-02 0.721D-01 0.296D+00 0.643D+00
 Coeff-En:   0.000D+00 0.000D+00 0.000D+00 0.000D+00 0.000D+00 0.100D+01
 Coeff:      0.148D-02-0.158D-01 0.345D-02 0.719D-01 0.295D+00 0.643D+00
 Gap=     0.260 Goal=   None    Shift=    0.000
 Gap=     0.260 Goal=   None    Shift=    0.000
 RMSDP=2.39D-05 MaxDP=6.69D-04 DE=-1.19D-04 OVMax= 1.62D-03

 Cycle   7  Pass 0  IDiag  1:
 RMSU=  1.84D-05    CP:  9.88D-01  8.59D-01  7.67D-01  8.35D-01  8.80D-01
                    CP:  9.04D-01
 E= -815.597282770233     Delta-E=       -0.000014496448 Rises=F Damp=F
 DIIS: error= 5.87D-05 at cycle   7 NSaved=   7.
 NSaved= 7 IEnMin= 7 EnMin= -815.597282770233     IErMin= 7 ErrMin= 5.87D-05
 ErrMax= 5.87D-05  0.00D+00 EMaxC= 1.00D-01 BMatC= 5.58D-06 BMatP= 5.37D-05
 IDIUse=1 WtCom= 1.00D+00 WtEn= 0.00D+00
 Coeff-Com:  0.517D-03-0.678D-02-0.551D-02 0.250D-02 0.562D-01 0.270D+00
 Coeff-Com:  0.683D+00
 Coeff:      0.517D-03-0.678D-02-0.551D-02 0.250D-02 0.562D-01 0.270D+00
 Coeff:      0.683D+00
 Gap=     0.260 Goal=   None    Shift=    0.000
 Gap=     0.260 Goal=   None    Shift=    0.000
 RMSDP=9.62D-06 MaxDP=2.69D-04 DE=-1.45D-05 OVMax= 6.03D-04

 Initial convergence to 1.0D-05 achieved.  Increase integral accuracy.
 Cycle   8  Pass 1  IDiag  1:
 E= -815.597174059270     Delta-E=        0.000108710963 Rises=F Damp=F
 DIIS: error= 3.61D-05 at cycle   1 NSaved=   1.
 NSaved= 1 IEnMin= 1 EnMin= -815.597174059270     IErMin= 1 ErrMin= 3.61D-05
 ErrMax= 3.61D-05  0.00D+00 EMaxC= 1.00D-01 BMatC= 1.60D-06 BMatP= 1.60D-06
 IDIUse=1 WtCom= 1.00D+00 WtEn= 0.00D+00
 Coeff-Com:  0.100D+01
 Coeff:      0.100D+01
 Gap=     0.260 Goal=   None    Shift=    0.000
 Gap=     0.260 Goal=   None    Shift=    0.000
 RMSDP=9.62D-06 MaxDP=2.69D-04 DE= 1.09D-04 OVMax= 3.89D-04

 Cycle   9  Pass 1  IDiag  1:
 RMSU=  2.63D-05    CP:  1.00D+00
 E= -815.597174265061     Delta-E=       -0.000000205790 Rises=F Damp=F
 DIIS: error= 3.11D-05 at cycle   2 NSaved=   2.
 NSaved= 2 IEnMin= 2 EnMin= -815.597174265061     IErMin= 2 ErrMin= 3.11D-05
 ErrMax= 3.11D-05  0.00D+00 EMaxC= 1.00D-01 BMatC= 1.51D-06 BMatP= 1.60D-06
 IDIUse=1 WtCom= 1.00D+00 WtEn= 0.00D+00
 Coeff-Com:  0.491D+00 0.509D+00
 Coeff:      0.491D+00 0.509D+00
 Gap=     0.260 Goal=   None    Shift=    0.000
 Gap=     0.260 Goal=   None    Shift=    0.000
 RMSDP=3.71D-06 MaxDP=1.53D-04 DE=-2.06D-07 OVMax= 2.25D-04

 Cycle  10  Pass 1  IDiag  1:
 RMSU=  3.70D-06    CP:  1.00D+00  1.01D+00
 E= -815.597174565967     Delta-E=       -0.000000300906 Rises=F Damp=F
 DIIS: error= 1.02D-05 at cycle   3 NSaved=   3.
 NSaved= 3 IEnMin= 3 EnMin= -815.597174565967     IErMin= 3 ErrMin= 1.02D-05
 ErrMax= 1.02D-05  0.00D+00 EMaxC= 1.00D-01 BMatC= 1.49D-07 BMatP= 1.51D-06
 IDIUse=1 WtCom= 1.00D+00 WtEn= 0.00D+00
 Coeff-Com:  0.281D-01 0.230D+00 0.742D+00
 Coeff:      0.281D-01 0.230D+00 0.742D+00
 Gap=     0.260 Goal=   None    Shift=    0.000
 Gap=     0.260 Goal=   None    Shift=    0.000
 RMSDP=1.58D-06 MaxDP=3.30D-05 DE=-3.01D-07 OVMax= 8.95D-05

 Cycle  11  Pass 1  IDiag  1:
 RMSU=  1.15D-06    CP:  1.00D+00  1.05D+00  8.50D-01
 E= -815.597174651595     Delta-E=       -0.000000085628 Rises=F Damp=F
 DIIS: error= 6.33D-06 at cycle   4 NSaved=   4.
 NSaved= 4 IEnMin= 4 EnMin= -815.597174651595     IErMin= 4 ErrMin= 6.33D-06
 ErrMax= 6.33D-06  0.00D+00 EMaxC= 1.00D-01 BMatC= 3.29D-08 BMatP= 1.49D-07
 IDIUse=1 WtCom= 1.00D+00 WtEn= 0.00D+00
 Coeff-Com: -0.350D-01 0.854D-01 0.424D+00 0.526D+00
 Coeff:     -0.350D-01 0.854D-01 0.424D+00 0.526D+00
 Gap=     0.260 Goal=   None    Shift=    0.000
 Gap=     0.260 Goal=   None    Shift=    0.000
 RMSDP=5.71D-07 MaxDP=1.33D-05 DE=-8.56D-08 OVMax= 4.19D-05

 Cycle  12  Pass 1  IDiag  1:
 RMSU=  5.08D-07    CP:  1.00D+00  1.05D+00  8.96D-01  8.96D-01
 E= -815.597174661024     Delta-E=       -0.000000009429 Rises=F Damp=F
 DIIS: error= 1.66D-06 at cycle   5 NSaved=   5.
 NSaved= 5 IEnMin= 5 EnMin= -815.597174661024     IErMin= 5 ErrMin= 1.66D-06
 ErrMax= 1.66D-06  0.00D+00 EMaxC= 1.00D-01 BMatC= 1.96D-09 BMatP= 3.29D-08
 IDIUse=1 WtCom= 1.00D+00 WtEn= 0.00D+00
 Coeff-Com: -0.142D-01-0.968D-03 0.278D-01 0.172D+00 0.815D+00
 Coeff:     -0.142D-01-0.968D-03 0.278D-01 0.172D+00 0.815D+00
 Gap=     0.260 Goal=   None    Shift=    0.000
 Gap=     0.260 Goal=   None    Shift=    0.000
 RMSDP=2.63D-07 MaxDP=8.10D-06 DE=-9.43D-09 OVMax= 2.83D-05

 Cycle  13  Pass 1  IDiag  1:
 RMSU=  1.57D-07    CP:  1.00D+00  1.05D+00  9.03D-01  1.06D+00  1.16D+00
 E= -815.597174662168     Delta-E=       -0.000000001145 Rises=F Damp=F
 DIIS: error= 5.94D-07 at cycle   6 NSaved=   6.
 NSaved= 6 IEnMin= 6 EnMin= -815.597174662168     IErMin= 6 ErrMin= 5.94D-07
 ErrMax= 5.94D-07  0.00D+00 EMaxC= 1.00D-01 BMatC= 6.19D-10 BMatP= 1.96D-09
 IDIUse=1 WtCom= 1.00D+00 WtEn= 0.00D+00
 Coeff-Com:  0.290D-02-0.243D-01-0.112D+00-0.620D-01 0.424D+00 0.771D+00
 Coeff:      0.290D-02-0.243D-01-0.112D+00-0.620D-01 0.424D+00 0.771D+00
 Gap=     0.260 Goal=   None    Shift=    0.000
 Gap=     0.260 Goal=   None    Shift=    0.000
 RMSDP=1.54D-07 MaxDP=5.03D-06 DE=-1.14D-09 OVMax= 1.85D-05

 Cycle  14  Pass 1  IDiag  1:
 RMSU=  5.21D-08    CP:  1.00D+00  1.05D+00  9.11D-01  1.15D+00  1.35D+00
                    CP:  8.29D-01
 E= -815.597174662500     Delta-E=       -0.000000000332 Rises=F Damp=F
 DIIS: error= 2.91D-07 at cycle   7 NSaved=   7.
 NSaved= 7 IEnMin= 7 EnMin= -815.597174662500     IErMin= 7 ErrMin= 2.91D-07
 ErrMax= 2.91D-07  0.00D+00 EMaxC= 1.00D-01 BMatC= 4.80D-11 BMatP= 6.19D-10
 IDIUse=1 WtCom= 1.00D+00 WtEn= 0.00D+00
 Coeff-Com:  0.219D-02-0.130D-01-0.608D-01-0.424D-01 0.177D+00 0.400D+00
 Coeff-Com:  0.538D+00
 Coeff:      0.219D-02-0.130D-01-0.608D-01-0.424D-01 0.177D+00 0.400D+00
 Coeff:      0.538D+00
 Gap=     0.260 Goal=   None    Shift=    0.000
 Gap=     0.260 Goal=   None    Shift=    0.000
 RMSDP=2.54D-08 MaxDP=4.85D-07 DE=-3.32D-10 OVMax= 1.64D-06

 Cycle  15  Pass 1  IDiag  1:
 RMSU=  1.73D-08    CP:  1.00D+00  1.05D+00  9.11D-01  1.16D+00  1.37D+00
                    CP:  8.85D-01  8.41D-01
 E= -815.597174662494     Delta-E=        0.000000000006 Rises=F Damp=F
 DIIS: error= 6.82D-08 at cycle   8 NSaved=   8.
 NSaved= 8 IEnMin= 7 EnMin= -815.597174662500     IErMin= 8 ErrMin= 6.82D-08
 ErrMax= 6.82D-08  0.00D+00 EMaxC= 1.00D-01 BMatC= 3.48D-12 BMatP= 4.80D-11
 IDIUse=1 WtCom= 1.00D+00 WtEn= 0.00D+00
 Coeff-Com:  0.499D-03-0.196D-02-0.952D-02-0.808D-02 0.189D-01 0.654D-01
 Coeff-Com:  0.229D+00 0.705D+00
 Coeff:      0.499D-03-0.196D-02-0.952D-02-0.808D-02 0.189D-01 0.654D-01
 Coeff:      0.229D+00 0.705D+00
 Gap=     0.260 Goal=   None    Shift=    0.000
 Gap=     0.260 Goal=   None    Shift=    0.000
 RMSDP=7.59D-09 MaxDP=1.64D-07 DE= 6.14D-12 OVMax= 4.51D-07

 SCF Done:  E(ULC-wPBE) =  -815.597174662     A.U. after   15 cycles
            NFock= 15  Conv=0.76D-08     -V/T= 2.0037
 <Sx>= 0.0000 <Sy>= 0.0000 <Sz>= 0.0000 <S**2>=-0.0000 S=-0.0000
 <L.S>= 0.000000000000E+00
 KE= 8.125708058312D+02 PE=-3.172316936504D+03 EE= 9.167105312378D+02
 Annihilation of the first spin contaminant:
 S**2 before annihilation    -0.0000,   after    -0.0000
 Leave Link  502 at Sat Jul 25 15:03:38 2020, MaxMem=  4026531840 cpu:             309.1 elap:              38.8
 (Enter /opt/ohpc/pub/libs/gaussian/g16-A.03/sandybridge/g16/l601.exe)
 Copying SCF densities to generalized density rwf, IOpCl= 1 IROHF=0.

 **********************************************************************

            Population analysis using the SCF density.

 **********************************************************************

 Orbital symmetries:
 Alpha Orbitals:
       Occupied  (A) (A) (A) (A) (A) (A) (A) (A) (A) (A) (A) (A)
                 (A) (A) (A) (A) (A) (A) (A) (A) (A) (A) (A) (A)
                 (A) (A) (A) (A) (A) (A) (A) (A) (A) (A) (A) (A)
                 (A) (A) (A) (A) (A) (A)
       Virtual   (A) (A) (A) (A) (A) (A) (A) (A) (A) (A) (A) (A)
                 (A) (A) (A) (A) (A) (A) (A) (A) (A) (A) (A) (A)
                 (A) (A) (A) (A) (A) (A) (A) (A) (A) (A) (A) (A)
                 (A) (A) (A) (A) (A) (A) (A) (A) (A) (A) (A) (A)
                 (A) (A) (A) (A) (A) (A) (A) (A) (A) (A) (A) (A)
                 (A) (A) (A) (A) (A) (A) (A) (A) (A) (A) (A) (A)
                 (A) (A) (A) (A) (A) (A) (A) (A) (A) (A) (A) (A)
                 (A) (A) (A) (A) (A) (A) (A) (A) (A) (A) (A) (A)
                 (A) (A) (A) (A) (A) (A) (A) (A) (A) (A) (A) (A)
                 (A) (A) (A) (A) (A) (A) (A) (A) (A) (A) (A) (A)
                 (A) (A) (A) (A) (A) (A) (A) (A) (A) (A) (A) (A)
                 (A) (A) (A) (A) (A) (A) (A) (A) (A) (A) (A) (A)
                 (A) (A)
 Beta  Orbitals:
       Occupied  (A) (A) (A) (A) (A) (A) (A) (A) (A) (A) (A) (A)
                 (A) (A) (A) (A) (A) (A) (A) (A) (A) (A) (A) (A)
                 (A) (A) (A) (A) (A) (A) (A) (A) (A) (A) (A) (A)
                 (A) (A) (A) (A) (A) (A)
       Virtual   (A) (A) (A) (A) (A) (A) (A) (A) (A) (A) (A) (A)
                 (A) (A) (A) (A) (A) (A) (A) (A) (A) (A) (A) (A)
                 (A) (A) (A) (A) (A) (A) (A) (A) (A) (A) (A) (A)
                 (A) (A) (A) (A) (A) (A) (A) (A) (A) (A) (A) (A)
                 (A) (A) (A) (A) (A) (A) (A) (A) (A) (A) (A) (A)
                 (A) (A) (A) (A) (A) (A) (A) (A) (A) (A) (A) (A)
                 (A) (A) (A) (A) (A) (A) (A) (A) (A) (A) (A) (A)
                 (A) (A) (A) (A) (A) (A) (A) (A) (A) (A) (A) (A)
                 (A) (A) (A) (A) (A) (A) (A) (A) (A) (A) (A) (A)
                 (A) (A) (A) (A) (A) (A) (A) (A) (A) (A) (A) (A)
                 (A) (A) (A) (A) (A) (A) (A) (A) (A) (A) (A) (A)
                 (A) (A) (A) (A) (A) (A) (A) (A) (A) (A) (A) (A)
                 (A) (A)
 The electronic state is 1-A.
 Alpha  occ. eigenvalues --  -88.17103 -14.08786 -14.08145 -10.05954 -10.03673
 Alpha  occ. eigenvalues --  -10.02873 -10.00413  -9.99974  -9.99853  -9.98110
 Alpha  occ. eigenvalues --   -9.97239  -7.77444  -5.79491  -5.79038  -5.78693
 Alpha  occ. eigenvalues --   -1.00591  -0.90906  -0.88920  -0.81284  -0.74749
 Alpha  occ. eigenvalues --   -0.74131  -0.68468  -0.67567  -0.58710  -0.58695
 Alpha  occ. eigenvalues --   -0.54962  -0.54413  -0.52533  -0.48853  -0.48223
 Alpha  occ. eigenvalues --   -0.44843  -0.43591  -0.42384  -0.41888  -0.40109
 Alpha  occ. eigenvalues --   -0.37389  -0.37123  -0.34375  -0.33687  -0.29146
 Alpha  occ. eigenvalues --   -0.27998  -0.27580
 Alpha virt. eigenvalues --   -0.01555  -0.00278   0.04923   0.08241   0.10797
 Alpha virt. eigenvalues --    0.11534   0.13262   0.14653   0.15909   0.17098
 Alpha virt. eigenvalues --    0.17534   0.17949   0.18969   0.23374   0.27326
 Alpha virt. eigenvalues --    0.28657   0.29836   0.33627   0.34779   0.37222
 Alpha virt. eigenvalues --    0.38874   0.42422   0.44710   0.46075   0.46876
 Alpha virt. eigenvalues --    0.48415   0.49078   0.50189   0.50559   0.51649
 Alpha virt. eigenvalues --    0.52309   0.52613   0.53374   0.53557   0.54105
 Alpha virt. eigenvalues --    0.54702   0.55544   0.57713   0.58245   0.59672
 Alpha virt. eigenvalues --    0.60280   0.61810   0.64422   0.64989   0.67323
 Alpha virt. eigenvalues --    0.67848   0.69191   0.70744   0.71621   0.72646
 Alpha virt. eigenvalues --    0.74129   0.75503   0.77406   0.78210   0.81733
 Alpha virt. eigenvalues --    0.85378   0.86198   0.86621   0.89453   0.90927
 Alpha virt. eigenvalues --    0.92260   0.93734   0.94877   0.97432   0.97617
 Alpha virt. eigenvalues --    0.98284   1.01366   1.02077   1.02337   1.04180
 Alpha virt. eigenvalues --    1.04353   1.07541   1.07639   1.09322   1.10169
 Alpha virt. eigenvalues --    1.14066   1.16920   1.17659   1.20475   1.23887
 Alpha virt. eigenvalues --    1.25109   1.26801   1.29655   1.32169   1.35611
 Alpha virt. eigenvalues --    1.38619   1.42265   1.44338   1.47698   1.50988
 Alpha virt. eigenvalues --    1.52019   1.52990   1.56089   1.57159   1.58597
 Alpha virt. eigenvalues --    1.60046   1.62679   1.63562   1.64777   1.66629
 Alpha virt. eigenvalues --    1.68292   1.68440   1.70031   1.71592   1.72770
 Alpha virt. eigenvalues --    1.77152   1.78189   1.78885   1.80158   1.81700
 Alpha virt. eigenvalues --    1.86451   1.88199   1.90510   1.94132   1.95213
 Alpha virt. eigenvalues --    1.96562   1.98992   1.99519   2.02549   2.03203
 Alpha virt. eigenvalues --    2.09493   2.11315   2.15662   2.16607   2.17075
 Alpha virt. eigenvalues --    2.18960   2.23677   2.26607   2.36460   2.36915
 Alpha virt. eigenvalues --    2.40177   2.43020   2.46462   2.48662   2.55473
 Alpha virt. eigenvalues --    2.57360   2.60694   2.66270   2.71530   2.75629
 Alpha virt. eigenvalues --    2.80917   2.88020   2.96066   3.01120   3.21043
 Alpha virt. eigenvalues --    3.40497
  Beta  occ. eigenvalues --  -88.17103 -14.08786 -14.08145 -10.05954 -10.03673
  Beta  occ. eigenvalues --  -10.02873 -10.00413  -9.99974  -9.99853  -9.98110
  Beta  occ. eigenvalues --   -9.97239  -7.77444  -5.79491  -5.79038  -5.78693
  Beta  occ. eigenvalues --   -1.00591  -0.90906  -0.88920  -0.81284  -0.74749
  Beta  occ. eigenvalues --   -0.74131  -0.68468  -0.67567  -0.58710  -0.58695
  Beta  occ. eigenvalues --   -0.54962  -0.54413  -0.52533  -0.48853  -0.48223
  Beta  occ. eigenvalues --   -0.44843  -0.43591  -0.42384  -0.41888  -0.40109
  Beta  occ. eigenvalues --   -0.37389  -0.37123  -0.34375  -0.33687  -0.29146
  Beta  occ. eigenvalues --   -0.27998  -0.27580
  Beta virt. eigenvalues --   -0.01555  -0.00278   0.04923   0.08241   0.10797
  Beta virt. eigenvalues --    0.11534   0.13262   0.14653   0.15909   0.17098
  Beta virt. eigenvalues --    0.17534   0.17949   0.18969   0.23374   0.27326
  Beta virt. eigenvalues --    0.28657   0.29836   0.33627   0.34779   0.37222
  Beta virt. eigenvalues --    0.38874   0.42422   0.44710   0.46075   0.46876
  Beta virt. eigenvalues --    0.48415   0.49078   0.50189   0.50559   0.51649
  Beta virt. eigenvalues --    0.52309   0.52613   0.53374   0.53557   0.54105
  Beta virt. eigenvalues --    0.54702   0.55544   0.57713   0.58245   0.59672
  Beta virt. eigenvalues --    0.60280   0.61810   0.64422   0.64989   0.67323
  Beta virt. eigenvalues --    0.67848   0.69191   0.70744   0.71621   0.72646
  Beta virt. eigenvalues --    0.74129   0.75503   0.77406   0.78210   0.81733
  Beta virt. eigenvalues --    0.85378   0.86198   0.86621   0.89453   0.90927
  Beta virt. eigenvalues --    0.92260   0.93734   0.94877   0.97432   0.97617
  Beta virt. eigenvalues --    0.98284   1.01366   1.02077   1.02337   1.04180
  Beta virt. eigenvalues --    1.04353   1.07541   1.07639   1.09322   1.10169
  Beta virt. eigenvalues --    1.14066   1.16920   1.17659   1.20475   1.23887
  Beta virt. eigenvalues --    1.25109   1.26801   1.29655   1.32169   1.35611
  Beta virt. eigenvalues --    1.38619   1.42265   1.44338   1.47698   1.50988
  Beta virt. eigenvalues --    1.52019   1.52990   1.56089   1.57159   1.58597
  Beta virt. eigenvalues --    1.60046   1.62679   1.63562   1.64777   1.66629
  Beta virt. eigenvalues --    1.68292   1.68440   1.70031   1.71592   1.72770
  Beta virt. eigenvalues --    1.77152   1.78189   1.78885   1.80158   1.81700
  Beta virt. eigenvalues --    1.86451   1.88199   1.90510   1.94132   1.95213
  Beta virt. eigenvalues --    1.96562   1.98992   1.99519   2.02549   2.03203
  Beta virt. eigenvalues --    2.09493   2.11315   2.15662   2.16607   2.17075
  Beta virt. eigenvalues --    2.18960   2.23677   2.26607   2.36460   2.36915
  Beta virt. eigenvalues --    2.40177   2.43020   2.46462   2.48662   2.55473
  Beta virt. eigenvalues --    2.57360   2.60694   2.66270   2.71530   2.75629
  Beta virt. eigenvalues --    2.80917   2.88020   2.96066   3.01120   3.21043
  Beta virt. eigenvalues --    3.40497
          Condensed to atoms (all electrons):
               1          2          3          4          5          6
     1  C    4.920828   0.502342  -0.026708  -0.031700  -0.036304   0.440988
     2  C    0.502342   4.626211   0.528170  -0.096422  -0.037915  -0.032180
     3  N   -0.026708   0.528170   6.271409   0.580282  -0.071741  -0.039889
     4  C   -0.031700  -0.096422   0.580282   4.822328   0.531810  -0.104784
     5  N   -0.036304  -0.037915  -0.071741   0.531810   6.192323   0.639355
     6  C    0.440988  -0.032180  -0.039889  -0.104784   0.639355   4.643319
     7  C    0.002163   0.002812  -0.068544   0.278320  -0.085971   0.002606
     8  C    0.000201  -0.000145   0.005963  -0.059034   0.011633   0.001532
     9  C    0.000001   0.000004  -0.000099   0.007954   0.000285   0.000009
    10  C    0.000001   0.000006   0.000357   0.003206   0.000004   0.000005
    11  S    0.000051   0.000208   0.018920  -0.063876   0.003267  -0.000193
    12  H    0.389484  -0.040290   0.005541   0.001903   0.005284  -0.043397
    13  H   -0.057062   0.405690  -0.026409  -0.000988  -0.000513   0.007444
    14  H   -0.085539   0.007040  -0.001187   0.003429  -0.036093   0.399778
    15  H    0.000108  -0.000019   0.000572  -0.017957   0.017547   0.000836
    16  H   -0.000000  -0.000000   0.000001  -0.000236  -0.000001  -0.000001
    17  H    0.000000  -0.000000   0.000002  -0.000255   0.000001  -0.000000
               7          8          9         10         11         12
     1  C    0.002163   0.000201   0.000001   0.000001   0.000051   0.389484
     2  C    0.002812  -0.000145   0.000004   0.000006   0.000208  -0.040290
     3  N   -0.068544   0.005963  -0.000099   0.000357   0.018920   0.005541
     4  C    0.278320  -0.059034   0.007954   0.003206  -0.063876   0.001903
     5  N   -0.085971   0.011633   0.000285   0.000004   0.003267   0.005284
     6  C    0.002606   0.001532   0.000009   0.000005  -0.000193  -0.043397
     7  C    5.363716   0.457882  -0.011040  -0.101448   0.338735   0.000110
     8  C    0.457882   4.811576   0.456698  -0.016834  -0.104058  -0.000006
     9  C   -0.011040   0.456698   4.727197   0.508760  -0.089776   0.000000
    10  C   -0.101448  -0.016834   0.508760   5.031107   0.354943  -0.000000
    11  S    0.338735  -0.104058  -0.089776   0.354943  15.409128  -0.000005
    12  H    0.000110  -0.000006   0.000000  -0.000000  -0.000005   0.730421
    13  H   -0.000491   0.000032  -0.000000  -0.000001  -0.000082  -0.010321
    14  H   -0.000547  -0.000194  -0.000002  -0.000000   0.000021  -0.009482
    15  H   -0.067912   0.410819  -0.056139   0.010834   0.010431  -0.000003
    16  H    0.011356  -0.047936   0.407559  -0.060454   0.008018  -0.000000
    17  H    0.000188   0.010503  -0.030571   0.397931  -0.040057  -0.000000
              13         14         15         16         17
     1  C   -0.057062  -0.085539   0.000108  -0.000000   0.000000
     2  C    0.405690   0.007040  -0.000019  -0.000000  -0.000000
     3  N   -0.026409  -0.001187   0.000572   0.000001   0.000002
     4  C   -0.000988   0.003429  -0.017957  -0.000236  -0.000255
     5  N   -0.000513  -0.036093   0.017547  -0.000001   0.000001
     6  C    0.007444   0.399778   0.000836  -0.000001  -0.000000
     7  C   -0.000491  -0.000547  -0.067912   0.011356   0.000188
     8  C    0.000032  -0.000194   0.410819  -0.047936   0.010503
     9  C   -0.000000  -0.000002  -0.056139   0.407559  -0.030571
    10  C   -0.000001  -0.000000   0.010834  -0.060454   0.397931
    11  S   -0.000082   0.000021   0.010431   0.008018  -0.040057
    12  H   -0.010321  -0.009482  -0.000003  -0.000000  -0.000000
    13  H    0.693872  -0.000287   0.000001  -0.000000  -0.000000
    14  H   -0.000287   0.720232  -0.000224   0.000000  -0.000000
    15  H    0.000001  -0.000224   0.727100  -0.008647  -0.000168
    16  H   -0.000000   0.000000  -0.008647   0.721209  -0.008245
    17  H   -0.000000  -0.000000  -0.000168  -0.008245   0.664913
          Atomic-Atomic Spin Densities.
               1          2          3          4          5          6
     1  C   -0.000000   0.000000  -0.000000   0.000000  -0.000000   0.000000
     2  C    0.000000   0.000000   0.000000  -0.000000   0.000000   0.000000
     3  N   -0.000000   0.000000   0.000000  -0.000000   0.000000   0.000000
     4  C    0.000000  -0.000000  -0.000000   0.000000   0.000000  -0.000000
     5  N   -0.000000   0.000000   0.000000   0.000000  -0.000000   0.000000
     6  C    0.000000   0.000000   0.000000  -0.000000   0.000000   0.000000
     7  C   -0.000000   0.000000   0.000000   0.000000   0.000000   0.000000
     8  C   -0.000000   0.000000   0.000000  -0.000000   0.000000   0.000000
     9  C   -0.000000   0.000000  -0.000000   0.000000  -0.000000   0.000000
    10  C    0.000000  -0.000000   0.000000  -0.000000   0.000000  -0.000000
    11  S    0.000000  -0.000000   0.000000  -0.000000  -0.000000  -0.000000
    12  H   -0.000000  -0.000000  -0.000000  -0.000000  -0.000000   0.000000
    13  H   -0.000000   0.000000  -0.000000   0.000000   0.000000   0.000000
    14  H    0.000000  -0.000000   0.000000   0.000000   0.000000  -0.000000
    15  H   -0.000000  -0.000000  -0.000000  -0.000000   0.000000   0.000000
    16  H    0.000000   0.000000  -0.000000   0.000000  -0.000000   0.000000
    17  H    0.000000   0.000000   0.000000  -0.000000   0.000000  -0.000000
               7          8          9         10         11         12
     1  C   -0.000000  -0.000000  -0.000000   0.000000   0.000000  -0.000000
     2  C    0.000000   0.000000   0.000000  -0.000000  -0.000000  -0.000000
     3  N    0.000000   0.000000  -0.000000   0.000000   0.000000  -0.000000
     4  C    0.000000  -0.000000   0.000000  -0.000000  -0.000000  -0.000000
     5  N    0.000000   0.000000  -0.000000   0.000000  -0.000000  -0.000000
     6  C    0.000000   0.000000   0.000000  -0.000000  -0.000000   0.000000
     7  C   -0.000000   0.000000  -0.000000   0.000000  -0.000000  -0.000000
     8  C    0.000000  -0.000000   0.000000  -0.000000   0.000000  -0.000000
     9  C   -0.000000   0.000000   0.000000  -0.000000  -0.000000   0.000000
    10  C    0.000000  -0.000000  -0.000000  -0.000000   0.000000  -0.000000
    11  S   -0.000000   0.000000  -0.000000   0.000000   0.000000   0.000000
    12  H   -0.000000  -0.000000   0.000000  -0.000000   0.000000   0.000000
    13  H   -0.000000  -0.000000   0.000000  -0.000000  -0.000000  -0.000000
    14  H    0.000000   0.000000  -0.000000   0.000000  -0.000000   0.000000
    15  H    0.000000  -0.000000   0.000000  -0.000000   0.000000  -0.000000
    16  H   -0.000000   0.000000  -0.000000   0.000000  -0.000000   0.000000
    17  H    0.000000  -0.000000  -0.000000   0.000000  -0.000000  -0.000000
              13         14         15         16         17
     1  C   -0.000000   0.000000  -0.000000   0.000000   0.000000
     2  C    0.000000  -0.000000  -0.000000   0.000000   0.000000
     3  N   -0.000000   0.000000  -0.000000  -0.000000   0.000000
     4  C    0.000000   0.000000  -0.000000   0.000000  -0.000000
     5  N    0.000000   0.000000   0.000000  -0.000000   0.000000
     6  C    0.000000  -0.000000   0.000000   0.000000  -0.000000
     7  C   -0.000000   0.000000   0.000000  -0.000000   0.000000
     8  C   -0.000000   0.000000  -0.000000   0.000000  -0.000000
     9  C    0.000000  -0.000000   0.000000  -0.000000  -0.000000
    10  C   -0.000000   0.000000  -0.000000   0.000000   0.000000
    11  S   -0.000000  -0.000000   0.000000  -0.000000  -0.000000
    12  H   -0.000000   0.000000  -0.000000   0.000000  -0.000000
    13  H    0.000000  -0.000000  -0.000000   0.000000  -0.000000
    14  H   -0.000000  -0.000000   0.000000  -0.000000   0.000000
    15  H   -0.000000   0.000000  -0.000000   0.000000  -0.000000
    16  H    0.000000  -0.000000   0.000000  -0.000000   0.000000
    17  H   -0.000000   0.000000  -0.000000   0.000000   0.000000
 Mulliken charges and spin densities:
               1          2
     1  C   -0.018855  -0.000000
     2  C    0.134488   0.000000
     3  N   -0.176641   0.000000
     4  C    0.146021   0.000000
     5  N   -0.132972  -0.000000
     6  C    0.084571   0.000000
     7  C   -0.121935  -0.000000
     8  C    0.061367   0.000000
     9  C    0.079161  -0.000000
    10  C   -0.128417   0.000000
    11  S    0.154326   0.000000
    12  H   -0.029240   0.000000
    13  H   -0.010886   0.000000
    14  H    0.003054  -0.000000
    15  H   -0.027177  -0.000000
    16  H   -0.022623  -0.000000
    17  H    0.005757   0.000000
 Sum of Mulliken charges =  -0.00000  -0.00000
 Mulliken charges and spin densities with hydrogens summed into heavy atoms:
               1          2
     1  C   -0.048095  -0.000000
     2  C    0.123602   0.000000
     3  N   -0.176641   0.000000
     4  C    0.146021   0.000000
     5  N   -0.132972  -0.000000
     6  C    0.087625   0.000000
     7  C   -0.121935  -0.000000
     8  C    0.034190   0.000000
     9  C    0.056538  -0.000000
    10  C   -0.122659   0.000000
    11  S    0.154326   0.000000
 Electronic spatial extent (au):  <R**2>=           2041.9596
 Charge=              0.0000 electrons
 Dipole moment (field-independent basis, Debye):
    X=             -1.6162    Y=              0.0943    Z=              0.0657  Tot=              1.6203
 Quadrupole moment (field-independent basis, Debye-Ang):
   XX=            -51.5408   YY=            -68.1641   ZZ=            -72.3350
   XY=              2.0568   XZ=             -0.6775   YZ=             -0.2884
 Traceless Quadrupole moment (field-independent basis, Debye-Ang):
   XX=             12.4725   YY=             -4.1508   ZZ=             -8.3217
   XY=              2.0568   XZ=             -0.6775   YZ=             -0.2884
 Octapole moment (field-independent basis, Debye-Ang**2):
  XXX=            -19.1871  YYY=             -0.5950  ZZZ=             -0.2230  XYY=             -1.0891
  XXY=             -6.2473  XXZ=              1.2519  XZZ=             -4.2426  YZZ=             -1.5961
  YYZ=             -0.2439  XYZ=             -0.2707
 Hexadecapole moment (field-independent basis, Debye-Ang**3):
 XXXX=          -1884.7315 YYYY=           -513.6250 ZZZZ=            -77.6592 XXXY=              3.0154
 XXXZ=             -8.9051 YYYX=             14.4543 YYYZ=             -1.4352 ZZZX=             -1.0277
 ZZZY=             -0.2535 XXYY=           -399.6352 XXZZ=           -411.2101 YYZZ=           -105.6530
 XXYZ=             -3.3525 YYXZ=             -2.6134 ZZXY=             -3.4153
 N-N= 6.274384247729D+02 E-N=-3.172316935808D+03  KE= 8.125708058312D+02
                          Isotropic Fermi Contact Couplings
        Atom                 a.u.       MegaHertz       Gauss      10(-4) cm-1
     1  C(13)              0.00000       0.00000       0.00000       0.00000
     2  C(13)              0.00000       0.00000       0.00000       0.00000
     3  N(14)              0.00000       0.00000       0.00000       0.00000
     4  C(13)              0.00000       0.00000       0.00000       0.00000
     5  N(14)              0.00000       0.00000       0.00000       0.00000
     6  C(13)              0.00000       0.00000       0.00000       0.00000
     7  C(13)             -0.00000      -0.00000      -0.00000      -0.00000
     8  C(13)              0.00000       0.00000       0.00000       0.00000
     9  C(13)             -0.00000      -0.00000      -0.00000      -0.00000
    10  C(13)             -0.00000      -0.00000      -0.00000      -0.00000
    11  S(33)              0.00000       0.00000       0.00000       0.00000
    12  H(1)               0.00000       0.00000       0.00000       0.00000
    13  H(1)               0.00000       0.00000       0.00000       0.00000
    14  H(1)               0.00000       0.00000       0.00000       0.00000
    15  H(1)              -0.00000      -0.00000      -0.00000      -0.00000
    16  H(1)               0.00000       0.00000       0.00000       0.00000
    17  H(1)               0.00000       0.00000       0.00000       0.00000
 --------------------------------------------------------
       Center         ----  Spin Dipole Couplings  ----
                      3XX-RR        3YY-RR        3ZZ-RR
 --------------------------------------------------------
     1   Atom       -0.000000      0.000000     -0.000000
     2   Atom       -0.000000      0.000000     -0.000000
     3   Atom       -0.000000      0.000000     -0.000000
     4   Atom        0.000000     -0.000000     -0.000000
     5   Atom        0.000000     -0.000000     -0.000000
     6   Atom        0.000000     -0.000000      0.000000
     7   Atom        0.000000     -0.000000      0.000000
     8   Atom        0.000000     -0.000000     -0.000000
     9   Atom        0.000000     -0.000000     -0.000000
    10   Atom       -0.000000      0.000000     -0.000000
    11   Atom       -0.000000      0.000000     -0.000000
    12   Atom        0.000000     -0.000000     -0.000000
    13   Atom        0.000000     -0.000000     -0.000000
    14   Atom        0.000000     -0.000000      0.000000
    15   Atom        0.000000     -0.000000      0.000000
    16   Atom       -0.000000      0.000000      0.000000
    17   Atom        0.000000      0.000000     -0.000000
 --------------------------------------------------------
                        XY            XZ            YZ
 --------------------------------------------------------
     1   Atom        0.000000      0.000000      0.000000
     2   Atom       -0.000000     -0.000000     -0.000000
     3   Atom        0.000000      0.000000     -0.000000
     4   Atom        0.000000     -0.000000     -0.000000
     5   Atom       -0.000000      0.000000      0.000000
     6   Atom        0.000000     -0.000000     -0.000000
     7   Atom        0.000000      0.000000     -0.000000
     8   Atom        0.000000      0.000000      0.000000
     9   Atom       -0.000000      0.000000     -0.000000
    10   Atom        0.000000      0.000000      0.000000
    11   Atom        0.000000     -0.000000      0.000000
    12   Atom       -0.000000     -0.000000      0.000000
    13   Atom        0.000000     -0.000000      0.000000
    14   Atom        0.000000      0.000000     -0.000000
    15   Atom        0.000000      0.000000      0.000000
    16   Atom       -0.000000      0.000000      0.000000
    17   Atom       -0.000000     -0.000000      0.000000
 --------------------------------------------------------


 ---------------------------------------------------------------------------------
              Anisotropic Spin Dipole Couplings in Principal Axis System
 ---------------------------------------------------------------------------------

       Atom             a.u.   MegaHertz   Gauss  10(-4) cm-1        Axes

              Baa    -0.0000    -0.000    -0.000    -0.000  0.9409 -0.3360  0.0414
     1 C(13)  Bbb    -0.0000    -0.000    -0.000    -0.000 -0.0721 -0.0795  0.9942
              Bcc     0.0000     0.000     0.000     0.000  0.3308  0.9385  0.0990
 
              Baa    -0.0000    -0.000    -0.000    -0.000  0.7463  0.6608  0.0802
     2 C(13)  Bbb    -0.0000    -0.000    -0.000    -0.000 -0.0679 -0.0443  0.9967
              Bcc     0.0000     0.000     0.000     0.000 -0.6622  0.7492 -0.0118
 
              Baa    -0.0000    -0.000    -0.000    -0.000  0.9963 -0.0736 -0.0444
     3 N(14)  Bbb    -0.0000    -0.000    -0.000    -0.000  0.0445 -0.0004  0.9990
              Bcc     0.0000     0.000     0.000     0.000  0.0735  0.9973 -0.0029
 
              Baa    -0.0000    -0.000    -0.000    -0.000 -0.1143  0.4611  0.8800
     4 C(13)  Bbb    -0.0000    -0.000    -0.000    -0.000 -0.2613  0.8406 -0.4744
              Bcc     0.0000     0.000     0.000     0.000  0.9585  0.2841 -0.0244
 
              Baa    -0.0000    -0.000    -0.000    -0.000  0.5536  0.8162 -0.1654
     5 N(14)  Bbb    -0.0000    -0.000    -0.000    -0.000  0.1264  0.1140  0.9854
              Bcc     0.0000     0.000     0.000     0.000  0.8232 -0.5664 -0.0401
 
              Baa    -0.0000    -0.000    -0.000    -0.000 -0.0690  0.9972  0.0284
     6 C(13)  Bbb     0.0000     0.000     0.000     0.000  0.9838  0.0633  0.1678
              Bcc     0.0000     0.000     0.000     0.000 -0.1655 -0.0395  0.9854
 
              Baa    -0.0000    -0.000    -0.000    -0.000 -0.2896  0.9572  0.0025
     7 C(13)  Bbb     0.0000     0.000     0.000     0.000 -0.0842 -0.0281  0.9961
              Bcc     0.0000     0.000     0.000     0.000  0.9534  0.2882  0.0887
 
              Baa    -0.0000    -0.000    -0.000    -0.000  0.0364 -0.1324  0.9905
     8 C(13)  Bbb    -0.0000    -0.000    -0.000    -0.000 -0.3755  0.9167  0.1364
              Bcc     0.0000     0.000     0.000     0.000  0.9261  0.3769  0.0164
 
              Baa    -0.0000    -0.000    -0.000    -0.000  0.5611  0.8250  0.0678
     9 C(13)  Bbb    -0.0000    -0.000    -0.000    -0.000 -0.1031 -0.0116  0.9946
              Bcc     0.0000     0.000     0.000     0.000  0.8213 -0.5650  0.0785
 
              Baa    -0.0000    -0.000    -0.000    -0.000 -0.0864 -0.0484  0.9951
    10 C(13)  Bbb    -0.0000    -0.000    -0.000    -0.000  0.9951 -0.0515  0.0839
              Bcc     0.0000     0.000     0.000     0.000  0.0472  0.9975  0.0526
 
              Baa    -0.0000    -0.000    -0.000    -0.000  0.8002 -0.5981  0.0443
    11 S(33)  Bbb    -0.0000    -0.000    -0.000    -0.000 -0.0317  0.0316  0.9990
              Bcc     0.0000     0.000     0.000     0.000  0.5989  0.8008 -0.0063
 
              Baa    -0.0000    -0.000    -0.000    -0.000  0.4683  0.8835  0.0132
    12 H(1)   Bbb    -0.0000    -0.000    -0.000    -0.000  0.0671 -0.0505  0.9965
              Bcc     0.0000     0.000     0.000     0.000  0.8810 -0.4657 -0.0829
 
              Baa    -0.0000    -0.000    -0.000    -0.000 -0.4071  0.9045 -0.1271
    13 H(1)   Bbb    -0.0000    -0.000    -0.000    -0.000 -0.0415  0.1207  0.9918
              Bcc     0.0000     0.000     0.000     0.000  0.9124  0.4090 -0.0116
 
              Baa    -0.0000    -0.000    -0.000    -0.000 -0.3541  0.9347  0.0314
    14 H(1)   Bbb     0.0000     0.000     0.000     0.000  0.9351  0.3533  0.0290
              Bcc     0.0000     0.000     0.000     0.000 -0.0160 -0.0396  0.9991
 
              Baa    -0.0000    -0.000    -0.000    -0.000 -0.0169  0.9993 -0.0332
    15 H(1)   Bbb     0.0000     0.000     0.000     0.000 -0.0789  0.0318  0.9964
              Bcc     0.0000     0.000     0.000     0.000  0.9967  0.0195  0.0783
 
              Baa    -0.0000    -0.000    -0.000    -0.000  0.8703  0.4618 -0.1709
    16 H(1)   Bbb     0.0000     0.000     0.000     0.000  0.2851 -0.1897  0.9395
              Bcc     0.0000     0.000     0.000     0.000 -0.4015  0.8664  0.2968
 
              Baa    -0.0000    -0.000    -0.000    -0.000 -0.1767 -0.2924  0.9398
    17 H(1)   Bbb    -0.0000    -0.000    -0.000    -0.000  0.5439  0.7668  0.3408
              Bcc     0.0000     0.000     0.000     0.000  0.8203 -0.5714 -0.0235
 

 ---------------------------------------------------------------------------------

 No NMR shielding tensors so no spin-rotation constants.
 Leave Link  601 at Sat Jul 25 15:03:38 2020, MaxMem=  4026531840 cpu:               1.6 elap:               0.2
 (Enter /opt/ohpc/pub/libs/gaussian/g16-A.03/sandybridge/g16/l701.exe)
 ... and contract with generalized density number  0.
 Compute integral first derivatives.
 Leave Link  701 at Sat Jul 25 15:03:38 2020, MaxMem=  4026531840 cpu:               1.2 elap:               0.2
 (Enter /opt/ohpc/pub/libs/gaussian/g16-A.03/sandybridge/g16/l702.exe)
 L702 exits ... SP integral derivatives will be done elsewhere.
 Leave Link  702 at Sat Jul 25 15:03:38 2020, MaxMem=  4026531840 cpu:               0.3 elap:               0.1
 (Enter /opt/ohpc/pub/libs/gaussian/g16-A.03/sandybridge/g16/l703.exe)
 Integral derivatives from FoFJK, PRISM(SPDF).
 Compute integral first derivatives, UseDBF=F ICtDFT=           0.
 Calling FoFJK, ICntrl=      2127 FMM=F ISym2X=0 I1Cent= 0 IOpClX= 1 NMat=1 NMatS=1 NMatT=0.
 FoFJK:  IHMeth= 1 ICntrl=    2127 DoSepK=T KAlg= 0 I1Cent=           0 FoldK=F
 IRaf=         1 NMat=       1 IRICut=       1 DoRegI=T DoRafI=F ISym2E= 0 IDoP0=0 IntGTp=1.
 FoFCou: FMM=F IPFlag=           0 FMFlag=      100000 FMFlg1=         800
         NFxFlg=           0 DoJE=F BraDBF=F KetDBF=F FulRan=T
         wScrn=  0.000000 ICntrl=      2527 IOpCl=  0 I1Cent=           0 NGrid=           0
         NMat0=    1 NMatS0=      1 NMatT0=    0 NMatD0=    1 NMtDS0=    0 NMtDT0=    0
 Symmetry not used in FoFCou.
 Leave Link  703 at Sat Jul 25 15:03:47 2020, MaxMem=  4026531840 cpu:              69.1 elap:               8.7
 (Enter /opt/ohpc/pub/libs/gaussian/g16-A.03/sandybridge/g16/l716.exe)
 Dipole        =-6.35874461D-01 3.71131105D-02 2.58302032D-02
 ***** Axes restored to original set *****
 -------------------------------------------------------------------
 Center     Atomic                   Forces (Hartrees/Bohr)
 Number     Number              X              Y              Z
 -------------------------------------------------------------------
      1        6          -0.054612386   -0.043204110   -0.011681382
      2        6          -0.023011117    0.072394851    0.011675015
      3        7           0.033828210   -0.063563205   -0.011656622
      4        6          -0.058011352    0.046947515    0.020307033
      5        7          -0.089007602    0.008835475   -0.011047733
      6        6           0.098748187    0.042192324    0.005330756
      7        6           0.096655363   -0.050617564   -0.002475896
      8        6          -0.044016400    0.084214755    0.000486864
      9        6           0.000742049   -0.042716868    0.006085764
     10        6           0.037893322   -0.000175307   -0.000279271
     11       16          -0.035041075   -0.017352594   -0.004338820
     12        1           0.044095780    0.002327735    0.000083493
     13        1           0.013048756   -0.043602605   -0.000050114
     14        1          -0.003034552   -0.014046843    0.001805337
     15        1           0.009559546    0.002726408   -0.002422110
     16        1          -0.009616670    0.020486465   -0.002974707
     17        1          -0.018220059   -0.004846432    0.001152392
 -------------------------------------------------------------------
 Cartesian Forces:  Max     0.098748187 RMS     0.037801604
 Leave Link  716 at Sat Jul 25 15:03:47 2020, MaxMem=  4026531840 cpu:               0.3 elap:               0.1
 (Enter /opt/ohpc/pub/libs/gaussian/g16-A.03/sandybridge/g16/l103.exe)

 GradGradGradGradGradGradGradGradGradGradGradGradGradGradGradGradGradGrad
 Berny optimization.
 FormGI is forming the generalized inverse of G from B-inverse, IUseBI=4.
 Internal  Forces:  Max     0.090106853 RMS     0.018576422
 Search for a local minimum.
 Step number   1 out of a maximum of   91
 All quantities printed in internal units (Hartrees-Bohrs-Radians)
 RMS Force = .18576D-01 SwitMx=.10000D-02 MixMth= 1
 Mixed Optimization -- RFO/linear search
 Second derivative matrix not updated -- first step.
 ITU=  0
     Eigenvalues ---    0.00230   0.01529   0.01700   0.01788   0.01812
     Eigenvalues ---    0.01879   0.02013   0.02026   0.02105   0.02506
     Eigenvalues ---    0.02589   0.02765   0.02799   0.02881   0.15728
     Eigenvalues ---    0.15797   0.15981   0.15994   0.15997   0.15997
     Eigenvalues ---    0.22064   0.22143   0.23032   0.23803   0.24795
     Eigenvalues ---    0.24920   0.24996   0.27010   0.27076   0.29996
     Eigenvalues ---    0.34890   0.35992   0.37216   0.37489   0.40892
     Eigenvalues ---    0.40925   0.40997   0.41154   0.45392   0.45535
     Eigenvalues ---    0.48373   0.52403   0.62121   0.69022   0.78429
 RFO step:  Lambda=-5.30962975D-02 EMin= 2.30000000D-03
 Linear search not attempted -- first point.
 Maximum step size (   0.300) exceeded in Quadratic search.
    -- Step size scaled by   0.911
 Iteration  1 RMS(Cart)=  0.03417142 RMS(Int)=  0.00092359
 Iteration  2 RMS(Cart)=  0.00108170 RMS(Int)=  0.00037865
 Iteration  3 RMS(Cart)=  0.00000074 RMS(Int)=  0.00037865
 ITry= 1 IFail=0 DXMaxC= 1.01D-01 DCOld= 1.00D+10 DXMaxT= 3.00D-01 DXLimC= 3.00D+00 Rises=F
 Variable       Old X    -DE/DX   Delta X   Delta X   Delta X     New X
                                 (Linear)    (Quad)   (Total)
    R1        2.68381  -0.01473   0.00000  -0.03498  -0.03490   2.64891
    R2        2.62746   0.02014   0.00000   0.03592   0.03613   2.66359
    R3        1.96715   0.04361   0.00000   0.08553   0.08553   2.05269
    R4        2.60246  -0.01683   0.00000  -0.03409  -0.03421   2.56826
    R5        1.96921   0.04507   0.00000   0.08870   0.08870   2.05791
    R6        2.42749   0.05152   0.00000   0.06108   0.06087   2.48836
    R7        2.56104   0.00911   0.00000   0.01931   0.01921   2.58025
    R8        2.94204  -0.03866   0.00000  -0.10877  -0.10877   2.83327
    R9        2.37380   0.09011   0.00000   0.09905   0.09917   2.47297
   R10        2.14671  -0.01376   0.00000  -0.03552  -0.03552   2.11119
   R11        2.47051   0.07298   0.00000   0.10022   0.10033   2.57084
   R12        3.19043   0.02956   0.00000   0.06864   0.06849   3.25892
   R13        2.68816   0.00516   0.00000   0.01232   0.01256   2.70072
   R14        2.05854   0.00592   0.00000   0.01342   0.01342   2.07196
   R15        2.62593  -0.00008   0.00000  -0.00663  -0.00656   2.61937
   R16        2.01815   0.02061   0.00000   0.04390   0.04390   2.06205
   R17        3.37363  -0.01288   0.00000  -0.04667  -0.04686   3.32677
   R18        2.02222   0.01813   0.00000   0.03885   0.03885   2.06107
    A1        1.98060   0.01244   0.00000   0.03110   0.03095   2.01155
    A2        2.08887  -0.00013   0.00000   0.01277   0.01227   2.10114
    A3        2.20043  -0.01158   0.00000  -0.03585  -0.03642   2.16401
    A4        2.08255   0.01859   0.00000   0.03725   0.03714   2.11970
    A5        2.11292  -0.00322   0.00000   0.00745   0.00747   2.12038
    A6        2.08720  -0.01534   0.00000  -0.04431  -0.04429   2.04291
    A7        2.06149  -0.00075   0.00000  -0.02002  -0.02067   2.04082
    A8        2.19444   0.00109   0.00000   0.01412   0.01317   2.20761
    A9        2.06674  -0.00304   0.00000  -0.01190  -0.01237   2.05437
   A10        2.01562   0.00248   0.00000   0.00477   0.00428   2.01990
   A11        2.01773  -0.01117   0.00000  -0.00154  -0.00158   2.01615
   A12        2.21814  -0.01946   0.00000  -0.05214  -0.05193   2.16621
   A13        2.07243   0.00516   0.00000   0.00662   0.00649   2.07893
   A14        1.99230   0.01431   0.00000   0.04571   0.04559   2.03789
   A15        2.23980   0.00102   0.00000  -0.00697  -0.00697   2.23284
   A16        2.06068   0.00900   0.00000   0.01703   0.01704   2.07771
   A17        1.98253  -0.01003   0.00000  -0.01020  -0.01024   1.97229
   A18        2.01727  -0.01889   0.00000  -0.04513  -0.04479   1.97247
   A19        2.19135   0.00148   0.00000  -0.01145  -0.01166   2.17969
   A20        2.07354   0.01743   0.00000   0.05688   0.05673   2.13027
   A21        1.92313   0.01152   0.00000   0.03028   0.03046   1.95359
   A22        2.26843  -0.01421   0.00000  -0.05059  -0.05099   2.21743
   A23        2.08320   0.00302   0.00000   0.02396   0.02380   2.10700
   A24        1.92029   0.01442   0.00000   0.02350   0.02337   1.94366
   A25        2.32588  -0.01227   0.00000  -0.03343  -0.03338   2.29250
   A26        2.03684  -0.00216   0.00000   0.00981   0.00984   2.04669
   A27        1.58116   0.00303   0.00000   0.00220   0.00155   1.58271
    D1       -0.10525   0.00197   0.00000   0.03395   0.03498  -0.07027
    D2        3.07104   0.00132   0.00000   0.02156   0.02229   3.09332
    D3       -3.08287  -0.00139   0.00000  -0.01156  -0.01167  -3.09453
    D4        0.09342  -0.00204   0.00000  -0.02395  -0.02436   0.06906
    D5        0.08923  -0.00375   0.00000  -0.03632  -0.03566   0.05357
    D6       -3.08050  -0.00275   0.00000  -0.02717  -0.02691  -3.10741
    D7        3.05445   0.00136   0.00000   0.01865   0.01863   3.07307
    D8       -0.11529   0.00236   0.00000   0.02780   0.02738  -0.08791
    D9        0.13421  -0.00413   0.00000  -0.04902  -0.04857   0.08563
   D10       -3.04156  -0.00326   0.00000  -0.03580  -0.03547  -3.07703
   D11       -0.14148   0.00442   0.00000   0.05548   0.05540  -0.08608
   D12        3.12716  -0.00097   0.00000  -0.01395  -0.01429   3.11288
   D13        0.11555  -0.00388   0.00000  -0.04665  -0.04762   0.06793
   D14        3.13337   0.00102   0.00000   0.01989   0.01978  -3.13004
   D15        3.10645   0.00274   0.00000   0.03407   0.03387   3.14031
   D16       -0.05633   0.00180   0.00000   0.02494   0.02491  -0.03142
   D17        0.07905  -0.00206   0.00000  -0.02917  -0.02914   0.04991
   D18       -3.08372  -0.00300   0.00000  -0.03830  -0.03809  -3.12182
   D19       -0.08864   0.00350   0.00000   0.03930   0.03886  -0.04978
   D20        3.07999   0.00264   0.00000   0.03096   0.03079   3.11078
   D21        3.09212   0.00141   0.00000   0.01359   0.01354   3.10565
   D22       -0.09906   0.00228   0.00000   0.02225   0.02195  -0.07710
   D23       -0.02908   0.00212   0.00000   0.02210   0.02176  -0.00732
   D24        3.06293   0.00299   0.00000   0.03077   0.03018   3.09311
   D25       -3.09947  -0.00115   0.00000  -0.01403  -0.01421  -3.11368
   D26        0.02399  -0.00186   0.00000  -0.02186  -0.02190   0.00210
   D27        0.01798  -0.00081   0.00000  -0.00762  -0.00778   0.01020
   D28        3.01671   0.00260   0.00000   0.02644   0.02561   3.04232
   D29       -3.07759  -0.00123   0.00000  -0.01385  -0.01397  -3.09156
   D30       -0.07885   0.00219   0.00000   0.02021   0.01942  -0.05943
   D31        0.00050  -0.00067   0.00000  -0.00893  -0.00891  -0.00841
   D32       -3.12016  -0.00040   0.00000  -0.00106  -0.00068  -3.12085
   D33       -3.01558  -0.00195   0.00000  -0.03176  -0.03283  -3.04841
   D34        0.14695  -0.00168   0.00000  -0.02389  -0.02460   0.12235
   D35       -0.01322   0.00110   0.00000   0.01684   0.01698   0.00376
   D36        3.11131   0.00070   0.00000   0.00981   0.00942   3.12072
         Item               Value     Threshold  Converged?
 Maximum Force            0.090107     0.000450     NO 
 RMS     Force            0.018576     0.000300     NO 
 Maximum Displacement     0.101167     0.001800     NO 
 RMS     Displacement     0.033862     0.001200     NO 
 Predicted change in Energy=-2.944996D-02
 Lowest energy point so far.  Saving SCF results.
 GradGradGradGradGradGradGradGradGradGradGradGradGradGradGradGradGradGrad

 Leave Link  103 at Sat Jul 25 15:03:47 2020, MaxMem=  4026531840 cpu:               0.2 elap:               0.1
 (Enter /opt/ohpc/pub/libs/gaussian/g16-A.03/sandybridge/g16/l202.exe)
                          Input orientation:                          
 ---------------------------------------------------------------------
 Center     Atomic      Atomic             Coordinates (Angstroms)
 Number     Number       Type             X           Y           Z
 ---------------------------------------------------------------------
      1          6           0        3.422474   -0.067920    0.018748
      2          6           0        2.607353   -1.208058   -0.004728
      3          7           0        1.252439   -1.112114    0.040609
      4          6           0        0.738936    0.099956    0.007060
      5          7           0        1.432094    1.276193    0.025524
      6          6           0        2.735603    1.162795    0.002186
      7          6           0       -0.755133    0.224612    0.018065
      8          6           0       -1.499584    1.362946   -0.009437
      9          6           0       -2.906004    1.110312   -0.035031
     10          6           0       -3.188800   -0.246463   -0.012736
     11         16           0       -1.714797   -1.208233    0.026056
     12          1           0        4.501572   -0.162211   -0.062258
     13          1           0        3.031975   -2.210254   -0.039667
     14          1           0        3.323020    2.112952   -0.014076
     15          1           0       -1.091579    2.380067    0.024653
     16          1           0       -3.707712    1.847946    0.027043
     17          1           0       -4.136590   -0.785499   -0.039229
 ---------------------------------------------------------------------
                    Distance matrix (angstroms):
                    1          2          3          4          5
     1  C    0.000000
     2  C    1.401744   0.000000
     3  N    2.408292   1.359063   0.000000
     4  C    2.688809   2.280794   1.316785   0.000000
     5  N    2.401728   2.748390   2.395101   1.365409   0.000000
     6  C    1.409513   2.374330   2.715965   2.261930   1.308640
     7  C    4.187837   3.655048   2.411989   1.499301   2.426900
     8  C    5.125897   4.845309   3.701628   2.570289   2.933170
     9  C    6.437450   5.981042   4.715670   3.782616   4.341691
    10  C    6.613759   5.875382   4.525129   3.943033   4.865450
    11  S    5.262311   4.322259   2.968827   2.780742   4.009401
    12  H    1.086235   2.164526   3.386704   3.772395   3.390930
    13  H    2.178416   1.089000   2.092631   3.255346   3.836558
    14  H    2.183386   3.397260   3.832929   3.275681   2.068171
    15  H    5.135109   5.153407   4.205948   2.924038   2.754536
    16  H    7.383100   7.015713   5.776265   4.777924   5.171510
    17  H    7.593268   6.757256   5.399507   4.955495   5.938435
                    6          7          8          9         10
     6  C    0.000000
     7  C    3.614648   0.000000
     8  C    4.239930   1.360429   0.000000
     9  C    5.641975   2.326699   1.429160   0.000000
[...]
    12  H    0.383645  -0.041124   0.005138   0.001660   0.005024  -0.041568
    13  H   -0.064559   0.401585  -0.029952   0.001766  -0.000623   0.006925
    14  H   -0.067457   0.007304  -0.000746   0.001187  -0.031964   0.403968
    15  H    0.000109  -0.000021   0.000601  -0.018569   0.019759   0.000376
    16  H   -0.000000  -0.000000   0.000002  -0.000323  -0.000005  -0.000000
    17  H    0.000000  -0.000000   0.000003  -0.000288   0.000001  -0.000000
               7          8          9         10         11         12
     1  C    0.003524   0.000100   0.000001   0.000001   0.000091   0.383645
     2  C    0.001387  -0.000216   0.000007   0.000011   0.000827  -0.041124
     3  N   -0.067666   0.005964  -0.000160   0.000614   0.017965   0.005138
     4  C    0.260873  -0.054949   0.009729   0.003464  -0.064670   0.001660
     5  N   -0.083824   0.008098   0.000252   0.000042   0.002922   0.005024
     6  C    0.002990   0.000686   0.000001   0.000005  -0.000145  -0.041568
     7  C    5.401809   0.462381  -0.022019  -0.099319   0.345412   0.000095
     8  C    0.462381   4.814171   0.456924  -0.016016  -0.097595  -0.000006
     9  C   -0.022019   0.456924   4.733908   0.510095  -0.083899   0.000000
    10  C   -0.099319  -0.016016   0.510095   5.035352   0.347465  -0.000000
    11  S    0.345412  -0.097595  -0.083899   0.347465  15.373126  -0.000005
    12  H    0.000095  -0.000006   0.000000  -0.000000  -0.000005   0.712102
    13  H   -0.000584   0.000031  -0.000000  -0.000001  -0.000123  -0.009314
    14  H   -0.000808  -0.000087  -0.000001  -0.000000   0.000015  -0.009378
    15  H   -0.055721   0.408215  -0.052565   0.010123   0.008061  -0.000003
    16  H    0.009658  -0.045335   0.402918  -0.059358   0.007987  -0.000000
    17  H    0.000864   0.009613  -0.027172   0.392873  -0.041269  -0.000000
              13         14         15         16         17
     1  C   -0.064559  -0.067457   0.000109  -0.000000   0.000000
     2  C    0.401585   0.007304  -0.000021  -0.000000  -0.000000
     3  N   -0.029952  -0.000746   0.000601   0.000002   0.000003
     4  C    0.001766   0.001187  -0.018569  -0.000323  -0.000288
     5  N   -0.000623  -0.031964   0.019759  -0.000005   0.000001
     6  C    0.006925   0.403968   0.000376  -0.000000  -0.000000
     7  C   -0.000584  -0.000808  -0.055721   0.009658   0.000864
     8  C    0.000031  -0.000087   0.408215  -0.045335   0.009613
     9  C   -0.000000  -0.000001  -0.052565   0.402918  -0.027172
    10  C   -0.000001  -0.000000   0.010123  -0.059358   0.392873
    11  S   -0.000123   0.000015   0.008061   0.007987  -0.041269
    12  H   -0.009314  -0.009378  -0.000003  -0.000000  -0.000000
    13  H    0.685772  -0.000216   0.000001  -0.000000  -0.000000
    14  H   -0.000216   0.691249  -0.000171   0.000000  -0.000000
    15  H    0.000001  -0.000171   0.702459  -0.007576  -0.000100
    16  H   -0.000000   0.000000  -0.007576   0.713820  -0.008609
    17  H   -0.000000  -0.000000  -0.000100  -0.008609   0.654445
          Atomic-Atomic Spin Densities.
               1          2          3          4          5          6
     1  C    0.000000  -0.000000  -0.000000  -0.000000   0.000000  -0.000000
     2  C   -0.000000  -0.000000  -0.000000   0.000000  -0.000000   0.000000
     3  N   -0.000000  -0.000000  -0.000000   0.000000  -0.000000   0.000000
     4  C   -0.000000   0.000000   0.000000  -0.000000  -0.000000   0.000000
     5  N    0.000000  -0.000000  -0.000000  -0.000000   0.000000  -0.000000
     6  C   -0.000000   0.000000   0.000000   0.000000  -0.000000  -0.000000
     7  C   -0.000000  -0.000000   0.000000   0.000000   0.000000  -0.000000
     8  C    0.000000  -0.000000  -0.000000  -0.000000  -0.000000   0.000000
     9  C    0.000000   0.000000   0.000000  -0.000000   0.000000  -0.000000
    10  C    0.000000  -0.000000   0.000000   0.000000  -0.000000  -0.000000
    11  S    0.000000  -0.000000  -0.000000   0.000000   0.000000  -0.000000
    12  H    0.000000  -0.000000  -0.000000   0.000000   0.000000  -0.000000
    13  H   -0.000000   0.000000  -0.000000  -0.000000  -0.000000   0.000000
    14  H   -0.000000   0.000000   0.000000   0.000000   0.000000   0.000000
    15  H   -0.000000  -0.000000  -0.000000   0.000000  -0.000000   0.000000
    16  H    0.000000   0.000000   0.000000   0.000000   0.000000  -0.000000
    17  H    0.000000  -0.000000   0.000000   0.000000  -0.000000  -0.000000
               7          8          9         10         11         12
     1  C   -0.000000   0.000000   0.000000   0.000000   0.000000   0.000000
     2  C   -0.000000  -0.000000   0.000000  -0.000000  -0.000000  -0.000000
     3  N    0.000000  -0.000000   0.000000   0.000000  -0.000000  -0.000000
     4  C    0.000000  -0.000000  -0.000000   0.000000   0.000000   0.000000
     5  N    0.000000  -0.000000   0.000000  -0.000000   0.000000   0.000000
     6  C   -0.000000   0.000000  -0.000000  -0.000000  -0.000000  -0.000000
     7  C   -0.000000   0.000000  -0.000000  -0.000000  -0.000000   0.000000
     8  C    0.000000   0.000000   0.000000   0.000000  -0.000000  -0.000000
     9  C   -0.000000   0.000000  -0.000000  -0.000000   0.000000   0.000000
    10  C   -0.000000   0.000000  -0.000000   0.000000  -0.000000  -0.000000
    11  S   -0.000000  -0.000000   0.000000  -0.000000   0.000000   0.000000
    12  H    0.000000  -0.000000   0.000000  -0.000000   0.000000   0.000000
    13  H    0.000000  -0.000000  -0.000000   0.000000  -0.000000  -0.000000
    14  H    0.000000   0.000000  -0.000000   0.000000  -0.000000  -0.000000
    15  H    0.000000  -0.000000   0.000000  -0.000000  -0.000000  -0.000000
    16  H   -0.000000  -0.000000   0.000000   0.000000  -0.000000  -0.000000
    17  H    0.000000  -0.000000   0.000000   0.000000   0.000000  -0.000000
              13         14         15         16         17
     1  C   -0.000000  -0.000000  -0.000000   0.000000   0.000000
     2  C    0.000000   0.000000  -0.000000   0.000000  -0.000000
     3  N   -0.000000   0.000000  -0.000000   0.000000   0.000000
     4  C   -0.000000   0.000000   0.000000   0.000000   0.000000
     5  N   -0.000000   0.000000  -0.000000   0.000000  -0.000000
     6  C    0.000000   0.000000   0.000000  -0.000000  -0.000000
     7  C    0.000000   0.000000   0.000000  -0.000000   0.000000
     8  C   -0.000000   0.000000  -0.000000  -0.000000  -0.000000
     9  C   -0.000000  -0.000000   0.000000   0.000000   0.000000
    10  C    0.000000   0.000000  -0.000000   0.000000   0.000000
    11  S   -0.000000  -0.000000  -0.000000  -0.000000   0.000000
    12  H   -0.000000  -0.000000  -0.000000  -0.000000  -0.000000
    13  H    0.000000   0.000000   0.000000   0.000000  -0.000000
    14  H    0.000000  -0.000000   0.000000  -0.000000   0.000000
    15  H    0.000000   0.000000  -0.000000   0.000000  -0.000000
    16  H    0.000000  -0.000000   0.000000  -0.000000   0.000000
    17  H   -0.000000   0.000000  -0.000000   0.000000  -0.000000
 Mulliken charges and spin densities:
               1          2
     1  C   -0.058108   0.000000
     2  C    0.117819  -0.000000
     3  N   -0.202011  -0.000000
     4  C    0.193450   0.000000
     5  N   -0.188427   0.000000
     6  C    0.116228  -0.000000
     7  C   -0.159052  -0.000000
     8  C    0.048019   0.000000
     9  C    0.071982  -0.000000
    10  C   -0.125349   0.000000
    11  S    0.183834   0.000000
    12  H   -0.006265   0.000000
    13  H    0.009292  -0.000000
    14  H    0.007106   0.000000
    15  H   -0.014979  -0.000000
    16  H   -0.013177  -0.000000
    17  H    0.019639  -0.000000
 Sum of Mulliken charges =  -0.00000  -0.00000
 Mulliken charges and spin densities with hydrogens summed into heavy atoms:
               1          2
     1  C   -0.064373   0.000000
     2  C    0.127111  -0.000000
     3  N   -0.202011  -0.000000
     4  C    0.193450   0.000000
     5  N   -0.188427   0.000000
     6  C    0.123334  -0.000000
     7  C   -0.159052  -0.000000
     8  C    0.033041   0.000000
     9  C    0.058805  -0.000000
    10  C   -0.105709   0.000000
    11  S    0.183834   0.000000
 Electronic spatial extent (au):  <R**2>=           2037.9549
 Charge=             -0.0000 electrons
 Dipole moment (field-independent basis, Debye):
    X=             -1.2078    Y=              0.2223    Z=             -0.0002  Tot=              1.2281
 Quadrupole moment (field-independent basis, Debye-Ang):
   XX=            -51.5640   YY=            -67.9957   ZZ=            -72.7847
   XY=              1.0118   XZ=             -0.0009   YZ=              0.0008
 Traceless Quadrupole moment (field-independent basis, Debye-Ang):
   XX=             12.5508   YY=             -3.8809   ZZ=             -8.6699
   XY=              1.0118   XZ=             -0.0009   YZ=              0.0008
 Octapole moment (field-independent basis, Debye-Ang**2):
  XXX=            -15.8811  YYY=              0.5064  ZZZ=              0.0002  XYY=             -1.2654
  XXY=             -2.9560  XXZ=             -0.0048  XZZ=             -3.2047  YZZ=             -1.9340
  YYZ=              0.0011  XYZ=              0.0035
 Hexadecapole moment (field-independent basis, Debye-Ang**3):
 XXXX=          -1866.6603 YYYY=           -527.3406 ZZZZ=            -78.0968 XXXY=            -16.1512
 XXXZ=             -0.0201 YYYX=              9.6128 YYYZ=              0.0002 ZZZX=             -0.0029
 ZZZY=             -0.0013 XXYY=           -397.0859 XXZZ=           -409.4501 YYZZ=           -109.0338
 XXYZ=             -0.0072 YYXZ=             -0.0030 ZZXY=             -4.2345
 N-N= 6.243924414576D+02 E-N=-3.165798229552D+03  KE= 8.119329201821D+02
                          Isotropic Fermi Contact Couplings
        Atom                 a.u.       MegaHertz       Gauss      10(-4) cm-1
     1  C(13)              0.00000       0.00000       0.00000       0.00000
     2  C(13)             -0.00000      -0.00000      -0.00000      -0.00000
     3  N(14)             -0.00000      -0.00000      -0.00000      -0.00000
     4  C(13)             -0.00000      -0.00000      -0.00000      -0.00000
     5  N(14)              0.00000       0.00000       0.00000       0.00000
     6  C(13)             -0.00000      -0.00000      -0.00000      -0.00000
     7  C(13)             -0.00000      -0.00000      -0.00000      -0.00000
     8  C(13)              0.00000       0.00000       0.00000       0.00000
     9  C(13)             -0.00000      -0.00000      -0.00000      -0.00000
    10  C(13)             -0.00000      -0.00000      -0.00000      -0.00000
    11  S(33)             -0.00000      -0.00000      -0.00000      -0.00000
    12  H(1)               0.00000       0.00000       0.00000       0.00000
    13  H(1)              -0.00000      -0.00000      -0.00000      -0.00000
    14  H(1)              -0.00000      -0.00000      -0.00000      -0.00000
    15  H(1)              -0.00000      -0.00000      -0.00000      -0.00000
    16  H(1)              -0.00000      -0.00000      -0.00000      -0.00000
    17  H(1)              -0.00000      -0.00000      -0.00000      -0.00000
 --------------------------------------------------------
       Center         ----  Spin Dipole Couplings  ----
                      3XX-RR        3YY-RR        3ZZ-RR
 --------------------------------------------------------
     1   Atom        0.000000     -0.000000     -0.000000
     2   Atom        0.000000      0.000000     -0.000000
     3   Atom       -0.000000      0.000000     -0.000000
     4   Atom       -0.000000      0.000000     -0.000000
     5   Atom        0.000000     -0.000000     -0.000000
     6   Atom        0.000000     -0.000000     -0.000000
     7   Atom        0.000000     -0.000000      0.000000
     8   Atom        0.000000      0.000000     -0.000000
     9   Atom       -0.000000      0.000000      0.000000
    10   Atom        0.000000     -0.000000      0.000000
    11   Atom        0.000000     -0.000000      0.000000
    12   Atom       -0.000000      0.000000      0.000000
    13   Atom       -0.000000      0.000000     -0.000000
    14   Atom        0.000000      0.000000     -0.000000
    15   Atom        0.000000     -0.000000      0.000000
    16   Atom        0.000000     -0.000000     -0.000000
    17   Atom       -0.000000      0.000000      0.000000
 --------------------------------------------------------
                        XY            XZ            YZ
 --------------------------------------------------------
     1   Atom       -0.000000     -0.000000     -0.000000
     2   Atom       -0.000000     -0.000000     -0.000000
     3   Atom        0.000000      0.000000     -0.000000
     4   Atom       -0.000000      0.000000     -0.000000
     5   Atom       -0.000000      0.000000      0.000000
     6   Atom       -0.000000      0.000000      0.000000
     7   Atom       -0.000000     -0.000000     -0.000000
     8   Atom       -0.000000     -0.000000     -0.000000
     9   Atom        0.000000      0.000000     -0.000000
    10   Atom        0.000000      0.000000      0.000000
    11   Atom        0.000000     -0.000000      0.000000
    12   Atom       -0.000000     -0.000000     -0.000000
    13   Atom       -0.000000      0.000000      0.000000
    14   Atom       -0.000000     -0.000000      0.000000
    15   Atom        0.000000     -0.000000      0.000000
    16   Atom        0.000000      0.000000     -0.000000
    17   Atom        0.000000      0.000000      0.000000
 --------------------------------------------------------


 ---------------------------------------------------------------------------------
              Anisotropic Spin Dipole Couplings in Principal Axis System
 ---------------------------------------------------------------------------------

       Atom             a.u.   MegaHertz   Gauss  10(-4) cm-1        Axes

              Baa    -0.0000    -0.000    -0.000    -0.000  0.2931  0.9554  0.0356
     1 C(13)  Bbb    -0.0000    -0.000    -0.000    -0.000 -0.0104 -0.0340  0.9994
              Bcc     0.0000     0.000     0.000     0.000  0.9560 -0.2933 -0.0000
 
              Baa    -0.0000    -0.000    -0.000    -0.000  0.1613  0.1453  0.9762
     2 C(13)  Bbb    -0.0000    -0.000    -0.000    -0.000  0.7660  0.6053 -0.2166
              Bcc     0.0000     0.000     0.000     0.000 -0.6223  0.7826 -0.0137
 
              Baa    -0.0000    -0.000    -0.000    -0.000 -0.4461  0.0410  0.8940
     3 N(14)  Bbb    -0.0000    -0.000    -0.000    -0.000  0.8917 -0.0656  0.4479
              Bcc     0.0000     0.000     0.000     0.000  0.0771  0.9970 -0.0073
 
              Baa    -0.0000    -0.000    -0.000    -0.000  0.9664  0.2569 -0.0012
     4 C(13)  Bbb    -0.0000    -0.000    -0.000    -0.000 -0.0060  0.0270  0.9996
              Bcc     0.0000     0.000     0.000     0.000 -0.2568  0.9661 -0.0277
 
              Baa    -0.0000    -0.000    -0.000    -0.000 -0.0048 -0.0251  0.9997
     5 N(14)  Bbb    -0.0000    -0.000    -0.000    -0.000  0.0820  0.9963  0.0254
              Bcc     0.0000     0.000     0.000     0.000  0.9966 -0.0821  0.0027
 
              Baa    -0.0000    -0.000    -0.000    -0.000  0.4186  0.9079 -0.0244
     6 C(13)  Bbb    -0.0000    -0.000    -0.000    -0.000  0.0039  0.0251  0.9997
              Bcc     0.0000     0.000     0.000     0.000  0.9082 -0.4185  0.0070
 
              Baa    -0.0000    -0.000    -0.000    -0.000  0.6275  0.7785  0.0135
     7 C(13)  Bbb     0.0000     0.000     0.000     0.000 -0.0297  0.0066  0.9995
              Bcc     0.0000     0.000     0.000     0.000  0.7780 -0.6277  0.0273
 
              Baa    -0.0000    -0.000    -0.000    -0.000  0.0245  0.0421  0.9988
     8 C(13)  Bbb     0.0000     0.000     0.000     0.000  0.9015  0.4309 -0.0402
              Bcc     0.0000     0.000     0.000     0.000 -0.4321  0.9014 -0.0274
 
              Baa    -0.0000    -0.000    -0.000    -0.000  0.9952 -0.0964 -0.0159
     9 C(13)  Bbb     0.0000     0.000     0.000     0.000  0.0929  0.8831  0.4600
              Bcc     0.0000     0.000     0.000     0.000 -0.0303 -0.4592  0.8878
 
              Baa    -0.0000    -0.000    -0.000    -0.000 -0.0267  0.9996 -0.0110
    10 C(13)  Bbb     0.0000     0.000     0.000     0.000 -0.0025  0.0109  0.9999
              Bcc     0.0000     0.000     0.000     0.000  0.9996  0.0267  0.0022
 
              Baa    -0.0000    -0.000    -0.000    -0.000 -0.2894  0.9572 -0.0046
    11 S(33)  Bbb     0.0000     0.000     0.000     0.000  0.0147  0.0092  0.9998
              Bcc     0.0000     0.000     0.000     0.000  0.9571  0.2893 -0.0167
 
              Baa    -0.0000    -0.000    -0.000    -0.000  0.7289  0.6837  0.0349
    12 H(1)   Bbb     0.0000     0.000     0.000     0.000 -0.0210 -0.0286  0.9994
              Bcc     0.0000     0.000     0.000     0.000 -0.6843  0.7292  0.0065
 
              Baa    -0.0000    -0.000    -0.000    -0.000  0.9924  0.0849 -0.0894
    13 H(1)   Bbb    -0.0000    -0.000    -0.000    -0.000  0.0898 -0.0019  0.9960
              Bcc     0.0000     0.000     0.000     0.000 -0.0843  0.9964  0.0095
 
              Baa    -0.0000    -0.000    -0.000    -0.000  0.6223  0.7777 -0.0885
    14 H(1)   Bbb    -0.0000    -0.000    -0.000    -0.000  0.0800  0.0493  0.9956
              Bcc     0.0000     0.000     0.000     0.000  0.7787 -0.6267 -0.0315
 
              Baa    -0.0000    -0.000    -0.000    -0.000 -0.6033  0.7974 -0.0103
    15 H(1)   Bbb     0.0000     0.000     0.000     0.000 -0.0039  0.0100  0.9999
              Bcc     0.0000     0.000     0.000     0.000  0.7975  0.6033 -0.0029
 
              Baa    -0.0000    -0.000    -0.000    -0.000 -0.4642  0.8856  0.0142
    16 H(1)   Bbb    -0.0000    -0.000    -0.000    -0.000 -0.0003 -0.0163  0.9999
              Bcc     0.0000     0.000     0.000     0.000  0.8857  0.4642  0.0078
 
              Baa    -0.0000    -0.000    -0.000    -0.000  0.9983 -0.0574 -0.0045
    17 H(1)   Bbb     0.0000     0.000     0.000     0.000  0.0574  0.9983 -0.0051
              Bcc     0.0000     0.000     0.000     0.000  0.0048  0.0048  1.0000
 

 ---------------------------------------------------------------------------------

 No NMR shielding tensors so no spin-rotation constants.
 Leave Link  601 at Sat Jul 25 15:10:37 2020, MaxMem=  4026531840 cpu:               2.1 elap:               0.3
 (Enter /opt/ohpc/pub/libs/gaussian/g16-A.03/sandybridge/g16/l9999.exe)

 Test job not archived.
 1\1\GINC-SKYLAKE032\FOpt\ULC-wPBE\CC-pVDZ\C8H6N2S1\RDU230\25-Jul-2020\
 0\\#P uLC-wPBE/cc-pVDZ iop(3/107=0141700000, 3/108=0141700000) opt\\H6
  C8 S1 N2\\0,1\C,3.4101981556,-0.0704128309,-0.0058484949\C,2.58688512
 42,-1.2023740037,-0.0101220206\N,1.2485696157,-1.1248435473,-0.0089088
 428\C,0.72699997,0.124771616,-0.0028675484\N,1.4207859175,1.2873282915
 ,0.0019027101\C,2.7559760045,1.1679039643,0.0002707277\C,-0.7345476744
 ,0.2267510888,-0.0010014263\C,-1.515024095,1.3715521109,0.0045502231\C
 ,-2.909234146,1.0869048707,0.0047438242\C,-3.1680625635,-0.2705770947,
 -0.000654987\S,-1.718579061,-1.2156259422,-0.006137224\H,4.5048534678,
 -0.1484896134,-0.0071393194\H,3.0143726576,-2.2190293539,-0.0154127317
 \H,3.3267736724,2.1117535104,0.0039971614\H,-1.066537856,2.3713034586,
 0.0083164422\H,-3.6957408023,1.8512562639,0.0088858778\H,-4.1424203871
 ,-0.771146789,-0.0017913714\\Version=EM64L-G16RevA.03\State=1-A\HF=-81
 5.634367\S2=0.\S2-1=0.\S2A=0.\RMSD=6.726e-09\RMSF=2.330e-05\Dipole=0.4
 745692,0.0908071,0.000024\Quadrupole=9.3412368,-2.8954636,-6.4457732,-
 0.6658594,-0.0178835,0.0154652\PG=C01 [X(C8H6N2S1)]\\@


 LOVE IS BLIND, THAT'S WHY ALL THE WORLD LOVES A LOUVER.
 Job cpu time:       0 days  1 hours  0 minutes 15.4 seconds.
 Elapsed time:       0 days  0 hours  7 minutes 39.1 seconds.
 File lengths (MBytes):  RWF=     96 Int=      0 D2E=      0 Chk=      8 Scr=      8
 Normal termination of Gaussian 16 at Sat Jul 25 15:10:37 2020.
