 Entering Gaussian System, Link 0=g16
 Input=mols_66_3_02_n-n-c-c_opt_0.gjf
 Output=mols_66_3_02_n-n-c-c_opt_0.log
 Initial command:
 /opt/ohpc/pub/libs/gaussian/g16-A.03/sandybridge/g16/l1.exe "/mnt/gpfs2_4m/scratch/rdu230/ondemand/projects/dihedral_energies/7trial/wtuning/mols_66_3_02_n-n-c-c/Gau-257548.inp" -scrdir="/mnt/gpfs2_4m/scratch/rdu230/ondemand/projects/dihedral_energies/7trial/wtuning/mols_66_3_02_n-n-c-c/"
 Entering Link 1 = /opt/ohpc/pub/libs/gaussian/g16-A.03/sandybridge/g16/l1.exe PID=    257549.
  
 Copyright (c) 1988,1990,1992,1993,1995,1998,2003,2009,2016,
            Gaussian, Inc.  All Rights Reserved.
  
 This is part of the Gaussian(R) 16 program.  It is based on
 the Gaussian(R) 09 system (copyright 2009, Gaussian, Inc.),
 the Gaussian(R) 03 system (copyright 2003, Gaussian, Inc.),
 the Gaussian(R) 98 system (copyright 1998, Gaussian, Inc.),
 the Gaussian(R) 94 system (copyright 1995, Gaussian, Inc.),
 the Gaussian 92(TM) system (copyright 1992, Gaussian, Inc.),
 the Gaussian 90(TM) system (copyright 1990, Gaussian, Inc.),
 the Gaussian 88(TM) system (copyright 1988, Gaussian, Inc.),
 the Gaussian 86(TM) system (copyright 1986, Carnegie Mellon
 University), and the Gaussian 82(TM) system (copyright 1983,
 Carnegie Mellon University). Gaussian is a federally registered
 trademark of Gaussian, Inc.
  
 This software contains proprietary and confidential information,
 including trade secrets, belonging to Gaussian, Inc.
  
 This software is provided under written license and may be
 used, copied, transmitted, or stored only in accord with that
 written license.
  
 The following legend is applicable only to US Government
 contracts under FAR:
  
                    RESTRICTED RIGHTS LEGEND
  
 Use, reproduction and disclosure by the US Government is
 subject to restrictions as set forth in subparagraphs (a)
 and (c) of the Commercial Computer Software - Restricted
 Rights clause in FAR 52.227-19.
  
 Gaussian, Inc.
 340 Quinnipiac St., Bldg. 40, Wallingford CT 06492
  
  
 ---------------------------------------------------------------
 Warning -- This program may not be used in any manner that
 competes with the business of Gaussian, Inc. or will provide
 assistance to any competitor of Gaussian, Inc.  The licensee
 of this program is prohibited from giving any competitor of
 Gaussian, Inc. access to this program.  By using this program,
 the user acknowledges that Gaussian, Inc. is engaged in the
 business of creating and licensing software in the field of
 computational chemistry and represents and warrants to the
 licensee that it is not a competitor of Gaussian, Inc. and that
 it will not use this program in any manner prohibited above.
 ---------------------------------------------------------------
  

 Cite this work as:
 Gaussian 16, Revision A.03,
 M. J. Frisch, G. W. Trucks, H. B. Schlegel, G. E. Scuseria, 
 M. A. Robb, J. R. Cheeseman, G. Scalmani, V. Barone, 
 G. A. Petersson, H. Nakatsuji, X. Li, M. Caricato, A. V. Marenich, 
 J. Bloino, B. G. Janesko, R. Gomperts, B. Mennucci, H. P. Hratchian, 
 J. V. Ortiz, A. F. Izmaylov, J. L. Sonnenberg, D. Williams-Young, 
 F. Ding, F. Lipparini, F. Egidi, J. Goings, B. Peng, A. Petrone, 
 T. Henderson, D. Ranasinghe, V. G. Zakrzewski, J. Gao, N. Rega, 
 G. Zheng, W. Liang, M. Hada, M. Ehara, K. Toyota, R. Fukuda, 
 J. Hasegawa, M. Ishida, T. Nakajima, Y. Honda, O. Kitao, H. Nakai, 
 T. Vreven, K. Throssell, J. A. Montgomery, Jr., J. E. Peralta, 
 F. Ogliaro, M. J. Bearpark, J. J. Heyd, E. N. Brothers, K. N. Kudin, 
 V. N. Staroverov, T. A. Keith, R. Kobayashi, J. Normand, 
 K. Raghavachari, A. P. Rendell, J. C. Burant, S. S. Iyengar, 
 J. Tomasi, M. Cossi, J. M. Millam, M. Klene, C. Adamo, R. Cammi, 
 J. W. Ochterski, R. L. Martin, K. Morokuma, O. Farkas, 
 J. B. Foresman, and D. J. Fox, Gaussian, Inc., Wallingford CT, 2016.
 
 ******************************************
 Gaussian 16:  EM64L-G16RevA.03 25-Dec-2016
                24-Jul-2020 
 ******************************************
 %mem=30GB
 %nproc=8
 Will use up to    8 processors via shared memory.
 ---------------------------------------------------------------
 #P uLC-wPBE/cc-pVDZ iop(3/107=0092800000, 3/108=0092800000) opt
 ---------------------------------------------------------------
 1/18=20,19=15,26=3,38=1/1,3;
 2/9=110,12=2,17=6,18=5,40=1/2;
 3/5=16,11=2,25=1,30=1,71=1,74=-41,107=92800000,108=92800000,116=2/1,2,3;
 4//1;
 5/5=2,38=5/2;
 6/7=2,8=2,9=2,10=2,28=1/1;
 7//1,2,3,16;
 1/18=20,19=15,26=3/3(2);
 2/9=110/2;
 99//99;
 2/9=110/2;
 3/5=16,11=2,25=1,30=1,71=1,74=-41,107=92800000,108=92800000,116=2/1,2,3;
 4/5=5,16=3,69=1/1;
 5/5=2,38=5/2;
 7//1,2,3,16;
 1/18=20,19=15,26=3/3(-5);
 2/9=110/2;
 6/7=2,8=2,9=2,10=2,19=2,28=1/1;
 99/9=1/99;
 Leave Link    1 at Fri Jul 24 20:44:34 2020, MaxMem=  4026531840 cpu:               2.0 elap:               0.3
 (Enter /opt/ohpc/pub/libs/gaussian/g16-A.03/sandybridge/g16/l101.exe)
 ----------
 H20 C30 N6
 ----------
 Symbolic Z-matrix:
 Charge =  0 Multiplicity = 1
 C                     11.97646   0.20166   0.07366 
 C                     11.33119   1.27019  -0.34151 
 C                     9.89015   1.20656  -0.38269 
 C                     9.21865   0.06466  -0.04146 
 N                     9.95599  -0.996     0.38371 
 C                     11.2738  -0.93048   0.3841 
 C                     7.8341   -0.06382  -0.01584 
 N                     7.09418   1.0329   -0.28785 
 C                     5.70618   0.97346  -0.33522 
 C                     4.97913  -0.16429  -0.11634 
 C                     5.73305  -1.33381   0.18239 
 C                     7.10654  -1.21627   0.27512 
 C                     3.4862   -0.14953  -0.06135 
 C                     2.81951  -0.88523  -0.99704 
 C                     1.43608  -0.86643  -0.94273 
 C                     0.69454  -0.1167   -0.01106 
 N                     1.4676    0.69207   0.89655 
 C                     2.75492   0.65137   0.8089 
 C                    -0.76161  -0.05617   0.10258 
 N                    -1.42511  -0.87634  -0.81452 
 C                    -2.7491   -0.79084  -0.75268 
 C                    -3.56717   0.01882   0.08894 
 C                    -2.79616   0.87415   0.92702 
 C                    -1.42324   0.79725   0.98641 
 C                    -4.99439   0.08097   0.03402 
 C                    -5.71211   1.26532  -0.16284 
 C                    -7.04994   1.23004  -0.2209 
 C                    -7.7705    0.03115   0.03114 
 N                    -7.1118   -1.08384   0.33523 
 C                    -5.7864   -1.09864   0.32722 
 C                    -9.31692   0.01474  -0.02676 
 N                    -9.87726   1.13653  -0.37535 
 C                    -11.24492   1.09736  -0.38633 
 C                    -12.0363   0.06463  -0.08187 
 C                    -11.33529  -1.14669   0.31098 
 C                    -9.91965  -1.14243   0.3041 
 H                     13.06662   0.20139   0.13478 
 H                     11.79501   2.18958  -0.62941 
 H                     9.29581   2.11551  -0.69297 
 H                     11.85038  -1.8222    0.67867 
 H                     5.27641   1.9447   -0.50752 
 H                     5.24187  -2.27312   0.40104 
 H                     7.72     -2.18608   0.47308 
 H                     3.3499   -1.55511  -1.71816 
 H                     0.88343  -1.5301   -1.64251 
 H                     3.28355   1.27152   1.51607 
 H                    -3.27825  -1.40312  -1.4156 
 H                    -3.24479   1.50015   1.66372 
 H                    -0.8115    1.46885   1.66632 
 H                    -5.14118   2.13305  -0.42492 
 H                    -7.56627   2.18266  -0.47831 
 H                    -5.33485  -1.993     0.57028 
 H                    -11.75341   2.09149  -0.74948 
 H                    -13.12497   0.09769  -0.11555 
 H                    -11.94224  -2.07139   0.49731 
 H                    -9.40157  -2.09065   0.58686 
 
 ITRead=  0  0  0  0  0  0  0  0  0  0  0  0  0  0  0  0  0  0  0  0
 ITRead=  0  0  0  0  0  0  0  0  0  0  0  0  0  0  0  0  0  0  0  0
 ITRead=  0  0  0  0  0  0  0  0  0  0  0  0  0  0  0  0
 MicOpt= -1 -1 -1 -1 -1 -1 -1 -1 -1 -1 -1 -1 -1 -1 -1 -1 -1 -1 -1 -1
 MicOpt= -1 -1 -1 -1 -1 -1 -1 -1 -1 -1 -1 -1 -1 -1 -1 -1 -1 -1 -1 -1
 MicOpt= -1 -1 -1 -1 -1 -1 -1 -1 -1 -1 -1 -1 -1 -1 -1 -1
 NAtoms=     56 NQM=       56 NQMF=       0 NMMI=      0 NMMIF=      0
                NMic=       0 NMicF=      0.
                    Isotopes and Nuclear Properties:
 (Nuclear quadrupole moments (NQMom) in fm**2, nuclear magnetic moments (NMagM)
  in nuclear magnetons)

  Atom         1           2           3           4           5           6           7           8           9          10
 IAtWgt=          12          12          12          12          14          12          12          14          12          12
 AtmWgt=  12.0000000  12.0000000  12.0000000  12.0000000  14.0030740  12.0000000  12.0000000  14.0030740  12.0000000  12.0000000
 NucSpn=           0           0           0           0           2           0           0           2           0           0
 AtZEff=  -0.0000000  -0.0000000  -0.0000000  -0.0000000  -0.0000000  -0.0000000  -0.0000000  -0.0000000  -0.0000000  -0.0000000
 NQMom=    0.0000000   0.0000000   0.0000000   0.0000000   2.0440000   0.0000000   0.0000000   2.0440000   0.0000000   0.0000000
 NMagM=    0.0000000   0.0000000   0.0000000   0.0000000   0.4037610   0.0000000   0.0000000   0.4037610   0.0000000   0.0000000
 AtZNuc=   6.0000000   6.0000000   6.0000000   6.0000000   7.0000000   6.0000000   6.0000000   7.0000000   6.0000000   6.0000000

  Atom        11          12          13          14          15          16          17          18          19          20
 IAtWgt=          12          12          12          12          12          12          14          12          12          14
 AtmWgt=  12.0000000  12.0000000  12.0000000  12.0000000  12.0000000  12.0000000  14.0030740  12.0000000  12.0000000  14.0030740
 NucSpn=           0           0           0           0           0           0           2           0           0           2
 AtZEff=  -0.0000000  -0.0000000  -0.0000000  -0.0000000  -0.0000000  -0.0000000  -0.0000000  -0.0000000  -0.0000000  -0.0000000
 NQMom=    0.0000000   0.0000000   0.0000000   0.0000000   0.0000000   0.0000000   2.0440000   0.0000000   0.0000000   2.0440000
 NMagM=    0.0000000   0.0000000   0.0000000   0.0000000   0.0000000   0.0000000   0.4037610   0.0000000   0.0000000   0.4037610
 AtZNuc=   6.0000000   6.0000000   6.0000000   6.0000000   6.0000000   6.0000000   7.0000000   6.0000000   6.0000000   7.0000000

  Atom        21          22          23          24          25          26          27          28          29          30
 IAtWgt=          12          12          12          12          12          12          12          12          14          12
 AtmWgt=  12.0000000  12.0000000  12.0000000  12.0000000  12.0000000  12.0000000  12.0000000  12.0000000  14.0030740  12.0000000
 NucSpn=           0           0           0           0           0           0           0           0           2           0
 AtZEff=  -0.0000000  -0.0000000  -0.0000000  -0.0000000  -0.0000000  -0.0000000  -0.0000000  -0.0000000  -0.0000000  -0.0000000
 NQMom=    0.0000000   0.0000000   0.0000000   0.0000000   0.0000000   0.0000000   0.0000000   0.0000000   2.0440000   0.0000000
 NMagM=    0.0000000   0.0000000   0.0000000   0.0000000   0.0000000   0.0000000   0.0000000   0.0000000   0.4037610   0.0000000
 AtZNuc=   6.0000000   6.0000000   6.0000000   6.0000000   6.0000000   6.0000000   6.0000000   6.0000000   7.0000000   6.0000000

  Atom        31          32          33          34          35          36          37          38          39          40
 IAtWgt=          12          14          12          12          12          12           1           1           1           1
 AtmWgt=  12.0000000  14.0030740  12.0000000  12.0000000  12.0000000  12.0000000   1.0078250   1.0078250   1.0078250   1.0078250
 NucSpn=           0           2           0           0           0           0           1           1           1           1
 AtZEff=  -0.0000000  -0.0000000  -0.0000000  -0.0000000  -0.0000000  -0.0000000  -0.0000000  -0.0000000  -0.0000000  -0.0000000
 NQMom=    0.0000000   2.0440000   0.0000000   0.0000000   0.0000000   0.0000000   0.0000000   0.0000000   0.0000000   0.0000000
 NMagM=    0.0000000   0.4037610   0.0000000   0.0000000   0.0000000   0.0000000   2.7928460   2.7928460   2.7928460   2.7928460
 AtZNuc=   6.0000000   7.0000000   6.0000000   6.0000000   6.0000000   6.0000000   1.0000000   1.0000000   1.0000000   1.0000000

  Atom        41          42          43          44          45          46          47          48          49          50
 IAtWgt=           1           1           1           1           1           1           1           1           1           1
 AtmWgt=   1.0078250   1.0078250   1.0078250   1.0078250   1.0078250   1.0078250   1.0078250   1.0078250   1.0078250   1.0078250
 NucSpn=           1           1           1           1           1           1           1           1           1           1
 AtZEff=  -0.0000000  -0.0000000  -0.0000000  -0.0000000  -0.0000000  -0.0000000  -0.0000000  -0.0000000  -0.0000000  -0.0000000
 NQMom=    0.0000000   0.0000000   0.0000000   0.0000000   0.0000000   0.0000000   0.0000000   0.0000000   0.0000000   0.0000000
 NMagM=    2.7928460   2.7928460   2.7928460   2.7928460   2.7928460   2.7928460   2.7928460   2.7928460   2.7928460   2.7928460
 AtZNuc=   1.0000000   1.0000000   1.0000000   1.0000000   1.0000000   1.0000000   1.0000000   1.0000000   1.0000000   1.0000000

  Atom        51          52          53          54          55          56
 IAtWgt=           1           1           1           1           1           1
 AtmWgt=   1.0078250   1.0078250   1.0078250   1.0078250   1.0078250   1.0078250
 NucSpn=           1           1           1           1           1           1
 AtZEff=  -0.0000000  -0.0000000  -0.0000000  -0.0000000  -0.0000000  -0.0000000
 NQMom=    0.0000000   0.0000000   0.0000000   0.0000000   0.0000000   0.0000000
 NMagM=    2.7928460   2.7928460   2.7928460   2.7928460   2.7928460   2.7928460
 AtZNuc=   1.0000000   1.0000000   1.0000000   1.0000000   1.0000000   1.0000000
 Leave Link  101 at Fri Jul 24 20:44:35 2020, MaxMem=  4026531840 cpu:               3.2 elap:               0.4
 (Enter /opt/ohpc/pub/libs/gaussian/g16-A.03/sandybridge/g16/l103.exe)

 GradGradGradGradGradGradGradGradGradGradGradGradGradGradGradGradGradGrad
 Berny optimization.
 Initialization pass.
                           ----------------------------
                           !    Initial Parameters    !
                           ! (Angstroms and Degrees)  !
 --------------------------                            --------------------------
 ! Name  Definition              Value          Derivative Info.                !
 --------------------------------------------------------------------------------
 ! R1    R(1,2)                  1.3155         estimate D2E/DX2                !
 ! R2    R(1,6)                  1.3682         estimate D2E/DX2                !
 ! R3    R(1,37)                 1.0919         estimate D2E/DX2                !
 ! R4    R(2,3)                  1.443          estimate D2E/DX2                !
 ! R5    R(2,38)                 1.0692         estimate D2E/DX2                !
 ! R6    R(3,4)                  1.368          estimate D2E/DX2                !
 ! R7    R(3,39)                 1.1295         estimate D2E/DX2                !
 ! R8    R(4,5)                  1.3599         estimate D2E/DX2                !
 ! R9    R(4,7)                  1.3907         estimate D2E/DX2                !
 ! R10   R(5,6)                  1.3194         estimate D2E/DX2                !
 ! R11   R(6,40)                 1.102          estimate D2E/DX2                !
 ! R12   R(7,8)                  1.3506         estimate D2E/DX2                !
 ! R13   R(7,12)                 1.3936         estimate D2E/DX2                !
 ! R14   R(8,9)                  1.3901         estimate D2E/DX2                !
 ! R15   R(9,10)                 1.3678         estimate D2E/DX2                !
 ! R16   R(9,41)                 1.076          estimate D2E/DX2                !
 ! R17   R(10,11)                1.4232         estimate D2E/DX2                !
 ! R18   R(10,13)                1.494          estimate D2E/DX2                !
 ! R19   R(11,12)                1.3816         estimate D2E/DX2                !
 ! R20   R(11,42)                1.0823         estimate D2E/DX2                !
 ! R21   R(12,43)                1.1645         estimate D2E/DX2                !
 ! R22   R(13,14)                1.3643         estimate D2E/DX2                !
 ! R23   R(13,18)                1.3905         estimate D2E/DX2                !
 ! R24   R(14,15)                1.3846         estimate D2E/DX2                !
 ! R25   R(14,44)                1.1181         estimate D2E/DX2                !
 ! R26   R(15,16)                1.4071         estimate D2E/DX2                !
 ! R27   R(15,45)                1.1116         estimate D2E/DX2                !
 ! R28   R(16,17)                1.4407         estimate D2E/DX2                !
 ! R29   R(16,19)                1.4618         estimate D2E/DX2                !
 ! R30   R(17,18)                1.2909         estimate D2E/DX2                !
 ! R31   R(18,46)                1.0789         estimate D2E/DX2                !
 ! R32   R(19,20)                1.3978         estimate D2E/DX2                !
 ! R33   R(19,24)                1.3954         estimate D2E/DX2                !
 ! R34   R(20,21)                1.3282         estimate D2E/DX2                !
 ! R35   R(21,22)                1.4259         estimate D2E/DX2                !
 ! R36   R(21,47)                1.0461         estimate D2E/DX2                !
 ! R37   R(22,23)                1.4242         estimate D2E/DX2                !
 ! R38   R(22,25)                1.4296         estimate D2E/DX2                !
 ! R39   R(23,24)                1.3764         estimate D2E/DX2                !
 ! R40   R(23,48)                1.0658         estimate D2E/DX2                !
 ! R41   R(24,49)                1.1347         estimate D2E/DX2                !
 ! R42   R(25,26)                1.3988         estimate D2E/DX2                !
 ! R43   R(25,30)                1.4508         estimate D2E/DX2                !
 ! R44   R(26,27)                1.3396         estimate D2E/DX2                !
 ! R45   R(26,50)                1.0713         estimate D2E/DX2                !
 ! R46   R(27,28)                1.4213         estimate D2E/DX2                !
 ! R47   R(27,51)                1.1137         estimate D2E/DX2                !
 ! R48   R(28,29)                1.3303         estimate D2E/DX2                !
 ! R49   R(28,31)                1.5476         estimate D2E/DX2                !
 ! R50   R(29,30)                1.3255         estimate D2E/DX2                !
 ! R51   R(30,52)                1.031          estimate D2E/DX2                !
 ! R52   R(31,32)                1.3015         estimate D2E/DX2                !
 ! R53   R(31,36)                1.346          estimate D2E/DX2                !
 ! R54   R(32,33)                1.3683         estimate D2E/DX2                !
 ! R55   R(33,34)                1.3362         estimate D2E/DX2                !
 ! R56   R(33,53)                1.1742         estimate D2E/DX2                !
 ! R57   R(34,35)                1.4536         estimate D2E/DX2                !
 ! R58   R(34,54)                1.0897         estimate D2E/DX2                !
 ! R59   R(35,36)                1.4157         estimate D2E/DX2                !
 ! R60   R(35,55)                1.1217         estimate D2E/DX2                !
 ! R61   R(36,56)                1.1169         estimate D2E/DX2                !
 ! A1    A(2,1,6)              119.4618         estimate D2E/DX2                !
 ! A2    A(2,1,37)             120.5053         estimate D2E/DX2                !
 ! A3    A(6,1,37)             119.9912         estimate D2E/DX2                !
 ! A4    A(1,2,3)              117.5829         estimate D2E/DX2                !
 ! A5    A(1,2,38)             124.7939         estimate D2E/DX2                !
 ! A6    A(3,2,38)             117.6078         estimate D2E/DX2                !
 ! A7    A(2,3,4)              121.3249         estimate D2E/DX2                !
 ! A8    A(2,3,39)             119.8571         estimate D2E/DX2                !
 ! A9    A(4,3,39)             118.8158         estimate D2E/DX2                !
 ! A10   A(3,4,5)              117.5736         estimate D2E/DX2                !
 ! A11   A(3,4,7)              124.7785         estimate D2E/DX2                !
 ! A12   A(5,4,7)              117.5142         estimate D2E/DX2                !
 ! A13   A(4,5,6)              120.1909         estimate D2E/DX2                !
 ! A14   A(1,6,5)              123.6397         estimate D2E/DX2                !
 ! A15   A(1,6,40)             117.4864         estimate D2E/DX2                !
 ! A16   A(5,6,40)             118.8471         estimate D2E/DX2                !
 ! A17   A(4,7,8)              117.8181         estimate D2E/DX2                !
 ! A18   A(4,7,12)             126.8687         estimate D2E/DX2                !
 ! A19   A(8,7,12)             115.3109         estimate D2E/DX2                !
 ! A20   A(7,8,9)              121.2752         estimate D2E/DX2                !
 ! A21   A(8,9,10)             124.1146         estimate D2E/DX2                !
 ! A22   A(8,9,41)             111.4502         estimate D2E/DX2                !
 ! A23   A(10,9,41)            124.3429         estimate D2E/DX2                !
 ! A24   A(9,10,11)            115.8202         estimate D2E/DX2                !
 ! A25   A(9,10,13)            121.9255         estimate D2E/DX2                !
 ! A26   A(11,10,13)           121.989          estimate D2E/DX2                !
 ! A27   A(10,11,12)           118.0865         estimate D2E/DX2                !
 ! A28   A(10,11,42)           121.0102         estimate D2E/DX2                !
 ! A29   A(12,11,42)           120.7596         estimate D2E/DX2                !
 ! A30   A(7,12,11)            125.1228         estimate D2E/DX2                !
 ! A31   A(7,12,43)            116.6903         estimate D2E/DX2                !
 ! A32   A(11,12,43)           117.6625         estimate D2E/DX2                !
 ! A33   A(10,13,14)           117.2423         estimate D2E/DX2                !
 ! A34   A(10,13,18)           123.6592         estimate D2E/DX2                !
 ! A35   A(14,13,18)           118.8704         estimate D2E/DX2                !
 ! A36   A(13,14,15)           117.0032         estimate D2E/DX2                !
 ! A37   A(13,14,44)           122.2509         estimate D2E/DX2                !
 ! A38   A(15,14,44)           120.4909         estimate D2E/DX2                !
 ! A39   A(14,15,16)           124.0377         estimate D2E/DX2                !
 ! A40   A(14,15,45)           117.6426         estimate D2E/DX2                !
 ! A41   A(16,15,45)           118.2255         estimate D2E/DX2                !
 ! A42   A(15,16,17)           115.6874         estimate D2E/DX2                !
 ! A43   A(15,16,19)           126.7607         estimate D2E/DX2                !
 ! A44   A(17,16,19)           117.5355         estimate D2E/DX2                !
 ! A45   A(16,17,18)           118.3351         estimate D2E/DX2                !
 ! A46   A(13,18,17)           125.8086         estimate D2E/DX2                !
 ! A47   A(13,18,46)           118.9191         estimate D2E/DX2                !
 ! A48   A(17,18,46)           115.2115         estimate D2E/DX2                !
 ! A49   A(16,19,20)           113.4228         estimate D2E/DX2                !
 ! A50   A(16,19,24)           123.1516         estimate D2E/DX2                !
 ! A51   A(20,19,24)           123.321          estimate D2E/DX2                !
 ! A52   A(19,20,21)           113.8812         estimate D2E/DX2                !
 ! A53   A(20,21,22)           129.4908         estimate D2E/DX2                !
 ! A54   A(20,21,47)           115.9159         estimate D2E/DX2                !
 ! A55   A(22,21,47)           114.5932         estimate D2E/DX2                !
 ! A56   A(21,22,23)           112.1943         estimate D2E/DX2                !
 ! A57   A(21,22,25)           125.0844         estimate D2E/DX2                !
 ! A58   A(23,22,25)           122.4755         estimate D2E/DX2                !
 ! A59   A(22,23,24)           122.1299         estimate D2E/DX2                !
 ! A60   A(22,23,48)           122.115          estimate D2E/DX2                !
 ! A61   A(24,23,48)           115.0168         estimate D2E/DX2                !
 ! A62   A(19,24,23)           118.6721         estimate D2E/DX2                !
 ! A63   A(19,24,49)           119.0701         estimate D2E/DX2                !
 ! A64   A(23,24,49)           122.0431         estimate D2E/DX2                !
 ! A65   A(22,25,26)           123.6737         estimate D2E/DX2                !
 ! A66   A(22,25,30)           120.1254         estimate D2E/DX2                !
 ! A67   A(26,25,30)           115.8981         estimate D2E/DX2                !
 ! A68   A(25,26,27)           119.7524         estimate D2E/DX2                !
 ! A69   A(25,26,50)           116.5396         estimate D2E/DX2                !
 ! A70   A(27,26,50)           122.8868         estimate D2E/DX2                !
 ! A71   A(26,27,28)           121.3893         estimate D2E/DX2                !
 ! A72   A(26,27,51)           116.7766         estimate D2E/DX2                !
 ! A73   A(28,27,51)           121.8339         estimate D2E/DX2                !
 ! A74   A(27,28,29)           119.7701         estimate D2E/DX2                !
 ! A75   A(27,28,31)           120.5908         estimate D2E/DX2                !
 ! A76   A(29,28,31)           119.6342         estimate D2E/DX2                !
 ! A77   A(28,29,30)           120.2059         estimate D2E/DX2                !
 ! A78   A(25,30,29)           122.5494         estimate D2E/DX2                !
 ! A79   A(25,30,52)           120.9239         estimate D2E/DX2                !
 ! A80   A(29,30,52)           116.5016         estimate D2E/DX2                !
 ! A81   A(28,31,32)           115.5362         estimate D2E/DX2                !
 ! A82   A(28,31,36)           116.5748         estimate D2E/DX2                !
 ! A83   A(32,31,36)           127.8822         estimate D2E/DX2                !
 ! A84   A(31,32,33)           114.0676         estimate D2E/DX2                !
 ! A85   A(32,33,34)           127.7546         estimate D2E/DX2                !
 ! A86   A(32,33,53)           114.2746         estimate D2E/DX2                !
 ! A87   A(34,33,53)           117.9266         estimate D2E/DX2                !
 ! A88   A(33,34,35)           114.8347         estimate D2E/DX2                !
 ! A89   A(33,34,54)           124.1394         estimate D2E/DX2                !
 ! A90   A(35,34,54)           121.0258         estimate D2E/DX2                !
 ! A91   A(34,35,36)           118.5823         estimate D2E/DX2                !
 ! A92   A(34,35,55)           118.0937         estimate D2E/DX2                !
 ! A93   A(36,35,55)           122.9823         estimate D2E/DX2                !
 ! A94   A(31,36,35)           116.8437         estimate D2E/DX2                !
 ! A95   A(31,36,56)           125.7588         estimate D2E/DX2                !
 ! A96   A(35,36,56)           117.391          estimate D2E/DX2                !
 ! D1    D(6,1,2,3)              3.0605         estimate D2E/DX2                !
 ! D2    D(6,1,2,38)          -178.407          estimate D2E/DX2                !
 ! D3    D(37,1,2,3)          -179.2872         estimate D2E/DX2                !
 ! D4    D(37,1,2,38)           -0.7548         estimate D2E/DX2                !
 ! D5    D(2,1,6,5)             -4.981          estimate D2E/DX2                !
 ! D6    D(2,1,6,40)           176.9257         estimate D2E/DX2                !
 ! D7    D(37,1,6,5)           177.3545         estimate D2E/DX2                !
 ! D8    D(37,1,6,40)           -0.7388         estimate D2E/DX2                !
 ! D9    D(1,2,3,4)             -1.9265         estimate D2E/DX2                !
 ! D10   D(1,2,3,39)           177.5308         estimate D2E/DX2                !
 ! D11   D(38,2,3,4)           179.4334         estimate D2E/DX2                !
 ! D12   D(38,2,3,39)           -1.1092         estimate D2E/DX2                !
 ! D13   D(2,3,4,5)              2.2518         estimate D2E/DX2                !
 ! D14   D(2,3,4,7)            177.9322         estimate D2E/DX2                !
 ! D15   D(39,3,4,5)          -177.211          estimate D2E/DX2                !
 ! D16   D(39,3,4,7)            -1.5307         estimate D2E/DX2                !
 ! D17   D(3,4,5,6)             -3.8728         estimate D2E/DX2                !
 ! D18   D(7,4,5,6)           -179.8729         estimate D2E/DX2                !
 ! D19   D(3,4,7,8)             -3.1782         estimate D2E/DX2                !
 ! D20   D(3,4,7,12)           177.3962         estimate D2E/DX2                !
 ! D21   D(5,4,7,8)            172.5045         estimate D2E/DX2                !
 ! D22   D(5,4,7,12)            -6.9211         estimate D2E/DX2                !
 ! D23   D(4,5,6,1)              5.3661         estimate D2E/DX2                !
 ! D24   D(4,5,6,40)          -176.565          estimate D2E/DX2                !
 ! D25   D(4,7,8,9)            177.3743         estimate D2E/DX2                !
 ! D26   D(12,7,8,9)            -3.134          estimate D2E/DX2                !
 ! D27   D(4,7,12,11)         -174.3124         estimate D2E/DX2                !
 ! D28   D(4,7,12,43)           -2.8446         estimate D2E/DX2                !
 ! D29   D(8,7,12,11)            6.2496         estimate D2E/DX2                !
 ! D30   D(8,7,12,43)          177.7174         estimate D2E/DX2                !
 ! D31   D(7,8,9,10)             0.083          estimate D2E/DX2                !
 ! D32   D(7,8,9,41)           176.7156         estimate D2E/DX2                !
 ! D33   D(8,9,10,11)            0.365          estimate D2E/DX2                !
 ! D34   D(8,9,10,13)          174.5574         estimate D2E/DX2                !
 ! D35   D(41,9,10,11)        -175.8386         estimate D2E/DX2                !
 ! D36   D(41,9,10,13)          -1.6462         estimate D2E/DX2                !
 ! D37   D(9,10,11,12)           2.3627         estimate D2E/DX2                !
 ! D38   D(9,10,11,42)         178.0378         estimate D2E/DX2                !
 ! D39   D(13,10,11,12)       -171.8256         estimate D2E/DX2                !
 ! D40   D(13,10,11,42)          3.8495         estimate D2E/DX2                !
 ! D41   D(9,10,13,14)         118.1917         estimate D2E/DX2                !
 ! D42   D(9,10,13,18)         -56.2481         estimate D2E/DX2                !
 ! D43   D(11,10,13,14)        -67.9735         estimate D2E/DX2                !
 ! D44   D(11,10,13,18)        117.5868         estimate D2E/DX2                !
 ! D45   D(10,11,12,7)          -5.9594         estimate D2E/DX2                !
 ! D46   D(10,11,12,43)       -177.3519         estimate D2E/DX2                !
 ! D47   D(42,11,12,7)         178.3542         estimate D2E/DX2                !
 ! D48   D(42,11,12,43)          6.9617         estimate D2E/DX2                !
 ! D49   D(10,13,14,15)       -179.9073         estimate D2E/DX2                !
 ! D50   D(10,13,14,44)          5.8722         estimate D2E/DX2                !
 ! D51   D(18,13,14,15)         -5.1913         estimate D2E/DX2                !
 ! D52   D(18,13,14,44)       -179.4119         estimate D2E/DX2                !
 ! D53   D(10,13,18,17)       -179.6058         estimate D2E/DX2                !
 ! D54   D(10,13,18,46)         -2.5843         estimate D2E/DX2                !
 ! D55   D(14,13,18,17)          6.0396         estimate D2E/DX2                !
 ! D56   D(14,13,18,46)       -176.9389         estimate D2E/DX2                !
 ! D57   D(13,14,15,16)          1.5856         estimate D2E/DX2                !
 ! D58   D(13,14,15,45)       -174.8156         estimate D2E/DX2                !
 ! D59   D(44,14,15,16)        175.9137         estimate D2E/DX2                !
 ! D60   D(44,14,15,45)         -0.4875         estimate D2E/DX2                !
 ! D61   D(14,15,16,17)          1.7277         estimate D2E/DX2                !
 ! D62   D(14,15,16,19)       -179.7906         estimate D2E/DX2                !
 ! D63   D(45,15,16,17)        178.1095         estimate D2E/DX2                !
 ! D64   D(45,15,16,19)         -3.4088         estimate D2E/DX2                !
 ! D65   D(15,16,17,18)         -1.3077         estimate D2E/DX2                !
 ! D66   D(19,16,17,18)       -179.936          estimate D2E/DX2                !
 ! D67   D(15,16,19,20)          1.746          estimate D2E/DX2                !
 ! D68   D(15,16,19,24)       -174.644          estimate D2E/DX2                !
 ! D69   D(17,16,19,20)       -179.797          estimate D2E/DX2                !
 ! D70   D(17,16,19,24)          3.813          estimate D2E/DX2                !
 ! D71   D(16,17,18,13)         -2.5274         estimate D2E/DX2                !
 ! D72   D(16,17,18,46)       -179.6459         estimate D2E/DX2                !
 ! D73   D(16,19,20,21)       -177.6295         estimate D2E/DX2                !
 ! D74   D(24,19,20,21)         -1.2465         estimate D2E/DX2                !
 ! D75   D(16,19,24,23)        173.7557         estimate D2E/DX2                !
 ! D76   D(16,19,24,49)         -1.0302         estimate D2E/DX2                !
 ! D77   D(20,19,24,23)         -2.2795         estimate D2E/DX2                !
 ! D78   D(20,19,24,49)       -177.0655         estimate D2E/DX2                !
 ! D79   D(19,20,21,22)          0.9823         estimate D2E/DX2                !
 ! D80   D(19,20,21,47)       -179.0758         estimate D2E/DX2                !
 ! D81   D(20,21,22,23)          2.5849         estimate D2E/DX2                !
 ! D82   D(20,21,22,25)        176.9858         estimate D2E/DX2                !
 ! D83   D(47,21,22,23)       -177.3576         estimate D2E/DX2                !
 ! D84   D(47,21,22,25)         -2.9567         estimate D2E/DX2                !
 ! D85   D(21,22,23,24)         -6.2339         estimate D2E/DX2                !
 ! D86   D(21,22,23,48)       -175.8966         estimate D2E/DX2                !
 ! D87   D(25,22,23,24)        179.1966         estimate D2E/DX2                !
 ! D88   D(25,22,23,48)          9.534          estimate D2E/DX2                !
 ! D89   D(21,22,25,26)       -123.2523         estimate D2E/DX2                !
 ! D90   D(21,22,25,30)         63.3313         estimate D2E/DX2                !
 ! D91   D(23,22,25,26)         50.6005         estimate D2E/DX2                !
 ! D92   D(23,22,25,30)       -122.8159         estimate D2E/DX2                !
 ! D93   D(22,23,24,19)          6.3183         estimate D2E/DX2                !
 ! D94   D(22,23,24,49)       -179.0584         estimate D2E/DX2                !
 ! D95   D(48,23,24,19)        176.663          estimate D2E/DX2                !
 ! D96   D(48,23,24,49)         -8.7137         estimate D2E/DX2                !
 ! D97   D(22,25,26,27)        179.0104         estimate D2E/DX2                !
 ! D98   D(22,25,26,50)          9.0863         estimate D2E/DX2                !
 ! D99   D(30,25,26,27)         -7.3186         estimate D2E/DX2                !
 ! D100  D(30,25,26,50)       -177.2428         estimate D2E/DX2                !
 ! D101  D(22,25,30,29)        177.6434         estimate D2E/DX2                !
 ! D102  D(22,25,30,52)         -0.47           estimate D2E/DX2                !
 ! D103  D(26,25,30,29)          3.7321         estimate D2E/DX2                !
 ! D104  D(26,25,30,52)       -174.3813         estimate D2E/DX2                !
 ! D105  D(25,26,27,28)          5.6552         estimate D2E/DX2                !
 ! D106  D(25,26,27,51)       -174.1771         estimate D2E/DX2                !
 ! D107  D(50,26,27,28)        174.9133         estimate D2E/DX2                !
 ! D108  D(50,26,27,51)         -4.919          estimate D2E/DX2                !
 ! D109  D(26,27,28,29)          0.1739         estimate D2E/DX2                !
 ! D110  D(26,27,28,31)        179.3707         estimate D2E/DX2                !
 ! D111  D(51,27,28,29)        179.9977         estimate D2E/DX2                !
 ! D112  D(51,27,28,31)         -0.8056         estimate D2E/DX2                !
 ! D113  D(27,28,29,30)         -3.9405         estimate D2E/DX2                !
 ! D114  D(31,28,29,30)        176.855          estimate D2E/DX2                !
 ! D115  D(27,28,31,32)          3.014          estimate D2E/DX2                !
 ! D116  D(27,28,31,36)       -176.1123         estimate D2E/DX2                !
 ! D117  D(29,28,31,32)       -177.7882         estimate D2E/DX2                !
 ! D118  D(29,28,31,36)          3.0855         estimate D2E/DX2                !
 ! D119  D(28,29,30,25)          1.9019         estimate D2E/DX2                !
 ! D120  D(28,29,30,52)       -179.9065         estimate D2E/DX2                !
 ! D121  D(28,31,32,33)       -178.5452         estimate D2E/DX2                !
 ! D122  D(36,31,32,33)          0.4647         estimate D2E/DX2                !
 ! D123  D(28,31,36,35)        177.261          estimate D2E/DX2                !
 ! D124  D(28,31,36,56)         -1.7844         estimate D2E/DX2                !
 ! D125  D(32,31,36,35)         -1.7402         estimate D2E/DX2                !
 ! D126  D(32,31,36,56)        179.2145         estimate D2E/DX2                !
 ! D127  D(31,32,33,34)          0.2791         estimate D2E/DX2                !
 ! D128  D(31,32,33,53)       -177.2307         estimate D2E/DX2                !
 ! D129  D(32,33,34,35)          0.3443         estimate D2E/DX2                !
 ! D130  D(32,33,34,54)       -179.6865         estimate D2E/DX2                !
 ! D131  D(53,33,34,35)        177.775          estimate D2E/DX2                !
 ! D132  D(53,33,34,54)         -2.2557         estimate D2E/DX2                !
 ! D133  D(33,34,35,36)         -1.6109         estimate D2E/DX2                !
 ! D134  D(33,34,35,55)       -175.1017         estimate D2E/DX2                !
 ! D135  D(54,34,35,36)        178.4187         estimate D2E/DX2                !
 ! D136  D(54,34,35,55)          4.928          estimate D2E/DX2                !
 ! D137  D(34,35,36,31)          2.2395         estimate D2E/DX2                !
 ! D138  D(34,35,36,56)       -178.633          estimate D2E/DX2                !
 ! D139  D(55,35,36,31)        175.3923         estimate D2E/DX2                !
 ! D140  D(55,35,36,56)         -5.4802         estimate D2E/DX2                !
 --------------------------------------------------------------------------------
 Trust Radius=3.00D-01 FncErr=1.00D-07 GrdErr=1.00D-06 EigMax=2.50D+02 EigMin=1.00D-04
 Number of steps in this run=    307 maximum allowed number of steps=    336.
 GradGradGradGradGradGradGradGradGradGradGradGradGradGradGradGradGradGrad

 Leave Link  103 at Fri Jul 24 20:44:35 2020, MaxMem=  4026531840 cpu:               0.1 elap:               0.0
 (Enter /opt/ohpc/pub/libs/gaussian/g16-A.03/sandybridge/g16/l202.exe)
 Stoichiometry    C30H20N6
 Framework group  C1[X(C30H20N6)]
 Deg. of freedom   162
 Full point group                 C1      NOp   1
 Largest Abelian subgroup         C1      NOp   1
 Largest concise Abelian subgroup C1      NOp   1
                         Standard orientation:                         
 ---------------------------------------------------------------------
 Center     Atomic      Atomic             Coordinates (Angstroms)
 Number     Number       Type             X           Y           Z
 ---------------------------------------------------------------------
      1          6           0       11.978271    0.205765    0.079761
      2          6           0       11.333438    1.271209   -0.343940
      3          6           0        9.892428    1.207390   -0.385832
      4          6           0        9.220548    0.068135   -0.036599
      5          7           0        9.957446   -0.989370    0.397109
      6          6           0       11.275260   -0.923959    0.398098
      7          6           0        7.835964   -0.060031   -0.011161
      8          7           0        7.096368    1.034674   -0.291997
      9          6           0        5.708402    0.975001   -0.340058
     10          6           0        4.981069   -0.161019   -0.113261
     11          6           0        5.734642   -1.328333    0.194854
     12          6           0        7.108067   -1.210216    0.287826
     13          6           0        3.488101   -0.145720   -0.059612
     14          6           0        2.822108   -0.888358   -0.990305
     15          6           0        1.438641   -0.869041   -0.937279
     16          6           0        0.696405   -0.112289   -0.011866
     17          7           0        1.468787    0.703198    0.890290
     18          6           0        2.756170    0.661739    0.804012
     19          6           0       -0.759837   -0.050787    0.100116
     20          7           0       -1.422650   -0.877751   -0.811359
     21          6           0       -2.746683   -0.791686   -0.751256
     22          6           0       -3.565382    0.024327    0.083602
     23          6           0       -2.794981    0.885856    0.915881
     24          6           0       -1.422117    0.809286    0.976979
     25          6           0       -4.992543    0.086185    0.027043
     26          6           0       -5.709995    1.269079   -0.179276
     27          6           0       -7.047786    1.233481   -0.238174
     28          6           0       -7.768659    0.036573    0.022245
     29          7           0       -7.110305   -1.076164    0.335227
     30          6           0       -5.784907   -1.091131    0.328425
     31          6           0       -9.315036    0.019855   -0.036802
     32          7           0       -9.874981    1.139050   -0.394245
     33          6           0      -11.242641    1.099914   -0.406067
     34          6           0      -12.034364    0.069560   -0.094527
     35          6           0      -11.333783   -1.138839    0.307973
     36          6           0       -9.918140   -1.134750    0.302225
     37          1           0       13.068380    0.205861    0.141776
     38          1           0       11.797576    2.188371   -0.638335
     39          1           0        9.298428    2.114034   -0.703400
     40          1           0       11.851521   -1.813488    0.699814
     41          1           0        5.278861    1.944958   -0.519991
     42          1           0        5.243198   -2.265936    0.420124
     43          1           0        7.721276   -2.178557    0.493553
     44          1           0        3.353033   -1.563674   -1.705955
     45          1           0        0.886510   -1.537891   -1.632523
     46          1           0        3.284276    1.287123    1.506945
     47          1           0       -3.275346   -1.408874   -1.410001
     48          1           0       -3.244159    1.517388    1.647501
     49          1           0       -0.810878    1.485916    1.652344
     50          1           0       -5.138780    2.134782   -0.447388
     51          1           0       -7.563821    2.184188   -0.503143
     52          1           0       -5.333631   -1.983685    0.578552
     53          1           0      -11.750739    2.091330   -0.777071
     54          1           0      -13.122999    0.102450   -0.129348
     55          1           0      -11.940963   -2.062070    0.500721
     56          1           0       -9.400376   -2.080869    0.592509
 ---------------------------------------------------------------------
 Rotational constants (GHZ):           0.9869078           0.0199930           0.0197809
 Leave Link  202 at Fri Jul 24 20:44:35 2020, MaxMem=  4026531840 cpu:               0.1 elap:               0.0
 (Enter /opt/ohpc/pub/libs/gaussian/g16-A.03/sandybridge/g16/l301.exe)
 Standard basis: CC-pVDZ (5D, 7F)
 Ernie: Thresh=  0.10000D-02 Tol=  0.10000D-05 Strict=F.
 Ernie:  72 primitive shells out of 892 were deleted.
 There are   640 symmetry adapted cartesian basis functions of A   symmetry.
 There are   604 symmetry adapted basis functions of A   symmetry.
   604 basis functions,  1328 primitive gaussians,   640 cartesian basis functions
   121 alpha electrons      121 beta electrons
       nuclear repulsion energy      2942.5195150477 Hartrees.
 IExCor=32609 DFT=T Ex+Corr=LC-wPBE ExCW=0 ScaHFX=  1.000000
 ScaDFX=  1.000000  0.000000  1.000000  1.000000 ScalE2=  1.000000  1.000000
 IRadAn=      5 IRanWt=     -1 IRanGd=            0 ICorTp=0 IEmpDi=  4
 HFx  wShort=  0.000000 wLong=  0.092800 cFull=  0.000000 cShort=  0.000000 cLong=  1.000000
 DFx  wShort=  0.000000 wLong=  0.092800 cFull=  0.000000 cShort=  0.000000 cLong=  1.000000
 NAtoms=   56 NActive=   56 NUniq=   56 SFac= 1.00D+00 NAtFMM=   60 NAOKFM=F Big=F
 Integral buffers will be    131072 words long.
 Raffenetti 2 integral format.
 Two-electron integral symmetry is turned on.
 Leave Link  301 at Fri Jul 24 20:44:35 2020, MaxMem=  4026531840 cpu:               0.4 elap:               0.1
 (Enter /opt/ohpc/pub/libs/gaussian/g16-A.03/sandybridge/g16/l302.exe)
 NPDir=0 NMtPBC=     1 NCelOv=     1 NCel=       1 NClECP=     1 NCelD=      1
         NCelK=      1 NCelE2=     1 NClLst=     1 CellRange=     0.0.
 One-electron integrals computed using PRISM.
 One-electron integral symmetry used in STVInt
 NBasis=   604 RedAO= T EigKep=  3.51D-04  NBF=   604
 NBsUse=   604 1.00D-06 EigRej= -1.00D+00 NBFU=   604
 Precomputing XC quadrature grid using
 IXCGrd= 4 IRadAn=           5 IRanWt=          -1 IRanGd=           0 AccXCQ= 0.00D+00.
 Generated NRdTot=       0 NPtTot=           0 NUsed=           0 NTot=          32
 NSgBfM=   525   525   525   525   525 MxSgAt=    56 MxSgA2=    56.
 Leave Link  302 at Fri Jul 24 20:44:36 2020, MaxMem=  4026531840 cpu:               9.9 elap:               1.3
 (Enter /opt/ohpc/pub/libs/gaussian/g16-A.03/sandybridge/g16/l303.exe)
 DipDrv:  MaxL=1.
 Leave Link  303 at Fri Jul 24 20:44:37 2020, MaxMem=  4026531840 cpu:               0.9 elap:               0.2
 (Enter /opt/ohpc/pub/libs/gaussian/g16-A.03/sandybridge/g16/l401.exe)
 ExpMin= 1.22D-01 ExpMax= 9.05D+03 ExpMxC= 3.09D+02 IAcc=3 IRadAn=         5 AccDes= 0.00D+00
 Harris functional with IExCor=32609 and IRadAn=       5 diagonalized for initial guess.
 HarFok:  IExCor=32609 AccDes= 0.00D+00 IRadAn=         5 IDoV= 1 UseB2=F ITyADJ=14
 ICtDFT=  3500011 ScaDFX=  1.000000  1.000000  1.000000  1.000000
 FoFCou: FMM=F IPFlag=           0 FMFlag=      100000 FMFlg1=           0
         NFxFlg=           0 DoJE=T BraDBF=F KetDBF=T FulRan=T
         wScrn=  0.000000 ICntrl=       500 IOpCl=  0 I1Cent=   200000004 NGrid=           0
         NMat0=    1 NMatS0=      1 NMatT0=    0 NMatD0=    1 NMtDS0=    0 NMtDT0=    0
 Petite list used in FoFCou.
 Harris En= -1482.45058797205    
 JPrj=0 DoOrth=F DoCkMO=F.
 Initial guess <Sx>= 0.0000 <Sy>= 0.0000 <Sz>= 0.0000 <S**2>=-0.0000 S=-0.0000
 Leave Link  401 at Fri Jul 24 20:44:42 2020, MaxMem=  4026531840 cpu:              44.0 elap:               5.6
 (Enter /opt/ohpc/pub/libs/gaussian/g16-A.03/sandybridge/g16/l502.exe)
 Integral symmetry usage will be decided dynamically.
 UHF open shell SCF:
 Using DIIS extrapolation, IDIIS=  1040.
 NGot=  4026531840 LenX=  4025701004 LenY=  4025290764
 Requested convergence on RMS density matrix=1.00D-08 within 128 cycles.
 Requested convergence on MAX density matrix=1.00D-06.
 Requested convergence on             energy=1.00D-06.
 No special actions if energy rises.
 Fock matrices will be formed incrementally for  20 cycles.
 Integral accuracy reduced to 1.0D-05 until final iterations.

 Cycle   1  Pass 0  IDiag  1:
 FoFJK:  IHMeth= 1 ICntrl=       0 DoSepK=T KAlg= 0 I1Cent=           0 FoldK=F
 IRaf=         1 NMat=       1 IRICut=       1 DoRegI=T DoRafI=F ISym2E= 0 IDoP0=0 IntGTp=1.
 FoFCou: FMM=F IPFlag=           0 FMFlag=      100000 FMFlg1=           0
         NFxFlg=           0 DoJE=T BraDBF=F KetDBF=F FulRan=T
         wScrn=  0.000000 ICntrl=       500 IOpCl=  0 I1Cent=           0 NGrid=           0
         NMat0=    1 NMatS0=      1 NMatT0=    0 NMatD0=    1 NMtDS0=    0 NMtDT0=    0
 Symmetry not used in FoFCou.
 E= -1481.83138896376    
 DIIS: error= 1.75D-02 at cycle   1 NSaved=   1.
 NSaved= 1 IEnMin= 1 EnMin= -1481.83138896376     IErMin= 1 ErrMin= 1.75D-02
 ErrMax= 1.75D-02  0.00D+00 EMaxC= 1.00D-01 BMatC= 1.36D+00 BMatP= 1.36D+00
 IDIUse=3 WtCom= 8.25D-01 WtEn= 1.75D-01
 Coeff-Com:  0.100D+01
 Coeff-En:   0.100D+01
 Coeff:      0.100D+01
 Gap=     0.187 Goal=   None    Shift=    0.000
 Gap=     0.187 Goal=   None    Shift=    0.000
 GapD=    0.187 DampG=1.000 DampE=0.500 DampFc=0.5000 IDamp=-1.
 Damping current iteration by 5.00D-01
 RMSDP=2.52D-03 MaxDP=9.55D-02              OVMax= 1.12D-01

 Cycle   2  Pass 0  IDiag  1:
 RMSU=  1.25D-03    CP:  9.88D-01
 E= -1482.03064707070     Delta-E=       -0.199258106932 Rises=F Damp=T
 DIIS: error= 3.79D-03 at cycle   2 NSaved=   2.
 NSaved= 2 IEnMin= 2 EnMin= -1482.03064707070     IErMin= 2 ErrMin= 3.79D-03
 ErrMax= 3.79D-03  0.00D+00 EMaxC= 1.00D-01 BMatC= 7.78D-02 BMatP= 1.36D+00
 IDIUse=3 WtCom= 9.62D-01 WtEn= 3.79D-02
 Coeff-Com:  0.688D-02 0.993D+00
 Coeff-En:   0.000D+00 0.100D+01
 Coeff:      0.662D-02 0.993D+00
 Gap=     0.194 Goal=   None    Shift=    0.000
 Gap=     0.194 Goal=   None    Shift=    0.000
 RMSDP=7.08D-04 MaxDP=3.20D-02 DE=-1.99D-01 OVMax= 8.09D-02

 Cycle   3  Pass 0  IDiag  1:
 RMSU=  6.46D-04    CP:  9.85D-01  1.23D+00
 E= -1482.22162077173     Delta-E=       -0.190973701030 Rises=F Damp=F
 DIIS: error= 3.52D-03 at cycle   3 NSaved=   3.
 NSaved= 3 IEnMin= 3 EnMin= -1482.22162077173     IErMin= 3 ErrMin= 3.52D-03
 ErrMax= 3.52D-03  0.00D+00 EMaxC= 1.00D-01 BMatC= 8.56D-02 BMatP= 7.78D-02
 IDIUse=3 WtCom= 1.44D-01 WtEn= 8.56D-01
 Coeff-Com: -0.416D-01 0.537D+00 0.505D+00
 Coeff-En:   0.000D+00 0.000D+00 0.100D+01
 Coeff:     -0.600D-02 0.775D-01 0.929D+00
 Gap=     0.192 Goal=   None    Shift=    0.000
 Gap=     0.192 Goal=   None    Shift=    0.000
 RMSDP=6.97D-04 MaxDP=4.93D-02 DE=-1.91D-01 OVMax= 7.38D-02

 Cycle   4  Pass 0  IDiag  1:
 RMSU=  4.11D-04    CP:  9.84D-01  1.17D+00  1.35D-01
 E= -1482.17707915298     Delta-E=        0.044541618747 Rises=F Damp=F
 DIIS: error= 6.63D-03 at cycle   4 NSaved=   4.
 NSaved= 4 IEnMin= 3 EnMin= -1482.22162077173     IErMin= 3 ErrMin= 3.52D-03
 ErrMax= 6.63D-03  0.00D+00 EMaxC= 1.00D-01 BMatC= 2.54D-01 BMatP= 7.78D-02
 IDIUse=3 WtCom= 1.09D-01 WtEn= 8.91D-01
 Coeff-Com: -0.256D-02 0.167D+00 0.569D+00 0.267D+00
 Coeff-En:   0.000D+00 0.000D+00 0.703D+00 0.297D+00
 Coeff:     -0.280D-03 0.183D-01 0.688D+00 0.294D+00
 Gap=     0.190 Goal=   None    Shift=    0.000
 Gap=     0.190 Goal=   None    Shift=    0.000
 RMSDP=3.68D-04 MaxDP=2.57D-02 DE= 4.45D-02 OVMax= 4.35D-02

 Cycle   5  Pass 0  IDiag  1:
 RMSU=  6.58D-05    CP:  9.85D-01  1.18D+00  5.56D-01  4.18D-01
 E= -1482.24227524063     Delta-E=       -0.065196087648 Rises=F Damp=F
 DIIS: error= 1.09D-03 at cycle   5 NSaved=   5.
 NSaved= 5 IEnMin= 5 EnMin= -1482.24227524063     IErMin= 5 ErrMin= 1.09D-03
 ErrMax= 1.09D-03  0.00D+00 EMaxC= 1.00D-01 BMatC= 8.42D-03 BMatP= 7.78D-02
 IDIUse=3 WtCom= 9.89D-01 WtEn= 1.09D-02
 Coeff-Com:  0.654D-02 0.317D-01 0.358D+00 0.121D+00 0.483D+00
 Coeff-En:   0.000D+00 0.000D+00 0.682D-01 0.000D+00 0.932D+00
 Coeff:      0.646D-02 0.314D-01 0.355D+00 0.119D+00 0.488D+00
 Gap=     0.189 Goal=   None    Shift=    0.000
 Gap=     0.189 Goal=   None    Shift=    0.000
 RMSDP=7.84D-05 MaxDP=5.71D-03 DE=-6.52D-02 OVMax= 7.70D-03

 Cycle   6  Pass 0  IDiag  1:
 RMSU=  2.63D-05    CP:  9.85D-01  1.19D+00  6.42D-01  3.34D-01  4.86D-01
 E= -1482.24440780348     Delta-E=       -0.002132562856 Rises=F Damp=F
 DIIS: error= 1.32D-04 at cycle   6 NSaved=   6.
 NSaved= 6 IEnMin= 6 EnMin= -1482.24440780348     IErMin= 6 ErrMin= 1.32D-04
 ErrMax= 1.32D-04  0.00D+00 EMaxC= 1.00D-01 BMatC= 1.41D-04 BMatP= 8.42D-03
 IDIUse=3 WtCom= 9.99D-01 WtEn= 1.32D-03
 Coeff-Com:  0.379D-02-0.471D-02 0.106D+00 0.224D-01 0.260D+00 0.612D+00
 Coeff-En:   0.000D+00 0.000D+00 0.000D+00 0.000D+00 0.000D+00 0.100D+01
 Coeff:      0.378D-02-0.470D-02 0.106D+00 0.224D-01 0.259D+00 0.613D+00
 Gap=     0.189 Goal=   None    Shift=    0.000
 Gap=     0.189 Goal=   None    Shift=    0.000
 RMSDP=1.15D-05 MaxDP=6.52D-04 DE=-2.13D-03 OVMax= 9.82D-04

 Cycle   7  Pass 0  IDiag  1:
 RMSU=  6.44D-06    CP:  9.85D-01  1.19D+00  6.47D-01  3.38D-01  5.75D-01
                    CP:  7.47D-01
 E= -1482.24444265516     Delta-E=       -0.000034851681 Rises=F Damp=F
 DIIS: error= 3.56D-05 at cycle   7 NSaved=   7.
 NSaved= 7 IEnMin= 7 EnMin= -1482.24444265516     IErMin= 7 ErrMin= 3.56D-05
 ErrMax= 3.56D-05  0.00D+00 EMaxC= 1.00D-01 BMatC= 9.59D-06 BMatP= 1.41D-04
 IDIUse=1 WtCom= 1.00D+00 WtEn= 0.00D+00
 Coeff-Com:  0.162D-02-0.394D-02 0.317D-01 0.362D-02 0.993D-01 0.301D+00
 Coeff-Com:  0.567D+00
 Coeff:      0.162D-02-0.394D-02 0.317D-01 0.362D-02 0.993D-01 0.301D+00
 Coeff:      0.567D+00
 Gap=     0.189 Goal=   None    Shift=    0.000
 Gap=     0.189 Goal=   None    Shift=    0.000
 RMSDP=3.38D-06 MaxDP=2.42D-04 DE=-3.49D-05 OVMax= 3.82D-04

 Initial convergence to 1.0D-05 achieved.  Increase integral accuracy.
 Cycle   8  Pass 1  IDiag  1:
 E= -1482.24395280963     Delta-E=        0.000489845536 Rises=F Damp=F
 DIIS: error= 1.10D-04 at cycle   1 NSaved=   1.
 NSaved= 1 IEnMin= 1 EnMin= -1482.24395280963     IErMin= 1 ErrMin= 1.10D-04
 ErrMax= 1.10D-04  0.00D+00 EMaxC= 1.00D-01 BMatC= 2.73D-05 BMatP= 2.73D-05
 IDIUse=3 WtCom= 9.99D-01 WtEn= 1.10D-03
 Coeff-Com:  0.100D+01
 Coeff-En:   0.100D+01
 Coeff:      0.100D+01
 Gap=     0.189 Goal=   None    Shift=    0.000
 Gap=     0.189 Goal=   None    Shift=    0.000
 RMSDP=3.38D-06 MaxDP=2.42D-04 DE= 4.90D-04 OVMax= 3.00D-04

 Cycle   9  Pass 1  IDiag  1:
 RMSU=  6.80D-05    CP:  1.00D+00
 E= -1482.24395715276     Delta-E=       -0.000004343136 Rises=F Damp=F
 DIIS: error= 3.67D-05 at cycle   2 NSaved=   2.
 NSaved= 2 IEnMin= 2 EnMin= -1482.24395715276     IErMin= 2 ErrMin= 3.67D-05
 ErrMax= 3.67D-05  0.00D+00 EMaxC= 1.00D-01 BMatC= 4.92D-06 BMatP= 2.73D-05
 IDIUse=1 WtCom= 1.00D+00 WtEn= 0.00D+00
 Coeff-Com:  0.190D+00 0.810D+00
 Coeff:      0.190D+00 0.810D+00
 Gap=     0.189 Goal=   None    Shift=    0.000
 Gap=     0.189 Goal=   None    Shift=    0.000
 RMSDP=5.32D-06 MaxDP=2.86D-04 DE=-4.34D-06 OVMax= 4.27D-04

 Cycle  10  Pass 1  IDiag  1:
 RMSU=  4.61D-06    CP:  1.00D+00  1.04D+00
 E= -1482.24395613572     Delta-E=        0.000001017048 Rises=F Damp=F
 DIIS: error= 5.37D-05 at cycle   3 NSaved=   3.
 NSaved= 3 IEnMin= 2 EnMin= -1482.24395715276     IErMin= 2 ErrMin= 3.67D-05
 ErrMax= 5.37D-05  0.00D+00 EMaxC= 1.00D-01 BMatC= 9.51D-06 BMatP= 4.92D-06
 IDIUse=1 WtCom= 1.00D+00 WtEn= 0.00D+00
 Coeff-Com: -0.138D-01 0.588D+00 0.426D+00
 Coeff:     -0.138D-01 0.588D+00 0.426D+00
 Gap=     0.189 Goal=   None    Shift=    0.000
 Gap=     0.189 Goal=   None    Shift=    0.000
 RMSDP=2.82D-06 MaxDP=1.73D-04 DE= 1.02D-06 OVMax= 2.58D-04

 Cycle  11  Pass 1  IDiag  1:
 RMSU=  8.17D-07    CP:  1.00D+00  1.05D+00  4.39D-01
 E= -1482.24395834015     Delta-E=       -0.000002204435 Rises=F Damp=F
 DIIS: error= 5.14D-06 at cycle   4 NSaved=   4.
 NSaved= 4 IEnMin= 4 EnMin= -1482.24395834015     IErMin= 4 ErrMin= 5.14D-06
 ErrMax= 5.14D-06  0.00D+00 EMaxC= 1.00D-01 BMatC= 1.54D-07 BMatP= 4.92D-06
 IDIUse=1 WtCom= 1.00D+00 WtEn= 0.00D+00
 Coeff-Com: -0.120D-01 0.352D+00 0.265D+00 0.395D+00
 Coeff:     -0.120D-01 0.352D+00 0.265D+00 0.395D+00
 Gap=     0.189 Goal=   None    Shift=    0.000
 Gap=     0.189 Goal=   None    Shift=    0.000
 RMSDP=3.51D-07 MaxDP=2.23D-05 DE=-2.20D-06 OVMax= 5.15D-05

 Cycle  12  Pass 1  IDiag  1:
 RMSU=  2.77D-07    CP:  1.00D+00  1.05D+00  4.66D-01  7.99D-01
 E= -1482.24395836418     Delta-E=       -0.000000024025 Rises=F Damp=F
 DIIS: error= 7.39D-07 at cycle   5 NSaved=   5.
 NSaved= 5 IEnMin= 5 EnMin= -1482.24395836418     IErMin= 5 ErrMin= 7.39D-07
 ErrMax= 7.39D-07  0.00D+00 EMaxC= 1.00D-01 BMatC= 2.69D-09 BMatP= 1.54D-07
 IDIUse=1 WtCom= 1.00D+00 WtEn= 0.00D+00
 Coeff-Com: -0.415D-02 0.110D+00 0.836D-01 0.163D+00 0.648D+00
 Coeff:     -0.415D-02 0.110D+00 0.836D-01 0.163D+00 0.648D+00
 Gap=     0.189 Goal=   None    Shift=    0.000
 Gap=     0.189 Goal=   None    Shift=    0.000
 RMSDP=8.47D-08 MaxDP=4.01D-06 DE=-2.40D-08 OVMax= 8.62D-06

 Cycle  13  Pass 1  IDiag  1:
 RMSU=  6.62D-08    CP:  1.00D+00  1.05D+00  4.67D-01  8.43D-01  9.55D-01
 E= -1482.24395836472     Delta-E=       -0.000000000539 Rises=F Damp=F
 DIIS: error= 4.62D-07 at cycle   6 NSaved=   6.
 NSaved= 6 IEnMin= 6 EnMin= -1482.24395836472     IErMin= 6 ErrMin= 4.62D-07
 ErrMax= 4.62D-07  0.00D+00 EMaxC= 1.00D-01 BMatC= 1.23D-09 BMatP= 2.69D-09
 IDIUse=1 WtCom= 1.00D+00 WtEn= 0.00D+00
 Coeff-Com: -0.474D-03 0.641D-02 0.513D-02 0.302D-01 0.421D+00 0.538D+00
 Coeff:     -0.474D-03 0.641D-02 0.513D-02 0.302D-01 0.421D+00 0.538D+00
 Gap=     0.189 Goal=   None    Shift=    0.000
 Gap=     0.189 Goal=   None    Shift=    0.000
 RMSDP=4.88D-08 MaxDP=2.42D-06 DE=-5.39D-10 OVMax= 5.97D-06

 Cycle  14  Pass 1  IDiag  1:
 RMSU=  2.99D-08    CP:  1.00D+00  1.05D+00  4.68D-01  8.57D-01  1.03D+00
                    CP:  6.57D-01
 E= -1482.24395836505     Delta-E=       -0.000000000334 Rises=F Damp=F
 DIIS: error= 1.63D-07 at cycle   7 NSaved=   7.
 NSaved= 7 IEnMin= 7 EnMin= -1482.24395836505     IErMin= 7 ErrMin= 1.63D-07
 ErrMax= 1.63D-07  0.00D+00 EMaxC= 1.00D-01 BMatC= 1.37D-10 BMatP= 1.23D-09
 IDIUse=1 WtCom= 1.00D+00 WtEn= 0.00D+00
 Coeff-Com:  0.331D-03-0.123D-01-0.927D-02-0.775D-02 0.143D+00 0.311D+00
 Coeff-Com:  0.575D+00
 Coeff:      0.331D-03-0.123D-01-0.927D-02-0.775D-02 0.143D+00 0.311D+00
 Coeff:      0.575D+00
 Gap=     0.189 Goal=   None    Shift=    0.000
 Gap=     0.189 Goal=   None    Shift=    0.000
 RMSDP=1.59D-08 MaxDP=5.36D-07 DE=-3.34D-10 OVMax= 2.21D-06

 Cycle  15  Pass 1  IDiag  1:
 RMSU=  1.23D-08    CP:  1.00D+00  1.05D+00  4.68D-01  8.63D-01  1.04D+00
                    CP:  7.58D-01  9.24D-01
 E= -1482.24395836505     Delta-E=       -0.000000000001 Rises=F Damp=F
 DIIS: error= 5.01D-08 at cycle   8 NSaved=   8.
 NSaved= 8 IEnMin= 8 EnMin= -1482.24395836505     IErMin= 8 ErrMin= 5.01D-08
 ErrMax= 5.01D-08  0.00D+00 EMaxC= 1.00D-01 BMatC= 1.99D-11 BMatP= 1.37D-10
 IDIUse=1 WtCom= 1.00D+00 WtEn= 0.00D+00
 Coeff-Com:  0.256D-03-0.800D-02-0.611D-02-0.906D-02 0.256D-01 0.111D+00
 Coeff-Com:  0.329D+00 0.557D+00
 Coeff:      0.256D-03-0.800D-02-0.611D-02-0.906D-02 0.256D-01 0.111D+00
 Coeff:      0.329D+00 0.557D+00
 Gap=     0.189 Goal=   None    Shift=    0.000
 Gap=     0.189 Goal=   None    Shift=    0.000
 RMSDP=6.21D-09 MaxDP=2.52D-07 DE=-9.09D-13 OVMax= 9.55D-07

 SCF Done:  E(ULC-wPBE) =  -1482.24395837     A.U. after   15 cycles
            NFock= 15  Conv=0.62D-08     -V/T= 2.0058
 <Sx>= 0.0000 <Sy>= 0.0000 <Sz>= 0.0000 <S**2>=-0.0000 S=-0.0000
 <L.S>= 0.000000000000E+00
 KE= 1.473702025862D+03 PE=-9.330010832680D+03 EE= 3.431545333405D+03
 Annihilation of the first spin contaminant:
 S**2 before annihilation    -0.0000,   after    -0.0000
 Leave Link  502 at Fri Jul 24 20:50:45 2020, MaxMem=  4026531840 cpu:            2887.4 elap:             362.9
 (Enter /opt/ohpc/pub/libs/gaussian/g16-A.03/sandybridge/g16/l601.exe)
 Copying SCF densities to generalized density rwf, IOpCl= 1 IROHF=0.

 **********************************************************************

            Population analysis using the SCF density.

 **********************************************************************

 Orbital symmetries:
 Alpha Orbitals:
       Occupied  (A) (A) (A) (A) (A) (A) (A) (A) (A) (A) (A) (A)
                 (A) (A) (A) (A) (A) (A) (A) (A) (A) (A) (A) (A)
                 (A) (A) (A) (A) (A) (A) (A) (A) (A) (A) (A) (A)
                 (A) (A) (A) (A) (A) (A) (A) (A) (A) (A) (A) (A)
                 (A) (A) (A) (A) (A) (A) (A) (A) (A) (A) (A) (A)
                 (A) (A) (A) (A) (A) (A) (A) (A) (A) (A) (A) (A)
                 (A) (A) (A) (A) (A) (A) (A) (A) (A) (A) (A) (A)
                 (A) (A) (A) (A) (A) (A) (A) (A) (A) (A) (A) (A)
                 (A) (A) (A) (A) (A) (A) (A) (A) (A) (A) (A) (A)
                 (A) (A) (A) (A) (A) (A) (A) (A) (A) (A) (A) (A)
                 (A)
       Virtual   (A) (A) (A) (A) (A) (A) (A) (A) (A) (A) (A) (A)
                 (A) (A) (A) (A) (A) (A) (A) (A) (A) (A) (A) (A)
                 (A) (A) (A) (A) (A) (A) (A) (A) (A) (A) (A) (A)
                 (A) (A) (A) (A) (A) (A) (A) (A) (A) (A) (A) (A)
                 (A) (A) (A) (A) (A) (A) (A) (A) (A) (A) (A) (A)
                 (A) (A) (A) (A) (A) (A) (A) (A) (A) (A) (A) (A)
                 (A) (A) (A) (A) (A) (A) (A) (A) (A) (A) (A) (A)
                 (A) (A) (A) (A) (A) (A) (A) (A) (A) (A) (A) (A)
                 (A) (A) (A) (A) (A) (A) (A) (A) (A) (A) (A) (A)
                 (A) (A) (A) (A) (A) (A) (A) (A) (A) (A) (A) (A)
                 (A) (A) (A) (A) (A) (A) (A) (A) (A) (A) (A) (A)
                 (A) (A) (A) (A) (A) (A) (A) (A) (A) (A) (A) (A)
                 (A) (A) (A) (A) (A) (A) (A) (A) (A) (A) (A) (A)
                 (A) (A) (A) (A) (A) (A) (A) (A) (A) (A) (A) (A)
                 (A) (A) (A) (A) (A) (A) (A) (A) (A) (A) (A) (A)
                 (A) (A) (A) (A) (A) (A) (A) (A) (A) (A) (A) (A)
                 (A) (A) (A) (A) (A) (A) (A) (A) (A) (A) (A) (A)
                 (A) (A) (A) (A) (A) (A) (A) (A) (A) (A) (A) (A)
                 (A) (A) (A) (A) (A) (A) (A) (A) (A) (A) (A) (A)
                 (A) (A) (A) (A) (A) (A) (A) (A) (A) (A) (A) (A)
                 (A) (A) (A) (A) (A) (A) (A) (A) (A) (A) (A) (A)
                 (A) (A) (A) (A) (A) (A) (A) (A) (A) (A) (A) (A)
                 (A) (A) (A) (A) (A) (A) (A) (A) (A) (A) (A) (A)
                 (A) (A) (A) (A) (A) (A) (A) (A) (A) (A) (A) (A)
                 (A) (A) (A) (A) (A) (A) (A) (A) (A) (A) (A) (A)
                 (A) (A) (A) (A) (A) (A) (A) (A) (A) (A) (A) (A)
                 (A) (A) (A) (A) (A) (A) (A) (A) (A) (A) (A) (A)
                 (A) (A) (A) (A) (A) (A) (A) (A) (A) (A) (A) (A)
                 (A) (A) (A) (A) (A) (A) (A) (A) (A) (A) (A) (A)
                 (A) (A) (A) (A) (A) (A) (A) (A) (A) (A) (A) (A)
                 (A) (A) (A) (A) (A) (A) (A) (A) (A) (A) (A) (A)
                 (A) (A) (A) (A) (A) (A) (A) (A) (A) (A) (A) (A)
                 (A) (A) (A) (A) (A) (A) (A) (A) (A) (A) (A) (A)
                 (A) (A) (A) (A) (A) (A) (A) (A) (A) (A) (A) (A)
                 (A) (A) (A) (A) (A) (A) (A) (A) (A) (A) (A) (A)
                 (A) (A) (A) (A) (A) (A) (A) (A) (A) (A) (A) (A)
                 (A) (A) (A) (A) (A) (A) (A) (A) (A) (A) (A) (A)
                 (A) (A) (A) (A) (A) (A) (A) (A) (A) (A) (A) (A)
                 (A) (A) (A) (A) (A) (A) (A) (A) (A) (A) (A) (A)
                 (A) (A) (A) (A) (A) (A) (A) (A) (A) (A) (A) (A)
                 (A) (A) (A)
 Beta  Orbitals:
       Occupied  (A) (A) (A) (A) (A) (A) (A) (A) (A) (A) (A) (A)
                 (A) (A) (A) (A) (A) (A) (A) (A) (A) (A) (A) (A)
                 (A) (A) (A) (A) (A) (A) (A) (A) (A) (A) (A) (A)
                 (A) (A) (A) (A) (A) (A) (A) (A) (A) (A) (A) (A)
                 (A) (A) (A) (A) (A) (A) (A) (A) (A) (A) (A) (A)
                 (A) (A) (A) (A) (A) (A) (A) (A) (A) (A) (A) (A)
                 (A) (A) (A) (A) (A) (A) (A) (A) (A) (A) (A) (A)
                 (A) (A) (A) (A) (A) (A) (A) (A) (A) (A) (A) (A)
                 (A) (A) (A) (A) (A) (A) (A) (A) (A) (A) (A) (A)
                 (A) (A) (A) (A) (A) (A) (A) (A) (A) (A) (A) (A)
                 (A)
       Virtual   (A) (A) (A) (A) (A) (A) (A) (A) (A) (A) (A) (A)
                 (A) (A) (A) (A) (A) (A) (A) (A) (A) (A) (A) (A)
                 (A) (A) (A) (A) (A) (A) (A) (A) (A) (A) (A) (A)
                 (A) (A) (A) (A) (A) (A) (A) (A) (A) (A) (A) (A)
                 (A) (A) (A) (A) (A) (A) (A) (A) (A) (A) (A) (A)
                 (A) (A) (A) (A) (A) (A) (A) (A) (A) (A) (A) (A)
                 (A) (A) (A) (A) (A) (A) (A) (A) (A) (A) (A) (A)
                 (A) (A) (A) (A) (A) (A) (A) (A) (A) (A) (A) (A)
                 (A) (A) (A) (A) (A) (A) (A) (A) (A) (A) (A) (A)
                 (A) (A) (A) (A) (A) (A) (A) (A) (A) (A) (A) (A)
                 (A) (A) (A) (A) (A) (A) (A) (A) (A) (A) (A) (A)
                 (A) (A) (A) (A) (A) (A) (A) (A) (A) (A) (A) (A)
                 (A) (A) (A) (A) (A) (A) (A) (A) (A) (A) (A) (A)
                 (A) (A) (A) (A) (A) (A) (A) (A) (A) (A) (A) (A)
                 (A) (A) (A) (A) (A) (A) (A) (A) (A) (A) (A) (A)
                 (A) (A) (A) (A) (A) (A) (A) (A) (A) (A) (A) (A)
                 (A) (A) (A) (A) (A) (A) (A) (A) (A) (A) (A) (A)
                 (A) (A) (A) (A) (A) (A) (A) (A) (A) (A) (A) (A)
                 (A) (A) (A) (A) (A) (A) (A) (A) (A) (A) (A) (A)
                 (A) (A) (A) (A) (A) (A) (A) (A) (A) (A) (A) (A)
                 (A) (A) (A) (A) (A) (A) (A) (A) (A) (A) (A) (A)
                 (A) (A) (A) (A) (A) (A) (A) (A) (A) (A) (A) (A)
                 (A) (A) (A) (A) (A) (A) (A) (A) (A) (A) (A) (A)
                 (A) (A) (A) (A) (A) (A) (A) (A) (A) (A) (A) (A)
                 (A) (A) (A) (A) (A) (A) (A) (A) (A) (A) (A) (A)
                 (A) (A) (A) (A) (A) (A) (A) (A) (A) (A) (A) (A)
                 (A) (A) (A) (A) (A) (A) (A) (A) (A) (A) (A) (A)
                 (A) (A) (A) (A) (A) (A) (A) (A) (A) (A) (A) (A)
                 (A) (A) (A) (A) (A) (A) (A) (A) (A) (A) (A) (A)
                 (A) (A) (A) (A) (A) (A) (A) (A) (A) (A) (A) (A)
                 (A) (A) (A) (A) (A) (A) (A) (A) (A) (A) (A) (A)
                 (A) (A) (A) (A) (A) (A) (A) (A) (A) (A) (A) (A)
                 (A) (A) (A) (A) (A) (A) (A) (A) (A) (A) (A) (A)
                 (A) (A) (A) (A) (A) (A) (A) (A) (A) (A) (A) (A)
                 (A) (A) (A) (A) (A) (A) (A) (A) (A) (A) (A) (A)
                 (A) (A) (A) (A) (A) (A) (A) (A) (A) (A) (A) (A)
                 (A) (A) (A) (A) (A) (A) (A) (A) (A) (A) (A) (A)
                 (A) (A) (A) (A) (A) (A) (A) (A) (A) (A) (A) (A)
                 (A) (A) (A) (A) (A) (A) (A) (A) (A) (A) (A) (A)
                 (A) (A) (A) (A) (A) (A) (A) (A) (A) (A) (A) (A)
                 (A) (A) (A)
 The electronic state is 1-A.
 Alpha  occ. eigenvalues --  -14.06059 -14.05428 -14.05401 -14.05302 -14.04865
 Alpha  occ. eigenvalues --  -14.04667  -9.99931  -9.99887  -9.99562  -9.99160
 Alpha  occ. eigenvalues --   -9.99104  -9.98780  -9.98720  -9.98663  -9.98454
 Alpha  occ. eigenvalues --   -9.98442  -9.98422  -9.98353  -9.98304  -9.97888
 Alpha  occ. eigenvalues --   -9.97714  -9.97529  -9.97330  -9.97271  -9.97206
 Alpha  occ. eigenvalues --   -9.97127  -9.96751  -9.96709  -9.96607  -9.96605
 Alpha  occ. eigenvalues --   -9.96461  -9.96386  -9.96253  -9.96239  -9.96016
 Alpha  occ. eigenvalues --   -9.95441  -0.93556  -0.92912  -0.92390  -0.91897
 Alpha  occ. eigenvalues --   -0.90963  -0.90338  -0.82141  -0.81803  -0.79439
 Alpha  occ. eigenvalues --   -0.78741  -0.78253  -0.78169  -0.77639  -0.76980
 Alpha  occ. eigenvalues --   -0.76751  -0.74862  -0.73193  -0.71223  -0.67218
 Alpha  occ. eigenvalues --   -0.65056  -0.64400  -0.63943  -0.63239  -0.62952
 Alpha  occ. eigenvalues --   -0.61765  -0.61134  -0.60282  -0.59963  -0.59182
 Alpha  occ. eigenvalues --   -0.58585  -0.54381  -0.54137  -0.53573  -0.51579
 Alpha  occ. eigenvalues --   -0.51391  -0.50838  -0.50385  -0.50053  -0.48823
 Alpha  occ. eigenvalues --   -0.48427  -0.47872  -0.47144  -0.46622  -0.45175
 Alpha  occ. eigenvalues --   -0.44824  -0.44420  -0.44144  -0.43659  -0.43612
 Alpha  occ. eigenvalues --   -0.43179  -0.43127  -0.42969  -0.42793  -0.42211
 Alpha  occ. eigenvalues --   -0.41774  -0.40948  -0.40572  -0.40532  -0.40277
 Alpha  occ. eigenvalues --   -0.39900  -0.39857  -0.38891  -0.38473  -0.37701
 Alpha  occ. eigenvalues --   -0.37041  -0.36053  -0.35341  -0.33967  -0.33302
 Alpha  occ. eigenvalues --   -0.31915  -0.31889  -0.31692  -0.31195  -0.30914
 Alpha  occ. eigenvalues --   -0.30413  -0.29909  -0.28531  -0.28291  -0.27887
 Alpha  occ. eigenvalues --   -0.26753  -0.26516  -0.26356  -0.25954  -0.25133
 Alpha  occ. eigenvalues --   -0.24680
 Alpha virt. eigenvalues --   -0.05821  -0.04005  -0.03181  -0.01911  -0.01705
 Alpha virt. eigenvalues --   -0.01334  -0.00086  -0.00070   0.00444   0.02603
 Alpha virt. eigenvalues --    0.03958   0.05094   0.08310   0.08981   0.09657
 Alpha virt. eigenvalues --    0.10054   0.10441   0.10745   0.11785   0.11932
 Alpha virt. eigenvalues --    0.12268   0.12787   0.12814   0.13312   0.13476
 Alpha virt. eigenvalues --    0.14476   0.15087   0.15469   0.15791   0.16130
 Alpha virt. eigenvalues --    0.16700   0.16788   0.17154   0.17443   0.17588
 Alpha virt. eigenvalues --    0.17895   0.18252   0.19063   0.21564   0.22196
 Alpha virt. eigenvalues --    0.22525   0.23551   0.23875   0.24109   0.24310
 Alpha virt. eigenvalues --    0.25638   0.26253   0.27514   0.27920   0.28217
 Alpha virt. eigenvalues --    0.29271   0.29764   0.30355   0.30773   0.31309
 Alpha virt. eigenvalues --    0.31791   0.32438   0.32773   0.33167   0.33883
 Alpha virt. eigenvalues --    0.34287   0.34839   0.35626   0.36311   0.36790
 Alpha virt. eigenvalues --    0.37320   0.38196   0.38352   0.38482   0.38948
 Alpha virt. eigenvalues --    0.39438   0.39592   0.40017   0.42069   0.42716
 Alpha virt. eigenvalues --    0.43178   0.43490   0.43922   0.44449   0.44882
 Alpha virt. eigenvalues --    0.45516   0.45863   0.46105   0.46272   0.46367
 Alpha virt. eigenvalues --    0.47290   0.47362   0.47837   0.48038   0.48511
 Alpha virt. eigenvalues --    0.48785   0.49043   0.49145   0.49292   0.50055
 Alpha virt. eigenvalues --    0.50192   0.50865   0.51221   0.51384   0.51531
 Alpha virt. eigenvalues --    0.51928   0.52068   0.52136   0.52416   0.52555
 Alpha virt. eigenvalues --    0.52632   0.53043   0.53259   0.53447   0.53694
 Alpha virt. eigenvalues --    0.53803   0.53926   0.54501   0.54709   0.55071
 Alpha virt. eigenvalues --    0.55227   0.55762   0.56132   0.57049   0.57164
 Alpha virt. eigenvalues --    0.57670   0.57799   0.58390   0.59196   0.60187
 Alpha virt. eigenvalues --    0.60728   0.60925   0.61231   0.61241   0.62495
 Alpha virt. eigenvalues --    0.62838   0.63148   0.63250   0.63586   0.64080
 Alpha virt. eigenvalues --    0.64527   0.64886   0.65569   0.65643   0.65930
 Alpha virt. eigenvalues --    0.66062   0.66749   0.67009   0.67606   0.67748
 Alpha virt. eigenvalues --    0.68253   0.68417   0.68738   0.68933   0.69152
 Alpha virt. eigenvalues --    0.69569   0.69591   0.69972   0.70685   0.70870
 Alpha virt. eigenvalues --    0.71011   0.71527   0.72057   0.72227   0.73101
 Alpha virt. eigenvalues --    0.74689   0.74847   0.75831   0.80183   0.80366
 Alpha virt. eigenvalues --    0.81046   0.82020   0.82407   0.82665   0.83376
 Alpha virt. eigenvalues --    0.83668   0.84013   0.84234   0.85299   0.85691
 Alpha virt. eigenvalues --    0.85776   0.86351   0.86652   0.86760   0.87437
 Alpha virt. eigenvalues --    0.87755   0.88120   0.88481   0.89062   0.89305
 Alpha virt. eigenvalues --    0.89674   0.90623   0.91054   0.91371   0.91430
 Alpha virt. eigenvalues --    0.92209   0.92391   0.93226   0.94014   0.94297
 Alpha virt. eigenvalues --    0.94671   0.95236   0.95420   0.96503   0.96699
 Alpha virt. eigenvalues --    0.97148   0.97846   0.98561   0.98945   0.99795
 Alpha virt. eigenvalues --    0.99885   1.00408   1.01178   1.01363   1.01738
 Alpha virt. eigenvalues --    1.02423   1.02686   1.02765   1.03504   1.03654
 Alpha virt. eigenvalues --    1.04069   1.04402   1.05077   1.05202   1.05804
 Alpha virt. eigenvalues --    1.06060   1.06388   1.07223   1.07570   1.07804
 Alpha virt. eigenvalues --    1.08672   1.08946   1.09521   1.10131   1.10983
 Alpha virt. eigenvalues --    1.11785   1.12204   1.12562   1.13220   1.13549
 Alpha virt. eigenvalues --    1.14177   1.14388   1.15061   1.15310   1.15675
 Alpha virt. eigenvalues --    1.16457   1.16775   1.18023   1.18539   1.18887
 Alpha virt. eigenvalues --    1.18960   1.19442   1.21122   1.21413   1.22142
 Alpha virt. eigenvalues --    1.23350   1.24254   1.24829   1.25958   1.26555
 Alpha virt. eigenvalues --    1.27342   1.28054   1.29636   1.30748   1.31546
 Alpha virt. eigenvalues --    1.32540   1.33958   1.36279   1.37442   1.38180
 Alpha virt. eigenvalues --    1.38576   1.39086   1.40009   1.40762   1.40934
 Alpha virt. eigenvalues --    1.42968   1.43165   1.44186   1.44338   1.46104
 Alpha virt. eigenvalues --    1.46534   1.46855   1.47012   1.48128   1.48364
 Alpha virt. eigenvalues --    1.48488   1.48694   1.49374   1.50060   1.50382
 Alpha virt. eigenvalues --    1.50951   1.51385   1.51757   1.52174   1.53125
 Alpha virt. eigenvalues --    1.53632   1.53919   1.54952   1.55201   1.55644
 Alpha virt. eigenvalues --    1.56520   1.56799   1.57182   1.57589   1.57918
 Alpha virt. eigenvalues --    1.58243   1.58617   1.59080   1.59471   1.59866
 Alpha virt. eigenvalues --    1.60004   1.60365   1.60915   1.61169   1.61810
 Alpha virt. eigenvalues --    1.62252   1.62744   1.62805   1.63205   1.63628
 Alpha virt. eigenvalues --    1.64137   1.64241   1.64654   1.65486   1.65956
 Alpha virt. eigenvalues --    1.66352   1.66452   1.66625   1.67567   1.68026
 Alpha virt. eigenvalues --    1.68103   1.68208   1.68904   1.69022   1.69341
 Alpha virt. eigenvalues --    1.69613   1.69774   1.70072   1.71072   1.72486
 Alpha virt. eigenvalues --    1.73958   1.74291   1.74377   1.75190   1.75486
 Alpha virt. eigenvalues --    1.75879   1.76469   1.77014   1.77545   1.77840
 Alpha virt. eigenvalues --    1.78489   1.79396   1.79753   1.80450   1.80528
 Alpha virt. eigenvalues --    1.81754   1.81930   1.82218   1.83274   1.83845
 Alpha virt. eigenvalues --    1.84102   1.84344   1.84697   1.85815   1.86197
 Alpha virt. eigenvalues --    1.86977   1.87349   1.87517   1.87998   1.88566
 Alpha virt. eigenvalues --    1.88718   1.90026   1.90820   1.90980   1.91195
 Alpha virt. eigenvalues --    1.91929   1.92831   1.93400   1.93748   1.94254
 Alpha virt. eigenvalues --    1.94401   1.94663   1.95507   1.95935   1.96377
 Alpha virt. eigenvalues --    1.97601   1.97755   1.98018   1.98732   1.99478
 Alpha virt. eigenvalues --    1.99553   1.99816   2.00315   2.01079   2.02027
 Alpha virt. eigenvalues --    2.03034   2.03778   2.04227   2.05027   2.05153
 Alpha virt. eigenvalues --    2.05881   2.06622   2.07359   2.07918   2.09232
 Alpha virt. eigenvalues --    2.09963   2.10690   2.12011   2.13046   2.16357
 Alpha virt. eigenvalues --    2.17316   2.19503   2.20291   2.20733   2.21884
 Alpha virt. eigenvalues --    2.22243   2.23277   2.27064   2.27721   2.29745
 Alpha virt. eigenvalues --    2.30070   2.30593   2.31218   2.32078   2.32231
 Alpha virt. eigenvalues --    2.34211   2.35327   2.35578   2.36694   2.37095
 Alpha virt. eigenvalues --    2.37219   2.37887   2.37913   2.39023   2.39798
 Alpha virt. eigenvalues --    2.41142   2.41737   2.43710   2.44979   2.45678
 Alpha virt. eigenvalues --    2.46399   2.48167   2.49152   2.49475   2.50439
 Alpha virt. eigenvalues --    2.51713   2.52157   2.53103   2.54104   2.55107
 Alpha virt. eigenvalues --    2.56252   2.57147   2.58358   2.59192   2.59664
 Alpha virt. eigenvalues --    2.61055   2.61934   2.62602   2.65516   2.67916
 Alpha virt. eigenvalues --    2.68795   2.69469   2.75059   2.75724   2.76926
 Alpha virt. eigenvalues --    2.78105   2.78818   2.79681   2.81458   2.82228
 Alpha virt. eigenvalues --    2.83282   2.84476   2.85154   2.85953   2.86778
 Alpha virt. eigenvalues --    2.88663   2.88947   2.90059   2.90984   3.04563
 Alpha virt. eigenvalues --    3.09422   3.12891   3.24416   3.32397   3.35343
 Alpha virt. eigenvalues --    3.43234   3.48291   3.56082
  Beta  occ. eigenvalues --  -14.06059 -14.05428 -14.05401 -14.05302 -14.04865
  Beta  occ. eigenvalues --  -14.04667  -9.99931  -9.99887  -9.99562  -9.99160
  Beta  occ. eigenvalues --   -9.99104  -9.98780  -9.98720  -9.98663  -9.98454
  Beta  occ. eigenvalues --   -9.98442  -9.98422  -9.98353  -9.98304  -9.97888
  Beta  occ. eigenvalues --   -9.97714  -9.97529  -9.97330  -9.97271  -9.97206
  Beta  occ. eigenvalues --   -9.97127  -9.96751  -9.96709  -9.96607  -9.96605
  Beta  occ. eigenvalues --   -9.96461  -9.96386  -9.96253  -9.96239  -9.96016
  Beta  occ. eigenvalues --   -9.95441  -0.93556  -0.92912  -0.92390  -0.91897
  Beta  occ. eigenvalues --   -0.90963  -0.90338  -0.82141  -0.81803  -0.79439
  Beta  occ. eigenvalues --   -0.78741  -0.78253  -0.78169  -0.77639  -0.76980
  Beta  occ. eigenvalues --   -0.76751  -0.74862  -0.73193  -0.71223  -0.67218
  Beta  occ. eigenvalues --   -0.65056  -0.64400  -0.63943  -0.63239  -0.62952
  Beta  occ. eigenvalues --   -0.61765  -0.61134  -0.60282  -0.59963  -0.59182
  Beta  occ. eigenvalues --   -0.58585  -0.54381  -0.54137  -0.53573  -0.51579
  Beta  occ. eigenvalues --   -0.51391  -0.50838  -0.50385  -0.50053  -0.48823
  Beta  occ. eigenvalues --   -0.48427  -0.47872  -0.47144  -0.46622  -0.45175
  Beta  occ. eigenvalues --   -0.44824  -0.44420  -0.44144  -0.43659  -0.43612
  Beta  occ. eigenvalues --   -0.43179  -0.43127  -0.42969  -0.42793  -0.42211
  Beta  occ. eigenvalues --   -0.41774  -0.40948  -0.40572  -0.40532  -0.40277
  Beta  occ. eigenvalues --   -0.39900  -0.39857  -0.38891  -0.38473  -0.37701
  Beta  occ. eigenvalues --   -0.37041  -0.36053  -0.35341  -0.33967  -0.33302
  Beta  occ. eigenvalues --   -0.31915  -0.31889  -0.31692  -0.31195  -0.30914
  Beta  occ. eigenvalues --   -0.30413  -0.29909  -0.28531  -0.28291  -0.27887
  Beta  occ. eigenvalues --   -0.26753  -0.26516  -0.26356  -0.25954  -0.25133
  Beta  occ. eigenvalues --   -0.24680
  Beta virt. eigenvalues --   -0.05821  -0.04005  -0.03181  -0.01911  -0.01705
  Beta virt. eigenvalues --   -0.01334  -0.00086  -0.00070   0.00444   0.02603
  Beta virt. eigenvalues --    0.03958   0.05094   0.08310   0.08981   0.09657
  Beta virt. eigenvalues --    0.10054   0.10441   0.10745   0.11785   0.11932
  Beta virt. eigenvalues --    0.12268   0.12787   0.12814   0.13312   0.13476
  Beta virt. eigenvalues --    0.14476   0.15087   0.15469   0.15791   0.16130
  Beta virt. eigenvalues --    0.16700   0.16788   0.17154   0.17443   0.17588
  Beta virt. eigenvalues --    0.17895   0.18252   0.19063   0.21564   0.22196
  Beta virt. eigenvalues --    0.22525   0.23551   0.23875   0.24109   0.24310
  Beta virt. eigenvalues --    0.25638   0.26253   0.27514   0.27920   0.28217
  Beta virt. eigenvalues --    0.29271   0.29764   0.30355   0.30773   0.31309
  Beta virt. eigenvalues --    0.31791   0.32438   0.32773   0.33167   0.33883
  Beta virt. eigenvalues --    0.34287   0.34839   0.35626   0.36311   0.36790
  Beta virt. eigenvalues --    0.37320   0.38196   0.38352   0.38482   0.38948
[...]
    23   Atom       -0.000000     -0.000000      0.000000
    24   Atom        0.000000      0.000000      0.000000
    25   Atom        0.000000     -0.000000      0.000000
    26   Atom        0.000000      0.000000     -0.000000
    27   Atom        0.000000     -0.000000      0.000000
    28   Atom        0.000000     -0.000000     -0.000000
    29   Atom       -0.000000     -0.000000      0.000000
    30   Atom       -0.000000      0.000000     -0.000000
    31   Atom        0.000000     -0.000000     -0.000000
    32   Atom       -0.000000      0.000000      0.000000
    33   Atom        0.000000      0.000000      0.000000
    34   Atom       -0.000000      0.000000     -0.000000
    35   Atom        0.000000     -0.000000     -0.000000
    36   Atom       -0.000000      0.000000     -0.000000
    37   Atom        0.000000      0.000000      0.000000
    38   Atom        0.000000     -0.000000      0.000000
    39   Atom        0.000000     -0.000000      0.000000
    40   Atom       -0.000000      0.000000     -0.000000
    41   Atom       -0.000000      0.000000     -0.000000
    42   Atom       -0.000000      0.000000      0.000000
    43   Atom       -0.000000      0.000000      0.000000
    44   Atom       -0.000000     -0.000000      0.000000
    45   Atom       -0.000000     -0.000000      0.000000
    46   Atom        0.000000      0.000000      0.000000
    47   Atom       -0.000000     -0.000000     -0.000000
    48   Atom        0.000000      0.000000      0.000000
    49   Atom        0.000000      0.000000      0.000000
    50   Atom        0.000000     -0.000000     -0.000000
    51   Atom        0.000000     -0.000000     -0.000000
    52   Atom       -0.000000      0.000000     -0.000000
    53   Atom        0.000000      0.000000      0.000000
    54   Atom       -0.000000      0.000000     -0.000000
    55   Atom        0.000000      0.000000     -0.000000
    56   Atom       -0.000000      0.000000     -0.000000
 --------------------------------------------------------


 ---------------------------------------------------------------------------------
              Anisotropic Spin Dipole Couplings in Principal Axis System
 ---------------------------------------------------------------------------------

       Atom             a.u.   MegaHertz   Gauss  10(-4) cm-1        Axes

              Baa    -0.0000    -0.000    -0.000    -0.000  0.9989 -0.0468  0.0058
     1 C(13)  Bbb    -0.0000    -0.000    -0.000    -0.000  0.0074  0.2773  0.9608
              Bcc     0.0000     0.000     0.000     0.000  0.0466  0.9596 -0.2773
 
              Baa    -0.0000    -0.000    -0.000    -0.000  0.8708  0.4586 -0.1774
     2 C(13)  Bbb     0.0000     0.000     0.000     0.000  0.3084 -0.2285  0.9234
              Bcc     0.0000     0.000     0.000     0.000 -0.3829  0.8588  0.3404
 
              Baa    -0.0000    -0.000    -0.000    -0.000  0.8492  0.5178 -0.1034
     3 C(13)  Bbb    -0.0000    -0.000    -0.000    -0.000 -0.5274  0.8216 -0.2163
              Bcc     0.0000     0.000     0.000     0.000 -0.0271  0.2382  0.9708
 
              Baa    -0.0000    -0.000    -0.000    -0.000  0.5994  0.6042 -0.5250
     4 C(13)  Bbb    -0.0000    -0.000    -0.000    -0.000  0.7306 -0.1449  0.6673
              Bcc     0.0000     0.000     0.000     0.000 -0.3271  0.7835  0.5282
 
              Baa    -0.0000    -0.000    -0.000    -0.000 -0.0562  0.9792 -0.1950
     5 N(14)  Bbb     0.0000     0.000     0.000     0.000 -0.5622  0.1303  0.8167
              Bcc     0.0000     0.000     0.000     0.000  0.8251  0.1555  0.5432
 
              Baa    -0.0000    -0.000    -0.000    -0.000  0.9897 -0.1307  0.0582
     6 C(13)  Bbb     0.0000     0.000     0.000     0.000 -0.0570  0.0125  0.9983
              Bcc     0.0000     0.000     0.000     0.000  0.1312  0.9913 -0.0049
 
              Baa    -0.0000    -0.000    -0.000    -0.000  0.0905  0.7079 -0.7005
     7 C(13)  Bbb    -0.0000    -0.000    -0.000    -0.000 -0.2549  0.6964  0.6708
              Bcc     0.0000     0.000     0.000     0.000  0.9627  0.1179  0.2435
 
              Baa    -0.0000    -0.000    -0.000    -0.000 -0.0335  0.4425  0.8961
     8 N(14)  Bbb    -0.0000    -0.000    -0.000    -0.000 -0.0683  0.8935 -0.4438
              Bcc     0.0000     0.000     0.000     0.000  0.9971  0.0761 -0.0003
 
              Baa    -0.0000    -0.000    -0.000    -0.000  0.8629  0.5013 -0.0634
     9 C(13)  Bbb     0.0000     0.000     0.000     0.000 -0.4610  0.8325  0.3073
              Bcc     0.0000     0.000     0.000     0.000  0.2069 -0.2360  0.9495
 
              Baa    -0.0000    -0.000    -0.000    -0.000  0.9976 -0.0556  0.0424
    10 C(13)  Bbb     0.0000     0.000     0.000     0.000  0.0015  0.6243  0.7812
              Bcc     0.0000     0.000     0.000     0.000  0.0699  0.7792 -0.6228
 
              Baa    -0.0000    -0.000    -0.000    -0.000 -0.1576  0.9631 -0.2182
    11 C(13)  Bbb     0.0000     0.000     0.000     0.000  0.9793  0.1808  0.0907
              Bcc     0.0000     0.000     0.000     0.000 -0.1268  0.1994  0.9717
 
              Baa    -0.0000    -0.000    -0.000    -0.000  0.8716 -0.4695  0.1411
    12 C(13)  Bbb     0.0000     0.000     0.000     0.000 -0.1272  0.0614  0.9900
              Bcc     0.0000     0.000     0.000     0.000  0.4735  0.8808  0.0062
 
              Baa    -0.0000    -0.000    -0.000    -0.000  0.8689 -0.3405 -0.3593
    13 C(13)  Bbb    -0.0000    -0.000    -0.000    -0.000  0.1724 -0.4723  0.8644
              Bcc     0.0000     0.000     0.000     0.000  0.4640  0.8130  0.3517
 
              Baa    -0.0000    -0.000    -0.000    -0.000 -0.4919 -0.2775  0.8253
    14 C(13)  Bbb    -0.0000    -0.000    -0.000    -0.000  0.8241 -0.4541  0.3385
              Bcc     0.0000     0.000     0.000     0.000  0.2808  0.8466  0.4520
 
              Baa    -0.0000    -0.000    -0.000    -0.000  0.7802  0.5685  0.2609
    15 C(13)  Bbb    -0.0000    -0.000    -0.000    -0.000 -0.1352 -0.2539  0.9577
              Bcc     0.0000     0.000     0.000     0.000 -0.6107  0.7825  0.1212
 
              Baa    -0.0000    -0.000    -0.000    -0.000 -0.3425  0.8915  0.2965
    16 C(13)  Bbb     0.0000     0.000     0.000     0.000 -0.2118 -0.3807  0.9001
              Bcc     0.0000     0.000     0.000     0.000  0.9153  0.2455  0.3192
 
              Baa    -0.0000    -0.000    -0.000    -0.000  0.1171  0.9498  0.2901
    17 N(14)  Bbb    -0.0000    -0.000    -0.000    -0.000  0.0609 -0.2984  0.9525
              Bcc     0.0000     0.000     0.000     0.000  0.9912 -0.0939 -0.0928
 
              Baa    -0.0000    -0.000    -0.000    -0.000  0.6780  0.7349 -0.0171
    18 C(13)  Bbb    -0.0000    -0.000    -0.000    -0.000  0.2645 -0.2221  0.9385
              Bcc     0.0000     0.000     0.000     0.000  0.6858 -0.6408 -0.3449
 
              Baa    -0.0000    -0.000    -0.000    -0.000 -0.2443 -0.6173  0.7479
    19 C(13)  Bbb    -0.0000    -0.000    -0.000    -0.000  0.5243  0.5647  0.6374
              Bcc     0.0000     0.000     0.000     0.000  0.8158 -0.5478 -0.1857
 
              Baa    -0.0000    -0.000    -0.000    -0.000  0.7797  0.6008  0.1763
    20 N(14)  Bbb     0.0000     0.000     0.000     0.000 -0.6091  0.7930 -0.0085
              Bcc     0.0000     0.000     0.000     0.000 -0.1449 -0.1008  0.9843
 
              Baa    -0.0000    -0.000    -0.000    -0.000  0.9758 -0.0155  0.2179
    21 C(13)  Bbb    -0.0000    -0.000    -0.000    -0.000 -0.2021 -0.4433  0.8733
              Bcc     0.0000     0.000     0.000     0.000 -0.0831  0.8963  0.4357
 
              Baa    -0.0000    -0.000    -0.000    -0.000  0.4767  0.8318  0.2845
    22 C(13)  Bbb    -0.0000    -0.000    -0.000    -0.000 -0.1377 -0.2489  0.9587
              Bcc     0.0000     0.000     0.000     0.000  0.8682 -0.4962 -0.0041
 
              Baa    -0.0000    -0.000    -0.000    -0.000  0.0100 -0.1591  0.9872
    23 C(13)  Bbb    -0.0000    -0.000    -0.000    -0.000  0.2451  0.9575  0.1518
              Bcc     0.0000     0.000     0.000     0.000  0.9694 -0.2405 -0.0486
 
              Baa    -0.0000    -0.000    -0.000    -0.000 -0.0273 -0.3971  0.9174
    24 C(13)  Bbb    -0.0000    -0.000    -0.000    -0.000 -0.0820  0.9155  0.3939
              Bcc     0.0000     0.000     0.000     0.000  0.9963  0.0644  0.0575
 
              Baa    -0.0000    -0.000    -0.000    -0.000  0.5993 -0.5345  0.5960
    25 C(13)  Bbb    -0.0000    -0.000    -0.000    -0.000 -0.3550  0.4899  0.7962
              Bcc     0.0000     0.000     0.000     0.000  0.7175  0.6887 -0.1038
 
              Baa    -0.0000    -0.000    -0.000    -0.000 -0.3091  0.3397  0.8883
    26 C(13)  Bbb    -0.0000    -0.000    -0.000    -0.000  0.8792 -0.2539  0.4031
              Bcc     0.0000     0.000     0.000     0.000  0.3624  0.9056 -0.2202
 
              Baa    -0.0000    -0.000    -0.000    -0.000 -0.3893  0.8345 -0.3900
    27 C(13)  Bbb    -0.0000    -0.000    -0.000    -0.000 -0.1610  0.3553  0.9208
              Bcc     0.0000     0.000     0.000     0.000  0.9069  0.4212 -0.0040
 
              Baa    -0.0000    -0.000    -0.000    -0.000 -0.1519  0.2907  0.9447
    28 C(13)  Bbb    -0.0000    -0.000    -0.000    -0.000  0.8790 -0.3974  0.2636
              Bcc     0.0000     0.000     0.000     0.000  0.4521  0.8704 -0.1951
 
              Baa    -0.0000    -0.000    -0.000    -0.000  0.0662 -0.3173  0.9460
    29 N(14)  Bbb    -0.0000    -0.000    -0.000    -0.000  0.2232  0.9288  0.2959
              Bcc     0.0000     0.000     0.000     0.000  0.9725 -0.1915 -0.1323
 
              Baa    -0.0000    -0.000    -0.000    -0.000  0.7411  0.6681  0.0661
    30 C(13)  Bbb    -0.0000    -0.000    -0.000    -0.000 -0.2234  0.1526  0.9627
              Bcc     0.0000     0.000     0.000     0.000 -0.6331  0.7283 -0.2623
 
              Baa    -0.0000    -0.000    -0.000    -0.000  0.0504  0.1281  0.9905
    31 C(13)  Bbb    -0.0000    -0.000    -0.000    -0.000  0.7460 -0.6642  0.0479
              Bcc     0.0000     0.000     0.000     0.000  0.6640  0.7365 -0.1290
 
              Baa    -0.0000    -0.000    -0.000    -0.000  0.3700  0.9214 -0.1190
    32 N(14)  Bbb     0.0000     0.000     0.000     0.000  0.1513  0.0667  0.9862
              Bcc     0.0000     0.000     0.000     0.000  0.9166 -0.3829 -0.1147
 
              Baa    -0.0000    -0.000    -0.000    -0.000 -0.1477  0.9442 -0.2944
    33 C(13)  Bbb    -0.0000    -0.000    -0.000    -0.000  0.9869  0.1210 -0.1070
              Bcc     0.0000     0.000     0.000     0.000  0.0654  0.3064  0.9497
 
              Baa    -0.0000    -0.000    -0.000    -0.000  0.2261  0.6741  0.7032
    34 C(13)  Bbb    -0.0000    -0.000    -0.000    -0.000 -0.3457 -0.6194  0.7049
              Bcc     0.0000     0.000     0.000     0.000  0.9107 -0.4025  0.0930
 
              Baa    -0.0000    -0.000    -0.000    -0.000  0.1805  0.2669  0.9467
    35 C(13)  Bbb     0.0000     0.000     0.000     0.000  0.8710 -0.4906 -0.0278
              Bcc     0.0000     0.000     0.000     0.000  0.4570  0.8295 -0.3210
 
              Baa    -0.0000    -0.000    -0.000    -0.000  0.7467  0.6414 -0.1762
    36 C(13)  Bbb    -0.0000    -0.000    -0.000    -0.000  0.0069  0.2575  0.9663
              Bcc     0.0000     0.000     0.000     0.000 -0.6652  0.7227 -0.1878
 
              Baa    -0.0000    -0.000    -0.000    -0.000 -0.3188  0.9315 -0.1749
    37 H(1)   Bbb     0.0000     0.000     0.000     0.000 -0.1331  0.1388  0.9813
              Bcc     0.0000     0.000     0.000     0.000  0.9384  0.3361  0.0797
 
              Baa    -0.0000    -0.000    -0.000    -0.000  0.5663 -0.2695  0.7789
    38 H(1)   Bbb    -0.0000    -0.000    -0.000    -0.000  0.6830 -0.3754 -0.6265
              Bcc     0.0000     0.000     0.000     0.000  0.4613  0.8868 -0.0285
 
              Baa    -0.0000    -0.000    -0.000    -0.000 -0.5781  0.8034 -0.1428
    39 H(1)   Bbb     0.0000     0.000     0.000     0.000  0.0015  0.1761  0.9844
              Bcc     0.0000     0.000     0.000     0.000  0.8160  0.5688 -0.1030
 
              Baa    -0.0000    -0.000    -0.000    -0.000  0.8367  0.5304 -0.1364
    40 H(1)   Bbb    -0.0000    -0.000    -0.000    -0.000  0.0317  0.2018  0.9789
              Bcc     0.0000     0.000     0.000     0.000 -0.5467  0.8234 -0.1520
 
              Baa    -0.0000    -0.000    -0.000    -0.000 -0.6399 -0.2312  0.7328
    41 H(1)   Bbb    -0.0000    -0.000    -0.000    -0.000  0.6073  0.4322  0.6666
              Bcc     0.0000     0.000     0.000     0.000 -0.4708  0.8716 -0.1362
 
              Baa    -0.0000    -0.000    -0.000    -0.000  0.5242  0.8125 -0.2549
    42 H(1)   Bbb     0.0000     0.000     0.000     0.000  0.1641  0.1974  0.9665
              Bcc     0.0000     0.000     0.000     0.000  0.8356 -0.5485 -0.0298
 
              Baa    -0.0000    -0.000    -0.000    -0.000  0.3193  0.9324 -0.1691
    43 H(1)   Bbb     0.0000     0.000     0.000     0.000 -0.1330  0.2208  0.9662
              Bcc     0.0000     0.000     0.000     0.000  0.9383 -0.2861  0.1945
 
              Baa    -0.0000    -0.000    -0.000    -0.000  0.7305  0.0738  0.6789
    44 H(1)   Bbb    -0.0000    -0.000    -0.000    -0.000  0.4918  0.6329 -0.5980
              Bcc     0.0000     0.000     0.000     0.000 -0.4738  0.7707  0.4260
 
              Baa    -0.0000    -0.000    -0.000    -0.000  0.3861  0.9224  0.0031
    45 H(1)   Bbb    -0.0000    -0.000    -0.000    -0.000  0.2581 -0.1113  0.9597
              Bcc     0.0000     0.000     0.000     0.000  0.8856 -0.3698 -0.2811
 
              Baa    -0.0000    -0.000    -0.000    -0.000 -0.0921 -0.2192  0.9713
    46 H(1)   Bbb    -0.0000    -0.000    -0.000    -0.000 -0.6098  0.7836  0.1190
              Bcc     0.0000     0.000     0.000     0.000  0.7872  0.5813  0.2058
 
              Baa    -0.0000    -0.000    -0.000    -0.000  0.8460  0.5124  0.1476
    47 H(1)   Bbb     0.0000     0.000     0.000     0.000 -0.4867  0.8551 -0.1789
              Bcc     0.0000     0.000     0.000     0.000 -0.2179  0.0795  0.9727
 
              Baa    -0.0000    -0.000    -0.000    -0.000 -0.5205  0.6814 -0.5146
    48 H(1)   Bbb    -0.0000    -0.000    -0.000    -0.000 -0.7055 -0.0037  0.7087
              Bcc     0.0000     0.000     0.000     0.000  0.4810  0.7319  0.4826
 
              Baa    -0.0000    -0.000    -0.000    -0.000 -0.5581  0.0378  0.8289
    49 H(1)   Bbb    -0.0000    -0.000    -0.000    -0.000 -0.5711  0.7073 -0.4167
              Bcc     0.0000     0.000     0.000     0.000  0.6020  0.7059  0.3731
 
              Baa    -0.0000    -0.000    -0.000    -0.000  0.1547  0.2453  0.9570
    50 H(1)   Bbb    -0.0000    -0.000    -0.000    -0.000  0.8932 -0.4487 -0.0294
              Bcc     0.0000     0.000     0.000     0.000  0.4222  0.8593 -0.2885
 
              Baa    -0.0000    -0.000    -0.000    -0.000  0.9953 -0.0794  0.0547
    51 H(1)   Bbb     0.0000     0.000     0.000     0.000  0.0378  0.8430  0.5366
              Bcc     0.0000     0.000     0.000     0.000 -0.0887 -0.5320  0.8421
 
              Baa    -0.0000    -0.000    -0.000    -0.000 -0.4026 -0.0218  0.9151
    52 H(1)   Bbb    -0.0000    -0.000    -0.000    -0.000  0.8668  0.3122  0.3888
              Bcc     0.0000     0.000     0.000     0.000 -0.2941  0.9498 -0.1068
 
              Baa    -0.0000    -0.000    -0.000    -0.000 -0.1802  0.9827 -0.0422
    53 H(1)   Bbb     0.0000     0.000     0.000     0.000 -0.1392  0.0170  0.9901
              Bcc     0.0000     0.000     0.000     0.000  0.9737  0.1843  0.1337
 
              Baa    -0.0000    -0.000    -0.000    -0.000  0.4913  0.8679 -0.0734
    54 H(1)   Bbb    -0.0000    -0.000    -0.000    -0.000 -0.0704  0.1235  0.9898
              Bcc     0.0000     0.000     0.000     0.000  0.8682 -0.4811  0.1218
 
              Baa    -0.0000    -0.000    -0.000    -0.000 -0.0657  0.1445  0.9873
    55 H(1)   Bbb     0.0000     0.000     0.000     0.000  0.9522 -0.2866  0.1053
              Bcc     0.0000     0.000     0.000     0.000  0.2982  0.9471 -0.1188
 
              Baa    -0.0000    -0.000    -0.000    -0.000  0.6720  0.5439  0.5026
    56 H(1)   Bbb    -0.0000    -0.000    -0.000    -0.000 -0.5210 -0.1352  0.8428
              Bcc     0.0000     0.000     0.000     0.000 -0.5263  0.8282 -0.1925
 

 ---------------------------------------------------------------------------------

 No NMR shielding tensors so no spin-rotation constants.
 Leave Link  601 at Fri Jul 24 22:00:56 2020, MaxMem=  4026531840 cpu:               5.0 elap:               0.7
 (Enter /opt/ohpc/pub/libs/gaussian/g16-A.03/sandybridge/g16/l9999.exe)

 Test job not archived.
 1\1\GINC-SKYLAKE054\FOpt\ULC-wPBE\CC-pVDZ\C30H20N6\RDU230\24-Jul-2020\
 0\\#P uLC-wPBE/cc-pVDZ iop(3/107=0092800000, 3/108=0092800000) opt\\H2
 0 C30 N6\\0,1\C,12.0062656674,0.1341511349,0.0330152292\C,11.286930993
 3,1.3288180538,-0.1144341557\C,9.8899197257,1.2765441105,-0.1359165054
 \C,9.2573857508,0.0230965837,-0.0078477807\N,9.9429515317,-1.134914091
 2,0.1346608586\C,11.283763552,-1.0632745042,0.1525123055\C,7.769520681
 4,-0.0804225501,-0.024960048\N,7.0765542291,1.0732453164,-0.1629682332
 \C,5.7393840414,1.0029702493,-0.1730968027\C,4.9950995158,-0.192886729
 ,-0.0416085618\C,5.73953507,-1.3846565873,0.0920104418\C,7.1333448332,
 -1.3323054744,0.0976668111\C,3.5164849384,-0.1847591882,-0.0533038138\
 C,2.7635766321,-1.2087512484,-0.6672943193\C,1.3701614563,-1.148792825
 2,-0.6486946447\C,0.7431701574,-0.055438541,-0.0172259727\N,1.44420525
 79,0.9330618302,0.5848391123\C,2.7806606046,0.855056673,0.562592382\C,
 -0.7415391248,0.0576701735,0.0140469925\N,-1.4425618237,-0.9308591137,
 -0.5879863493\C,-2.779010496,-0.8529141477,-0.565711216\C,-3.514873555
 5,0.186852717,0.0502421593\C,-2.7619694126,1.2108306597,0.66426066\C,-
 1.368560194,1.1509671065,0.6455656041\C,-4.9934941773,0.1949395939,0.0
 386494449\C,-5.7379658892,1.3867596112,-0.0944108187\C,-7.1317741344,1
 .334419151,-0.0999870077\C,-7.7679306671,0.0824874531,0.0220990438\N,-
 7.0749733691,-1.0712594598,0.1593889758\C,-5.7377925393,-1.0009823989,
 0.1695335847\C,-9.2558439501,-0.0210184596,0.0048524117\N,-9.941442320
 9,1.1372829398,-0.1350749947\C,-11.2822510454,1.065670419,-0.152968699
 1\C,-12.004712873,-0.1320404717,-0.0360520177\C,-11.2853560758,-1.3270
 098423,0.108682826\C,-9.8883325558,-1.2747558247,0.1301817176\H,13.105
 0745076,0.1252277295,0.0554491639\H,11.810314593,2.2912667536,-0.21194
 20773\H,9.2646188943,2.171470785,-0.2488585352\H,11.8143763028,-2.0232
 277994,0.2698936406\H,5.210927694,1.9603985091,-0.3185626814\H,5.22173
 82776,-2.3476049715,0.2150522427\H,7.7562930919,-2.2292534837,0.206801
 3061\H,3.2746254159,-2.0379444297,-1.1788505371\H,0.7417916595,-1.9157
 044172,-1.1192977751\H,3.3160576677,1.6625725293,1.0900638955\H,-3.314
 3126325,-1.6604805999,-1.0932141704\H,-3.2730171377,2.0399634353,1.175
 9065827\H,-0.7401430976,1.9178794451,1.1161200991\H,-5.2202093029,2.34
 97684463,-0.2171063915\H,-7.7547495603,2.2314060349,-0.2085028515\H,-5
 .2093987352,-1.9585373656,0.3144844531\H,-11.8128868507,2.0258957927,-
 0.268198702\H,-13.1035322096,-0.1231094241,-0.0583474915\H,-11.8087136
 289,-2.2896774086,0.2041090223\H,-9.2630473834,-2.1699388805,0.2411601
 872\\Version=EM64L-G16RevA.03\State=1-A\HF=-1482.34076\S2=0.\S2-1=0.\S
 2A=0.\RMSD=8.409e-09\RMSF=6.788e-06\Dipole=0.0000099,-0.0001739,-0.001
 0588\Quadrupole=27.9092414,-7.9199355,-19.9893059,3.0277491,-0.8581507
 ,1.0963756\PG=C01 [X(C30H20N6)]\\@


 "MATHEMATICS IS THE ART OF GIVING THE SAME NAME
 TO DIFFERENT THINGS."
                    - H. POINCARE
 Job cpu time:       0 days 10 hours  6 minutes 54.8 seconds.
 Elapsed time:       0 days  1 hours 16 minutes 21.0 seconds.
 File lengths (MBytes):  RWF=    460 Int=      0 D2E=      0 Chk=     44 Scr=      8
 Normal termination of Gaussian 16 at Fri Jul 24 22:00:56 2020.
