 Entering Gaussian System, Link 0=g16
 Input=mols_65_1_10_c-cF-CF_opt_0.gjf
 Output=mols_65_1_10_c-cF-CF_opt_0.log
 Initial command:
 /opt/ohpc/pub/libs/gaussian/g16-A.03/sandybridge/g16/l1.exe "/mnt/gpfs2_4m/scratch/rdu230/ondemand/projects/dihedral_energies/7trial/wtuning/mols_65_1_10_c-cF-CF/Gau-8436.inp" -scrdir="/mnt/gpfs2_4m/scratch/rdu230/ondemand/projects/dihedral_energies/7trial/wtuning/mols_65_1_10_c-cF-CF/"
 Entering Link 1 = /opt/ohpc/pub/libs/gaussian/g16-A.03/sandybridge/g16/l1.exe PID=      8437.
  
 Copyright (c) 1988,1990,1992,1993,1995,1998,2003,2009,2016,
            Gaussian, Inc.  All Rights Reserved.
  
 This is part of the Gaussian(R) 16 program.  It is based on
 the Gaussian(R) 09 system (copyright 2009, Gaussian, Inc.),
 the Gaussian(R) 03 system (copyright 2003, Gaussian, Inc.),
 the Gaussian(R) 98 system (copyright 1998, Gaussian, Inc.),
 the Gaussian(R) 94 system (copyright 1995, Gaussian, Inc.),
 the Gaussian 92(TM) system (copyright 1992, Gaussian, Inc.),
 the Gaussian 90(TM) system (copyright 1990, Gaussian, Inc.),
 the Gaussian 88(TM) system (copyright 1988, Gaussian, Inc.),
 the Gaussian 86(TM) system (copyright 1986, Carnegie Mellon
 University), and the Gaussian 82(TM) system (copyright 1983,
 Carnegie Mellon University). Gaussian is a federally registered
 trademark of Gaussian, Inc.
  
 This software contains proprietary and confidential information,
 including trade secrets, belonging to Gaussian, Inc.
  
 This software is provided under written license and may be
 used, copied, transmitted, or stored only in accord with that
 written license.
  
 The following legend is applicable only to US Government
 contracts under FAR:
  
                    RESTRICTED RIGHTS LEGEND
  
 Use, reproduction and disclosure by the US Government is
 subject to restrictions as set forth in subparagraphs (a)
 and (c) of the Commercial Computer Software - Restricted
 Rights clause in FAR 52.227-19.
  
 Gaussian, Inc.
 340 Quinnipiac St., Bldg. 40, Wallingford CT 06492
  
  
 ---------------------------------------------------------------
 Warning -- This program may not be used in any manner that
 competes with the business of Gaussian, Inc. or will provide
 assistance to any competitor of Gaussian, Inc.  The licensee
 of this program is prohibited from giving any competitor of
 Gaussian, Inc. access to this program.  By using this program,
 the user acknowledges that Gaussian, Inc. is engaged in the
 business of creating and licensing software in the field of
 computational chemistry and represents and warrants to the
 licensee that it is not a competitor of Gaussian, Inc. and that
 it will not use this program in any manner prohibited above.
 ---------------------------------------------------------------
  

 Cite this work as:
 Gaussian 16, Revision A.03,
 M. J. Frisch, G. W. Trucks, H. B. Schlegel, G. E. Scuseria, 
 M. A. Robb, J. R. Cheeseman, G. Scalmani, V. Barone, 
 G. A. Petersson, H. Nakatsuji, X. Li, M. Caricato, A. V. Marenich, 
 J. Bloino, B. G. Janesko, R. Gomperts, B. Mennucci, H. P. Hratchian, 
 J. V. Ortiz, A. F. Izmaylov, J. L. Sonnenberg, D. Williams-Young, 
 F. Ding, F. Lipparini, F. Egidi, J. Goings, B. Peng, A. Petrone, 
 T. Henderson, D. Ranasinghe, V. G. Zakrzewski, J. Gao, N. Rega, 
 G. Zheng, W. Liang, M. Hada, M. Ehara, K. Toyota, R. Fukuda, 
 J. Hasegawa, M. Ishida, T. Nakajima, Y. Honda, O. Kitao, H. Nakai, 
 T. Vreven, K. Throssell, J. A. Montgomery, Jr., J. E. Peralta, 
 F. Ogliaro, M. J. Bearpark, J. J. Heyd, E. N. Brothers, K. N. Kudin, 
 V. N. Staroverov, T. A. Keith, R. Kobayashi, J. Normand, 
 K. Raghavachari, A. P. Rendell, J. C. Burant, S. S. Iyengar, 
 J. Tomasi, M. Cossi, J. M. Millam, M. Klene, C. Adamo, R. Cammi, 
 J. W. Ochterski, R. L. Martin, K. Morokuma, O. Farkas, 
 J. B. Foresman, and D. J. Fox, Gaussian, Inc., Wallingford CT, 2016.
 
 ******************************************
 Gaussian 16:  EM64L-G16RevA.03 25-Dec-2016
                24-Jul-2020 
 ******************************************
 %mem=30GB
 %nproc=8
 Will use up to    8 processors via shared memory.
 ---------------------------------------------------------------
 #P uLC-wPBE/cc-pVDZ iop(3/107=0256200000, 3/108=0256200000) opt
 ---------------------------------------------------------------
 1/18=20,19=15,26=3,38=1/1,3;
 2/9=110,12=2,17=6,18=5,40=1/2;
 3/5=16,11=2,25=1,30=1,71=1,74=-41,107=256200000,108=256200000,116=2/1,2,3;
 4//1;
 5/5=2,38=5/2;
 6/7=2,8=2,9=2,10=2,28=1/1;
 7//1,2,3,16;
 1/18=20,19=15,26=3/3(2);
 2/9=110/2;
 99//99;
 2/9=110/2;
 3/5=16,11=2,25=1,30=1,71=1,74=-41,107=256200000,108=256200000,116=2/1,2,3;
 4/5=5,16=3,69=1/1;
 5/5=2,38=5/2;
 7//1,2,3,16;
 1/18=20,19=15,26=3/3(-5);
 2/9=110/2;
 6/7=2,8=2,9=2,10=2,19=2,28=1/1;
 99/9=1/99;
 Leave Link    1 at Fri Jul 24 14:07:04 2020, MaxMem=  4026531840 cpu:               0.6 elap:               0.2
 (Enter /opt/ohpc/pub/libs/gaussian/g16-A.03/sandybridge/g16/l101.exe)
 ------------
 H6 C10 S1 F2
 ------------
 Symbolic Z-matrix:
 Charge =  0 Multiplicity = 1
 C                     3.58135   0.34501   0.00826 
 C                     2.79753   1.53874   0.02324 
 C                     1.40139   1.42655   0.01935 
 C                     0.70817   0.20441   0.0149 
 C                     1.52862  -1.01145  -0.02477 
 F                     1.07074  -2.26772  -0.01014 
 C                     2.9866   -0.83947   0.00661 
 C                    -0.7962    0.10893   0.043 
 C                    -1.70998   1.08019  -0.03611 
 F                    -1.39502   2.39583  -0.04337 
 C                    -3.08987   0.67365   0.03537 
 C                    -3.11872  -0.69468   0.00247 
 S                    -1.62574  -1.45699  -0.02648 
 H                     4.68419   0.46809   0.00308 
 H                     3.21879   2.51183  -0.04973 
 H                     0.79234   2.37955   0.02394 
 H                     3.51815  -1.80879   0.01826 
 H                    -3.92892   1.32855   0.02831 
 H                    -4.0393   -1.31667  -0.01284 
 
 ITRead=  0  0  0  0  0  0  0  0  0  0  0  0  0  0  0  0  0  0  0
 MicOpt= -1 -1 -1 -1 -1 -1 -1 -1 -1 -1 -1 -1 -1 -1 -1 -1 -1 -1 -1
 NAtoms=     19 NQM=       19 NQMF=       0 NMMI=      0 NMMIF=      0
                NMic=       0 NMicF=      0.
                    Isotopes and Nuclear Properties:
 (Nuclear quadrupole moments (NQMom) in fm**2, nuclear magnetic moments (NMagM)
  in nuclear magnetons)

  Atom         1           2           3           4           5           6           7           8           9          10
 IAtWgt=          12          12          12          12          12          19          12          12          12          19
 AtmWgt=  12.0000000  12.0000000  12.0000000  12.0000000  12.0000000  18.9984033  12.0000000  12.0000000  12.0000000  18.9984033
 NucSpn=           0           0           0           0           0           1           0           0           0           1
 AtZEff=  -0.0000000  -0.0000000  -0.0000000  -0.0000000  -0.0000000  -0.0000000  -0.0000000  -0.0000000  -0.0000000  -0.0000000
 NQMom=    0.0000000   0.0000000   0.0000000   0.0000000   0.0000000   0.0000000   0.0000000   0.0000000   0.0000000   0.0000000
 NMagM=    0.0000000   0.0000000   0.0000000   0.0000000   0.0000000   2.6288670   0.0000000   0.0000000   0.0000000   2.6288670
 AtZNuc=   6.0000000   6.0000000   6.0000000   6.0000000   6.0000000   9.0000000   6.0000000   6.0000000   6.0000000   9.0000000

  Atom        11          12          13          14          15          16          17          18          19
 IAtWgt=          12          12          32           1           1           1           1           1           1
 AtmWgt=  12.0000000  12.0000000  31.9720718   1.0078250   1.0078250   1.0078250   1.0078250   1.0078250   1.0078250
 NucSpn=           0           0           0           1           1           1           1           1           1
 AtZEff=  -0.0000000  -0.0000000  -0.0000000  -0.0000000  -0.0000000  -0.0000000  -0.0000000  -0.0000000  -0.0000000
 NQMom=    0.0000000   0.0000000   0.0000000   0.0000000   0.0000000   0.0000000   0.0000000   0.0000000   0.0000000
 NMagM=    0.0000000   0.0000000   0.0000000   2.7928460   2.7928460   2.7928460   2.7928460   2.7928460   2.7928460
 AtZNuc=   6.0000000   6.0000000  16.0000000   1.0000000   1.0000000   1.0000000   1.0000000   1.0000000   1.0000000
 Leave Link  101 at Fri Jul 24 14:07:05 2020, MaxMem=  4026531840 cpu:               1.8 elap:               0.5
 (Enter /opt/ohpc/pub/libs/gaussian/g16-A.03/sandybridge/g16/l103.exe)

 GradGradGradGradGradGradGradGradGradGradGradGradGradGradGradGradGradGrad
 Berny optimization.
 Initialization pass.
                           ----------------------------
                           !    Initial Parameters    !
                           ! (Angstroms and Degrees)  !
 --------------------------                            --------------------------
 ! Name  Definition              Value          Derivative Info.                !
 --------------------------------------------------------------------------------
 ! R1    R(1,2)                  1.4281         estimate D2E/DX2                !
 ! R2    R(1,7)                  1.3254         estimate D2E/DX2                !
 ! R3    R(1,14)                 1.1097         estimate D2E/DX2                !
 ! R4    R(2,3)                  1.4006         estimate D2E/DX2                !
 ! R5    R(2,15)                 1.0629         estimate D2E/DX2                !
 ! R6    R(3,4)                  1.4051         estimate D2E/DX2                !
 ! R7    R(3,16)                 1.131          estimate D2E/DX2                !
 ! R8    R(4,5)                  1.4673         estimate D2E/DX2                !
 ! R9    R(4,8)                  1.5077         estimate D2E/DX2                !
 ! R10   R(5,6)                  1.3372         estimate D2E/DX2                !
 ! R11   R(5,7)                  1.4684         estimate D2E/DX2                !
 ! R12   R(7,17)                 1.1056         estimate D2E/DX2                !
 ! R13   R(8,9)                  1.3359         estimate D2E/DX2                !
 ! R14   R(8,13)                 1.7734         estimate D2E/DX2                !
 ! R15   R(9,10)                 1.3528         estimate D2E/DX2                !
 ! R16   R(9,11)                 1.4403         estimate D2E/DX2                !
 ! R17   R(11,12)                1.369          estimate D2E/DX2                !
 ! R18   R(11,18)                1.0644         estimate D2E/DX2                !
 ! R19   R(12,13)                1.6766         estimate D2E/DX2                !
 ! R20   R(12,19)                1.1111         estimate D2E/DX2                !
 ! A1    A(2,1,7)              120.0469         estimate D2E/DX2                !
 ! A2    A(2,1,14)             116.9229         estimate D2E/DX2                !
 ! A3    A(7,1,14)             123.0296         estimate D2E/DX2                !
 ! A4    A(1,2,3)              118.6914         estimate D2E/DX2                !
 ! A5    A(1,2,15)             123.1619         estimate D2E/DX2                !
 ! A6    A(3,2,15)             117.9185         estimate D2E/DX2                !
 ! A7    A(2,3,4)              124.1574         estimate D2E/DX2                !
 ! A8    A(2,3,16)             117.9861         estimate D2E/DX2                !
 ! A9    A(4,3,16)             117.8561         estimate D2E/DX2                !
 ! A10   A(3,4,5)              116.4212         estimate D2E/DX2                !
 ! A11   A(3,4,8)              123.1838         estimate D2E/DX2                !
 ! A12   A(5,4,8)              120.3945         estimate D2E/DX2                !
 ! A13   A(4,5,6)              125.9252         estimate D2E/DX2                !
 ! A14   A(4,5,7)              117.2288         estimate D2E/DX2                !
 ! A15   A(6,5,7)              116.7294         estimate D2E/DX2                !
 ! A16   A(1,7,5)              123.3832         estimate D2E/DX2                !
 ! A17   A(1,7,17)             124.5951         estimate D2E/DX2                !
 ! A18   A(5,7,17)             112.0191         estimate D2E/DX2                !
 ! A19   A(4,8,9)              129.4483         estimate D2E/DX2                !
 ! A20   A(4,8,13)             121.4621         estimate D2E/DX2                !
 ! A21   A(9,8,13)             108.6446         estimate D2E/DX2                !
 ! A22   A(8,9,10)             123.2388         estimate D2E/DX2                !
 ! A23   A(8,9,11)             116.5624         estimate D2E/DX2                !
 ! A24   A(10,9,11)            119.8556         estimate D2E/DX2                !
 ! A25   A(9,11,12)            107.5245         estimate D2E/DX2                !
 ! A26   A(9,11,18)            125.5361         estimate D2E/DX2                !
 ! A27   A(12,11,18)           126.7407         estimate D2E/DX2                !
 ! A28   A(11,12,13)           115.855          estimate D2E/DX2                !
 ! A29   A(11,12,19)           125.2601         estimate D2E/DX2                !
 ! A30   A(13,12,19)           118.8835         estimate D2E/DX2                !
 ! A31   A(8,13,12)             90.8243         estimate D2E/DX2                !
 ! D1    D(7,1,2,3)             -0.7752         estimate D2E/DX2                !
 ! D2    D(7,1,2,15)          -175.1661         estimate D2E/DX2                !
 ! D3    D(14,1,2,3)           179.4946         estimate D2E/DX2                !
 ! D4    D(14,1,2,15)            5.1037         estimate D2E/DX2                !
 ! D5    D(2,1,7,5)              2.0715         estimate D2E/DX2                !
 ! D6    D(2,1,7,17)          -178.5643         estimate D2E/DX2                !
 ! D7    D(14,1,7,5)          -178.2154         estimate D2E/DX2                !
 ! D8    D(14,1,7,17)            1.1488         estimate D2E/DX2                !
 ! D9    D(1,2,3,4)              0.6611         estimate D2E/DX2                !
 ! D10   D(1,2,3,16)          -179.576          estimate D2E/DX2                !
 ! D11   D(15,2,3,4)           175.3479         estimate D2E/DX2                !
 ! D12   D(15,2,3,16)           -4.8891         estimate D2E/DX2                !
 ! D13   D(2,3,4,5)             -1.709          estimate D2E/DX2                !
 ! D14   D(2,3,4,8)            178.536          estimate D2E/DX2                !
 ! D15   D(16,3,4,5)           178.5278         estimate D2E/DX2                !
 ! D16   D(16,3,4,8)            -1.2273         estimate D2E/DX2                !
 ! D17   D(3,4,5,6)            178.6703         estimate D2E/DX2                !
 ! D18   D(3,4,5,7)              2.7421         estimate D2E/DX2                !
 ! D19   D(8,4,5,6)             -1.5674         estimate D2E/DX2                !
 ! D20   D(8,4,5,7)           -177.4956         estimate D2E/DX2                !
 ! D21   D(3,4,8,9)              6.1961         estimate D2E/DX2                !
 ! D22   D(3,4,8,13)           177.6281         estimate D2E/DX2                !
 ! D23   D(5,4,8,9)           -173.5496         estimate D2E/DX2                !
 ! D24   D(5,4,8,13)            -2.1176         estimate D2E/DX2                !
 ! D25   D(4,5,7,1)             -3.0938         estimate D2E/DX2                !
 ! D26   D(4,5,7,17)           177.4707         estimate D2E/DX2                !
 ! D27   D(6,5,7,1)           -179.4026         estimate D2E/DX2                !
 ! D28   D(6,5,7,17)             1.162          estimate D2E/DX2                !
 ! D29   D(4,8,9,10)            -6.0451         estimate D2E/DX2                !
 ! D30   D(4,8,9,11)          -179.2956         estimate D2E/DX2                !
 ! D31   D(13,8,9,10)         -178.3374         estimate D2E/DX2                !
 ! D32   D(13,8,9,11)            8.4121         estimate D2E/DX2                !
 ! D33   D(4,8,13,12)         -178.3941         estimate D2E/DX2                !
 ! D34   D(9,8,13,12)           -5.3679         estimate D2E/DX2                !
 ! D35   D(8,9,11,12)           -7.5745         estimate D2E/DX2                !
 ! D36   D(8,9,11,18)          177.2733         estimate D2E/DX2                !
 ! D37   D(10,9,11,12)         178.9336         estimate D2E/DX2                !
 ! D38   D(10,9,11,18)           3.7813         estimate D2E/DX2                !
 ! D39   D(9,11,12,13)           2.9882         estimate D2E/DX2                !
 ! D40   D(9,11,12,19)        -176.5872         estimate D2E/DX2                !
 ! D41   D(18,11,12,13)        178.0653         estimate D2E/DX2                !
 ! D42   D(18,11,12,19)         -1.5102         estimate D2E/DX2                !
 ! D43   D(11,12,13,8)           1.2085         estimate D2E/DX2                !
 ! D44   D(19,12,13,8)        -179.1873         estimate D2E/DX2                !
 --------------------------------------------------------------------------------
 Trust Radius=3.00D-01 FncErr=1.00D-07 GrdErr=1.00D-06 EigMax=2.50D+02 EigMin=1.00D-04
 Number of steps in this run=    105 maximum allowed number of steps=    114.
 GradGradGradGradGradGradGradGradGradGradGradGradGradGradGradGradGradGrad

 Leave Link  103 at Fri Jul 24 14:07:05 2020, MaxMem=  4026531840 cpu:               0.3 elap:               0.1
 (Enter /opt/ohpc/pub/libs/gaussian/g16-A.03/sandybridge/g16/l202.exe)
                          Input orientation:                          
 ---------------------------------------------------------------------
 Center     Atomic      Atomic             Coordinates (Angstroms)
 Number     Number       Type             X           Y           Z
 ---------------------------------------------------------------------
      1          6           0        3.581354    0.345008    0.008262
      2          6           0        2.797528    1.538741    0.023239
      3          6           0        1.401386    1.426546    0.019346
      4          6           0        0.708170    0.204414    0.014899
      5          6           0        1.528618   -1.011447   -0.024765
      6          9           0        1.070744   -2.267725   -0.010141
      7          6           0        2.986596   -0.839465    0.006605
      8          6           0       -0.796200    0.108928    0.042997
      9          6           0       -1.709983    1.080191   -0.036112
     10          9           0       -1.395024    2.395834   -0.043374
     11          6           0       -3.089871    0.673647    0.035373
     12          6           0       -3.118719   -0.694683    0.002465
     13         16           0       -1.625742   -1.456986   -0.026476
     14          1           0        4.684186    0.468085    0.003079
     15          1           0        3.218791    2.511833   -0.049734
     16          1           0        0.792343    2.379552    0.023939
     17          1           0        3.518150   -1.808791    0.018257
     18          1           0       -3.928920    1.328552    0.028313
     19          1           0       -4.039305   -1.316671   -0.012839
 ---------------------------------------------------------------------
                    Distance matrix (angstroms):
                    1          2          3          4          5
     1  C    0.000000
     2  C    1.428148   0.000000
     3  C    2.433538   1.400648   0.000000
     4  C    2.876629   2.479096   1.405053   0.000000
     5  C    2.460647   2.848841   2.441709   1.467319   0.000000
     6  F    3.623517   4.179962   3.709155   2.498711   1.337197
     7  C    1.325412   2.385768   2.765476   2.506188   1.468422
     8  C    4.384053   3.867769   2.562433   1.507659   2.581591
     9  C    5.342351   4.531164   3.131079   2.572363   3.855336
    10  F    5.382647   4.279782   2.960298   3.037950   4.489721
    11  C    6.679370   5.950630   4.553955   3.826972   4.916665
    12  C    6.780263   6.323812   4.993120   3.931108   4.658199
    13  S    5.510194   5.342487   4.180952   2.865154   3.185670
    14  H    1.109691   2.169375   3.419896   3.984767   3.485312
    15  H    2.197714   1.062871   2.117919   3.410510   3.907788
    16  H    3.452274   2.174334   1.131006   2.176785   3.470353
    17  H    2.154749   3.424221   3.866277   3.456732   2.143792
    18  H    7.574429   6.729733   5.331214   4.771422   5.938277
    19  H    7.799748   7.409249   6.093225   4.985277   5.576295
                    6          7          8          9         10
     6  F    0.000000
     7  C    2.389706   0.000000
     8  C    3.022711   3.900041   0.000000
     9  C    4.352202   5.073929   1.335893   0.000000
    10  F    5.275405   5.446857   2.365584   1.352837   0.000000
    11  C    5.095533   6.262091   2.362180   1.440305   2.417568
    12  C    4.475067   6.107033   2.457952   2.266319   3.539000
    13  S    2.815777   4.653610   1.773430   2.538593   3.859759
    14  H    4.532306   2.142781   5.492287   6.423520   6.377709
    15  H    5.240215   3.359805   4.680033   5.132504   4.615277
    16  H    4.655733   3.895782   2.771203   2.820209   2.188463
    17  H    2.490225   1.105567   4.721427   5.973487   6.466989
    18  H    6.158841   7.247422   3.361790   2.233722   2.750429
    19  H    5.197799   7.042115   3.543047   3.342339   4.558053
                   11         12         13         14         15
    11  C    0.000000
    12  C    1.369030   0.000000
    13  S    2.585942   1.676581   0.000000
    14  H    7.776841   7.889066   6.597118   0.000000
    15  H    6.571559   7.102711   6.262712   2.515368   0.000000
    16  H    4.240499   4.974715   4.535273   4.335964   2.431168
    17  H    7.058947   6.729749   5.156102   2.558131   4.331516
    18  H    1.064403   2.179581   3.614810   8.656017   7.245414
    19  H    2.205701   1.111117   2.417677   8.904207   8.206020
                   16         17         18         19
    16  H    0.000000
    17  H    4.997227   0.000000
    18  H    4.836832   8.080957   0.000000
    19  H    6.083440   7.573525   2.647845   0.000000
 Stoichiometry    C10H6F2S
 Framework group  C1[X(C10H6F2S)]
 Deg. of freedom    51
 Full point group                 C1      NOp   1
 Largest Abelian subgroup         C1      NOp   1
 Largest concise Abelian subgroup C1      NOp   1
                         Standard orientation:                         
 ---------------------------------------------------------------------
 Center     Atomic      Atomic             Coordinates (Angstroms)
 Number     Number       Type             X           Y           Z
 ---------------------------------------------------------------------
      1          6           0        3.573963    0.329265    0.002684
      2          6           0        2.800830    1.529950    0.017787
      3          6           0        1.403740    1.430185    0.017364
      4          6           0        0.699665    0.214269    0.016331
      5          6           0        1.509162   -1.008905   -0.023515
      6          9           0        1.040161   -2.261034   -0.005985
      7          6           0        2.968683   -0.849867    0.004152
      8          6           0       -0.805424    0.132221    0.048130
      9          6           0       -1.710712    1.111468   -0.030221
     10          9           0       -1.384074    2.424243   -0.040136
     11          6           0       -3.093990    0.717329    0.045121
     12          6           0       -3.135094   -0.650735    0.014265
     13         16           0       -1.649034   -1.426342   -0.017108
     14          1           0        4.677831    0.442510   -0.005290
     15          1           0        3.230563    2.499147   -0.057594
     16          1           0        0.803216    2.388582    0.022019
     17          1           0        3.491615   -1.823870    0.015950
     18          1           0       -3.927191    1.379668    0.039100
     19          1           0       -4.061213   -1.264523    0.002043
 ---------------------------------------------------------------------
 Rotational constants (GHZ):           1.2812837           0.5568409           0.3882288
 Leave Link  202 at Fri Jul 24 14:07:05 2020, MaxMem=  4026531840 cpu:               0.3 elap:               0.1
 (Enter /opt/ohpc/pub/libs/gaussian/g16-A.03/sandybridge/g16/l301.exe)
 Standard basis: CC-pVDZ (5D, 7F)
 Ernie: Thresh=  0.10000D-02 Tol=  0.10000D-05 Strict=F.
 Ernie:  34 primitive shells out of 344 were deleted.
 There are   229 symmetry adapted cartesian basis functions of A   symmetry.
 There are   216 symmetry adapted basis functions of A   symmetry.
   216 basis functions,   509 primitive gaussians,   229 cartesian basis functions
    50 alpha electrons       50 beta electrons
       nuclear repulsion energy       839.3685393428 Hartrees.
 IExCor=32609 DFT=T Ex+Corr=LC-wPBE ExCW=0 ScaHFX=  1.000000
 ScaDFX=  1.000000  0.000000  1.000000  1.000000 ScalE2=  1.000000  1.000000
 IRadAn=      5 IRanWt=     -1 IRanGd=            0 ICorTp=0 IEmpDi=  4
 HFx  wShort=  0.000000 wLong=  0.256200 cFull=  0.000000 cShort=  0.000000 cLong=  1.000000
 DFx  wShort=  0.000000 wLong=  0.256200 cFull=  0.000000 cShort=  0.000000 cLong=  1.000000
 NAtoms=   19 NActive=   19 NUniq=   19 SFac= 1.00D+00 NAtFMM=   60 NAOKFM=F Big=F
 Integral buffers will be    131072 words long.
 Raffenetti 2 integral format.
 Two-electron integral symmetry is turned on.
 Leave Link  301 at Fri Jul 24 14:07:05 2020, MaxMem=  4026531840 cpu:               0.5 elap:               0.1
 (Enter /opt/ohpc/pub/libs/gaussian/g16-A.03/sandybridge/g16/l302.exe)
 NPDir=0 NMtPBC=     1 NCelOv=     1 NCel=       1 NClECP=     1 NCelD=      1
         NCelK=      1 NCelE2=     1 NClLst=     1 CellRange=     0.0.
 One-electron integrals computed using PRISM.
 One-electron integral symmetry used in STVInt
 NBasis=   216 RedAO= T EigKep=  3.96D-04  NBF=   216
 NBsUse=   216 1.00D-06 EigRej= -1.00D+00 NBFU=   216
 Precomputing XC quadrature grid using
 IXCGrd= 4 IRadAn=           5 IRanWt=          -1 IRanGd=           0 AccXCQ= 0.00D+00.
 Generated NRdTot=       0 NPtTot=           0 NUsed=           0 NTot=          32
 NSgBfM=   229   229   229   229   229 MxSgAt=    19 MxSgA2=    19.
 Leave Link  302 at Fri Jul 24 14:07:06 2020, MaxMem=  4026531840 cpu:               4.2 elap:               1.0
 (Enter /opt/ohpc/pub/libs/gaussian/g16-A.03/sandybridge/g16/l303.exe)
 DipDrv:  MaxL=1.
 Leave Link  303 at Fri Jul 24 14:07:06 2020, MaxMem=  4026531840 cpu:               0.8 elap:               0.2
 (Enter /opt/ohpc/pub/libs/gaussian/g16-A.03/sandybridge/g16/l401.exe)
 ExpMin= 1.22D-01 ExpMax= 1.11D+05 ExpMxC= 1.07D+03 IAcc=3 IRadAn=         5 AccDes= 0.00D+00
 Harris functional with IExCor=32609 and IRadAn=       5 diagonalized for initial guess.
 HarFok:  IExCor=32609 AccDes= 0.00D+00 IRadAn=         5 IDoV= 1 UseB2=F ITyADJ=14
 ICtDFT=  3500011 ScaDFX=  1.000000  1.000000  1.000000  1.000000
 FoFCou: FMM=F IPFlag=           0 FMFlag=      100000 FMFlg1=           0
         NFxFlg=           0 DoJE=T BraDBF=F KetDBF=T FulRan=T
         wScrn=  0.000000 ICntrl=       500 IOpCl=  0 I1Cent=   200000004 NGrid=           0
         NMat0=    1 NMatS0=      1 NMatT0=    0 NMatD0=    1 NMtDS0=    0 NMtDT0=    0
 Petite list used in FoFCou.
 Harris En= -981.895642690144    
 JPrj=0 DoOrth=F DoCkMO=F.
 Initial guess <Sx>= 0.0000 <Sy>= 0.0000 <Sz>= 0.0000 <S**2>=-0.0000 S=-0.0000
 Leave Link  401 at Fri Jul 24 14:07:09 2020, MaxMem=  4026531840 cpu:               9.7 elap:               2.1
 (Enter /opt/ohpc/pub/libs/gaussian/g16-A.03/sandybridge/g16/l502.exe)
 Integral symmetry usage will be decided dynamically.
 UHF open shell SCF:
 Using DIIS extrapolation, IDIIS=  1040.
 NGot=  4026531840 LenX=  4026422715 LenY=  4026369833
 Requested convergence on RMS density matrix=1.00D-08 within 128 cycles.
 Requested convergence on MAX density matrix=1.00D-06.
 Requested convergence on             energy=1.00D-06.
 No special actions if energy rises.
 Fock matrices will be formed incrementally for  20 cycles.
 Integral accuracy reduced to 1.0D-05 until final iterations.

 Cycle   1  Pass 0  IDiag  1:
 FoFJK:  IHMeth= 1 ICntrl=       0 DoSepK=T KAlg= 0 I1Cent=           0 FoldK=F
 IRaf=         1 NMat=       1 IRICut=       1 DoRegI=T DoRafI=F ISym2E= 0 IDoP0=0 IntGTp=1.
 FoFCou: FMM=F IPFlag=           0 FMFlag=      100000 FMFlg1=           0
         NFxFlg=           0 DoJE=T BraDBF=F KetDBF=F FulRan=T
         wScrn=  0.000000 ICntrl=       500 IOpCl=  0 I1Cent=           0 NGrid=           0
         NMat0=    1 NMatS0=      1 NMatT0=    0 NMatD0=    1 NMtDS0=    0 NMtDT0=    0
 Symmetry not used in FoFCou.
 E= -981.671266410396    
 DIIS: error= 2.21D-02 at cycle   1 NSaved=   1.
 NSaved= 1 IEnMin= 1 EnMin= -981.671266410396     IErMin= 1 ErrMin= 2.21D-02
 ErrMax= 2.21D-02  0.00D+00 EMaxC= 1.00D-01 BMatC= 9.89D-01 BMatP= 9.89D-01
 IDIUse=3 WtCom= 7.79D-01 WtEn= 2.21D-01
 Coeff-Com:  0.100D+01
 Coeff-En:   0.100D+01
 Coeff:      0.100D+01
 Gap=     0.429 Goal=   None    Shift=    0.000
 Gap=     0.429 Goal=   None    Shift=    0.000
 GapD=    0.429 DampG=2.000 DampE=0.500 DampFc=1.0000 IDamp=-1.
 RMSDP=4.65D-03 MaxDP=1.39D-01              OVMax= 2.19D-01

 Cycle   2  Pass 0  IDiag  1:
 RMSU=  4.61D-03    CP:  9.77D-01
 E= -981.648491251441     Delta-E=        0.022775158955 Rises=F Damp=F
 DIIS: error= 2.61D-02 at cycle   2 NSaved=   2.
 NSaved= 2 IEnMin= 1 EnMin= -981.671266410396     IErMin= 1 ErrMin= 2.21D-02
 ErrMax= 2.61D-02  0.00D+00 EMaxC= 1.00D-01 BMatC= 1.15D+00 BMatP= 9.89D-01
 IDIUse=2 WtCom= 0.00D+00 WtEn= 1.00D+00
 Coeff-En:   0.520D+00 0.480D+00
 Coeff:      0.520D+00 0.480D+00
 Gap=     0.397 Goal=   None    Shift=    0.000
 Gap=     0.397 Goal=   None    Shift=    0.000
 RMSDP=2.57D-03 MaxDP=9.19D-02 DE= 2.28D-02 OVMax= 1.47D-01

 Cycle   3  Pass 0  IDiag  1:
 RMSU=  1.32D-03    CP:  9.84D-01  5.24D-01
 E= -981.947631499789     Delta-E=       -0.299140248348 Rises=F Damp=F
 DIIS: error= 3.78D-03 at cycle   3 NSaved=   3.
 NSaved= 3 IEnMin= 3 EnMin= -981.947631499789     IErMin= 3 ErrMin= 3.78D-03
 ErrMax= 3.78D-03  0.00D+00 EMaxC= 1.00D-01 BMatC= 1.93D-02 BMatP= 9.89D-01
 IDIUse=3 WtCom= 9.62D-01 WtEn= 3.78D-02
 Coeff-Com:  0.161D+00 0.168D+00 0.671D+00
 Coeff-En:   0.000D+00 0.000D+00 0.100D+01
 Coeff:      0.155D+00 0.162D+00 0.684D+00
 Gap=     0.318 Goal=   None    Shift=    0.000
 Gap=     0.318 Goal=   None    Shift=    0.000
 RMSDP=4.43D-04 MaxDP=2.07D-02 DE=-2.99D-01 OVMax= 3.17D-02

 Cycle   4  Pass 0  IDiag  1:
 RMSU=  3.55D-04    CP:  9.84D-01  5.48D-01  8.18D-01
 E= -981.951957260992     Delta-E=       -0.004325761203 Rises=F Damp=F
 DIIS: error= 1.64D-03 at cycle   4 NSaved=   4.
 NSaved= 4 IEnMin= 4 EnMin= -981.951957260992     IErMin= 4 ErrMin= 1.64D-03
 ErrMax= 1.64D-03  0.00D+00 EMaxC= 1.00D-01 BMatC= 3.55D-03 BMatP= 1.93D-02
 IDIUse=3 WtCom= 9.84D-01 WtEn= 1.64D-02
 Coeff-Com:  0.231D-02-0.169D-02 0.283D+00 0.717D+00
 Coeff-En:   0.000D+00 0.000D+00 0.525D-01 0.948D+00
 Coeff:      0.227D-02-0.167D-02 0.279D+00 0.720D+00
 Gap=     0.315 Goal=   None    Shift=    0.000
 Gap=     0.315 Goal=   None    Shift=    0.000
 RMSDP=1.58D-04 MaxDP=5.33D-03 DE=-4.33D-03 OVMax= 9.48D-03

 Cycle   5  Pass 0  IDiag  1:
 RMSU=  1.10D-04    CP:  9.84D-01  5.43D-01  8.88D-01  8.26D-01
 E= -981.952905159680     Delta-E=       -0.000947898688 Rises=F Damp=F
 DIIS: error= 2.86D-04 at cycle   5 NSaved=   5.
 NSaved= 5 IEnMin= 5 EnMin= -981.952905159680     IErMin= 5 ErrMin= 2.86D-04
 ErrMax= 2.86D-04  0.00D+00 EMaxC= 1.00D-01 BMatC= 2.13D-04 BMatP= 3.55D-03
 IDIUse=3 WtCom= 9.97D-01 WtEn= 2.86D-03
 Coeff-Com: -0.101D-01-0.153D-01 0.531D-01 0.250D+00 0.723D+00
 Coeff-En:   0.000D+00 0.000D+00 0.000D+00 0.000D+00 0.100D+01
 Coeff:     -0.100D-01-0.153D-01 0.530D-01 0.249D+00 0.724D+00
 Gap=     0.316 Goal=   None    Shift=    0.000
 Gap=     0.316 Goal=   None    Shift=    0.000
 RMSDP=5.14D-05 MaxDP=1.52D-03 DE=-9.48D-04 OVMax= 3.28D-03

 Cycle   6  Pass 0  IDiag  1:
 RMSU=  3.82D-05    CP:  9.84D-01  5.42D-01  9.06D-01  8.95D-01  1.04D+00
 E= -981.952979095763     Delta-E=       -0.000073936083 Rises=F Damp=F
 DIIS: error= 1.45D-04 at cycle   6 NSaved=   6.
 NSaved= 6 IEnMin= 6 EnMin= -981.952979095763     IErMin= 6 ErrMin= 1.45D-04
 ErrMax= 1.45D-04  0.00D+00 EMaxC= 1.00D-01 BMatC= 3.84D-05 BMatP= 2.13D-04
 IDIUse=3 WtCom= 9.99D-01 WtEn= 1.45D-03
 Coeff-Com: -0.533D-02-0.832D-02-0.167D-01 0.596D-02 0.283D+00 0.741D+00
 Coeff-En:   0.000D+00 0.000D+00 0.000D+00 0.000D+00 0.000D+00 0.100D+01
 Coeff:     -0.532D-02-0.831D-02-0.167D-01 0.595D-02 0.283D+00 0.742D+00
 Gap=     0.316 Goal=   None    Shift=    0.000
 Gap=     0.316 Goal=   None    Shift=    0.000
 RMSDP=2.54D-05 MaxDP=9.47D-04 DE=-7.39D-05 OVMax= 2.05D-03

 Cycle   7  Pass 0  IDiag  1:
 RMSU=  1.57D-05    CP:  9.84D-01  5.42D-01  9.12D-01  9.14D-01  1.19D+00
                    CP:  1.07D+00
 E= -981.952997883425     Delta-E=       -0.000018787663 Rises=F Damp=F
 DIIS: error= 8.79D-05 at cycle   7 NSaved=   7.
 NSaved= 7 IEnMin= 7 EnMin= -981.952997883425     IErMin= 7 ErrMin= 8.79D-05
 ErrMax= 8.79D-05  0.00D+00 EMaxC= 1.00D-01 BMatC= 6.37D-06 BMatP= 3.84D-05
 IDIUse=1 WtCom= 1.00D+00 WtEn= 0.00D+00
 Coeff-Com: -0.485D-03-0.870D-03-0.134D-01-0.411D-01-0.586D-01 0.234D+00
 Coeff-Com:  0.880D+00
 Coeff:     -0.485D-03-0.870D-03-0.134D-01-0.411D-01-0.586D-01 0.234D+00
 Coeff:      0.880D+00
 Gap=     0.316 Goal=   None    Shift=    0.000
 Gap=     0.316 Goal=   None    Shift=    0.000
 RMSDP=1.61D-05 MaxDP=5.48D-04 DE=-1.88D-05 OVMax= 1.46D-03

 Cycle   8  Pass 0  IDiag  1:
 RMSU=  7.58D-06    CP:  9.84D-01  5.41D-01  9.16D-01  9.29D-01  1.25D+00
                    CP:  1.31D+00  1.10D+00
 E= -981.953002130878     Delta-E=       -0.000004247453 Rises=F Damp=F
 DIIS: error= 3.56D-05 at cycle   8 NSaved=   8.
 NSaved= 8 IEnMin= 8 EnMin= -981.953002130878     IErMin= 8 ErrMin= 3.56D-05
 ErrMax= 3.56D-05  0.00D+00 EMaxC= 1.00D-01 BMatC= 1.63D-06 BMatP= 6.37D-06
 IDIUse=1 WtCom= 1.00D+00 WtEn= 0.00D+00
 Coeff-Com:  0.790D-03 0.112D-02-0.335D-02-0.213D-01-0.872D-01-0.385D-01
 Coeff-Com:  0.438D+00 0.711D+00
 Coeff:      0.790D-03 0.112D-02-0.335D-02-0.213D-01-0.872D-01-0.385D-01
 Coeff:      0.438D+00 0.711D+00
 Gap=     0.316 Goal=   None    Shift=    0.000
 Gap=     0.316 Goal=   None    Shift=    0.000
 RMSDP=6.12D-06 MaxDP=2.25D-04 DE=-4.25D-06 OVMax= 6.10D-04

 Initial convergence to 1.0D-05 achieved.  Increase integral accuracy.
 Cycle   9  Pass 1  IDiag  1:
 E= -981.952840752130     Delta-E=        0.000161378748 Rises=F Damp=F
 DIIS: error= 4.99D-05 at cycle   1 NSaved=   1.
 NSaved= 1 IEnMin= 1 EnMin= -981.952840752130     IErMin= 1 ErrMin= 4.99D-05
 ErrMax= 4.99D-05  0.00D+00 EMaxC= 1.00D-01 BMatC= 1.35D-06 BMatP= 1.35D-06
 IDIUse=1 WtCom= 1.00D+00 WtEn= 0.00D+00
 Coeff-Com:  0.100D+01
 Coeff:      0.100D+01
 Gap=     0.316 Goal=   None    Shift=    0.000
 Gap=     0.316 Goal=   None    Shift=    0.000
 RMSDP=6.12D-06 MaxDP=2.25D-04 DE= 1.61D-04 OVMax= 1.19D-04

 Cycle  10  Pass 1  IDiag  1:
 RMSU=  3.48D-05    CP:  1.00D+00
 E= -981.952841010046     Delta-E=       -0.000000257916 Rises=F Damp=F
 DIIS: error= 5.15D-06 at cycle   2 NSaved=   2.
 NSaved= 2 IEnMin= 2 EnMin= -981.952841010046     IErMin= 2 ErrMin= 5.15D-06
 ErrMax= 5.15D-06  0.00D+00 EMaxC= 1.00D-01 BMatC= 5.73D-08 BMatP= 1.35D-06
 IDIUse=1 WtCom= 1.00D+00 WtEn= 0.00D+00
 Coeff-Com:  0.299D-01 0.970D+00
 Coeff:      0.299D-01 0.970D+00
 Gap=     0.316 Goal=   None    Shift=    0.000
 Gap=     0.316 Goal=   None    Shift=    0.000
 RMSDP=2.10D-06 MaxDP=3.64D-05 DE=-2.58D-07 OVMax= 6.86D-05

 Cycle  11  Pass 1  IDiag  1:
 RMSU=  1.19D-06    CP:  1.00D+00  1.05D+00
 E= -981.952841019148     Delta-E=       -0.000000009102 Rises=F Damp=F
 DIIS: error= 8.53D-06 at cycle   3 NSaved=   3.
 NSaved= 3 IEnMin= 3 EnMin= -981.952841019148     IErMin= 2 ErrMin= 5.15D-06
 ErrMax= 8.53D-06  0.00D+00 EMaxC= 1.00D-01 BMatC= 7.06D-08 BMatP= 5.73D-08
 IDIUse=1 WtCom= 1.00D+00 WtEn= 0.00D+00
 Coeff-Com: -0.243D-01 0.537D+00 0.487D+00
 Coeff:     -0.243D-01 0.537D+00 0.487D+00
 Gap=     0.316 Goal=   None    Shift=    0.000
 Gap=     0.316 Goal=   None    Shift=    0.000
 RMSDP=6.27D-07 MaxDP=1.90D-05 DE=-9.10D-09 OVMax= 3.69D-05

 Cycle  12  Pass 1  IDiag  1:
 RMSU=  5.19D-07    CP:  1.00D+00  1.06D+00  7.63D-01
 E= -981.952841036035     Delta-E=       -0.000000016887 Rises=F Damp=F
 DIIS: error= 1.41D-06 at cycle   4 NSaved=   4.
 NSaved= 4 IEnMin= 4 EnMin= -981.952841036035     IErMin= 4 ErrMin= 1.41D-06
 ErrMax= 1.41D-06  0.00D+00 EMaxC= 1.00D-01 BMatC= 1.73D-09 BMatP= 5.73D-08
 IDIUse=1 WtCom= 1.00D+00 WtEn= 0.00D+00
 Coeff-Com: -0.438D-02-0.139D-01 0.339D-01 0.984D+00
 Coeff:     -0.438D-02-0.139D-01 0.339D-01 0.984D+00
 Gap=     0.316 Goal=   None    Shift=    0.000
 Gap=     0.316 Goal=   None    Shift=    0.000
 RMSDP=2.69D-07 MaxDP=8.09D-06 DE=-1.69D-08 OVMax= 2.19D-05

 Cycle  13  Pass 1  IDiag  1:
 RMSU=  1.87D-07    CP:  1.00D+00  1.06D+00  8.79D-01  1.24D+00
 E= -981.952841037875     Delta-E=       -0.000000001840 Rises=F Damp=F
 DIIS: error= 9.12D-07 at cycle   5 NSaved=   5.
 NSaved= 5 IEnMin= 5 EnMin= -981.952841037875     IErMin= 5 ErrMin= 9.12D-07
 ErrMax= 9.12D-07  0.00D+00 EMaxC= 1.00D-01 BMatC= 9.69D-10 BMatP= 1.73D-09
 IDIUse=1 WtCom= 1.00D+00 WtEn= 0.00D+00
 Coeff-Com:  0.694D-02-0.213D+00-0.175D+00 0.545D+00 0.836D+00
 Coeff:      0.694D-02-0.213D+00-0.175D+00 0.545D+00 0.836D+00
 Gap=     0.316 Goal=   None    Shift=    0.000
 Gap=     0.316 Goal=   None    Shift=    0.000
 RMSDP=2.06D-07 MaxDP=5.08D-06 DE=-1.84D-09 OVMax= 1.92D-05

 Cycle  14  Pass 1  IDiag  1:
 RMSU=  9.83D-08    CP:  1.00D+00  1.06D+00  9.50D-01  1.53D+00  1.29D+00
 E= -981.952841038664     Delta-E=       -0.000000000789 Rises=F Damp=F
 DIIS: error= 2.16D-07 at cycle   6 NSaved=   6.
 NSaved= 6 IEnMin= 6 EnMin= -981.952841038664     IErMin= 6 ErrMin= 2.16D-07
 ErrMax= 2.16D-07  0.00D+00 EMaxC= 1.00D-01 BMatC= 5.98D-11 BMatP= 9.69D-10
 IDIUse=1 WtCom= 1.00D+00 WtEn= 0.00D+00
 Coeff-Com:  0.239D-02-0.585D-01-0.531D-01 0.472D-01 0.243D+00 0.819D+00
 Coeff:      0.239D-02-0.585D-01-0.531D-01 0.472D-01 0.243D+00 0.819D+00
 Gap=     0.316 Goal=   None    Shift=    0.000
 Gap=     0.316 Goal=   None    Shift=    0.000
 RMSDP=4.83D-08 MaxDP=1.17D-06 DE=-7.89D-10 OVMax= 4.82D-06

 Cycle  15  Pass 1  IDiag  1:
 RMSU=  2.30D-08    CP:  1.00D+00  1.06D+00  9.61D-01  1.57D+00  1.46D+00
                    CP:  1.15D+00
 E= -981.952841038700     Delta-E=       -0.000000000036 Rises=F Damp=F
 DIIS: error= 9.34D-08 at cycle   7 NSaved=   7.
 NSaved= 7 IEnMin= 7 EnMin= -981.952841038700     IErMin= 7 ErrMin= 9.34D-08
 ErrMax= 9.34D-08  0.00D+00 EMaxC= 1.00D-01 BMatC= 1.03D-11 BMatP= 5.98D-11
 IDIUse=1 WtCom= 1.00D+00 WtEn= 0.00D+00
 Coeff-Com: -0.373D-03 0.164D-01 0.125D-01-0.768D-01-0.570D-01 0.262D+00
 Coeff-Com:  0.843D+00
 Coeff:     -0.373D-03 0.164D-01 0.125D-01-0.768D-01-0.570D-01 0.262D+00
 Coeff:      0.843D+00
 Gap=     0.316 Goal=   None    Shift=    0.000
 Gap=     0.316 Goal=   None    Shift=    0.000
 RMSDP=1.94D-08 MaxDP=4.94D-07 DE=-3.59D-11 OVMax= 1.78D-06

 Cycle  16  Pass 1  IDiag  1:
 RMSU=  1.13D-08    CP:  1.00D+00  1.06D+00  9.63D-01  1.57D+00  1.51D+00
                    CP:  1.25D+00  1.07D+00
 E= -981.952841038732     Delta-E=       -0.000000000032 Rises=F Damp=F
 DIIS: error= 3.81D-08 at cycle   8 NSaved=   8.
 NSaved= 8 IEnMin= 8 EnMin= -981.952841038732     IErMin= 8 ErrMin= 3.81D-08
 ErrMax= 3.81D-08  0.00D+00 EMaxC= 1.00D-01 BMatC= 1.91D-12 BMatP= 1.03D-11
 IDIUse=1 WtCom= 1.00D+00 WtEn= 0.00D+00
 Coeff-Com: -0.420D-03 0.132D-01 0.112D-01-0.379D-01-0.505D-01 0.115D-01
 Coeff-Com:  0.340D+00 0.713D+00
 Coeff:     -0.420D-03 0.132D-01 0.112D-01-0.379D-01-0.505D-01 0.115D-01
 Coeff:      0.340D+00 0.713D+00
 Gap=     0.316 Goal=   None    Shift=    0.000
 Gap=     0.316 Goal=   None    Shift=    0.000
 RMSDP=6.20D-09 MaxDP=1.66D-07 DE=-3.18D-11 OVMax= 5.73D-07

 SCF Done:  E(ULC-wPBE) =  -981.952841039     A.U. after   16 cycles
            NFock= 16  Conv=0.62D-08     -V/T= 2.0047
 <Sx>= 0.0000 <Sy>= 0.0000 <Sz>= 0.0000 <S**2>=-0.0000 S=-0.0000
 <L.S>= 0.000000000000E+00
 KE= 9.773591285605D+02 PE=-3.992424176791D+03 EE= 1.193743667848D+03
 Annihilation of the first spin contaminant:
 S**2 before annihilation    -0.0000,   after     0.0000
 Leave Link  502 at Fri Jul 24 14:08:02 2020, MaxMem=  4026531840 cpu:             416.0 elap:              53.7
 (Enter /opt/ohpc/pub/libs/gaussian/g16-A.03/sandybridge/g16/l601.exe)
 Copying SCF densities to generalized density rwf, IOpCl= 1 IROHF=0.

 **********************************************************************

            Population analysis using the SCF density.

 **********************************************************************

 Orbital symmetries:
 Alpha Orbitals:
       Occupied  (A) (A) (A) (A) (A) (A) (A) (A) (A) (A) (A) (A)
                 (A) (A) (A) (A) (A) (A) (A) (A) (A) (A) (A) (A)
                 (A) (A) (A) (A) (A) (A) (A) (A) (A) (A) (A) (A)
                 (A) (A) (A) (A) (A) (A) (A) (A) (A) (A) (A) (A)
                 (A) (A)
       Virtual   (A) (A) (A) (A) (A) (A) (A) (A) (A) (A) (A) (A)
                 (A) (A) (A) (A) (A) (A) (A) (A) (A) (A) (A) (A)
                 (A) (A) (A) (A) (A) (A) (A) (A) (A) (A) (A) (A)
                 (A) (A) (A) (A) (A) (A) (A) (A) (A) (A) (A) (A)
                 (A) (A) (A) (A) (A) (A) (A) (A) (A) (A) (A) (A)
                 (A) (A) (A) (A) (A) (A) (A) (A) (A) (A) (A) (A)
                 (A) (A) (A) (A) (A) (A) (A) (A) (A) (A) (A) (A)
                 (A) (A) (A) (A) (A) (A) (A) (A) (A) (A) (A) (A)
                 (A) (A) (A) (A) (A) (A) (A) (A) (A) (A) (A) (A)
                 (A) (A) (A) (A) (A) (A) (A) (A) (A) (A) (A) (A)
                 (A) (A) (A) (A) (A) (A) (A) (A) (A) (A) (A) (A)
                 (A) (A) (A) (A) (A) (A) (A) (A) (A) (A) (A) (A)
                 (A) (A) (A) (A) (A) (A) (A) (A) (A) (A) (A) (A)
                 (A) (A) (A) (A) (A) (A) (A) (A) (A) (A)
 Beta  Orbitals:
       Occupied  (A) (A) (A) (A) (A) (A) (A) (A) (A) (A) (A) (A)
                 (A) (A) (A) (A) (A) (A) (A) (A) (A) (A) (A) (A)
                 (A) (A) (A) (A) (A) (A) (A) (A) (A) (A) (A) (A)
                 (A) (A) (A) (A) (A) (A) (A) (A) (A) (A) (A) (A)
                 (A) (A)
       Virtual   (A) (A) (A) (A) (A) (A) (A) (A) (A) (A) (A) (A)
                 (A) (A) (A) (A) (A) (A) (A) (A) (A) (A) (A) (A)
                 (A) (A) (A) (A) (A) (A) (A) (A) (A) (A) (A) (A)
                 (A) (A) (A) (A) (A) (A) (A) (A) (A) (A) (A) (A)
                 (A) (A) (A) (A) (A) (A) (A) (A) (A) (A) (A) (A)
                 (A) (A) (A) (A) (A) (A) (A) (A) (A) (A) (A) (A)
                 (A) (A) (A) (A) (A) (A) (A) (A) (A) (A) (A) (A)
                 (A) (A) (A) (A) (A) (A) (A) (A) (A) (A) (A) (A)
                 (A) (A) (A) (A) (A) (A) (A) (A) (A) (A) (A) (A)
                 (A) (A) (A) (A) (A) (A) (A) (A) (A) (A) (A) (A)
                 (A) (A) (A) (A) (A) (A) (A) (A) (A) (A) (A) (A)
                 (A) (A) (A) (A) (A) (A) (A) (A) (A) (A) (A) (A)
                 (A) (A) (A) (A) (A) (A) (A) (A) (A) (A) (A) (A)
                 (A) (A) (A) (A) (A) (A) (A) (A) (A) (A)
 The electronic state is 1-A.
 Alpha  occ. eigenvalues --  -88.25026 -24.45043 -24.43494 -10.14437 -10.12657
 Alpha  occ. eigenvalues --  -10.08584 -10.08354 -10.07955 -10.05793 -10.05610
 Alpha  occ. eigenvalues --  -10.05513 -10.05480 -10.05031  -7.85530  -5.87471
 Alpha  occ. eigenvalues --   -5.86975  -5.86539  -1.29031  -1.27236  -0.97639
 Alpha  occ. eigenvalues --   -0.93363  -0.86072  -0.82423  -0.82015  -0.79934
 Alpha  occ. eigenvalues --   -0.70765  -0.69970  -0.66607  -0.65426  -0.62582
 Alpha  occ. eigenvalues --   -0.60999  -0.57287  -0.56574  -0.55559  -0.54487
 Alpha  occ. eigenvalues --   -0.53713  -0.52728  -0.50114  -0.49858  -0.48290
 Alpha  occ. eigenvalues --   -0.47207  -0.46031  -0.45279  -0.44475  -0.43141
 Alpha  occ. eigenvalues --   -0.40103  -0.37876  -0.33186  -0.32978  -0.29553
 Alpha virt. eigenvalues --    0.02054   0.05185   0.07944   0.09441   0.13187
 Alpha virt. eigenvalues --    0.14509   0.15068   0.16854   0.17935   0.19966
 Alpha virt. eigenvalues --    0.20718   0.22230   0.23057   0.23322   0.25277
 Alpha virt. eigenvalues --    0.28662   0.32208   0.35104   0.36440   0.38057
 Alpha virt. eigenvalues --    0.39282   0.40992   0.46938   0.48016   0.50373
 Alpha virt. eigenvalues --    0.51089   0.51912   0.52538   0.53511   0.54216
 Alpha virt. eigenvalues --    0.54635   0.54674   0.55800   0.56443   0.56757
 Alpha virt. eigenvalues --    0.57030   0.58189   0.58672   0.59753   0.60994
 Alpha virt. eigenvalues --    0.61243   0.61923   0.63344   0.64148   0.65108
 Alpha virt. eigenvalues --    0.67567   0.69361   0.69927   0.71251   0.72207
 Alpha virt. eigenvalues --    0.73419   0.75095   0.76432   0.76552   0.77977
 Alpha virt. eigenvalues --    0.79072   0.80379   0.81568   0.83828   0.86143
 Alpha virt. eigenvalues --    0.90534   0.92785   0.92933   0.95046   0.96628
 Alpha virt. eigenvalues --    0.97620   0.98078   1.00787   1.01997   1.03386
 Alpha virt. eigenvalues --    1.04518   1.05874   1.06674   1.07323   1.09609
 Alpha virt. eigenvalues --    1.11313   1.11901   1.12443   1.13441   1.14190
 Alpha virt. eigenvalues --    1.17439   1.21331   1.23005   1.27336   1.28817
 Alpha virt. eigenvalues --    1.33764   1.35333   1.36101   1.36417   1.36777
 Alpha virt. eigenvalues --    1.37529   1.38547   1.45789   1.46842   1.48167
 Alpha virt. eigenvalues --    1.51750   1.52496   1.54385   1.54479   1.55526
 Alpha virt. eigenvalues --    1.55749   1.60302   1.60995   1.63264   1.64221
 Alpha virt. eigenvalues --    1.66214   1.66319   1.67964   1.69214   1.69520
 Alpha virt. eigenvalues --    1.71869   1.74394   1.75550   1.76656   1.77445
 Alpha virt. eigenvalues --    1.77858   1.81809   1.82458   1.83903   1.85197
 Alpha virt. eigenvalues --    1.86047   1.88191   1.90711   1.92427   1.93344
 Alpha virt. eigenvalues --    1.95353   1.98291   1.99663   2.00962   2.02316
 Alpha virt. eigenvalues --    2.03705   2.05313   2.07484   2.11364   2.13385
 Alpha virt. eigenvalues --    2.15322   2.20764   2.23395   2.24578   2.33017
 Alpha virt. eigenvalues --    2.38015   2.43739   2.46544   2.48629   2.50048
 Alpha virt. eigenvalues --    2.50930   2.53830   2.55143   2.60533   2.65232
 Alpha virt. eigenvalues --    2.71790   2.77203   2.79634   2.88080   3.06498
 Alpha virt. eigenvalues --    3.43927   3.58628   3.60111   3.63122   3.63665
 Alpha virt. eigenvalues --    3.78424   3.80045   3.95932   3.99851   4.19106
 Alpha virt. eigenvalues --    4.21144
  Beta  occ. eigenvalues --  -88.25026 -24.45043 -24.43494 -10.14437 -10.12657
  Beta  occ. eigenvalues --  -10.08584 -10.08354 -10.07955 -10.05793 -10.05610
  Beta  occ. eigenvalues --  -10.05513 -10.05480 -10.05031  -7.85530  -5.87471
  Beta  occ. eigenvalues --   -5.86975  -5.86539  -1.29031  -1.27236  -0.97639
  Beta  occ. eigenvalues --   -0.93363  -0.86072  -0.82423  -0.82015  -0.79934
  Beta  occ. eigenvalues --   -0.70765  -0.69970  -0.66607  -0.65426  -0.62582
  Beta  occ. eigenvalues --   -0.60999  -0.57287  -0.56574  -0.55559  -0.54487
  Beta  occ. eigenvalues --   -0.53713  -0.52728  -0.50114  -0.49858  -0.48290
  Beta  occ. eigenvalues --   -0.47207  -0.46031  -0.45279  -0.44475  -0.43141
  Beta  occ. eigenvalues --   -0.40103  -0.37876  -0.33186  -0.32978  -0.29553
  Beta virt. eigenvalues --    0.02054   0.05185   0.07944   0.09441   0.13187
  Beta virt. eigenvalues --    0.14509   0.15068   0.16854   0.17935   0.19966
  Beta virt. eigenvalues --    0.20718   0.22230   0.23057   0.23322   0.25277
  Beta virt. eigenvalues --    0.28662   0.32208   0.35104   0.36440   0.38057
  Beta virt. eigenvalues --    0.39282   0.40992   0.46938   0.48016   0.50373
  Beta virt. eigenvalues --    0.51089   0.51912   0.52538   0.53511   0.54216
  Beta virt. eigenvalues --    0.54635   0.54674   0.55800   0.56443   0.56757
  Beta virt. eigenvalues --    0.57030   0.58189   0.58672   0.59753   0.60994
  Beta virt. eigenvalues --    0.61243   0.61923   0.63344   0.64148   0.65108
  Beta virt. eigenvalues --    0.67567   0.69361   0.69927   0.71251   0.72207
  Beta virt. eigenvalues --    0.73419   0.75095   0.76432   0.76552   0.77977
  Beta virt. eigenvalues --    0.79072   0.80379   0.81568   0.83828   0.86143
  Beta virt. eigenvalues --    0.90534   0.92785   0.92933   0.95046   0.96628
  Beta virt. eigenvalues --    0.97620   0.98078   1.00787   1.01997   1.03386
  Beta virt. eigenvalues --    1.04518   1.05874   1.06674   1.07323   1.09609
  Beta virt. eigenvalues --    1.11313   1.11901   1.12443   1.13441   1.14190
  Beta virt. eigenvalues --    1.17439   1.21331   1.23005   1.27336   1.28817
  Beta virt. eigenvalues --    1.33764   1.35333   1.36101   1.36417   1.36777
  Beta virt. eigenvalues --    1.37529   1.38547   1.45789   1.46842   1.48167
  Beta virt. eigenvalues --    1.51750   1.52496   1.54385   1.54479   1.55526
  Beta virt. eigenvalues --    1.55749   1.60302   1.60995   1.63264   1.64221
  Beta virt. eigenvalues --    1.66214   1.66319   1.67964   1.69214   1.69520
  Beta virt. eigenvalues --    1.71869   1.74394   1.75550   1.76656   1.77445
  Beta virt. eigenvalues --    1.77858   1.81809   1.82458   1.83903   1.85197
  Beta virt. eigenvalues --    1.86047   1.88191   1.90711   1.92427   1.93344
  Beta virt. eigenvalues --    1.95353   1.98291   1.99663   2.00962   2.02316
  Beta virt. eigenvalues --    2.03705   2.05313   2.07484   2.11364   2.13385
  Beta virt. eigenvalues --    2.15322   2.20764   2.23395   2.24578   2.33017
  Beta virt. eigenvalues --    2.38015   2.43739   2.46544   2.48629   2.50048
  Beta virt. eigenvalues --    2.50930   2.53830   2.55143   2.60533   2.65232
  Beta virt. eigenvalues --    2.71790   2.77203   2.79634   2.88080   3.06498
  Beta virt. eigenvalues --    3.43927   3.58628   3.60111   3.63122   3.63665
  Beta virt. eigenvalues --    3.78424   3.80045   3.95932   3.99851   4.19106
  Beta virt. eigenvalues --    4.21144
          Condensed to atoms (all electrons):
               1          2          3          4          5          6
     1  C    4.804214   0.453310   0.006454  -0.069835   0.016007   0.004648
     2  C    0.453310   4.746623   0.480938   0.007628  -0.076147  -0.000258
     3  C    0.006454   0.480938   4.925683   0.449916  -0.003721   0.002983
     4  C   -0.069835   0.007628   0.449916   5.238510   0.270034  -0.054393
     5  C    0.016007  -0.076147  -0.003721   0.270034   4.997408   0.398991
     6  F    0.004648  -0.000258   0.002983  -0.054393   0.398991   8.783366
     7  C    0.438466   0.018003  -0.079008  -0.009976   0.444315  -0.044443
     8  C   -0.000353   0.009694  -0.088010   0.281392  -0.081777  -0.002864
     9  C   -0.000008   0.000344  -0.015808  -0.055955   0.007529   0.000123
    10  F   -0.000003   0.000660   0.001580  -0.012602  -0.000062  -0.000000
    11  C    0.000001  -0.000003   0.000810   0.009987  -0.000335  -0.000019
    12  C   -0.000001   0.000004  -0.000299   0.001292   0.000110   0.000434
    13  S   -0.000070   0.000001   0.004227  -0.056024  -0.009429   0.012916
    14  H    0.403132  -0.049698   0.010404  -0.001348   0.009068  -0.000033
    15  H   -0.056480   0.396171  -0.033971   0.011727  -0.000353   0.000000
    16  H    0.009359  -0.039509   0.388131  -0.033244   0.008428  -0.000016
    17  H   -0.051503   0.008319  -0.000547   0.012526  -0.034703   0.003150
    18  H    0.000000  -0.000000   0.000007  -0.000210   0.000003  -0.000000
    19  H   -0.000000   0.000000   0.000005  -0.000216  -0.000003   0.000002
               7          8          9         10         11         12
     1  C    0.438466  -0.000353  -0.000008  -0.000003   0.000001  -0.000001
     2  C    0.018003   0.009694   0.000344   0.000660  -0.000003   0.000004
     3  C   -0.079008  -0.088010  -0.015808   0.001580   0.000810  -0.000299
     4  C   -0.009976   0.281392  -0.055955  -0.012602   0.009987   0.001292
     5  C    0.444315  -0.081777   0.007529  -0.000062  -0.000335   0.000110
     6  F   -0.044443  -0.002864   0.000123  -0.000000  -0.000019   0.000434
     7  C    4.868715   0.007064  -0.000314  -0.000001  -0.000003   0.000009
     8  C    0.007064   5.594873   0.308130  -0.062365  -0.065926  -0.086886
     9  C   -0.000314   0.308130   4.918107   0.409495   0.450526  -0.013988
    10  F   -0.000001  -0.062365   0.409495   8.809404  -0.045482   0.003403
    11  C   -0.000003  -0.065926   0.450526  -0.045482   4.763759   0.516534
    12  C    0.000009  -0.086886  -0.013988   0.003403   0.516534   5.023423
    13  S    0.000638   0.336257  -0.076141   0.002554  -0.081410   0.342531
    14  H   -0.050902   0.000007   0.000000   0.000000   0.000000   0.000000
    15  H    0.010326  -0.000258   0.000037  -0.000012  -0.000000  -0.000000
    16  H   -0.001185  -0.025929   0.000130   0.023767   0.001157  -0.000136
    17  H    0.378974  -0.000401   0.000001  -0.000000   0.000000  -0.000000
    18  H   -0.000000   0.012746  -0.034110   0.000880   0.397393  -0.048182
    19  H    0.000000   0.001584   0.007561  -0.000036  -0.019292   0.392541
              13         14         15         16         17         18
     1  C   -0.000070   0.403132  -0.056480   0.009359  -0.051503   0.000000
     2  C    0.000001  -0.049698   0.396171  -0.039509   0.008319  -0.000000
     3  C    0.004227   0.010404  -0.033971   0.388131  -0.000547   0.000007
     4  C   -0.056024  -0.001348   0.011727  -0.033244   0.012526  -0.000210
     5  C   -0.009429   0.009068  -0.000353   0.008428  -0.034703   0.000003
     6  F    0.012916  -0.000033   0.000000  -0.000016   0.003150  -0.000000
     7  C    0.000638  -0.050902   0.010326  -0.001185   0.378974  -0.000000
     8  C    0.336257   0.000007  -0.000258  -0.025929  -0.000401   0.012746
     9  C   -0.076141   0.000000   0.000037   0.000130   0.000001  -0.034110
    10  F    0.002554   0.000000  -0.000012   0.023767  -0.000000   0.000880
    11  C   -0.081410   0.000000  -0.000000   0.001157   0.000000   0.397393
    12  C    0.342531   0.000000  -0.000000  -0.000136  -0.000000  -0.048182
    13  S   15.379169   0.000000   0.000003  -0.000158  -0.000014   0.006755
    14  H    0.000000   0.707112  -0.012979  -0.000185  -0.014848  -0.000000
    15  H    0.000003  -0.012979   0.720625  -0.015619  -0.000181  -0.000000
    16  H   -0.000158  -0.000185  -0.015619   0.668880   0.000035   0.000007
    17  H   -0.000014  -0.014848  -0.000181   0.000035   0.693428   0.000000
    18  H    0.006755  -0.000000  -0.000000   0.000007   0.000000   0.679833
    19  H   -0.041979  -0.000000   0.000000   0.000001  -0.000000  -0.007857
              19
     1  C   -0.000000
     2  C    0.000000
     3  C    0.000005
     4  C   -0.000216
     5  C   -0.000003
     6  F    0.000002
     7  C    0.000000
     8  C    0.001584
     9  C    0.007561
    10  F   -0.000036
    11  C   -0.019292
    12  C    0.392541
    13  S   -0.041979
    14  H   -0.000000
    15  H    0.000000
    16  H    0.000001
    17  H   -0.000000
    18  H   -0.007857
    19  H    0.628346
          Atomic-Atomic Spin Densities.
               1          2          3          4          5          6
     1  C    0.000000  -0.000000   0.000000   0.000000   0.000000   0.000000
     2  C   -0.000000   0.000000  -0.000000  -0.000000  -0.000000   0.000000
     3  C    0.000000  -0.000000   0.000000   0.000000   0.000000  -0.000000
     4  C    0.000000  -0.000000   0.000000  -0.000000   0.000000  -0.000000
     5  C    0.000000  -0.000000   0.000000   0.000000   0.000000  -0.000000
     6  F    0.000000   0.000000  -0.000000  -0.000000  -0.000000   0.000000
     7  C   -0.000000   0.000000  -0.000000   0.000000  -0.000000   0.000000
     8  C   -0.000000  -0.000000   0.000000   0.000000   0.000000   0.000000
     9  C   -0.000000  -0.000000  -0.000000   0.000000   0.000000  -0.000000
    10  F   -0.000000   0.000000  -0.000000   0.000000  -0.000000  -0.000000
    11  C    0.000000   0.000000   0.000000  -0.000000  -0.000000   0.000000
    12  C   -0.000000   0.000000   0.000000  -0.000000  -0.000000   0.000000
    13  S   -0.000000   0.000000  -0.000000  -0.000000   0.000000  -0.000000
    14  H    0.000000  -0.000000   0.000000  -0.000000   0.000000   0.000000
    15  H    0.000000   0.000000  -0.000000   0.000000  -0.000000   0.000000
    16  H   -0.000000   0.000000   0.000000   0.000000  -0.000000  -0.000000
    17  H   -0.000000   0.000000  -0.000000   0.000000  -0.000000  -0.000000
    18  H    0.000000  -0.000000   0.000000   0.000000  -0.000000   0.000000
    19  H   -0.000000  -0.000000  -0.000000  -0.000000   0.000000  -0.000000
               7          8          9         10         11         12
     1  C   -0.000000  -0.000000  -0.000000  -0.000000   0.000000  -0.000000
     2  C    0.000000  -0.000000  -0.000000   0.000000   0.000000   0.000000
     3  C   -0.000000   0.000000  -0.000000  -0.000000   0.000000   0.000000
     4  C    0.000000   0.000000   0.000000   0.000000  -0.000000  -0.000000
     5  C   -0.000000   0.000000   0.000000  -0.000000  -0.000000  -0.000000
     6  F    0.000000   0.000000  -0.000000  -0.000000   0.000000   0.000000
     7  C    0.000000  -0.000000  -0.000000   0.000000   0.000000  -0.000000
     8  C   -0.000000  -0.000000  -0.000000  -0.000000   0.000000  -0.000000
     9  C   -0.000000  -0.000000   0.000000   0.000000  -0.000000   0.000000
    10  F    0.000000  -0.000000   0.000000  -0.000000  -0.000000   0.000000
    11  C    0.000000   0.000000  -0.000000  -0.000000  -0.000000  -0.000000
    12  C   -0.000000  -0.000000   0.000000   0.000000  -0.000000   0.000000
    13  S    0.000000   0.000000  -0.000000  -0.000000   0.000000  -0.000000
    14  H   -0.000000   0.000000  -0.000000  -0.000000  -0.000000   0.000000
    15  H    0.000000  -0.000000   0.000000   0.000000  -0.000000   0.000000
    16  H   -0.000000   0.000000  -0.000000  -0.000000   0.000000  -0.000000
    17  H    0.000000  -0.000000  -0.000000   0.000000  -0.000000  -0.000000
    18  H   -0.000000   0.000000  -0.000000  -0.000000   0.000000  -0.000000
    19  H    0.000000  -0.000000   0.000000   0.000000  -0.000000   0.000000
              13         14         15         16         17         18
     1  C   -0.000000   0.000000   0.000000  -0.000000  -0.000000   0.000000
     2  C    0.000000  -0.000000   0.000000   0.000000   0.000000  -0.000000
     3  C   -0.000000   0.000000  -0.000000   0.000000  -0.000000   0.000000
     4  C   -0.000000  -0.000000   0.000000   0.000000   0.000000   0.000000
     5  C    0.000000   0.000000  -0.000000  -0.000000  -0.000000  -0.000000
     6  F   -0.000000   0.000000   0.000000  -0.000000  -0.000000   0.000000
     7  C    0.000000  -0.000000   0.000000  -0.000000   0.000000  -0.000000
     8  C    0.000000   0.000000  -0.000000   0.000000  -0.000000   0.000000
     9  C   -0.000000  -0.000000   0.000000  -0.000000  -0.000000  -0.000000
    10  F   -0.000000  -0.000000   0.000000  -0.000000   0.000000  -0.000000
    11  C    0.000000  -0.000000  -0.000000   0.000000  -0.000000   0.000000
    12  C   -0.000000   0.000000   0.000000  -0.000000  -0.000000  -0.000000
    13  S    0.000000  -0.000000  -0.000000   0.000000   0.000000   0.000000
    14  H   -0.000000   0.000000  -0.000000   0.000000  -0.000000   0.000000
    15  H   -0.000000  -0.000000  -0.000000   0.000000   0.000000  -0.000000
    16  H    0.000000   0.000000   0.000000  -0.000000  -0.000000   0.000000
    17  H    0.000000  -0.000000   0.000000  -0.000000   0.000000   0.000000
    18  H    0.000000   0.000000  -0.000000   0.000000   0.000000   0.000000
    19  H   -0.000000   0.000000   0.000000  -0.000000  -0.000000  -0.000000
              19
     1  C   -0.000000
     2  C   -0.000000
     3  C   -0.000000
     4  C   -0.000000
     5  C    0.000000
     6  F   -0.000000
     7  C    0.000000
     8  C   -0.000000
     9  C    0.000000
    10  F    0.000000
    11  C   -0.000000
    12  C    0.000000
    13  S   -0.000000
    14  H    0.000000
    15  H    0.000000
    16  H   -0.000000
    17  H   -0.000000
    18  H   -0.000000
    19  H   -0.000000
 Mulliken charges and spin densities:
               1          2
     1  C    0.042662  -0.000000
     2  C    0.043918   0.000000
     3  C   -0.049774   0.000000
     4  C    0.010790  -0.000000
     5  C    0.054637   0.000000
     6  F   -0.104586   0.000000
     7  C    0.019320  -0.000000
     8  C   -0.136979  -0.000000
     9  C    0.094342   0.000000
    10  F   -0.131180  -0.000000
    11  C    0.072305  -0.000000
    12  C   -0.130788   0.000000
    13  S    0.180175  -0.000000
    14  H    0.000270   0.000000
    15  H   -0.019036  -0.000000
    16  H    0.016085  -0.000000
    17  H    0.005761   0.000000
    18  H   -0.007266   0.000000
    19  H    0.039344   0.000000
 Sum of Mulliken charges =  -0.00000   0.00000
 Mulliken charges and spin densities with hydrogens summed into heavy atoms:
               1          2
     1  C    0.042932  -0.000000
     2  C    0.024882   0.000000
     3  C   -0.033689   0.000000
     4  C    0.010790  -0.000000
     5  C    0.054637   0.000000
     6  F   -0.104586   0.000000
     7  C    0.025081  -0.000000
     8  C   -0.136979  -0.000000
     9  C    0.094342   0.000000
    10  F   -0.131180  -0.000000
    11  C    0.065039  -0.000000
    12  C   -0.091444   0.000000
    13  S    0.180175  -0.000000
 Electronic spatial extent (au):  <R**2>=           2637.8568
 Charge=             -0.0000 electrons
 Dipole moment (field-independent basis, Debye):
    X=             -0.2154    Y=              0.0755    Z=             -0.0949  Tot=              0.2472
 Quadrupole moment (field-independent basis, Debye-Ang):
   XX=            -64.2511   YY=            -77.5526   ZZ=            -83.5540
   XY=              2.1832   XZ=             -0.0563   YZ=              0.0060
 Traceless Quadrupole moment (field-independent basis, Debye-Ang):
   XX=             10.8682   YY=             -2.4334   ZZ=             -8.4348
   XY=              2.1832   XZ=             -0.0563   YZ=              0.0060
 Octapole moment (field-independent basis, Debye-Ang**2):
  XXX=            -14.5560  YYY=              0.7902  ZZZ=             -0.8314  XYY=              1.5768
  XXY=             -2.6111  XXZ=             -0.8950  XZZ=             -3.9580  YZZ=             -1.6735
  YYZ=             -0.4495  XYZ=             -0.8622
 Hexadecapole moment (field-independent basis, Debye-Ang**3):
 XXXX=          -2135.7702 YYYY=           -880.3808 ZZZZ=            -88.7455 XXXY=            -18.7858
 XXXZ=             -1.4220 YYYX=            -11.4656 YYYZ=             -0.6584 ZZZX=              0.7967
 ZZZY=             -0.9282 XXYY=           -499.9123 XXZZ=           -464.3733 YYZZ=           -167.5079
 XXYZ=             -1.0584 YYXZ=             -0.6083 ZZXY=            -17.8370
 N-N= 8.393685393428D+02 E-N=-3.992424170583D+03  KE= 9.773591285605D+02
                          Isotropic Fermi Contact Couplings
        Atom                 a.u.       MegaHertz       Gauss      10(-4) cm-1
     1  C(13)             -0.00000      -0.00000      -0.00000      -0.00000
     2  C(13)             -0.00000      -0.00000      -0.00000      -0.00000
     3  C(13)              0.00000       0.00000       0.00000       0.00000
     4  C(13)             -0.00000      -0.00000      -0.00000      -0.00000
     5  C(13)             -0.00000      -0.00000      -0.00000      -0.00000
     6  F(19)             -0.00000      -0.00000      -0.00000      -0.00000
     7  C(13)              0.00000       0.00000       0.00000       0.00000
     8  C(13)             -0.00000      -0.00000      -0.00000      -0.00000
     9  C(13)              0.00000       0.00000       0.00000       0.00000
    10  F(19)             -0.00000      -0.00000      -0.00000      -0.00000
    11  C(13)             -0.00000      -0.00000      -0.00000      -0.00000
    12  C(13)              0.00000       0.00000       0.00000       0.00000
    13  S(33)             -0.00000      -0.00000      -0.00000      -0.00000
    14  H(1)               0.00000       0.00000       0.00000       0.00000
    15  H(1)               0.00000       0.00000       0.00000       0.00000
    16  H(1)              -0.00000      -0.00000      -0.00000      -0.00000
    17  H(1)              -0.00000      -0.00000      -0.00000      -0.00000
    18  H(1)               0.00000       0.00000       0.00000       0.00000
    19  H(1)              -0.00000      -0.00000      -0.00000      -0.00000
 --------------------------------------------------------
       Center         ----  Spin Dipole Couplings  ----
                      3XX-RR        3YY-RR        3ZZ-RR
 --------------------------------------------------------
     1   Atom        0.000000     -0.000000     -0.000000
     2   Atom        0.000000      0.000000     -0.000000
     3   Atom        0.000000      0.000000     -0.000000
     4   Atom       -0.000000     -0.000000      0.000000
     5   Atom       -0.000000     -0.000000      0.000000
     6   Atom        0.000000     -0.000000      0.000000
     7   Atom        0.000000      0.000000     -0.000000
     8   Atom       -0.000000      0.000000      0.000000
     9   Atom        0.000000      0.000000     -0.000000
    10   Atom        0.000000      0.000000     -0.000000
    11   Atom        0.000000     -0.000000     -0.000000
    12   Atom        0.000000      0.000000     -0.000000
    13   Atom       -0.000000      0.000000     -0.000000
    14   Atom        0.000000      0.000000     -0.000000
    15   Atom       -0.000000      0.000000     -0.000000
    16   Atom       -0.000000      0.000000     -0.000000
    17   Atom       -0.000000      0.000000     -0.000000
    18   Atom        0.000000      0.000000     -0.000000
    19   Atom        0.000000      0.000000     -0.000000
 --------------------------------------------------------
                        XY            XZ            YZ
 --------------------------------------------------------
     1   Atom       -0.000000     -0.000000      0.000000
     2   Atom        0.000000      0.000000     -0.000000
     3   Atom       -0.000000     -0.000000     -0.000000
     4   Atom       -0.000000      0.000000     -0.000000
     5   Atom        0.000000      0.000000     -0.000000
     6   Atom        0.000000      0.000000      0.000000
     7   Atom       -0.000000     -0.000000      0.000000
     8   Atom        0.000000     -0.000000     -0.000000
     9   Atom        0.000000      0.000000     -0.000000
    10   Atom        0.000000      0.000000     -0.000000
    11   Atom        0.000000     -0.000000     -0.000000
    12   Atom        0.000000      0.000000      0.000000
    13   Atom        0.000000     -0.000000     -0.000000
    14   Atom        0.000000     -0.000000     -0.000000
    15   Atom        0.000000     -0.000000      0.000000
    16   Atom       -0.000000      0.000000      0.000000
    17   Atom       -0.000000     -0.000000     -0.000000
    18   Atom       -0.000000      0.000000     -0.000000
    19   Atom        0.000000      0.000000      0.000000
 --------------------------------------------------------


 ---------------------------------------------------------------------------------
              Anisotropic Spin Dipole Couplings in Principal Axis System
 ---------------------------------------------------------------------------------

       Atom             a.u.   MegaHertz   Gauss  10(-4) cm-1        Axes

              Baa    -0.0000    -0.000    -0.000    -0.000  0.3040  0.9496  0.0770
     1 C(13)  Bbb    -0.0000    -0.000    -0.000    -0.000 -0.0032 -0.0798  0.9968
              Bcc     0.0000     0.000     0.000     0.000  0.9527 -0.3032 -0.0212
 
              Baa    -0.0000    -0.000    -0.000    -0.000 -0.0940  0.1177  0.9886
     2 C(13)  Bbb    -0.0000    -0.000    -0.000    -0.000  0.7651 -0.6268  0.1474
              Bcc     0.0000     0.000     0.000     0.000  0.6370  0.7702 -0.0311
 
              Baa    -0.0000    -0.000    -0.000    -0.000  0.0155  0.0173  0.9997
     3 C(13)  Bbb    -0.0000    -0.000    -0.000    -0.000  0.7362  0.6764 -0.0231
              Bcc     0.0000     0.000     0.000     0.000 -0.6766  0.7363 -0.0023
 
              Baa    -0.0000    -0.000    -0.000    -0.000  0.8133  0.5813 -0.0241
     4 C(13)  Bbb    -0.0000    -0.000    -0.000    -0.000 -0.5804  0.8136  0.0345
              Bcc     0.0000     0.000     0.000     0.000  0.0396 -0.0141  0.9991
 
              Baa    -0.0000    -0.000    -0.000    -0.000 -0.5320  0.8432  0.0776
     5 C(13)  Bbb     0.0000     0.000     0.000     0.000  0.8308  0.5375 -0.1445
              Bcc     0.0000     0.000     0.000     0.000  0.1635  0.0124  0.9865
 
              Baa    -0.0000    -0.000    -0.000    -0.000 -0.2601  0.9652 -0.0275
     6 F(19)  Bbb     0.0000     0.000     0.000     0.000  0.8187  0.2053 -0.5363
              Bcc     0.0000     0.000     0.000     0.000  0.5119  0.1620  0.8436
 
              Baa    -0.0000    -0.000    -0.000    -0.000  0.0512  0.0183  0.9985
     7 C(13)  Bbb    -0.0000    -0.000    -0.000    -0.000  0.6001  0.7986 -0.0454
              Bcc     0.0000     0.000     0.000     0.000  0.7983 -0.6016 -0.0299
 
              Baa    -0.0000    -0.000    -0.000    -0.000  0.9954 -0.0953  0.0096
     8 C(13)  Bbb     0.0000     0.000     0.000     0.000  0.0922  0.9804  0.1740
              Bcc     0.0000     0.000     0.000     0.000 -0.0260 -0.1723  0.9847
 
              Baa    -0.0000    -0.000    -0.000    -0.000 -0.2303  0.2951  0.9273
     9 C(13)  Bbb    -0.0000    -0.000    -0.000    -0.000  0.7545 -0.5477  0.3617
              Bcc     0.0000     0.000     0.000     0.000  0.6146  0.7829 -0.0965
 
              Baa    -0.0000    -0.000    -0.000    -0.000 -0.1419  0.1671  0.9757
    10 F(19)  Bbb    -0.0000    -0.000    -0.000    -0.000 -0.6580  0.7204 -0.2191
              Bcc     0.0000     0.000     0.000     0.000  0.7395  0.6731 -0.0077
 
              Baa    -0.0000    -0.000    -0.000    -0.000 -0.1294  0.9246  0.3583
    11 C(13)  Bbb    -0.0000    -0.000    -0.000    -0.000  0.2285 -0.3238  0.9181
              Bcc     0.0000     0.000     0.000     0.000  0.9649  0.2007 -0.1694
 
              Baa    -0.0000    -0.000    -0.000    -0.000 -0.6789  0.7325 -0.0494
    12 C(13)  Bbb    -0.0000    -0.000    -0.000    -0.000 -0.0938 -0.0199  0.9954
              Bcc     0.0000     0.000     0.000     0.000  0.7282  0.6804  0.0822
 
              Baa    -0.0000    -0.000    -0.000    -0.000  0.8969 -0.4133  0.1574
    13 S(33)  Bbb    -0.0000    -0.000    -0.000    -0.000 -0.1162  0.1232  0.9856
              Bcc     0.0000     0.000     0.000     0.000  0.4267  0.9022 -0.0624
 
              Baa    -0.0000    -0.000    -0.000    -0.000 -0.0111  0.0419  0.9991
    14 H(1)   Bbb    -0.0000    -0.000    -0.000    -0.000 -0.5771  0.8156 -0.0406
              Bcc     0.0000     0.000     0.000     0.000  0.8166  0.5770 -0.0152
 
              Baa    -0.0000    -0.000    -0.000    -0.000  0.1890 -0.0616  0.9800
    15 H(1)   Bbb    -0.0000    -0.000    -0.000    -0.000  0.9317 -0.3039 -0.1988
              Bcc     0.0000     0.000     0.000     0.000  0.3101  0.9507 -0.0000
 
              Baa    -0.0000    -0.000    -0.000    -0.000  0.8859  0.4573 -0.0775
    16 H(1)   Bbb    -0.0000    -0.000    -0.000    -0.000  0.0885 -0.0026  0.9961
              Bcc     0.0000     0.000     0.000     0.000 -0.4553  0.8893  0.0428
 
              Baa    -0.0000    -0.000    -0.000    -0.000  0.0196  0.0044  0.9998
    17 H(1)   Bbb    -0.0000    -0.000    -0.000    -0.000  0.9856  0.1676 -0.0201
              Bcc     0.0000     0.000     0.000     0.000 -0.1677  0.9858 -0.0011
 
              Baa    -0.0000    -0.000    -0.000    -0.000  0.5537  0.6568  0.5119
    18 H(1)   Bbb    -0.0000    -0.000    -0.000    -0.000 -0.3770 -0.3504  0.8574
              Bcc     0.0000     0.000     0.000     0.000  0.7425 -0.6677  0.0536
 
              Baa    -0.0000    -0.000    -0.000    -0.000 -0.1574  0.0430  0.9866
    19 H(1)   Bbb    -0.0000    -0.000    -0.000    -0.000  0.7249 -0.6734  0.1450
              Bcc     0.0000     0.000     0.000     0.000  0.6706  0.7380  0.0748
 

 ---------------------------------------------------------------------------------

 No NMR shielding tensors so no spin-rotation constants.
 Leave Link  601 at Fri Jul 24 14:08:03 2020, MaxMem=  4026531840 cpu:               3.4 elap:               0.8
 (Enter /opt/ohpc/pub/libs/gaussian/g16-A.03/sandybridge/g16/l701.exe)
 ... and contract with generalized density number  0.
 Compute integral first derivatives.
 Leave Link  701 at Fri Jul 24 14:08:03 2020, MaxMem=  4026531840 cpu:               1.0 elap:               0.2
 (Enter /opt/ohpc/pub/libs/gaussian/g16-A.03/sandybridge/g16/l702.exe)
 L702 exits ... SP integral derivatives will be done elsewhere.
 Leave Link  702 at Fri Jul 24 14:08:03 2020, MaxMem=  4026531840 cpu:               0.3 elap:               0.1
 (Enter /opt/ohpc/pub/libs/gaussian/g16-A.03/sandybridge/g16/l703.exe)
 Integral derivatives from FoFJK, PRISM(SPDF).
 Compute integral first derivatives, UseDBF=F ICtDFT=           0.
 Calling FoFJK, ICntrl=      2127 FMM=F ISym2X=0 I1Cent= 0 IOpClX= 1 NMat=1 NMatS=1 NMatT=0.
 FoFJK:  IHMeth= 1 ICntrl=    2127 DoSepK=T KAlg= 0 I1Cent=           0 FoldK=F
 IRaf=         1 NMat=       1 IRICut=       1 DoRegI=T DoRafI=F ISym2E= 0 IDoP0=0 IntGTp=1.
 FoFCou: FMM=F IPFlag=           0 FMFlag=      100000 FMFlg1=         800
         NFxFlg=           0 DoJE=F BraDBF=F KetDBF=F FulRan=T
         wScrn=  0.000000 ICntrl=      2527 IOpCl=  0 I1Cent=           0 NGrid=           0
         NMat0=    1 NMatS0=      1 NMatT0=    0 NMatD0=    1 NMtDS0=    0 NMtDT0=    0
 Symmetry not used in FoFCou.
 Leave Link  703 at Fri Jul 24 14:08:16 2020, MaxMem=  4026531840 cpu:              95.6 elap:              12.3
 (Enter /opt/ohpc/pub/libs/gaussian/g16-A.03/sandybridge/g16/l716.exe)
 Dipole        =-8.47501179D-02 2.97186262D-02-3.73351867D-02
 ***** Axes restored to original set *****
 -------------------------------------------------------------------
 Center     Atomic                   Forces (Hartrees/Bohr)
 Number     Number              X              Y              Z
 -------------------------------------------------------------------
      1        6           0.025190688    0.078937714    0.001511813
      2        6          -0.020412832   -0.041946796   -0.005823524
      3        6          -0.001582075    0.027608103    0.001626067
      4        6          -0.001180257   -0.057504706   -0.001628423
      5        6           0.038895894    0.069723941    0.009195717
      6        9          -0.008489730    0.001909014   -0.001373203
      7        6          -0.070690779   -0.081630555   -0.003105650
      8        6           0.048767957   -0.037213146   -0.011988290
      9        6          -0.036979122    0.032905422    0.014583162
     10        9          -0.000446987    0.000602256   -0.001457646
     11        6           0.033875053   -0.017731817   -0.009984613
     12        6          -0.044915044    0.000630648    0.000774698
     13       16           0.024574696    0.004472357    0.004646048
     14        1          -0.007722343   -0.006099331    0.000352876
     15        1           0.013405082    0.020007684    0.002072732
     16        1           0.011422062   -0.020061692   -0.000155062
     17        1           0.002566747    0.006798967   -0.000660197
     18        1          -0.015488560    0.012803035    0.000455872
     19        1           0.009209550    0.005788900    0.000957624
 -------------------------------------------------------------------
 Cartesian Forces:  Max     0.081630555 RMS     0.027768422
 Leave Link  716 at Fri Jul 24 14:08:16 2020, MaxMem=  4026531840 cpu:               0.3 elap:               0.1
 (Enter /opt/ohpc/pub/libs/gaussian/g16-A.03/sandybridge/g16/l103.exe)

 GradGradGradGradGradGradGradGradGradGradGradGradGradGradGradGradGradGrad
 Berny optimization.
 FormGI is forming the generalized inverse of G from B-inverse, IUseBI=4.
 GSVD:  received Info=                   1 from GESDD.
 Internal  Forces:  Max     0.056842250 RMS     0.012576880
 Search for a local minimum.
 Step number   1 out of a maximum of  105
 All quantities printed in internal units (Hartrees-Bohrs-Radians)
 RMS Force = .12577D-01 SwitMx=.10000D-02 MixMth= 1
 Mixed Optimization -- RFO/linear search
 Second derivative matrix not updated -- first step.
 ITU=  0
     Eigenvalues ---    0.00665   0.01200   0.01285   0.01437   0.01571
     Eigenvalues ---    0.01797   0.01879   0.01906   0.01973   0.02051
     Eigenvalues ---    0.02193   0.02248   0.02264   0.02355   0.02469
     Eigenvalues ---    0.02586   0.15910   0.15925   0.15999   0.16000
     Eigenvalues ---    0.16000   0.16000   0.22001   0.22439   0.22481
     Eigenvalues ---    0.24426   0.24651   0.24726   0.24854   0.24932
     Eigenvalues ---    0.25000   0.27900   0.30473   0.31587   0.32482
     Eigenvalues ---    0.32633   0.33074   0.34619   0.35433   0.37127
     Eigenvalues ---    0.37947   0.38146   0.38889   0.40287   0.43003
     Eigenvalues ---    0.44838   0.48615   0.54422   0.56041   0.57838
     Eigenvalues ---    0.58731
 RFO step:  Lambda=-3.70718417D-02 EMin= 6.64631400D-03
 Linear search not attempted -- first point.
 Iteration  1 RMS(Cart)=  0.03926176 RMS(Int)=  0.00114036
 Iteration  2 RMS(Cart)=  0.00151559 RMS(Int)=  0.00045894
 Iteration  3 RMS(Cart)=  0.00000162 RMS(Int)=  0.00045894
 Iteration  4 RMS(Cart)=  0.00000000 RMS(Int)=  0.00045894
 ITry= 1 IFail=0 DXMaxC= 1.62D-01 DCOld= 1.00D+10 DXMaxT= 3.00D-01 DXLimC= 3.00D+00 Rises=F
 Variable       Old X    -DE/DX   Delta X   Delta X   Delta X     New X
                                 (Linear)    (Quad)   (Total)
    R1        2.69881  -0.01938   0.00000  -0.03964  -0.04004   2.65877
    R2        2.50467   0.05684   0.00000   0.09129   0.09120   2.59586
    R3        2.09701  -0.00835   0.00000  -0.02298  -0.02298   2.07403
    R4        2.64684  -0.01157   0.00000  -0.02421  -0.02450   2.62234
    R5        2.00854   0.02349   0.00000   0.05612   0.05612   2.06466
    R6        2.65517   0.00429   0.00000   0.00507   0.00515   2.66032
    R7        2.13729  -0.02306   0.00000  -0.06745  -0.06745   2.06984
    R8        2.77283  -0.04988   0.00000  -0.12929  -0.12889   2.64394
    R9        2.84906  -0.01874   0.00000  -0.05309  -0.05309   2.79597
   R10        2.52694   0.00110   0.00000   0.00178   0.00178   2.52872
   R11        2.77491  -0.04856   0.00000  -0.12144  -0.12115   2.65377
   R12        2.08922  -0.00473   0.00000  -0.01287  -0.01287   2.07635
   R13        2.52447   0.04074   0.00000   0.06755   0.06733   2.59180
   R14        3.35130  -0.00898   0.00000  -0.02565  -0.02577   3.32552
   R15        2.55649   0.00049   0.00000   0.00084   0.00084   2.55733
   R16        2.72178  -0.00686   0.00000  -0.01586  -0.01591   2.70587
   R17        2.58709  -0.00027   0.00000  -0.00239  -0.00219   2.58490
   R18        2.01143   0.02008   0.00000   0.04821   0.04821   2.05964
   R19        3.16828   0.02538   0.00000   0.05779   0.05798   3.22626
   R20        2.09971  -0.01088   0.00000  -0.03007  -0.03007   2.06963
    A1        2.09521  -0.00672   0.00000  -0.01114  -0.01161   2.08360
    A2        2.04069   0.00882   0.00000   0.03327   0.03350   2.07419
    A3        2.14727  -0.00210   0.00000  -0.02213  -0.02189   2.12538
    A4        2.07156  -0.00002   0.00000   0.00669   0.00584   2.07739
    A5        2.14958  -0.00423   0.00000  -0.02389  -0.02376   2.12583
[...]
    18  H    0.006700  -0.000000  -0.000000   0.000009   0.000000   0.672702
    19  H   -0.038533  -0.000000   0.000000   0.000001  -0.000000  -0.007631
              19
     1  C   -0.000000
     2  C    0.000000
     3  C    0.000004
     4  C   -0.000227
     5  C   -0.000004
     6  F    0.000001
     7  C    0.000000
     8  C    0.000909
     9  C    0.007619
    10  F   -0.000030
    11  C   -0.020729
    12  C    0.398596
    13  S   -0.038533
    14  H   -0.000000
    15  H    0.000000
    16  H    0.000001
    17  H   -0.000000
    18  H   -0.007631
    19  H    0.626447
          Atomic-Atomic Spin Densities.
               1          2          3          4          5          6
     1  C    0.000000  -0.000000   0.000000  -0.000000   0.000000   0.000000
     2  C   -0.000000   0.000000  -0.000000   0.000000  -0.000000  -0.000000
     3  C    0.000000  -0.000000  -0.000000  -0.000000   0.000000   0.000000
     4  C   -0.000000   0.000000  -0.000000   0.000000  -0.000000  -0.000000
     5  C    0.000000  -0.000000   0.000000  -0.000000   0.000000   0.000000
     6  F    0.000000  -0.000000   0.000000  -0.000000   0.000000  -0.000000
     7  C   -0.000000   0.000000  -0.000000   0.000000  -0.000000  -0.000000
     8  C   -0.000000   0.000000  -0.000000  -0.000000  -0.000000  -0.000000
     9  C    0.000000  -0.000000  -0.000000   0.000000  -0.000000  -0.000000
    10  F    0.000000   0.000000   0.000000  -0.000000  -0.000000   0.000000
    11  C    0.000000  -0.000000   0.000000   0.000000   0.000000   0.000000
    12  C   -0.000000   0.000000  -0.000000  -0.000000   0.000000   0.000000
    13  S   -0.000000   0.000000  -0.000000   0.000000   0.000000  -0.000000
    14  H    0.000000  -0.000000   0.000000  -0.000000   0.000000   0.000000
    15  H   -0.000000   0.000000  -0.000000   0.000000  -0.000000  -0.000000
    16  H    0.000000  -0.000000   0.000000  -0.000000   0.000000   0.000000
    17  H   -0.000000   0.000000  -0.000000   0.000000  -0.000000  -0.000000
    18  H   -0.000000  -0.000000  -0.000000   0.000000   0.000000   0.000000
    19  H   -0.000000   0.000000   0.000000  -0.000000   0.000000  -0.000000
               7          8          9         10         11         12
     1  C   -0.000000  -0.000000   0.000000   0.000000   0.000000  -0.000000
     2  C    0.000000   0.000000  -0.000000   0.000000  -0.000000   0.000000
     3  C   -0.000000  -0.000000  -0.000000   0.000000   0.000000  -0.000000
     4  C    0.000000  -0.000000   0.000000  -0.000000   0.000000  -0.000000
     5  C   -0.000000  -0.000000  -0.000000  -0.000000   0.000000   0.000000
     6  F   -0.000000  -0.000000  -0.000000   0.000000   0.000000   0.000000
     7  C    0.000000   0.000000  -0.000000  -0.000000  -0.000000   0.000000
     8  C    0.000000   0.000000  -0.000000  -0.000000   0.000000  -0.000000
     9  C   -0.000000  -0.000000   0.000000   0.000000  -0.000000   0.000000
    10  F   -0.000000  -0.000000   0.000000  -0.000000   0.000000   0.000000
    11  C   -0.000000   0.000000  -0.000000   0.000000  -0.000000  -0.000000
    12  C    0.000000  -0.000000   0.000000   0.000000  -0.000000   0.000000
    13  S   -0.000000   0.000000  -0.000000   0.000000  -0.000000   0.000000
    14  H   -0.000000  -0.000000   0.000000   0.000000  -0.000000  -0.000000
    15  H    0.000000   0.000000   0.000000  -0.000000   0.000000  -0.000000
    16  H   -0.000000  -0.000000  -0.000000   0.000000   0.000000  -0.000000
    17  H    0.000000   0.000000  -0.000000   0.000000   0.000000  -0.000000
    18  H    0.000000   0.000000  -0.000000   0.000000   0.000000  -0.000000
    19  H    0.000000  -0.000000   0.000000   0.000000  -0.000000  -0.000000
              13         14         15         16         17         18
     1  C   -0.000000   0.000000  -0.000000   0.000000  -0.000000  -0.000000
     2  C    0.000000  -0.000000   0.000000  -0.000000   0.000000  -0.000000
     3  C   -0.000000   0.000000  -0.000000   0.000000  -0.000000  -0.000000
     4  C    0.000000  -0.000000   0.000000  -0.000000   0.000000   0.000000
     5  C    0.000000   0.000000  -0.000000   0.000000  -0.000000   0.000000
     6  F   -0.000000   0.000000  -0.000000   0.000000  -0.000000   0.000000
     7  C   -0.000000  -0.000000   0.000000  -0.000000   0.000000   0.000000
     8  C    0.000000  -0.000000   0.000000  -0.000000   0.000000   0.000000
     9  C   -0.000000   0.000000   0.000000  -0.000000  -0.000000  -0.000000
    10  F    0.000000   0.000000  -0.000000   0.000000   0.000000   0.000000
    11  C   -0.000000  -0.000000   0.000000   0.000000   0.000000   0.000000
    12  C    0.000000  -0.000000  -0.000000  -0.000000  -0.000000  -0.000000
    13  S   -0.000000  -0.000000   0.000000   0.000000  -0.000000   0.000000
    14  H   -0.000000   0.000000  -0.000000   0.000000  -0.000000  -0.000000
    15  H    0.000000  -0.000000  -0.000000  -0.000000   0.000000   0.000000
    16  H    0.000000   0.000000  -0.000000   0.000000  -0.000000   0.000000
    17  H   -0.000000  -0.000000   0.000000  -0.000000   0.000000   0.000000
    18  H    0.000000  -0.000000   0.000000   0.000000   0.000000   0.000000
    19  H    0.000000  -0.000000  -0.000000  -0.000000   0.000000  -0.000000
              19
     1  C   -0.000000
     2  C    0.000000
     3  C    0.000000
     4  C   -0.000000
     5  C    0.000000
     6  F   -0.000000
     7  C    0.000000
     8  C   -0.000000
     9  C    0.000000
    10  F    0.000000
    11  C   -0.000000
    12  C   -0.000000
    13  S    0.000000
    14  H   -0.000000
    15  H   -0.000000
    16  H   -0.000000
    17  H    0.000000
    18  H   -0.000000
    19  H    0.000000
 Mulliken charges and spin densities:
               1          2
     1  C    0.028446  -0.000000
     2  C    0.032634   0.000000
     3  C   -0.012234  -0.000000
     4  C    0.029250   0.000000
     5  C    0.075344   0.000000
     6  F   -0.129614  -0.000000
     7  C    0.022609  -0.000000
     8  C   -0.167336  -0.000000
     9  C    0.100698   0.000000
    10  F   -0.127119  -0.000000
    11  C    0.061921  -0.000000
    12  C   -0.126432   0.000000
    13  S    0.183938  -0.000000
    14  H   -0.004625   0.000000
    15  H   -0.008098  -0.000000
    16  H   -0.002886   0.000000
    17  H    0.004962   0.000000
    18  H    0.004968   0.000000
    19  H    0.033575   0.000000
 Sum of Mulliken charges =  -0.00000   0.00000
 Mulliken charges and spin densities with hydrogens summed into heavy atoms:
               1          2
     1  C    0.023821  -0.000000
     2  C    0.024536   0.000000
     3  C   -0.015120  -0.000000
     4  C    0.029250   0.000000
     5  C    0.075344   0.000000
     6  F   -0.129614  -0.000000
     7  C    0.027570  -0.000000
     8  C   -0.167336  -0.000000
     9  C    0.100698   0.000000
    10  F   -0.127119  -0.000000
    11  C    0.066889  -0.000000
    12  C   -0.092857   0.000000
    13  S    0.183938  -0.000000
 Electronic spatial extent (au):  <R**2>=           2587.9406
 Charge=             -0.0000 electrons
 Dipole moment (field-independent basis, Debye):
    X=             -0.0301    Y=              0.2544    Z=              0.2687  Tot=              0.3713
 Quadrupole moment (field-independent basis, Debye-Ang):
   XX=            -63.4231   YY=            -78.1006   ZZ=            -83.2338
   XY=              1.5767   XZ=             -0.1292   YZ=              0.5029
 Traceless Quadrupole moment (field-independent basis, Debye-Ang):
   XX=             11.4961   YY=             -3.1814   ZZ=             -8.3146
   XY=              1.5767   XZ=             -0.1292   YZ=              0.5029
 Octapole moment (field-independent basis, Debye-Ang**2):
  XXX=            -11.5711  YYY=              2.0093  ZZZ=             -5.9072  XYY=              1.3887
  XXY=             -4.7280  XXZ=             -0.9206  XZZ=             -3.3149  YZZ=             -1.2117
  YYZ=              1.8464  XYZ=              3.6003
 Hexadecapole moment (field-independent basis, Debye-Ang**3):
 XXXX=          -2081.5874 YYYY=           -854.4801 ZZZZ=           -105.0009 XXXY=            -23.1076
 XXXZ=             -2.5907 YYYX=            -13.8191 YYYZ=              3.8195 ZZZX=             -0.3192
 ZZZY=             -1.9277 XXYY=           -487.7202 XXZZ=           -457.5550 YYZZ=           -163.9815
 XXYZ=              0.6900 YYXZ=              0.9334 ZZXY=            -15.4705
 N-N= 8.453701561514D+02 E-N=-4.004679706281D+03  KE= 9.775075104522D+02
                          Isotropic Fermi Contact Couplings
        Atom                 a.u.       MegaHertz       Gauss      10(-4) cm-1
     1  C(13)             -0.00000      -0.00000      -0.00000      -0.00000
     2  C(13)              0.00000       0.00000       0.00000       0.00000
     3  C(13)             -0.00000      -0.00000      -0.00000      -0.00000
     4  C(13)              0.00000       0.00000       0.00000       0.00000
     5  C(13)              0.00000       0.00000       0.00000       0.00000
     6  F(19)              0.00000       0.00000       0.00000       0.00000
     7  C(13)              0.00000       0.00000       0.00000       0.00000
     8  C(13)             -0.00000      -0.00000      -0.00000      -0.00000
     9  C(13)              0.00000       0.00000       0.00000       0.00000
    10  F(19)             -0.00000      -0.00000      -0.00000      -0.00000
    11  C(13)             -0.00000      -0.00000      -0.00000      -0.00000
    12  C(13)              0.00000       0.00000       0.00000       0.00000
    13  S(33)              0.00000       0.00000       0.00000       0.00000
    14  H(1)               0.00000       0.00000       0.00000       0.00000
    15  H(1)              -0.00000      -0.00000      -0.00000      -0.00000
    16  H(1)               0.00000       0.00000       0.00000       0.00000
    17  H(1)               0.00000       0.00000       0.00000       0.00000
    18  H(1)               0.00000       0.00000       0.00000       0.00000
    19  H(1)              -0.00000      -0.00000      -0.00000      -0.00000
 --------------------------------------------------------
       Center         ----  Spin Dipole Couplings  ----
                      3XX-RR        3YY-RR        3ZZ-RR
 --------------------------------------------------------
     1   Atom        0.000000      0.000000     -0.000000
     2   Atom       -0.000000      0.000000     -0.000000
     3   Atom       -0.000000      0.000000     -0.000000
     4   Atom        0.000000     -0.000000      0.000000
     5   Atom       -0.000000      0.000000     -0.000000
     6   Atom        0.000000     -0.000000      0.000000
     7   Atom        0.000000     -0.000000     -0.000000
     8   Atom        0.000000      0.000000     -0.000000
     9   Atom       -0.000000      0.000000     -0.000000
    10   Atom       -0.000000     -0.000000      0.000000
    11   Atom       -0.000000      0.000000      0.000000
    12   Atom        0.000000      0.000000     -0.000000
    13   Atom       -0.000000      0.000000     -0.000000
    14   Atom        0.000000     -0.000000     -0.000000
    15   Atom        0.000000     -0.000000     -0.000000
    16   Atom        0.000000      0.000000     -0.000000
    17   Atom       -0.000000      0.000000     -0.000000
    18   Atom       -0.000000      0.000000      0.000000
    19   Atom        0.000000     -0.000000     -0.000000
 --------------------------------------------------------
                        XY            XZ            YZ
 --------------------------------------------------------
     1   Atom        0.000000     -0.000000      0.000000
     2   Atom        0.000000      0.000000      0.000000
     3   Atom        0.000000      0.000000      0.000000
     4   Atom       -0.000000     -0.000000     -0.000000
     5   Atom        0.000000     -0.000000      0.000000
     6   Atom       -0.000000     -0.000000     -0.000000
     7   Atom       -0.000000     -0.000000      0.000000
     8   Atom       -0.000000     -0.000000     -0.000000
     9   Atom        0.000000     -0.000000      0.000000
    10   Atom       -0.000000     -0.000000     -0.000000
    11   Atom        0.000000     -0.000000     -0.000000
    12   Atom        0.000000     -0.000000      0.000000
    13   Atom        0.000000      0.000000     -0.000000
    14   Atom        0.000000     -0.000000      0.000000
    15   Atom        0.000000      0.000000     -0.000000
    16   Atom       -0.000000      0.000000      0.000000
    17   Atom       -0.000000     -0.000000      0.000000
    18   Atom       -0.000000     -0.000000     -0.000000
    19   Atom        0.000000      0.000000     -0.000000
 --------------------------------------------------------


 ---------------------------------------------------------------------------------
              Anisotropic Spin Dipole Couplings in Principal Axis System
 ---------------------------------------------------------------------------------

       Atom             a.u.   MegaHertz   Gauss  10(-4) cm-1        Axes

              Baa    -0.0000    -0.000    -0.000    -0.000  0.0519 -0.2121  0.9759
     1 C(13)  Bbb     0.0000     0.000     0.000     0.000  0.9963 -0.0566 -0.0652
              Bcc     0.0000     0.000     0.000     0.000  0.0690  0.9756  0.2083
 
              Baa    -0.0000    -0.000    -0.000    -0.000 -0.1660 -0.0357  0.9855
     2 C(13)  Bbb    -0.0000    -0.000    -0.000    -0.000  0.9452 -0.2907  0.1487
              Bcc     0.0000     0.000     0.000     0.000  0.2812  0.9561  0.0820
 
              Baa    -0.0000    -0.000    -0.000    -0.000 -0.6880 -0.0623  0.7230
     3 C(13)  Bbb    -0.0000    -0.000    -0.000    -0.000  0.7172 -0.2105  0.6643
              Bcc     0.0000     0.000     0.000     0.000  0.1108  0.9756  0.1895
 
              Baa    -0.0000    -0.000    -0.000    -0.000  0.0779  0.9873  0.1388
     4 C(13)  Bbb     0.0000     0.000     0.000     0.000  0.1923 -0.1515  0.9696
              Bcc     0.0000     0.000     0.000     0.000  0.9782 -0.0488 -0.2017
 
              Baa    -0.0000    -0.000    -0.000    -0.000  0.0253 -0.1463  0.9889
     5 C(13)  Bbb    -0.0000    -0.000    -0.000    -0.000  0.9994 -0.0213 -0.0288
              Bcc     0.0000     0.000     0.000     0.000  0.0253  0.9890  0.1457
 
              Baa    -0.0000    -0.000    -0.000    -0.000  0.5094  0.8465  0.1548
     6 F(19)  Bbb     0.0000     0.000     0.000     0.000 -0.5213  0.1605  0.8381
              Bcc     0.0000     0.000     0.000     0.000  0.6847 -0.5076  0.5230
 
              Baa    -0.0000    -0.000    -0.000    -0.000 -0.0215 -0.1517  0.9882
     7 C(13)  Bbb    -0.0000    -0.000    -0.000    -0.000  0.2020  0.9674  0.1530
              Bcc     0.0000     0.000     0.000     0.000  0.9792 -0.2029 -0.0098
 
              Baa    -0.0000    -0.000    -0.000    -0.000  0.2739  0.1156  0.9548
     8 C(13)  Bbb     0.0000     0.000     0.000     0.000  0.8809  0.3684 -0.2973
              Bcc     0.0000     0.000     0.000     0.000 -0.3861  0.9225 -0.0009
 
              Baa    -0.0000    -0.000    -0.000    -0.000  0.9220 -0.0693  0.3809
     9 C(13)  Bbb    -0.0000    -0.000    -0.000    -0.000 -0.3809  0.0143  0.9245
              Bcc     0.0000     0.000     0.000     0.000  0.0695  0.9975  0.0132
 
              Baa    -0.0000    -0.000    -0.000    -0.000  0.6219  0.7252  0.2956
    10 F(19)  Bbb     0.0000     0.000     0.000     0.000  0.7461 -0.6634  0.0578
              Bcc     0.0000     0.000     0.000     0.000 -0.2380 -0.1846  0.9536
 
              Baa    -0.0000    -0.000    -0.000    -0.000  0.8327 -0.5506  0.0595
    11 C(13)  Bbb     0.0000     0.000     0.000     0.000  0.0712  0.2130  0.9745
              Bcc     0.0000     0.000     0.000     0.000  0.5492  0.8072 -0.2165
 
              Baa    -0.0000    -0.000    -0.000    -0.000  0.2070 -0.0819  0.9749
    12 C(13)  Bbb     0.0000     0.000     0.000     0.000  0.9553 -0.1979 -0.2195
              Bcc     0.0000     0.000     0.000     0.000  0.2109  0.9768  0.0373
 
              Baa    -0.0000    -0.000    -0.000    -0.000  0.8158 -0.4616 -0.3485
    13 S(33)  Bbb    -0.0000    -0.000    -0.000    -0.000  0.3121 -0.1559  0.9372
              Bcc     0.0000     0.000     0.000     0.000  0.4870  0.8733 -0.0169
 
              Baa    -0.0000    -0.000    -0.000    -0.000  0.0721 -0.2723  0.9595
    14 H(1)   Bbb    -0.0000    -0.000    -0.000    -0.000 -0.2597  0.9237  0.2817
              Bcc     0.0000     0.000     0.000     0.000  0.9630  0.2695  0.0041
 
              Baa    -0.0000    -0.000    -0.000    -0.000 -0.1027  0.5472  0.8307
    15 H(1)   Bbb    -0.0000    -0.000    -0.000    -0.000 -0.1768  0.8118 -0.5566
              Bcc     0.0000     0.000     0.000     0.000  0.9789  0.2040 -0.0134
 
              Baa    -0.0000    -0.000    -0.000    -0.000 -0.0889 -0.1401  0.9861
    16 H(1)   Bbb    -0.0000    -0.000    -0.000    -0.000  0.9172  0.3745  0.1358
              Bcc     0.0000     0.000     0.000     0.000 -0.3883  0.9166  0.0952
 
              Baa    -0.0000    -0.000    -0.000    -0.000  0.0016 -0.1539  0.9881
    17 H(1)   Bbb    -0.0000    -0.000    -0.000    -0.000  0.8704  0.4866  0.0744
              Bcc     0.0000     0.000     0.000     0.000 -0.4923  0.8600  0.1347
 
              Baa    -0.0000    -0.000    -0.000    -0.000  0.9751  0.1981  0.1001
    18 H(1)   Bbb     0.0000     0.000     0.000     0.000 -0.0976 -0.0224  0.9950
              Bcc     0.0000     0.000     0.000     0.000 -0.1993  0.9799  0.0025
 
              Baa    -0.0000    -0.000    -0.000    -0.000 -0.1663  0.3623  0.9171
    19 H(1)   Bbb    -0.0000    -0.000    -0.000    -0.000 -0.3957  0.8273 -0.3987
              Bcc     0.0000     0.000     0.000     0.000  0.9032  0.4292 -0.0057
 

 ---------------------------------------------------------------------------------

 No NMR shielding tensors so no spin-rotation constants.
 Leave Link  601 at Fri Jul 24 14:46:08 2020, MaxMem=  4026531840 cpu:               2.9 elap:               0.5
 (Enter /opt/ohpc/pub/libs/gaussian/g16-A.03/sandybridge/g16/l9999.exe)

 Test job not archived.
 1\1\GINC-SKYLAKE046\FOpt\ULC-wPBE\CC-pVDZ\C10H6F2S1\RDU230\24-Jul-2020
 \0\\#P uLC-wPBE/cc-pVDZ iop(3/107=0256200000, 3/108=0256200000) opt\\H
 6 C10 S1 F2\\0,1\C,3.5540022661,0.3869668924,0.0120510476\C,2.75453549
 09,1.5254574138,0.1331855977\C,1.3652264394,1.4153717965,0.1368399272\
 C,0.7229278886,0.1667940531,0.0170074996\C,1.5645408162,-0.9500253466,
 -0.0970950032\F,1.0107554763,-2.1830475518,-0.202316486\C,2.9507318888
 ,-0.8643670316,-0.1019792259\C,-0.746736802,0.0527866447,0.0095508495\
 C,-1.6784817233,1.0537160214,-0.1782812926\F,-1.3521966159,2.338560006
 ,-0.4342029547\C,-3.0389837268,0.6589809142,-0.0907759368\C,-3.1397077
 169,-0.6799680354,0.174104851\S,-1.6032904422,-1.4405295206,0.29980415
 17\H,4.6468461079,0.4689311826,0.0098200947\H,3.2151142939,2.515133089
 2,0.2292398661\H,0.7532084348,2.3150157872,0.2366742382\H,3.5317658733
 ,-1.7878479427,-0.195826785\H,-3.8769220323,1.3473774771,-0.2246244041
 \H,-4.0492339169,-1.2737428494,0.2901569649\\Version=EM64L-G16RevA.03\
 State=1-A\HF=-981.9776378\S2=0.\S2-1=0.\S2A=0.\RMSD=5.816e-09\RMSF=3.0
 43e-05\Dipole=-0.0132778,0.1052439,0.1004219\Quadrupole=8.4920364,-2.2
 84696,-6.2073403,1.3872857,-0.2663438,0.1585986\PG=C01 [X(C10H6F2S1)]\
 \@


 MAN IS A SINGULAR CREATURE.  HE HAS A SET OF GIFTS
 WHICH MAKE HIM UNIQUE AMONG THE ANIMALS: SO THAT, 
 UNLIKE THEM, HE IS NOT A FIGURE IN THE LANDSCAPE --
 HE IS A SHAPER OF THE LANDSCAPE.

                       -- JACOB BRONOWSKI
 Job cpu time:       0 days  3 hours 29 minutes 24.1 seconds.
 Elapsed time:       0 days  0 hours 39 minutes  1.4 seconds.
 File lengths (MBytes):  RWF=    108 Int=      0 D2E=      0 Chk=     12 Scr=      8
 Normal termination of Gaussian 16 at Fri Jul 24 14:46:08 2020.
