 Entering Gaussian System, Link 0=g16
 Input=mols_66_5_10_c-n-cF-cF_opt_0.gjf
 Output=mols_66_5_10_c-n-cF-cF_opt_0.log
 Initial command:
 /opt/ohpc/pub/libs/gaussian/g16-A.03/sandybridge/g16/l1.exe "/mnt/gpfs2_4m/scratch/rdu230/ondemand/projects/dihedral_energies/7trial/wtuning/mols_66_5_10_c-n-cF-cF/Gau-188777.inp" -scrdir="/mnt/gpfs2_4m/scratch/rdu230/ondemand/projects/dihedral_energies/7trial/wtuning/mols_66_5_10_c-n-cF-cF/"
 Entering Link 1 = /opt/ohpc/pub/libs/gaussian/g16-A.03/sandybridge/g16/l1.exe PID=    188778.
  
 Copyright (c) 1988,1990,1992,1993,1995,1998,2003,2009,2016,
            Gaussian, Inc.  All Rights Reserved.
  
 This is part of the Gaussian(R) 16 program.  It is based on
 the Gaussian(R) 09 system (copyright 2009, Gaussian, Inc.),
 the Gaussian(R) 03 system (copyright 2003, Gaussian, Inc.),
 the Gaussian(R) 98 system (copyright 1998, Gaussian, Inc.),
 the Gaussian(R) 94 system (copyright 1995, Gaussian, Inc.),
 the Gaussian 92(TM) system (copyright 1992, Gaussian, Inc.),
 the Gaussian 90(TM) system (copyright 1990, Gaussian, Inc.),
 the Gaussian 88(TM) system (copyright 1988, Gaussian, Inc.),
 the Gaussian 86(TM) system (copyright 1986, Carnegie Mellon
 University), and the Gaussian 82(TM) system (copyright 1983,
 Carnegie Mellon University). Gaussian is a federally registered
 trademark of Gaussian, Inc.
  
 This software contains proprietary and confidential information,
 including trade secrets, belonging to Gaussian, Inc.
  
 This software is provided under written license and may be
 used, copied, transmitted, or stored only in accord with that
 written license.
  
 The following legend is applicable only to US Government
 contracts under FAR:
  
                    RESTRICTED RIGHTS LEGEND
  
 Use, reproduction and disclosure by the US Government is
 subject to restrictions as set forth in subparagraphs (a)
 and (c) of the Commercial Computer Software - Restricted
 Rights clause in FAR 52.227-19.
  
 Gaussian, Inc.
 340 Quinnipiac St., Bldg. 40, Wallingford CT 06492
  
  
 ---------------------------------------------------------------
 Warning -- This program may not be used in any manner that
 competes with the business of Gaussian, Inc. or will provide
 assistance to any competitor of Gaussian, Inc.  The licensee
 of this program is prohibited from giving any competitor of
 Gaussian, Inc. access to this program.  By using this program,
 the user acknowledges that Gaussian, Inc. is engaged in the
 business of creating and licensing software in the field of
 computational chemistry and represents and warrants to the
 licensee that it is not a competitor of Gaussian, Inc. and that
 it will not use this program in any manner prohibited above.
 ---------------------------------------------------------------
  

 Cite this work as:
 Gaussian 16, Revision A.03,
 M. J. Frisch, G. W. Trucks, H. B. Schlegel, G. E. Scuseria, 
 M. A. Robb, J. R. Cheeseman, G. Scalmani, V. Barone, 
 G. A. Petersson, H. Nakatsuji, X. Li, M. Caricato, A. V. Marenich, 
 J. Bloino, B. G. Janesko, R. Gomperts, B. Mennucci, H. P. Hratchian, 
 J. V. Ortiz, A. F. Izmaylov, J. L. Sonnenberg, D. Williams-Young, 
 F. Ding, F. Lipparini, F. Egidi, J. Goings, B. Peng, A. Petrone, 
 T. Henderson, D. Ranasinghe, V. G. Zakrzewski, J. Gao, N. Rega, 
 G. Zheng, W. Liang, M. Hada, M. Ehara, K. Toyota, R. Fukuda, 
 J. Hasegawa, M. Ishida, T. Nakajima, Y. Honda, O. Kitao, H. Nakai, 
 T. Vreven, K. Throssell, J. A. Montgomery, Jr., J. E. Peralta, 
 F. Ogliaro, M. J. Bearpark, J. J. Heyd, E. N. Brothers, K. N. Kudin, 
 V. N. Staroverov, T. A. Keith, R. Kobayashi, J. Normand, 
 K. Raghavachari, A. P. Rendell, J. C. Burant, S. S. Iyengar, 
 J. Tomasi, M. Cossi, J. M. Millam, M. Klene, C. Adamo, R. Cammi, 
 J. W. Ochterski, R. L. Martin, K. Morokuma, O. Farkas, 
 J. B. Foresman, and D. J. Fox, Gaussian, Inc., Wallingford CT, 2016.
 
 ******************************************
 Gaussian 16:  EM64L-G16RevA.03 25-Dec-2016
                24-Jul-2020 
 ******************************************
 %mem=30GB
 %nproc=8
 Will use up to    8 processors via shared memory.
 ---------------------------------------------------------------
 #P uLC-wPBE/cc-pVDZ iop(3/107=0228100000, 3/108=0228100000) opt
 ---------------------------------------------------------------
 1/18=20,19=15,26=3,38=1/1,3;
 2/9=110,12=2,17=6,18=5,40=1/2;
 3/5=16,11=2,25=1,30=1,71=1,74=-41,107=228100000,108=228100000,116=2/1,2,3;
 4//1;
 5/5=2,38=5/2;
 6/7=2,8=2,9=2,10=2,28=1/1;
 7//1,2,3,16;
 1/18=20,19=15,26=3/3(2);
 2/9=110/2;
 99//99;
 2/9=110/2;
 3/5=16,11=2,25=1,30=1,71=1,74=-41,107=228100000,108=228100000,116=2/1,2,3;
 4/5=5,16=3,69=1/1;
 5/5=2,38=5/2;
 7//1,2,3,16;
 1/18=20,19=15,26=3/3(-5);
 2/9=110/2;
 6/7=2,8=2,9=2,10=2,19=2,28=1/1;
 99/9=1/99;
 Leave Link    1 at Fri Jul 24 15:25:48 2020, MaxMem=  4026531840 cpu:               1.5 elap:               0.2
 (Enter /opt/ohpc/pub/libs/gaussian/g16-A.03/sandybridge/g16/l101.exe)
 --------------
 H27 C55 N5 F10
 --------------
 Symbolic Z-matrix:
 Charge =  0 Multiplicity = 1
 C                     20.57745  -0.0294   -0.51994 
 C                     19.9567  -0.24733   0.73069 
 C                     18.63377  -0.12859   0.80607 
 F                     18.02091  -0.34217   2.02944 
 C                     17.84283   0.01702  -0.36166 
 N                     18.39372   0.12449  -1.53145 
 C                     19.7896   0.1289   -1.64901 
 C                     16.41802   0.08604  -0.27428 
 C                     15.73937   1.05027   0.43224 
 C                     14.28956   1.05644   0.46312 
 C                     13.57445   0.13865  -0.22052 
 C                     14.16496  -0.87788  -0.89757 
 C                     15.62117  -0.83965  -0.94853 
 F                     16.15815  -1.87878  -1.67017 
 C                     12.09529   0.20838  -0.21329 
 C                     11.32837   1.29847  -0.75443 
 C                     9.99055   1.33472  -0.66826 
 F                     9.32622   2.37038  -1.1582 
 C                     9.29478   0.19504  -0.09777 
 N                     9.99143  -0.80736   0.45794 
 C                     11.34954  -0.81699   0.38789 
 C                     7.8478    0.22469   0.07692 
 C                     7.17158   1.24563   0.65792 
 C                     5.76279   1.22982   0.71491 
 C                     4.98372   0.18057   0.23046 
 C                     5.69742  -0.88138  -0.39065 
 C                     7.11133  -0.84805  -0.48408 
 F                     7.72852  -1.93509  -1.09681 
 C                     3.50582   0.06176   0.33771 
 C                     2.90294  -0.4251    1.49368 
 C                     1.54555  -0.48484   1.51257 
 F                     0.92708  -1.03336   2.55356 
 C                     0.80624   0.08465   0.46376 
 N                     1.37087   0.62508  -0.61473 
 C                     2.71519   0.65157  -0.66947 
 C                    -0.67945   0.0927    0.3861 
 C                    -1.41392  -1.10235   0.5319 
 C                    -2.81608  -1.13649   0.46123 
 C                    -3.55442   0.03064   0.41185 
 C                    -2.84447   1.26976   0.25671 
 C                    -1.46037   1.18581   0.25808 
 F                    -0.78883   2.37727   0.17449 
 C                    -5.01674  -0.05286   0.33545 
 C                    -5.762    -0.66932   1.36679 
 C                    -7.18619  -0.71339   1.28633 
 F                    -7.8782   -1.33093   2.19835 
 C                    -7.79989   0.03547   0.20757 
 N                    -7.141     0.7302   -0.68319 
 C                    -5.73057   0.68522  -0.67079 
 C                    -9.25896   0.03296   0.16722 
 C                    -9.97735   1.05871   0.58125 
 C                    -11.41519   1.09988   0.46918 
 C                    -12.07875   0.01883  -0.14097 
 C                    -11.27408  -1.05532  -0.58119 
 C                    -9.90763  -1.08048  -0.46962 
 F                    -9.24804  -2.13309  -0.96508 
 C                    -13.59029  -0.02058  -0.20599 
 C                    -14.27706  -1.09859   0.05632 
 C                    -15.67594  -1.11155  -0.02885 
 F                    -16.41547  -2.23728   0.22276 
 C                    -16.33984   0.02767  -0.45026 
 N                    -15.6486   1.19658  -0.67923 
 C                    -14.24532   1.1358   -0.62282 
 C                    -17.80971   0.13381  -0.67776 
 C                    -18.38069  -0.63911  -1.60319 
 C                    -19.8562  -0.54855  -1.76463 
 C                    -20.6082   0.35083  -1.03521 
 C                    -19.95305   1.07524  -0.08502 
 C                    -18.56101   1.02233   0.16489 
 F                    -17.99677   1.75263   1.03688 
 H                     21.65046  -0.0776   -0.63058 
 H                     20.64489  -0.38051   1.61515 
 H                     20.18359   0.26331  -2.60292 
 H                     16.30714   1.82478   0.97028 
 H                     13.83783   1.85757   1.04503 
 H                     13.63968  -1.59417  -1.51258 
 H                     11.89899   2.12564  -1.24238 
 H                     11.74168  -1.72167   0.86152 
 H                     7.62928   2.07064   1.08539 
 H                     5.16247   2.04538   1.20414 
 H                     5.15565  -1.74301  -0.74343 
 H                     3.44493  -0.8434    2.23026 
 H                     3.18101   1.04084  -1.62793 
 H                    -0.91702  -2.10207   0.65989 
 H                    -3.27876  -2.12194   0.55505 
 H                    -3.32061   2.17322   0.19454 
 H                    -5.30214  -1.23988   2.11059 
 H                    -5.23796   1.16676  -1.44255 
 H                    -9.50282   1.95751   1.13151 
 H                    -11.95476   1.8995    0.97069 
 H                    -11.75403  -1.88871  -1.06376 
 H                    -13.8439  -2.01271   0.37485 
 H                    -13.7646   2.10102  -0.87221 
 H                    -17.81218  -1.33581  -2.2492 
 H                    -20.29998  -1.13513  -2.58176 
 H                    -21.66819   0.43427  -1.17772 
 H                    -20.53523   1.81944   0.60201 
 
 ITRead=  0  0  0  0  0  0  0  0  0  0  0  0  0  0  0  0  0  0  0  0
 ITRead=  0  0  0  0  0  0  0  0  0  0  0  0  0  0  0  0  0  0  0  0
 ITRead=  0  0  0  0  0  0  0  0  0  0  0  0  0  0  0  0  0  0  0  0
 ITRead=  0  0  0  0  0  0  0  0  0  0  0  0  0  0  0  0  0  0  0  0
 ITRead=  0  0  0  0  0  0  0  0  0  0  0  0  0  0  0  0  0
 MicOpt= -1 -1 -1 -1 -1 -1 -1 -1 -1 -1 -1 -1 -1 -1 -1 -1 -1 -1 -1 -1
 MicOpt= -1 -1 -1 -1 -1 -1 -1 -1 -1 -1 -1 -1 -1 -1 -1 -1 -1 -1 -1 -1
 MicOpt= -1 -1 -1 -1 -1 -1 -1 -1 -1 -1 -1 -1 -1 -1 -1 -1 -1 -1 -1 -1
 MicOpt= -1 -1 -1 -1 -1 -1 -1 -1 -1 -1 -1 -1 -1 -1 -1 -1 -1 -1 -1 -1
 MicOpt= -1 -1 -1 -1 -1 -1 -1 -1 -1 -1 -1 -1 -1 -1 -1 -1 -1
 NAtoms=     97 NQM=       97 NQMF=       0 NMMI=      0 NMMIF=      0
                NMic=       0 NMicF=      0.
                    Isotopes and Nuclear Properties:
 (Nuclear quadrupole moments (NQMom) in fm**2, nuclear magnetic moments (NMagM)
  in nuclear magnetons)

  Atom         1           2           3           4           5           6           7           8           9          10
 IAtWgt=          12          12          12          19          12          14          12          12          12          12
 AtmWgt=  12.0000000  12.0000000  12.0000000  18.9984033  12.0000000  14.0030740  12.0000000  12.0000000  12.0000000  12.0000000
 NucSpn=           0           0           0           1           0           2           0           0           0           0
 AtZEff=  -0.0000000  -0.0000000  -0.0000000  -0.0000000  -0.0000000  -0.0000000  -0.0000000  -0.0000000  -0.0000000  -0.0000000
 NQMom=    0.0000000   0.0000000   0.0000000   0.0000000   0.0000000   2.0440000   0.0000000   0.0000000   0.0000000   0.0000000
 NMagM=    0.0000000   0.0000000   0.0000000   2.6288670   0.0000000   0.4037610   0.0000000   0.0000000   0.0000000   0.0000000
 AtZNuc=   6.0000000   6.0000000   6.0000000   9.0000000   6.0000000   7.0000000   6.0000000   6.0000000   6.0000000   6.0000000

  Atom        11          12          13          14          15          16          17          18          19          20
 IAtWgt=          12          12          12          19          12          12          12          19          12          14
 AtmWgt=  12.0000000  12.0000000  12.0000000  18.9984033  12.0000000  12.0000000  12.0000000  18.9984033  12.0000000  14.0030740
 NucSpn=           0           0           0           1           0           0           0           1           0           2
 AtZEff=  -0.0000000  -0.0000000  -0.0000000  -0.0000000  -0.0000000  -0.0000000  -0.0000000  -0.0000000  -0.0000000  -0.0000000
 NQMom=    0.0000000   0.0000000   0.0000000   0.0000000   0.0000000   0.0000000   0.0000000   0.0000000   0.0000000   2.0440000
 NMagM=    0.0000000   0.0000000   0.0000000   2.6288670   0.0000000   0.0000000   0.0000000   2.6288670   0.0000000   0.4037610
 AtZNuc=   6.0000000   6.0000000   6.0000000   9.0000000   6.0000000   6.0000000   6.0000000   9.0000000   6.0000000   7.0000000

  Atom        21          22          23          24          25          26          27          28          29          30
 IAtWgt=          12          12          12          12          12          12          12          19          12          12
 AtmWgt=  12.0000000  12.0000000  12.0000000  12.0000000  12.0000000  12.0000000  12.0000000  18.9984033  12.0000000  12.0000000
 NucSpn=           0           0           0           0           0           0           0           1           0           0
 AtZEff=  -0.0000000  -0.0000000  -0.0000000  -0.0000000  -0.0000000  -0.0000000  -0.0000000  -0.0000000  -0.0000000  -0.0000000
 NQMom=    0.0000000   0.0000000   0.0000000   0.0000000   0.0000000   0.0000000   0.0000000   0.0000000   0.0000000   0.0000000
 NMagM=    0.0000000   0.0000000   0.0000000   0.0000000   0.0000000   0.0000000   0.0000000   2.6288670   0.0000000   0.0000000
 AtZNuc=   6.0000000   6.0000000   6.0000000   6.0000000   6.0000000   6.0000000   6.0000000   9.0000000   6.0000000   6.0000000

  Atom        31          32          33          34          35          36          37          38          39          40
 IAtWgt=          12          19          12          14          12          12          12          12          12          12
 AtmWgt=  12.0000000  18.9984033  12.0000000  14.0030740  12.0000000  12.0000000  12.0000000  12.0000000  12.0000000  12.0000000
 NucSpn=           0           1           0           2           0           0           0           0           0           0
 AtZEff=  -0.0000000  -0.0000000  -0.0000000  -0.0000000  -0.0000000  -0.0000000  -0.0000000  -0.0000000  -0.0000000  -0.0000000
 NQMom=    0.0000000   0.0000000   0.0000000   2.0440000   0.0000000   0.0000000   0.0000000   0.0000000   0.0000000   0.0000000
 NMagM=    0.0000000   2.6288670   0.0000000   0.4037610   0.0000000   0.0000000   0.0000000   0.0000000   0.0000000   0.0000000
 AtZNuc=   6.0000000   9.0000000   6.0000000   7.0000000   6.0000000   6.0000000   6.0000000   6.0000000   6.0000000   6.0000000

  Atom        41          42          43          44          45          46          47          48          49          50
 IAtWgt=          12          19          12          12          12          19          12          14          12          12
 AtmWgt=  12.0000000  18.9984033  12.0000000  12.0000000  12.0000000  18.9984033  12.0000000  14.0030740  12.0000000  12.0000000
 NucSpn=           0           1           0           0           0           1           0           2           0           0
 AtZEff=  -0.0000000  -0.0000000  -0.0000000  -0.0000000  -0.0000000  -0.0000000  -0.0000000  -0.0000000  -0.0000000  -0.0000000
 NQMom=    0.0000000   0.0000000   0.0000000   0.0000000   0.0000000   0.0000000   0.0000000   2.0440000   0.0000000   0.0000000
 NMagM=    0.0000000   2.6288670   0.0000000   0.0000000   0.0000000   2.6288670   0.0000000   0.4037610   0.0000000   0.0000000
 AtZNuc=   6.0000000   9.0000000   6.0000000   6.0000000   6.0000000   9.0000000   6.0000000   7.0000000   6.0000000   6.0000000

  Atom        51          52          53          54          55          56          57          58          59          60
 IAtWgt=          12          12          12          12          12          19          12          12          12          19
 AtmWgt=  12.0000000  12.0000000  12.0000000  12.0000000  12.0000000  18.9984033  12.0000000  12.0000000  12.0000000  18.9984033
 NucSpn=           0           0           0           0           0           1           0           0           0           1
 AtZEff=  -0.0000000  -0.0000000  -0.0000000  -0.0000000  -0.0000000  -0.0000000  -0.0000000  -0.0000000  -0.0000000  -0.0000000
 NQMom=    0.0000000   0.0000000   0.0000000   0.0000000   0.0000000   0.0000000   0.0000000   0.0000000   0.0000000   0.0000000
 NMagM=    0.0000000   0.0000000   0.0000000   0.0000000   0.0000000   2.6288670   0.0000000   0.0000000   0.0000000   2.6288670
 AtZNuc=   6.0000000   6.0000000   6.0000000   6.0000000   6.0000000   9.0000000   6.0000000   6.0000000   6.0000000   9.0000000

  Atom        61          62          63          64          65          66          67          68          69          70
 IAtWgt=          12          14          12          12          12          12          12          12          12          19
 AtmWgt=  12.0000000  14.0030740  12.0000000  12.0000000  12.0000000  12.0000000  12.0000000  12.0000000  12.0000000  18.9984033
 NucSpn=           0           2           0           0           0           0           0           0           0           1
 AtZEff=  -0.0000000  -0.0000000  -0.0000000  -0.0000000  -0.0000000  -0.0000000  -0.0000000  -0.0000000  -0.0000000  -0.0000000
 NQMom=    0.0000000   2.0440000   0.0000000   0.0000000   0.0000000   0.0000000   0.0000000   0.0000000   0.0000000   0.0000000
 NMagM=    0.0000000   0.4037610   0.0000000   0.0000000   0.0000000   0.0000000   0.0000000   0.0000000   0.0000000   2.6288670
 AtZNuc=   6.0000000   7.0000000   6.0000000   6.0000000   6.0000000   6.0000000   6.0000000   6.0000000   6.0000000   9.0000000

  Atom        71          72          73          74          75          76          77          78          79          80
 IAtWgt=           1           1           1           1           1           1           1           1           1           1
 AtmWgt=   1.0078250   1.0078250   1.0078250   1.0078250   1.0078250   1.0078250   1.0078250   1.0078250   1.0078250   1.0078250
 NucSpn=           1           1           1           1           1           1           1           1           1           1
 AtZEff=  -0.0000000  -0.0000000  -0.0000000  -0.0000000  -0.0000000  -0.0000000  -0.0000000  -0.0000000  -0.0000000  -0.0000000
 NQMom=    0.0000000   0.0000000   0.0000000   0.0000000   0.0000000   0.0000000   0.0000000   0.0000000   0.0000000   0.0000000
 NMagM=    2.7928460   2.7928460   2.7928460   2.7928460   2.7928460   2.7928460   2.7928460   2.7928460   2.7928460   2.7928460
 AtZNuc=   1.0000000   1.0000000   1.0000000   1.0000000   1.0000000   1.0000000   1.0000000   1.0000000   1.0000000   1.0000000

  Atom        81          82          83          84          85          86          87          88          89          90
 IAtWgt=           1           1           1           1           1           1           1           1           1           1
 AtmWgt=   1.0078250   1.0078250   1.0078250   1.0078250   1.0078250   1.0078250   1.0078250   1.0078250   1.0078250   1.0078250
 NucSpn=           1           1           1           1           1           1           1           1           1           1
 AtZEff=  -0.0000000  -0.0000000  -0.0000000  -0.0000000  -0.0000000  -0.0000000  -0.0000000  -0.0000000  -0.0000000  -0.0000000
 NQMom=    0.0000000   0.0000000   0.0000000   0.0000000   0.0000000   0.0000000   0.0000000   0.0000000   0.0000000   0.0000000
 NMagM=    2.7928460   2.7928460   2.7928460   2.7928460   2.7928460   2.7928460   2.7928460   2.7928460   2.7928460   2.7928460
 AtZNuc=   1.0000000   1.0000000   1.0000000   1.0000000   1.0000000   1.0000000   1.0000000   1.0000000   1.0000000   1.0000000

  Atom        91          92          93          94          95          96          97
 IAtWgt=           1           1           1           1           1           1           1
 AtmWgt=   1.0078250   1.0078250   1.0078250   1.0078250   1.0078250   1.0078250   1.0078250
 NucSpn=           1           1           1           1           1           1           1
 AtZEff=  -0.0000000  -0.0000000  -0.0000000  -0.0000000  -0.0000000  -0.0000000  -0.0000000
 NQMom=    0.0000000   0.0000000   0.0000000   0.0000000   0.0000000   0.0000000   0.0000000
 NMagM=    2.7928460   2.7928460   2.7928460   2.7928460   2.7928460   2.7928460   2.7928460
 AtZNuc=   1.0000000   1.0000000   1.0000000   1.0000000   1.0000000   1.0000000   1.0000000
 Leave Link  101 at Fri Jul 24 15:25:48 2020, MaxMem=  4026531840 cpu:               2.8 elap:               0.4
 (Enter /opt/ohpc/pub/libs/gaussian/g16-A.03/sandybridge/g16/l103.exe)

 GradGradGradGradGradGradGradGradGradGradGradGradGradGradGradGradGradGrad
 Berny optimization.
 Initialization pass.
                           ----------------------------
                           !    Initial Parameters    !
                           ! (Angstroms and Degrees)  !
 --------------------------                            --------------------------
 ! Name  Definition              Value          Derivative Info.                !
 --------------------------------------------------------------------------------
 ! R1    R(1,2)                  1.4131         estimate D2E/DX2                !
 ! R2    R(1,7)                  1.3858         estimate D2E/DX2                !
 ! R3    R(1,71)                 1.0798         estimate D2E/DX2                !
 ! R4    R(2,3)                  1.3304         estimate D2E/DX2                !
 ! R5    R(2,72)                 1.1285         estimate D2E/DX2                !
 ! R6    R(3,4)                  1.3849         estimate D2E/DX2                !
 ! R7    R(3,5)                  1.4179         estimate D2E/DX2                !
 ! R8    R(5,6)                  1.2975         estimate D2E/DX2                !
 ! R9    R(5,8)                  1.4292         estimate D2E/DX2                !
 ! R10   R(6,7)                  1.4008         estimate D2E/DX2                !
 ! R11   R(7,73)                 1.0408         estimate D2E/DX2                !
 ! R12   R(8,9)                  1.3746         estimate D2E/DX2                !
 ! R13   R(8,13)                 1.3952         estimate D2E/DX2                !
 ! R14   R(9,10)                 1.4501         estimate D2E/DX2                !
 ! R15   R(9,74)                 1.1008         estimate D2E/DX2                !
 ! R16   R(10,11)                1.3495         estimate D2E/DX2                !
 ! R17   R(10,75)                1.0884         estimate D2E/DX2                !
 ! R18   R(11,12)                1.3566         estimate D2E/DX2                !
 ! R19   R(11,15)                1.4808         estimate D2E/DX2                !
 ! R20   R(12,13)                1.4576         estimate D2E/DX2                !
 ! R21   R(12,76)                1.0804         estimate D2E/DX2                !
 ! R22   R(13,14)                1.3744         estimate D2E/DX2                !
 ! R23   R(15,16)                1.4385         estimate D2E/DX2                !
 ! R24   R(15,21)                1.4032         estimate D2E/DX2                !
 ! R25   R(16,17)                1.3411         estimate D2E/DX2                !
 ! R26   R(16,77)                1.1171         estimate D2E/DX2                !
 ! R27   R(17,18)                1.3244         estimate D2E/DX2                !
 ! R28   R(17,19)                1.452          estimate D2E/DX2                !
 ! R29   R(19,20)                1.3412         estimate D2E/DX2                !
 ! R30   R(19,22)                1.4578         estimate D2E/DX2                !
 ! R31   R(20,21)                1.3599         estimate D2E/DX2                !
 ! R32   R(21,78)                1.0939         estimate D2E/DX2                !
 ! R33   R(22,23)                1.3554         estimate D2E/DX2                !
 ! R34   R(22,27)                1.417          estimate D2E/DX2                !
 ! R35   R(23,24)                1.41           estimate D2E/DX2                !
 ! R36   R(23,79)                1.0358         estimate D2E/DX2                !
 ! R37   R(24,25)                1.3938         estimate D2E/DX2                !
 ! R38   R(24,80)                1.1247         estimate D2E/DX2                !
 ! R39   R(25,26)                1.4223         estimate D2E/DX2                !
 ! R40   R(25,29)                1.4865         estimate D2E/DX2                !
 ! R41   R(26,27)                1.4174         estimate D2E/DX2                !
 ! R42   R(26,81)                1.0772         estimate D2E/DX2                !
 ! R43   R(27,28)                1.3921         estimate D2E/DX2                !
 ! R44   R(29,30)                1.3917         estimate D2E/DX2                !
 ! R45   R(29,35)                1.4097         estimate D2E/DX2                !
 ! R46   R(30,31)                1.3588         estimate D2E/DX2                !
 ! R47   R(30,82)                1.0056         estimate D2E/DX2                !
 ! R48   R(31,32)                1.3293         estimate D2E/DX2                !
 ! R49   R(31,33)                1.4039         estimate D2E/DX2                !
 ! R50   R(33,34)                1.3319         estimate D2E/DX2                !
 ! R51   R(33,36)                1.4877         estimate D2E/DX2                !
 ! R52   R(34,35)                1.3457         estimate D2E/DX2                !
 ! R53   R(35,83)                1.1345         estimate D2E/DX2                !
 ! R54   R(36,37)                1.4103         estimate D2E/DX2                !
 ! R55   R(36,41)                1.3495         estimate D2E/DX2                !
 ! R56   R(37,38)                1.4044         estimate D2E/DX2                !
 ! R57   R(37,84)                1.1237         estimate D2E/DX2                !
 ! R58   R(38,39)                1.3819         estimate D2E/DX2                !
 ! R59   R(38,85)                1.0927         estimate D2E/DX2                !
 ! R60   R(39,40)                1.4365         estimate D2E/DX2                !
 ! R61   R(39,43)                1.4667         estimate D2E/DX2                !
 ! R62   R(40,41)                1.3866         estimate D2E/DX2                !
 ! R63   R(40,86)                1.0231         estimate D2E/DX2                !
 ! R64   R(41,42)                1.3702         estimate D2E/DX2                !
 ! R65   R(43,44)                1.4139         estimate D2E/DX2                !
 ! R66   R(43,49)                1.4376         estimate D2E/DX2                !
 ! R67   R(44,45)                1.4271         estimate D2E/DX2                !
 ! R68   R(44,87)                1.0442         estimate D2E/DX2                !
 ! R69   R(45,46)                1.3008         estimate D2E/DX2                !
 ! R70   R(45,47)                1.4495         estimate D2E/DX2                !
 ! R71   R(47,48)                1.3078         estimate D2E/DX2                !
 ! R72   R(47,50)                1.4596         estimate D2E/DX2                !
 ! R73   R(48,49)                1.4112         estimate D2E/DX2                !
 ! R74   R(49,88)                1.0345         estimate D2E/DX2                !
 ! R75   R(50,51)                1.319          estimate D2E/DX2                !
 ! R76   R(50,55)                1.4374         estimate D2E/DX2                !
 ! R77   R(51,52)                1.4428         estimate D2E/DX2                !
 ! R78   R(51,89)                1.1558         estimate D2E/DX2                !
 ! R79   R(52,53)                1.4076         estimate D2E/DX2                !
 ! R80   R(52,90)                1.0872         estimate D2E/DX2                !
 ! R81   R(53,54)                1.4125         estimate D2E/DX2                !
 ! R82   R(53,57)                1.5135         estimate D2E/DX2                !
 ! R83   R(54,55)                1.3712         estimate D2E/DX2                !
 ! R84   R(54,91)                1.076          estimate D2E/DX2                !
 ! R85   R(55,56)                1.3374         estimate D2E/DX2                !
 ! R86   R(57,58)                1.3048         estimate D2E/DX2                !
 ! R87   R(57,63)                1.3929         estimate D2E/DX2                !
 ! R88   R(58,59)                1.4015         estimate D2E/DX2                !
 ! R89   R(58,92)                1.0605         estimate D2E/DX2                !
 ! R90   R(59,60)                1.3702         estimate D2E/DX2                !
 ! R91   R(59,61)                1.3843         estimate D2E/DX2                !
 ! R92   R(61,62)                1.3772         estimate D2E/DX2                !
 ! R93   R(61,64)                1.4912         estimate D2E/DX2                !
 ! R94   R(62,63)                1.4057         estimate D2E/DX2                !
 ! R95   R(63,93)                1.1068         estimate D2E/DX2                !
 ! R96   R(64,65)                1.3341         estimate D2E/DX2                !
 ! R97   R(64,69)                1.4367         estimate D2E/DX2                !
 ! R98   R(65,66)                1.4871         estimate D2E/DX2                !
 ! R99   R(65,94)                1.1072         estimate D2E/DX2                !
 ! R100  R(66,67)                1.3807         estimate D2E/DX2                !
 ! R101  R(66,95)                1.0994         estimate D2E/DX2                !
 ! R102  R(67,68)                1.3627         estimate D2E/DX2                !
 ! R103  R(67,96)                1.0728         estimate D2E/DX2                !
 ! R104  R(68,69)                1.4153         estimate D2E/DX2                !
 ! R105  R(68,97)                1.1682         estimate D2E/DX2                !
 ! R106  R(69,70)                1.2697         estimate D2E/DX2                !
 ! A1    A(2,1,7)              119.2704         estimate D2E/DX2                !
 ! A2    A(2,1,71)             121.3531         estimate D2E/DX2                !
 ! A3    A(7,1,71)             119.1147         estimate D2E/DX2                !
 ! A4    A(1,2,3)              118.2414         estimate D2E/DX2                !
 ! A5    A(1,2,72)             116.3552         estimate D2E/DX2                !
 ! A6    A(3,2,72)             124.9258         estimate D2E/DX2                !
 ! A7    A(2,3,4)              118.447          estimate D2E/DX2                !
 ! A8    A(2,3,5)              121.1453         estimate D2E/DX2                !
 ! A9    A(4,3,5)              119.7696         estimate D2E/DX2                !
 ! A10   A(3,5,6)              120.9432         estimate D2E/DX2                !
 ! A11   A(3,5,8)              120.713          estimate D2E/DX2                !
 ! A12   A(6,5,8)              118.3217         estimate D2E/DX2                !
 ! A13   A(5,6,7)              119.9346         estimate D2E/DX2                !
 ! A14   A(1,7,6)              119.8514         estimate D2E/DX2                !
 ! A15   A(1,7,73)             123.1106         estimate D2E/DX2                !
 ! A16   A(6,7,73)             117.0353         estimate D2E/DX2                !
 ! A17   A(5,8,9)              123.8844         estimate D2E/DX2                !
 ! A18   A(5,8,13)             120.5186         estimate D2E/DX2                !
 ! A19   A(9,8,13)             115.5845         estimate D2E/DX2                !
 ! A20   A(8,9,10)             120.4991         estimate D2E/DX2                !
 ! A21   A(8,9,74)             119.349          estimate D2E/DX2                !
 ! A22   A(10,9,74)            120.1504         estimate D2E/DX2                !
 ! A23   A(9,10,11)            121.0723         estimate D2E/DX2                !
 ! A24   A(9,10,75)            115.4347         estimate D2E/DX2                !
 ! A25   A(11,10,75)           123.4725         estimate D2E/DX2                !
 ! A26   A(10,11,12)           122.1252         estimate D2E/DX2                !
 ! A27   A(10,11,15)           119.6587         estimate D2E/DX2                !
 ! A28   A(12,11,15)           118.1973         estimate D2E/DX2                !
 ! A29   A(11,12,13)           115.6366         estimate D2E/DX2                !
 ! A30   A(11,12,76)           124.6987         estimate D2E/DX2                !
 ! A31   A(13,12,76)           118.8952         estimate D2E/DX2                !
 ! A32   A(8,13,12)            124.8272         estimate D2E/DX2                !
 ! A33   A(8,13,14)            122.158          estimate D2E/DX2                !
 ! A34   A(12,13,14)           112.8841         estimate D2E/DX2                !
 ! A35   A(11,15,16)           124.4983         estimate D2E/DX2                !
 ! A36   A(11,15,21)           119.9049         estimate D2E/DX2                !
 ! A37   A(16,15,21)           115.5675         estimate D2E/DX2                !
 ! A38   A(15,16,17)           121.8809         estimate D2E/DX2                !
 ! A39   A(15,16,77)           116.9429         estimate D2E/DX2                !
 ! A40   A(17,16,77)           121.1723         estimate D2E/DX2                !
 ! A41   A(16,17,18)           119.8524         estimate D2E/DX2                !
 ! A42   A(16,17,19)           118.818          estimate D2E/DX2                !
 ! A43   A(18,17,19)           121.2493         estimate D2E/DX2                !
 ! A44   A(17,19,20)           120.0326         estimate D2E/DX2                !
 ! A45   A(17,19,22)           120.4461         estimate D2E/DX2                !
 ! A46   A(20,19,22)           118.7578         estimate D2E/DX2                !
 ! A47   A(19,20,21)           120.1754         estimate D2E/DX2                !
 ! A48   A(15,21,20)           123.2058         estimate D2E/DX2                !
 ! A49   A(15,21,78)           126.8226         estimate D2E/DX2                !
 ! A50   A(20,21,78)           109.9715         estimate D2E/DX2                !
 ! A51   A(19,22,23)           124.1866         estimate D2E/DX2                !
 ! A52   A(19,22,27)           116.9394         estimate D2E/DX2                !
 ! A53   A(23,22,27)           118.7271         estimate D2E/DX2                !
 ! A54   A(22,23,24)           120.4871         estimate D2E/DX2                !
 ! A55   A(22,23,79)           123.8071         estimate D2E/DX2                !
 ! A56   A(24,23,79)           115.7052         estimate D2E/DX2                !
 ! A57   A(23,24,25)           123.5641         estimate D2E/DX2                !
 ! A58   A(23,24,80)           122.8721         estimate D2E/DX2                !
 ! A59   A(25,24,80)           113.4996         estimate D2E/DX2                !
 ! A60   A(24,25,26)           115.6831         estimate D2E/DX2                !
 ! A61   A(24,25,29)           126.2147         estimate D2E/DX2                !
 ! A62   A(26,25,29)           118.0806         estimate D2E/DX2                !
 ! A63   A(25,26,27)           120.7838         estimate D2E/DX2                !
 ! A64   A(25,26,81)           119.2005         estimate D2E/DX2                !
 ! A65   A(27,26,81)           119.9291         estimate D2E/DX2                !
 ! A66   A(22,27,26)           120.6752         estimate D2E/DX2                !
 ! A67   A(22,27,28)           122.3418         estimate D2E/DX2                !
 ! A68   A(26,27,28)           116.9307         estimate D2E/DX2                !
 ! A69   A(25,29,30)           121.2369         estimate D2E/DX2                !
 ! A70   A(25,29,35)           118.2019         estimate D2E/DX2                !
 ! A71   A(30,29,35)           119.7918         estimate D2E/DX2                !
 ! A72   A(29,30,31)           117.3659         estimate D2E/DX2                !
 ! A73   A(29,30,82)           121.3622         estimate D2E/DX2                !
 ! A74   A(31,30,82)           120.658          estimate D2E/DX2                !
 ! A75   A(30,31,32)           119.5903         estimate D2E/DX2                !
 ! A76   A(30,31,33)           119.857          estimate D2E/DX2                !
 ! A77   A(32,31,33)           120.4918         estimate D2E/DX2                !
 ! A78   A(31,33,34)           123.1119         estimate D2E/DX2                !
 ! A79   A(31,33,36)           124.547          estimate D2E/DX2                !
 ! A80   A(34,33,36)           112.2641         estimate D2E/DX2                !
 ! A81   A(33,34,35)           117.6722         estimate D2E/DX2                !
 ! A82   A(29,35,34)           121.5309         estimate D2E/DX2                !
 ! A83   A(29,35,83)           121.1211         estimate D2E/DX2                !
 ! A84   A(34,35,83)           116.826          estimate D2E/DX2                !
 ! A85   A(33,36,37)           120.6713         estimate D2E/DX2                !
 ! A86   A(33,36,41)           125.9595         estimate D2E/DX2                !
 ! A87   A(37,36,41)           113.2553         estimate D2E/DX2                !
 ! A88   A(36,37,38)           122.3707         estimate D2E/DX2                !
 ! A89   A(36,37,84)           122.3685         estimate D2E/DX2                !
 ! A90   A(38,37,84)           115.189          estimate D2E/DX2                !
 ! A91   A(37,38,39)           120.9778         estimate D2E/DX2                !
 ! A92   A(37,38,85)           116.1278         estimate D2E/DX2                !
 ! A93   A(39,38,85)           122.5817         estimate D2E/DX2                !
 ! A94   A(38,39,40)           117.9251         estimate D2E/DX2                !
 ! A95   A(38,39,43)           119.1087         estimate D2E/DX2                !
 ! A96   A(40,39,43)           122.4273         estimate D2E/DX2                !
 ! A97   A(39,40,41)           116.1669         estimate D2E/DX2                !
 ! A98   A(39,40,86)           122.5654         estimate D2E/DX2                !
 ! A99   A(41,40,86)           121.2008         estimate D2E/DX2                !
 ! A100  A(36,41,40)           128.8109         estimate D2E/DX2                !
 ! A101  A(36,41,42)           115.2467         estimate D2E/DX2                !
 ! A102  A(40,41,42)           115.8803         estimate D2E/DX2                !
 ! A103  A(39,43,44)           120.8202         estimate D2E/DX2                !
 ! A104  A(39,43,49)           120.1512         estimate D2E/DX2                !
 ! A105  A(44,43,49)           118.2075         estimate D2E/DX2                !
 ! A106  A(43,44,45)           119.8907         estimate D2E/DX2                !
 ! A107  A(43,44,87)           121.717          estimate D2E/DX2                !
 ! A108  A(45,44,87)           117.5669         estimate D2E/DX2                !
 ! A109  A(44,45,46)           120.3996         estimate D2E/DX2                !
 ! A110  A(44,45,47)           116.6478         estimate D2E/DX2                !
 ! A111  A(46,45,47)           122.8081         estimate D2E/DX2                !
 ! A112  A(45,47,48)           124.614          estimate D2E/DX2                !
 ! A113  A(45,47,50)           116.2891         estimate D2E/DX2                !
 ! A114  A(48,47,50)           119.0598         estimate D2E/DX2                !
 ! A115  A(47,48,49)           118.727          estimate D2E/DX2                !
 ! A116  A(43,49,48)           121.25           estimate D2E/DX2                !
 ! A117  A(43,49,88)           121.6482         estimate D2E/DX2                !
 ! A118  A(48,49,88)           117.0348         estimate D2E/DX2                !
 ! A119  A(47,50,51)           122.3059         estimate D2E/DX2                !
 ! A120  A(47,50,55)           117.6902         estimate D2E/DX2                !
 ! A121  A(51,50,55)           119.716          estimate D2E/DX2                !
 ! A122  A(50,51,52)           122.7245         estimate D2E/DX2                !
 ! A123  A(50,51,89)           122.0467         estimate D2E/DX2                !
 ! A124  A(52,51,89)           115.0847         estimate D2E/DX2                !
 ! A125  A(51,52,53)           118.7876         estimate D2E/DX2                !
 ! A126  A(51,52,90)           118.6684         estimate D2E/DX2                !
 ! A127  A(53,52,90)           122.0631         estimate D2E/DX2                !
 ! A128  A(52,53,54)           116.7821         estimate D2E/DX2                !
 ! A129  A(52,53,57)           120.6272         estimate D2E/DX2                !
 ! A130  A(54,53,57)           122.3965         estimate D2E/DX2                !
 ! A131  A(53,54,55)           123.8            estimate D2E/DX2                !
 ! A132  A(53,54,91)           118.3387         estimate D2E/DX2                !
 ! A133  A(55,54,91)           117.8251         estimate D2E/DX2                !
 ! A134  A(50,55,54)           118.1348         estimate D2E/DX2                !
 ! A135  A(50,55,56)           123.4536         estimate D2E/DX2                !
 ! A136  A(54,55,56)           118.4102         estimate D2E/DX2                !
 ! A137  A(53,57,58)           122.5842         estimate D2E/DX2                !
 ! A138  A(53,57,63)           117.4466         estimate D2E/DX2                !
 ! A139  A(58,57,63)           119.9046         estimate D2E/DX2                !
 ! A140  A(57,58,59)           121.3829         estimate D2E/DX2                !
 ! A141  A(57,58,92)           123.8853         estimate D2E/DX2                !
 ! A142  A(59,58,92)           114.7052         estimate D2E/DX2                !
 ! A143  A(58,59,60)           122.3532         estimate D2E/DX2                !
 ! A144  A(58,59,61)           119.3137         estimate D2E/DX2                !
 ! A145  A(60,59,61)           118.2414         estimate D2E/DX2                !
 ! A146  A(59,61,62)           120.5582         estimate D2E/DX2                !
 ! A147  A(59,61,64)           125.2952         estimate D2E/DX2                !
 ! A148  A(62,61,64)           114.1409         estimate D2E/DX2                !
 ! A149  A(61,62,63)           117.2381         estimate D2E/DX2                !
 ! A150  A(57,63,62)           121.1553         estimate D2E/DX2                !
 ! A151  A(57,63,93)           125.96           estimate D2E/DX2                !
 ! A152  A(62,63,93)           112.7582         estimate D2E/DX2                !
 ! A153  A(61,64,65)           119.1087         estimate D2E/DX2                !
 ! A154  A(61,64,69)           118.0356         estimate D2E/DX2                !
 ! A155  A(65,64,69)           122.7763         estimate D2E/DX2                !
 ! A156  A(64,65,66)           117.6895         estimate D2E/DX2                !
 ! A157  A(64,65,94)           123.3343         estimate D2E/DX2                !
 ! A158  A(66,65,94)           118.9762         estimate D2E/DX2                !
 ! A159  A(65,66,67)           121.5146         estimate D2E/DX2                !
 ! A160  A(65,66,95)           116.6606         estimate D2E/DX2                !
 ! A161  A(67,66,95)           121.3545         estimate D2E/DX2                !
 ! A162  A(66,67,68)           116.9236         estimate D2E/DX2                !
 ! A163  A(66,67,96)           121.2405         estimate D2E/DX2                !
 ! A164  A(68,67,96)           121.758          estimate D2E/DX2                !
 ! A165  A(67,68,69)           125.1796         estimate D2E/DX2                !
 ! A166  A(67,68,97)           120.6063         estimate D2E/DX2                !
 ! A167  A(69,68,97)           114.2129         estimate D2E/DX2                !
 ! A168  A(64,69,68)           115.7161         estimate D2E/DX2                !
 ! A169  A(64,69,70)           121.7465         estimate D2E/DX2                !
 ! A170  A(68,69,70)           122.4704         estimate D2E/DX2                !
 ! D1    D(7,1,2,3)             -8.1598         estimate D2E/DX2                !
 ! D2    D(7,1,2,72)           179.3732         estimate D2E/DX2                !
 ! D3    D(71,1,2,3)           177.7704         estimate D2E/DX2                !
 ! D4    D(71,1,2,72)            5.3035         estimate D2E/DX2                !
 ! D5    D(2,1,7,6)              2.5242         estimate D2E/DX2                !
 ! D6    D(2,1,7,73)          -178.0823         estimate D2E/DX2                !
 ! D7    D(71,1,7,6)           176.728          estimate D2E/DX2                !
 ! D8    D(71,1,7,73)           -3.8785         estimate D2E/DX2                !
 ! D9    D(1,2,3,4)            179.9554         estimate D2E/DX2                !
 ! D10   D(1,2,3,5)              9.1352         estimate D2E/DX2                !
 ! D11   D(72,2,3,4)            -8.2821         estimate D2E/DX2                !
 ! D12   D(72,2,3,5)          -179.1024         estimate D2E/DX2                !
 ! D13   D(2,3,5,6)             -4.4493         estimate D2E/DX2                !
 ! D14   D(2,3,5,8)            177.2888         estimate D2E/DX2                !
 ! D15   D(4,3,5,6)           -175.1497         estimate D2E/DX2                !
 ! D16   D(4,3,5,8)              6.5884         estimate D2E/DX2                !
 ! D17   D(3,5,6,7)             -1.499          estimate D2E/DX2                !
 ! D18   D(8,5,6,7)            176.8035         estimate D2E/DX2                !
 ! D19   D(3,5,8,9)             59.6525         estimate D2E/DX2                !
 ! D20   D(3,5,8,13)          -121.6945         estimate D2E/DX2                !
 ! D21   D(6,5,8,9)           -118.6541         estimate D2E/DX2                !
 ! D22   D(6,5,8,13)            59.9989         estimate D2E/DX2                !
 ! D23   D(5,6,7,1)              2.2926         estimate D2E/DX2                !
 ! D24   D(5,6,7,73)          -177.1371         estimate D2E/DX2                !
 ! D25   D(5,8,9,10)           179.541          estimate D2E/DX2                !
 ! D26   D(5,8,9,74)            -0.015          estimate D2E/DX2                !
 ! D27   D(13,8,9,10)            0.8275         estimate D2E/DX2                !
 ! D28   D(13,8,9,74)         -178.7285         estimate D2E/DX2                !
 ! D29   D(5,8,13,12)          178.3445         estimate D2E/DX2                !
 ! D30   D(5,8,13,14)            2.7992         estimate D2E/DX2                !
 ! D31   D(9,8,13,12)           -2.8953         estimate D2E/DX2                !
 ! D32   D(9,8,13,14)         -178.4406         estimate D2E/DX2                !
 ! D33   D(8,9,10,11)           -1.4475         estimate D2E/DX2                !
 ! D34   D(8,9,10,75)         -179.856          estimate D2E/DX2                !
 ! D35   D(74,9,10,11)         178.105          estimate D2E/DX2                !
 ! D36   D(74,9,10,75)          -0.3036         estimate D2E/DX2                !
 ! D37   D(9,10,11,12)           4.1793         estimate D2E/DX2                !
 ! D38   D(9,10,11,15)        -177.4311         estimate D2E/DX2                !
 ! D39   D(75,10,11,12)       -177.5436         estimate D2E/DX2                !
 ! D40   D(75,10,11,15)          0.846          estimate D2E/DX2                !
 ! D41   D(10,11,12,13)         -5.7948         estimate D2E/DX2                !
 ! D42   D(10,11,12,76)       -175.5949         estimate D2E/DX2                !
 ! D43   D(15,11,12,13)        175.7931         estimate D2E/DX2                !
 ! D44   D(15,11,12,76)          5.993          estimate D2E/DX2                !
 ! D45   D(10,11,15,16)         63.2318         estimate D2E/DX2                !
 ! D46   D(10,11,15,21)       -114.7084         estimate D2E/DX2                !
 ! D47   D(12,11,15,16)       -118.3156         estimate D2E/DX2                !
 ! D48   D(12,11,15,21)         63.7441         estimate D2E/DX2                !
 ! D49   D(11,12,13,8)           5.3509         estimate D2E/DX2                !
 ! D50   D(11,12,13,14)       -178.7419         estimate D2E/DX2                !
 ! D51   D(76,12,13,8)         175.7786         estimate D2E/DX2                !
 ! D52   D(76,12,13,14)         -8.3143         estimate D2E/DX2                !
 ! D53   D(11,15,16,17)       -177.0603         estimate D2E/DX2                !
 ! D54   D(11,15,16,77)          2.2282         estimate D2E/DX2                !
 ! D55   D(21,15,16,17)          0.9604         estimate D2E/DX2                !
 ! D56   D(21,15,16,77)       -179.7511         estimate D2E/DX2                !
 ! D57   D(11,15,21,20)        178.5627         estimate D2E/DX2                !
 ! D58   D(11,15,21,78)         -1.3537         estimate D2E/DX2                !
 ! D59   D(16,15,21,20)          0.4444         estimate D2E/DX2                !
 ! D60   D(16,15,21,78)       -179.4719         estimate D2E/DX2                !
 ! D61   D(15,16,17,18)        178.7245         estimate D2E/DX2                !
 ! D62   D(15,16,17,19)         -4.4939         estimate D2E/DX2                !
 ! D63   D(77,16,17,18)         -0.5342         estimate D2E/DX2                !
 ! D64   D(77,16,17,19)        176.2474         estimate D2E/DX2                !
 ! D65   D(16,17,19,20)          6.9347         estimate D2E/DX2                !
 ! D66   D(16,17,19,22)        176.8032         estimate D2E/DX2                !
 ! D67   D(18,17,19,20)       -176.3305         estimate D2E/DX2                !
 ! D68   D(18,17,19,22)         -6.4619         estimate D2E/DX2                !
 ! D69   D(17,19,20,21)         -5.6611         estimate D2E/DX2                !
 ! D70   D(22,19,20,21)       -175.6996         estimate D2E/DX2                !
 ! D71   D(17,19,22,23)        -48.937          estimate D2E/DX2                !
 ! D72   D(17,19,22,27)        126.5898         estimate D2E/DX2                !
 ! D73   D(20,19,22,23)        121.0591         estimate D2E/DX2                !
 ! D74   D(20,19,22,27)        -63.4141         estimate D2E/DX2                !
 ! D75   D(19,20,21,15)          2.0396         estimate D2E/DX2                !
 ! D76   D(19,20,21,78)       -178.0316         estimate D2E/DX2                !
 ! D77   D(19,22,23,24)        176.1747         estimate D2E/DX2                !
 ! D78   D(19,22,23,79)         -4.0986         estimate D2E/DX2                !
 ! D79   D(27,22,23,24)          0.7224         estimate D2E/DX2                !
 ! D80   D(27,22,23,79)       -179.551          estimate D2E/DX2                !
 ! D81   D(19,22,27,26)       -178.3911         estimate D2E/DX2                !
 ! D82   D(19,22,27,28)          4.3208         estimate D2E/DX2                !
 ! D83   D(23,22,27,26)         -2.6102         estimate D2E/DX2                !
 ! D84   D(23,22,27,28)       -179.8984         estimate D2E/DX2                !
 ! D85   D(22,23,24,25)          1.915          estimate D2E/DX2                !
 ! D86   D(22,23,24,80)        178.8092         estimate D2E/DX2                !
 ! D87   D(79,23,24,25)       -177.8329         estimate D2E/DX2                !
 ! D88   D(79,23,24,80)         -0.9387         estimate D2E/DX2                !
 ! D89   D(23,24,25,26)         -2.4678         estimate D2E/DX2                !
 ! D90   D(23,24,25,29)        175.7988         estimate D2E/DX2                !
 ! D91   D(80,24,25,26)       -179.6236         estimate D2E/DX2                !
 ! D92   D(80,24,25,29)         -1.357          estimate D2E/DX2                !
 ! D93   D(24,25,26,27)          0.5037         estimate D2E/DX2                !
 ! D94   D(24,25,26,81)        177.1182         estimate D2E/DX2                !
 ! D95   D(29,25,26,27)       -177.9112         estimate D2E/DX2                !
 ! D96   D(29,25,26,81)         -1.2967         estimate D2E/DX2                !
 ! D97   D(24,25,29,30)        -82.5379         estimate D2E/DX2                !
 ! D98   D(24,25,29,35)         87.3919         estimate D2E/DX2                !
 ! D99   D(26,25,29,30)         95.6915         estimate D2E/DX2                !
 ! D100  D(26,25,29,35)        -94.3787         estimate D2E/DX2                !
 ! D101  D(25,26,27,22)          1.9944         estimate D2E/DX2                !
 ! D102  D(25,26,27,28)        179.4246         estimate D2E/DX2                !
 ! D103  D(81,26,27,22)       -174.5955         estimate D2E/DX2                !
 ! D104  D(81,26,27,28)          2.8347         estimate D2E/DX2                !
 ! D105  D(25,29,30,31)        179.2058         estimate D2E/DX2                !
 ! D106  D(25,29,30,82)         -9.7215         estimate D2E/DX2                !
 ! D107  D(35,29,30,31)          9.4337         estimate D2E/DX2                !
 ! D108  D(35,29,30,82)       -179.4936         estimate D2E/DX2                !
 ! D109  D(25,29,35,34)       -177.646          estimate D2E/DX2                !
 ! D110  D(25,29,35,83)         10.9051         estimate D2E/DX2                !
 ! D111  D(30,29,35,34)         -7.566          estimate D2E/DX2                !
 ! D112  D(30,29,35,83)       -179.0149         estimate D2E/DX2                !
 ! D113  D(29,30,31,32)        175.0663         estimate D2E/DX2                !
 ! D114  D(29,30,31,33)         -7.7583         estimate D2E/DX2                !
 ! D115  D(82,30,31,32)          3.9274         estimate D2E/DX2                !
 ! D116  D(82,30,31,33)       -178.8972         estimate D2E/DX2                !
 ! D117  D(30,31,33,34)          4.1545         estimate D2E/DX2                !
 ! D118  D(30,31,33,36)       -179.2874         estimate D2E/DX2                !
 ! D119  D(32,31,33,34)       -178.696          estimate D2E/DX2                !
 ! D120  D(32,31,33,36)         -2.1379         estimate D2E/DX2                !
 ! D121  D(31,33,34,35)         -1.874          estimate D2E/DX2                !
 ! D122  D(36,33,34,35)       -178.811          estimate D2E/DX2                !
 ! D123  D(31,33,36,37)        -52.017          estimate D2E/DX2                !
 ! D124  D(31,33,36,41)        123.8334         estimate D2E/DX2                !
 ! D125  D(34,33,36,37)        124.8681         estimate D2E/DX2                !
 ! D126  D(34,33,36,41)        -59.2815         estimate D2E/DX2                !
 ! D127  D(33,34,35,29)          3.5903         estimate D2E/DX2                !
 ! D128  D(33,34,35,83)        175.3895         estimate D2E/DX2                !
 ! D129  D(33,36,37,38)       -179.8194         estimate D2E/DX2                !
 ! D130  D(33,36,37,84)         -3.0491         estimate D2E/DX2                !
 ! D131  D(41,36,37,38)          3.8357         estimate D2E/DX2                !
 ! D132  D(41,36,37,84)       -179.3941         estimate D2E/DX2                !
 ! D133  D(33,36,41,40)       -175.9268         estimate D2E/DX2                !
 ! D134  D(33,36,41,42)          1.0578         estimate D2E/DX2                !
 ! D135  D(37,36,41,40)          0.189          estimate D2E/DX2                !
 ! D136  D(37,36,41,42)        177.1736         estimate D2E/DX2                !
 ! D137  D(36,37,38,39)         -8.23           estimate D2E/DX2                !
 ! D138  D(36,37,38,85)        178.0312         estimate D2E/DX2                !
 ! D139  D(84,37,38,39)        174.7843         estimate D2E/DX2                !
 ! D140  D(84,37,38,85)          1.0456         estimate D2E/DX2                !
 ! D141  D(37,38,39,40)          8.0686         estimate D2E/DX2                !
 ! D142  D(37,38,39,43)        179.8573         estimate D2E/DX2                !
 ! D143  D(85,38,39,40)       -178.6045         estimate D2E/DX2                !
 ! D144  D(85,38,39,43)         -6.8159         estimate D2E/DX2                !
 ! D145  D(38,39,40,41)         -4.0922         estimate D2E/DX2                !
 ! D146  D(38,39,40,86)        178.8519         estimate D2E/DX2                !
 ! D147  D(43,39,40,41)       -175.5905         estimate D2E/DX2                !
 ! D148  D(43,39,40,86)          7.3536         estimate D2E/DX2                !
 ! D149  D(38,39,43,44)         61.1608         estimate D2E/DX2                !
 ! D150  D(38,39,43,49)       -129.4004         estimate D2E/DX2                !
 ! D151  D(40,39,43,44)       -127.4375         estimate D2E/DX2                !
 ! D152  D(40,39,43,49)         42.0013         estimate D2E/DX2                !
 ! D153  D(39,40,41,36)         -0.0072         estimate D2E/DX2                !
 ! D154  D(39,40,41,42)       -176.9758         estimate D2E/DX2                !
 ! D155  D(86,40,41,36)        177.092          estimate D2E/DX2                !
 ! D156  D(86,40,41,42)          0.1234         estimate D2E/DX2                !
 ! D157  D(39,43,44,45)        178.6158         estimate D2E/DX2                !
 ! D158  D(39,43,44,87)        -12.0415         estimate D2E/DX2                !
 ! D159  D(49,43,44,45)          8.9765         estimate D2E/DX2                !
 ! D160  D(49,43,44,87)        178.3193         estimate D2E/DX2                !
 ! D161  D(39,43,49,48)       -173.5357         estimate D2E/DX2                !
 ! D162  D(39,43,49,88)          9.5297         estimate D2E/DX2                !
 ! D163  D(44,43,49,48)         -3.8247         estimate D2E/DX2                !
 ! D164  D(44,43,49,88)        179.2407         estimate D2E/DX2                !
 ! D165  D(43,44,45,46)        176.8585         estimate D2E/DX2                !
 ! D166  D(43,44,45,47)         -7.389          estimate D2E/DX2                !
 ! D167  D(87,44,45,46)          7.0805         estimate D2E/DX2                !
 ! D168  D(87,44,45,47)       -177.1671         estimate D2E/DX2                !
 ! D169  D(44,45,47,48)          0.3467         estimate D2E/DX2                !
 ! D170  D(44,45,47,50)       -177.4082         estimate D2E/DX2                !
 ! D171  D(46,45,47,48)        175.9876         estimate D2E/DX2                !
 ! D172  D(46,45,47,50)         -1.7673         estimate D2E/DX2                !
 ! D173  D(45,47,48,49)          4.7954         estimate D2E/DX2                !
 ! D174  D(50,47,48,49)       -177.5074         estimate D2E/DX2                !
 ! D175  D(45,47,50,51)        102.3481         estimate D2E/DX2                !
 ! D176  D(45,47,50,55)        -83.8388         estimate D2E/DX2                !
 ! D177  D(48,47,50,51)        -75.5381         estimate D2E/DX2                !
 ! D178  D(48,47,50,55)         98.275          estimate D2E/DX2                !
 ! D179  D(47,48,49,43)         -3.0247         estimate D2E/DX2                !
 ! D180  D(47,48,49,88)        174.0457         estimate D2E/DX2                !
 ! D181  D(47,50,51,52)        176.0525         estimate D2E/DX2                !
 ! D182  D(47,50,51,89)         -8.5276         estimate D2E/DX2                !
 ! D183  D(55,50,51,52)          2.3609         estimate D2E/DX2                !
 ! D184  D(55,50,51,89)        177.7808         estimate D2E/DX2                !
 ! D185  D(47,50,55,54)       -176.3097         estimate D2E/DX2                !
 ! D186  D(47,50,55,56)          3.2588         estimate D2E/DX2                !
 ! D187  D(51,50,55,54)         -2.3301         estimate D2E/DX2                !
 ! D188  D(51,50,55,56)        177.2384         estimate D2E/DX2                !
 ! D189  D(50,51,52,53)         -1.8475         estimate D2E/DX2                !
 ! D190  D(50,51,52,90)        170.3634         estimate D2E/DX2                !
 ! D191  D(89,51,52,53)       -177.5616         estimate D2E/DX2                !
 ! D192  D(89,51,52,90)         -5.3507         estimate D2E/DX2                !
 ! D193  D(51,52,53,54)          1.2375         estimate D2E/DX2                !
 ! D194  D(51,52,53,57)        176.2924         estimate D2E/DX2                !
 ! D195  D(90,52,53,54)       -170.6963         estimate D2E/DX2                !
 ! D196  D(90,52,53,57)          4.3586         estimate D2E/DX2                !
 ! D197  D(52,53,54,55)         -1.3875         estimate D2E/DX2                !
 ! D198  D(52,53,54,91)       -179.1483         estimate D2E/DX2                !
 ! D199  D(57,53,54,55)       -176.3477         estimate D2E/DX2                !
 ! D200  D(57,53,54,91)          5.8915         estimate D2E/DX2                !
 ! D201  D(52,53,57,58)       -135.9524         estimate D2E/DX2                !
 ! D202  D(52,53,57,63)         46.9768         estimate D2E/DX2                !
 ! D203  D(54,53,57,58)         38.8185         estimate D2E/DX2                !
 ! D204  D(54,53,57,63)       -138.2522         estimate D2E/DX2                !
 ! D205  D(53,54,55,50)          1.8868         estimate D2E/DX2                !
 ! D206  D(53,54,55,56)       -177.7039         estimate D2E/DX2                !
 ! D207  D(91,54,55,50)        179.6583         estimate D2E/DX2                !
 ! D208  D(91,54,55,56)          0.0676         estimate D2E/DX2                !
 ! D209  D(53,57,58,59)       -179.1457         estimate D2E/DX2                !
 ! D210  D(53,57,58,92)          2.8289         estimate D2E/DX2                !
 ! D211  D(63,57,58,59)         -2.1446         estimate D2E/DX2                !
 ! D212  D(63,57,58,92)        179.83           estimate D2E/DX2                !
 ! D213  D(53,57,63,62)       -178.365          estimate D2E/DX2                !
 ! D214  D(53,57,63,93)         -2.7576         estimate D2E/DX2                !
 ! D215  D(58,57,63,62)          4.4822         estimate D2E/DX2                !
 ! D216  D(58,57,63,93)       -179.9104         estimate D2E/DX2                !
 ! D217  D(57,58,59,60)        179.007          estimate D2E/DX2                !
 ! D218  D(57,58,59,61)          2.5508         estimate D2E/DX2                !
 ! D219  D(92,58,59,60)         -2.7973         estimate D2E/DX2                !
 ! D220  D(92,58,59,61)       -179.2536         estimate D2E/DX2                !
 ! D221  D(58,59,61,62)         -5.2991         estimate D2E/DX2                !
 ! D222  D(58,59,61,64)        175.6184         estimate D2E/DX2                !
 ! D223  D(60,59,61,62)        178.0989         estimate D2E/DX2                !
 ! D224  D(60,59,61,64)         -0.9836         estimate D2E/DX2                !
 ! D225  D(59,61,62,63)          7.3916         estimate D2E/DX2                !
 ! D226  D(64,61,62,63)       -173.429          estimate D2E/DX2                !
 ! D227  D(59,61,64,65)        -61.3926         estimate D2E/DX2                !
 ! D228  D(59,61,64,69)        115.4575         estimate D2E/DX2                !
 ! D229  D(62,61,64,65)        119.4732         estimate D2E/DX2                !
 ! D230  D(62,61,64,69)        -63.6767         estimate D2E/DX2                !
 ! D231  D(61,62,63,57)         -7.0138         estimate D2E/DX2                !
 ! D232  D(61,62,63,93)        176.841          estimate D2E/DX2                !
 ! D233  D(61,64,65,66)        177.5013         estimate D2E/DX2                !
 ! D234  D(61,64,65,94)         -2.556          estimate D2E/DX2                !
 ! D235  D(69,64,65,66)          0.8083         estimate D2E/DX2                !
 ! D236  D(69,64,65,94)       -179.249          estimate D2E/DX2                !
 ! D237  D(61,64,69,68)       -179.409          estimate D2E/DX2                !
 ! D238  D(61,64,69,70)          3.4987         estimate D2E/DX2                !
 ! D239  D(65,64,69,68)         -2.6824         estimate D2E/DX2                !
 ! D240  D(65,64,69,70)       -179.7746         estimate D2E/DX2                !
 ! D241  D(64,65,66,67)          3.2921         estimate D2E/DX2                !
 ! D242  D(64,65,66,95)        175.5239         estimate D2E/DX2                !
 ! D243  D(94,65,66,67)       -176.6531         estimate D2E/DX2                !
 ! D244  D(94,65,66,95)         -4.4213         estimate D2E/DX2                !
 ! D245  D(65,66,67,68)         -5.1325         estimate D2E/DX2                !
 ! D246  D(65,66,67,96)        178.0221         estimate D2E/DX2                !
 ! D247  D(95,66,67,68)       -177.0006         estimate D2E/DX2                !
 ! D248  D(95,66,67,96)          6.154          estimate D2E/DX2                !
 ! D249  D(66,67,68,69)          3.1786         estimate D2E/DX2                !
 ! D250  D(66,67,68,97)       -177.2277         estimate D2E/DX2                !
 ! D251  D(96,67,68,69)       -179.9936         estimate D2E/DX2                !
 ! D252  D(96,67,68,97)         -0.3998         estimate D2E/DX2                !
 ! D253  D(67,68,69,64)          0.6442         estimate D2E/DX2                !
 ! D254  D(67,68,69,70)        177.7133         estimate D2E/DX2                !
 ! D255  D(97,68,69,64)       -178.9724         estimate D2E/DX2                !
 ! D256  D(97,68,69,70)         -1.9033         estimate D2E/DX2                !
 --------------------------------------------------------------------------------
 Trust Radius=3.00D-01 FncErr=1.00D-07 GrdErr=1.00D-06 EigMax=2.50D+02 EigMin=1.00D-04
 Number of steps in this run=    542 maximum allowed number of steps=    582.
 GradGradGradGradGradGradGradGradGradGradGradGradGradGradGradGradGradGrad

 Leave Link  103 at Fri Jul 24 15:25:48 2020, MaxMem=  4026531840 cpu:               0.2 elap:               0.0
 (Enter /opt/ohpc/pub/libs/gaussian/g16-A.03/sandybridge/g16/l202.exe)
 Stoichiometry    C55H27F10N5
 Framework group  C1[X(C55H27F10N5)]
 Deg. of freedom   285
 Full point group                 C1      NOp   1
 Largest Abelian subgroup         C1      NOp   1
 Largest concise Abelian subgroup C1      NOp   1
                         Standard orientation:                         
 ---------------------------------------------------------------------
 Center     Atomic      Atomic             Coordinates (Angstroms)
 Number     Number       Type             X           Y           Z
 ---------------------------------------------------------------------
      1          6           0       20.573465   -0.024918   -0.510269
      2          6           0       19.952133   -0.272385    0.734565
      3          6           0       18.629213   -0.154969    0.812227
      4          9           0       18.015780   -0.397437    2.029910
      5          6           0       17.838803    0.018761   -0.352015
      6          7           0       18.390204    0.153888   -1.518686
      7          6           0       19.786138    0.160573   -1.635555
      8          6           0       16.413981    0.086224   -0.263574
      9          6           0       15.735405    1.033585    0.465470
     10          6           0       14.285590    1.039567    0.495911
     11          6           0       13.570410    0.138628   -0.209708
     12          6           0       14.160814   -0.861687   -0.910579
     13          6           0       15.617061   -0.822817   -0.960038
     14          9           0       16.153949   -1.844645   -1.706046
     15          6           0       12.091276    0.208725   -0.201401
     16          6           0       11.324981    1.311710   -0.716687
     17          6           0        9.987146    1.346410   -0.630209
     18          9           0        9.323399    2.393721   -1.095573
     19          6           0        9.290717    0.193708   -0.087352
     20          7           0        9.986767   -0.821931    0.444569
     21          6           0       11.344897   -0.830406    0.374841
     22          6           0        7.843675    0.219741    0.087417
     23          6           0        7.167598    1.226795    0.692339
     24          6           0        5.758783    1.210170    0.748383
     25          6           0        4.979512    0.173073    0.238724
     26          6           0        5.693069   -0.874032   -0.407260
     27          6           0        7.107027   -0.839029   -0.499306
     28          9           0        7.724062   -1.911380   -1.137539
     29          6           0        3.501523    0.052299    0.342527
     30          6           0        2.897993   -0.461761    1.486309
     31          6           0        1.540577   -0.521418    1.503229
     32          9           0        0.921475   -1.094375    2.530596
     33          6           0        0.801904    0.073217    0.468012
     34          7           0        1.367173    0.639002   -0.597053
     35          6           0        2.711528    0.666275   -0.650610
     36          6           0       -0.683748    0.083681    0.389976
     37          6           0       -1.418728   -1.114215    0.506933
     38          6           0       -2.820868   -1.146127    0.434911
     39          6           0       -3.558755    0.022131    0.413096
     40          6           0       -2.848275    1.264330    0.287836
     41          6           0       -1.464211    1.179840    0.287757
     42          9           0       -0.792185    2.372700    0.232882
     43          6           0       -5.021072   -0.058955    0.334138
     44          6           0       -5.766980   -0.699559    1.350180
     45          6           0       -7.191162   -0.741148    1.268129
     46          9           0       -7.883771   -1.380011    2.164881
     47          6           0       -7.804138    0.033460    0.207297
     48          7           0       -7.144622    0.748997   -0.666369
     49          6           0       -5.734216    0.703187   -0.654484
     50          6           0       -9.263188    0.032477    0.166318
     51          6           0       -9.981362    1.048337    0.604412
     52          6           0      -11.419140    1.092715    0.492787
     53          6           0      -12.082858    0.026785   -0.143239
     54          6           0      -11.278415   -1.036864   -0.608644
     55          6           0       -9.912017   -1.065204   -0.497162
     56          9           0       -9.252624   -2.105947   -1.017330
     57          6           0      -13.594391   -0.010482   -0.209783
     58          6           0      -14.281666   -1.094183    0.026463
     59          6           0      -15.680516   -1.104571   -0.059550
     60          9           0      -16.420571   -2.235699    0.164839
     61          6           0      -16.343820    0.044632   -0.453928
     62          7           0      -15.652046    1.218409   -0.654668
     63          6           0      -14.248814    1.155769   -0.599168
     64          6           0      -17.813560    0.156737   -0.679419
     65          6           0      -18.384451   -0.593670   -1.623249
     66          6           0      -19.859863   -0.498717   -1.783067
     67          6           0      -20.611819    0.383299   -1.032704
     68          6           0      -19.956786    1.084581   -0.065236
     69          6           0      -18.564864    1.025191    0.183889
     70          9           0      -18.000710    1.734260    1.073276
     71          1           0       21.646509   -0.070885   -0.621593
     72          1           0       20.639912   -0.426896    1.615868
     73          1           0       20.180565    0.317542   -2.585823
     74          1           0       16.303250    1.794821    1.022059
     75          1           0       13.833915    1.826762    1.096597
     76          1           0       13.635522   -1.562909   -1.542713
     77          1           0       11.896113    2.150068   -1.184537
     78          1           0       11.736503   -1.746274    0.826914
     79          1           0        7.625431    2.041197    1.139555
     80          1           0        5.158562    2.014057    1.256690
     81          1           0        5.151118   -1.726791   -0.780706
     82          1           0        3.439527   -0.897720    2.212922
     83          1           0        3.177888    1.078120   -1.599332
     84          1           0       -0.922252   -2.116894    0.611237
     85          1           0       -3.283953   -2.133354    0.505010
     86          1           0       -3.324054    2.169201    0.247052
     87          1           0       -5.307643   -1.287874    2.080349
     88          1           0       -5.241111    1.202817   -1.414348
     89          1           0       -9.506721    1.933573    1.176149
     90          1           0      -11.958618    1.880356    1.013012
     91          1           0      -11.758477   -1.858322   -1.111150
     92          1           0      -13.848980   -2.015806    0.323261
     93          1           0      -13.767633    2.126476   -0.825276
     94          1           0      -17.815944   -1.274972   -2.285463
     95          1           0      -20.303527   -1.065461   -2.614136
     96          1           0      -21.671724    0.470521   -1.173597
     97          1           0      -20.538964    1.812403    0.639117
 ---------------------------------------------------------------------
 Rotational constants (GHZ):           0.2488298           0.0035037           0.0034973
 Leave Link  202 at Fri Jul 24 15:25:48 2020, MaxMem=  4026531840 cpu:               0.1 elap:               0.0
 (Enter /opt/ohpc/pub/libs/gaussian/g16-A.03/sandybridge/g16/l301.exe)
 Standard basis: CC-pVDZ (5D, 7F)
 Ernie: Thresh=  0.10000D-02 Tol=  0.10000D-05 Strict=F.
 Ernie:  140 primitive shells out of 1675 were deleted.
 There are  1185 symmetry adapted cartesian basis functions of A   symmetry.
 There are  1115 symmetry adapted basis functions of A   symmetry.
  1115 basis functions,  2499 primitive gaussians,  1185 cartesian basis functions
   241 alpha electrons      241 beta electrons
       nuclear repulsion energy      8050.8913909102 Hartrees.
 IExCor=32609 DFT=T Ex+Corr=LC-wPBE ExCW=0 ScaHFX=  1.000000
 ScaDFX=  1.000000  0.000000  1.000000  1.000000 ScalE2=  1.000000  1.000000
 IRadAn=      5 IRanWt=     -1 IRanGd=            0 ICorTp=0 IEmpDi=  4
 HFx  wShort=  0.000000 wLong=  0.228100 cFull=  0.000000 cShort=  0.000000 cLong=  1.000000
 DFx  wShort=  0.000000 wLong=  0.228100 cFull=  0.000000 cShort=  0.000000 cLong=  1.000000
 NAtoms=   97 NActive=   97 NUniq=   97 SFac= 1.00D+00 NAtFMM=   60 NAOKFM=T Big=T
 Integral buffers will be    131072 words long.
 Raffenetti 2 integral format.
 Two-electron integral symmetry is turned on.
 Leave Link  301 at Fri Jul 24 15:25:49 2020, MaxMem=  4026531840 cpu:               0.4 elap:               0.1
 (Enter /opt/ohpc/pub/libs/gaussian/g16-A.03/sandybridge/g16/l302.exe)
 NPDir=0 NMtPBC=     1 NCelOv=     1 NCel=       1 NClECP=     1 NCelD=      1
         NCelK=      1 NCelE2=     1 NClLst=     1 CellRange=     0.0.
 One-electron integrals computed using PRISM.
 One-electron integral symmetry used in STVInt
 NBasis=  1115 RedAO= T EigKep=  3.10D-04  NBF=  1115
 NBsUse=  1115 1.00D-06 EigRej= -1.00D+00 NBFU=  1115
 Precomputing XC quadrature grid using
 IXCGrd= 4 IRadAn=           5 IRanWt=          -1 IRanGd=           0 AccXCQ= 0.00D+00.
 Generated NRdTot=       0 NPtTot=           0 NUsed=           0 NTot=          32
 NSgBfM=   637   637   637   637   637 MxSgAt=    97 MxSgA2=    81.
 Leave Link  302 at Fri Jul 24 15:25:53 2020, MaxMem=  4026531840 cpu:              33.2 elap:               4.2
 (Enter /opt/ohpc/pub/libs/gaussian/g16-A.03/sandybridge/g16/l303.exe)
 DipDrv:  MaxL=1.
 Leave Link  303 at Fri Jul 24 15:25:53 2020, MaxMem=  4026531840 cpu:               1.8 elap:               0.3
 (Enter /opt/ohpc/pub/libs/gaussian/g16-A.03/sandybridge/g16/l401.exe)
 ExpMin= 1.22D-01 ExpMax= 1.47D+04 ExpMxC= 5.03D+02 IAcc=3 IRadAn=         5 AccDes= 0.00D+00
 Harris functional with IExCor=32609 and IRadAn=       5 diagonalized for initial guess.
 HarFok:  IExCor=32609 AccDes= 0.00D+00 IRadAn=         5 IDoV= 1 UseB2=F ITyADJ=14
 ICtDFT=  3500011 ScaDFX=  1.000000  1.000000  1.000000  1.000000
 FoFCou: FMM=F IPFlag=           0 FMFlag=      100000 FMFlg1=        2001
         NFxFlg=           0 DoJE=T BraDBF=F KetDBF=T FulRan=T
         wScrn=  0.000000 ICntrl=       500 IOpCl=  0 I1Cent=   200000004 NGrid=           0
         NMat0=    1 NMatS0=      1 NMatT0=    0 NMatD0=    1 NMtDS0=    0 NMtDT0=    0
 Petite list used in FoFCou.
 Harris En= -3381.39383339453    
 JPrj=0 DoOrth=F DoCkMO=F.
 Initial guess <Sx>= 0.0000 <Sy>= 0.0000 <Sz>= 0.0000 <S**2>=-0.0000 S=-0.0000
 Leave Link  401 at Fri Jul 24 15:26:06 2020, MaxMem=  4026531840 cpu:             104.0 elap:              13.1
 (Enter /opt/ohpc/pub/libs/gaussian/g16-A.03/sandybridge/g16/l502.exe)
 Integral symmetry usage will be decided dynamically.
 UHF open shell SCF:
 Using DIIS extrapolation, IDIIS=  1040.
 NGot=  4026531840 LenX=  4023702199 LenY=  4022296789
 Requested convergence on RMS density matrix=1.00D-08 within 128 cycles.
 Requested convergence on MAX density matrix=1.00D-06.
 Requested convergence on             energy=1.00D-06.
 No special actions if energy rises.
 Fock matrices will be formed incrementally for  20 cycles.
 Integral accuracy reduced to 1.0D-05 until final iterations.

 Cycle   1  Pass 0  IDiag  1:
 FoFJK:  IHMeth= 1 ICntrl=       0 DoSepK=T KAlg= 0 I1Cent=           0 FoldK=F
 IRaf=         1 NMat=       1 IRICut=       1 DoRegI=T DoRafI=F ISym2E= 0 IDoP0=0 IntGTp=1.
 FoFCou: FMM=T IPFlag=           0 FMFlag=      100000 FMFlg1=        2001
         NFxFlg=           0 DoJE=T BraDBF=F KetDBF=F FulRan=T
         wScrn=  0.000000 ICntrl=       500 IOpCl=  0 I1Cent=           0 NGrid=           0
         NMat0=    1 NMatS0=      1 NMatT0=    0 NMatD0=    1 NMtDS0=    0 NMtDT0=    0
 Symmetry not used in FoFCou.
 FMM levels:  10  Number of levels for PrismC:   9
 E= -3380.72068783952    
 DIIS: error= 1.24D-02 at cycle   1 NSaved=   1.
 NSaved= 1 IEnMin= 1 EnMin= -3380.72068783952     IErMin= 1 ErrMin= 1.24D-02
 ErrMax= 1.24D-02  0.00D+00 EMaxC= 1.00D-01 BMatC= 2.98D+00 BMatP= 2.98D+00
 IDIUse=3 WtCom= 8.76D-01 WtEn= 1.24D-01
 Coeff-Com:  0.100D+01
 Coeff-En:   0.100D+01
 Coeff:      0.100D+01
 Gap=     0.349 Goal=   None    Shift=    0.000
 Gap=     0.349 Goal=   None    Shift=    0.000
 GapD=    0.349 DampG=1.000 DampE=0.500 DampFc=0.5000 IDamp=-1.
 Damping current iteration by 5.00D-01
 RMSDP=1.61D-03 MaxDP=8.39D-02              OVMax= 1.73D-01

 Cycle   2  Pass 0  IDiag  1:
 RMSU=  7.99D-04    CP:  9.90D-01
 E= -3381.13345650138     Delta-E=       -0.412768661854 Rises=F Damp=T
 DIIS: error= 3.93D-03 at cycle   2 NSaved=   2.
 NSaved= 2 IEnMin= 2 EnMin= -3381.13345650138     IErMin= 2 ErrMin= 3.93D-03
 ErrMax= 3.93D-03  0.00D+00 EMaxC= 1.00D-01 BMatC= 1.95D-01 BMatP= 2.98D+00
 IDIUse=3 WtCom= 9.61D-01 WtEn= 3.93D-02
 Coeff-Com: -0.489D-01 0.105D+01
 Coeff-En:   0.000D+00 0.100D+01
 Coeff:     -0.470D-01 0.105D+01
 Gap=     0.338 Goal=   None    Shift=    0.000
 Gap=     0.338 Goal=   None    Shift=    0.000
 RMSDP=6.03D-04 MaxDP=2.67D-02 DE=-4.13D-01 OVMax= 1.22D-01

 Cycle   3  Pass 0  IDiag  1:
 RMSU=  5.45D-04    CP:  9.86D-01  1.32D+00
 E= -3381.52355532646     Delta-E=       -0.390098825088 Rises=F Damp=F
 DIIS: error= 4.55D-03 at cycle   3 NSaved=   3.
 NSaved= 3 IEnMin= 3 EnMin= -3381.52355532646     IErMin= 2 ErrMin= 3.93D-03
 ErrMax= 4.55D-03  0.00D+00 EMaxC= 1.00D-01 BMatC= 1.17D-01 BMatP= 1.95D-01
 IDIUse=3 WtCom= 9.55D-01 WtEn= 4.55D-02
 Coeff-Com: -0.707D-01 0.478D+00 0.593D+00
 Coeff-En:   0.000D+00 0.000D+00 0.100D+01
 Coeff:     -0.674D-01 0.456D+00 0.611D+00
 Gap=     0.301 Goal=   None    Shift=    0.000
[...]
 
              Baa    -0.0000    -0.000    -0.000    -0.000  0.3828 -0.4862  0.7855
    40 C(13)  Bbb     0.0000     0.000     0.000     0.000  0.9206  0.1297 -0.3683
              Bcc     0.0000     0.000     0.000     0.000  0.0772  0.8642  0.4973
 
              Baa    -0.0000    -0.000    -0.000    -0.000 -0.4199  0.8953  0.1489
    41 C(13)  Bbb    -0.0000    -0.000    -0.000    -0.000  0.8054  0.2919  0.5158
              Bcc     0.0000     0.000     0.000     0.000 -0.4183 -0.3365  0.8437
 
              Baa    -0.0000    -0.000    -0.000    -0.000  0.8658  0.4735  0.1616
    42 F(19)  Bbb     0.0000     0.000     0.000     0.000 -0.4014  0.8502 -0.3406
              Bcc     0.0000     0.000     0.000     0.000 -0.2987  0.2300  0.9262
 
              Baa    -0.0000    -0.000    -0.000    -0.000  0.8170  0.5710  0.0804
    43 C(13)  Bbb    -0.0000    -0.000    -0.000    -0.000 -0.5572  0.8176 -0.1451
              Bcc     0.0000     0.000     0.000     0.000 -0.1486  0.0737  0.9862
 
              Baa    -0.0000    -0.000    -0.000    -0.000  0.9825  0.1859 -0.0116
    44 C(13)  Bbb     0.0000     0.000     0.000     0.000  0.0615 -0.2651  0.9623
              Bcc     0.0000     0.000     0.000     0.000 -0.1758  0.9461  0.2719
 
              Baa    -0.0000    -0.000    -0.000    -0.000  0.0555  0.4118  0.9096
    45 C(13)  Bbb    -0.0000    -0.000    -0.000    -0.000  0.3275  0.8531 -0.4062
              Bcc     0.0000     0.000     0.000     0.000  0.9432 -0.3204  0.0875
 
              Baa    -0.0000    -0.000    -0.000    -0.000 -0.4682  0.8824  0.0466
    46 F(19)  Bbb     0.0000     0.000     0.000     0.000 -0.1852 -0.1495  0.9713
              Bcc     0.0000     0.000     0.000     0.000  0.8640  0.4461  0.2334
 
              Baa    -0.0000    -0.000    -0.000    -0.000  0.9193  0.3919  0.0359
    47 C(13)  Bbb    -0.0000    -0.000    -0.000    -0.000 -0.0963  0.1357  0.9861
              Bcc     0.0000     0.000     0.000     0.000 -0.3816  0.9099 -0.1625
 
              Baa    -0.0000    -0.000    -0.000    -0.000 -0.2518  0.0519  0.9664
    48 N(14)  Bbb     0.0000     0.000     0.000     0.000  0.7948 -0.5586  0.2371
              Bcc     0.0000     0.000     0.000     0.000  0.5521  0.8278  0.0994
 
              Baa    -0.0000    -0.000    -0.000    -0.000  0.9899  0.0320 -0.1381
    49 C(13)  Bbb    -0.0000    -0.000    -0.000    -0.000  0.1401 -0.0703  0.9876
              Bcc     0.0000     0.000     0.000     0.000 -0.0219  0.9970  0.0741
 
              Baa    -0.0000    -0.000    -0.000    -0.000  0.9116 -0.3738 -0.1710
    50 C(13)  Bbb     0.0000     0.000     0.000     0.000  0.4065  0.8812  0.2411
              Bcc     0.0000     0.000     0.000     0.000  0.0605 -0.2893  0.9553
 
              Baa    -0.0000    -0.000    -0.000    -0.000  0.8658  0.2953  0.4040
    51 C(13)  Bbb    -0.0000    -0.000    -0.000    -0.000  0.0313  0.7737 -0.6327
              Bcc     0.0000     0.000     0.000     0.000 -0.4994  0.5605  0.6606
 
              Baa    -0.0000    -0.000    -0.000    -0.000  0.9715 -0.1997  0.1274
    52 C(13)  Bbb     0.0000     0.000     0.000     0.000 -0.2002 -0.4046  0.8923
              Bcc     0.0000     0.000     0.000     0.000  0.1266  0.8924  0.4331
 
              Baa    -0.0000    -0.000    -0.000    -0.000 -0.3966  0.8963  0.1986
    53 C(13)  Bbb     0.0000     0.000     0.000     0.000  0.7642  0.2024  0.6123
              Bcc     0.0000     0.000     0.000     0.000 -0.5086 -0.3946  0.7652
 
              Baa    -0.0000    -0.000    -0.000    -0.000  0.9649  0.0503  0.2578
    54 C(13)  Bbb    -0.0000    -0.000    -0.000    -0.000  0.0990  0.8394 -0.5344
              Bcc     0.0000     0.000     0.000     0.000 -0.2433  0.5412  0.8049
 
              Baa    -0.0000    -0.000    -0.000    -0.000  0.9604 -0.2784 -0.0121
    55 C(13)  Bbb     0.0000     0.000     0.000     0.000 -0.1679 -0.6127  0.7723
              Bcc     0.0000     0.000     0.000     0.000  0.2224  0.7397  0.6352
 
              Baa    -0.0000    -0.000    -0.000    -0.000 -0.0772  0.9256 -0.3706
    56 F(19)  Bbb    -0.0000    -0.000    -0.000    -0.000  0.5403  0.3512  0.7647
              Bcc     0.0000     0.000     0.000     0.000  0.8379 -0.1412 -0.5272
 
              Baa    -0.0000    -0.000    -0.000    -0.000  0.3223  0.9466  0.0060
    57 C(13)  Bbb     0.0000     0.000     0.000     0.000 -0.5881  0.1952  0.7849
              Bcc     0.0000     0.000     0.000     0.000  0.7418 -0.2565  0.6196
 
              Baa    -0.0000    -0.000    -0.000    -0.000 -0.0738 -0.1938  0.9783
    58 C(13)  Bbb    -0.0000    -0.000    -0.000    -0.000  0.8892  0.4313  0.1526
              Bcc     0.0000     0.000     0.000     0.000 -0.4515  0.8812  0.1405
 
              Baa    -0.0000    -0.000    -0.000    -0.000 -0.1651  0.9859  0.0277
    59 C(13)  Bbb     0.0000     0.000     0.000     0.000 -0.0475 -0.0360  0.9982
              Bcc     0.0000     0.000     0.000     0.000  0.9851  0.1635  0.0528
 
              Baa    -0.0000    -0.000    -0.000    -0.000  0.9350 -0.2166  0.2809
    60 F(19)  Bbb     0.0000     0.000     0.000     0.000  0.3449  0.7395 -0.5780
              Bcc     0.0000     0.000     0.000     0.000 -0.0825  0.6373  0.7662
 
              Baa    -0.0000    -0.000    -0.000    -0.000  0.1392 -0.2920  0.9462
    61 C(13)  Bbb     0.0000     0.000     0.000     0.000 -0.2733  0.9071  0.3201
              Bcc     0.0000     0.000     0.000     0.000  0.9518  0.3032 -0.0465
 
              Baa    -0.0000    -0.000    -0.000    -0.000  0.5799  0.8087 -0.0981
    62 N(14)  Bbb     0.0000     0.000     0.000     0.000  0.6125 -0.5123 -0.6020
              Bcc     0.0000     0.000     0.000     0.000  0.5371 -0.2890  0.7925
 
              Baa    -0.0000    -0.000    -0.000    -0.000  0.6747 -0.4294  0.6004
    63 C(13)  Bbb    -0.0000    -0.000    -0.000    -0.000 -0.4461  0.4109  0.7951
              Bcc     0.0000     0.000     0.000     0.000  0.5881  0.8043 -0.0857
 
              Baa    -0.0000    -0.000    -0.000    -0.000  0.1990  0.6499  0.7335
    64 C(13)  Bbb     0.0000     0.000     0.000     0.000  0.9133  0.1485 -0.3793
              Bcc     0.0000     0.000     0.000     0.000 -0.3554  0.7454 -0.5640
 
              Baa    -0.0000    -0.000    -0.000    -0.000  0.9746 -0.2153  0.0619
    65 C(13)  Bbb     0.0000     0.000     0.000     0.000 -0.0914 -0.1298  0.9873
              Bcc     0.0000     0.000     0.000     0.000  0.2045  0.9679  0.1462
 
              Baa    -0.0000    -0.000    -0.000    -0.000  0.9823 -0.0941  0.1619
    66 C(13)  Bbb     0.0000     0.000     0.000     0.000  0.0949  0.9955  0.0032
              Bcc     0.0000     0.000     0.000     0.000 -0.1614  0.0122  0.9868
 
              Baa    -0.0000    -0.000    -0.000    -0.000 -0.0810  0.7440  0.6632
    67 C(13)  Bbb     0.0000     0.000     0.000     0.000  0.9921 -0.0038  0.1254
              Bcc     0.0000     0.000     0.000     0.000 -0.0958 -0.6681  0.7378
 
              Baa    -0.0000    -0.000    -0.000    -0.000  0.5030  0.4762  0.7212
    68 C(13)  Bbb    -0.0000    -0.000    -0.000    -0.000  0.8537 -0.1439 -0.5004
              Bcc     0.0000     0.000     0.000     0.000 -0.1345  0.8675 -0.4790
 
              Baa    -0.0000    -0.000    -0.000    -0.000  0.0796  0.7719 -0.6307
    69 C(13)  Bbb     0.0000     0.000     0.000     0.000  0.9946 -0.1038 -0.0014
              Bcc     0.0000     0.000     0.000     0.000  0.0666  0.6272  0.7760
 
              Baa    -0.0000    -0.000    -0.000    -0.000  0.7037  0.5641 -0.4320
    70 F(19)  Bbb    -0.0000    -0.000    -0.000    -0.000  0.4920  0.0519  0.8691
              Bcc     0.0000     0.000     0.000     0.000 -0.5126  0.8241  0.2410
 
              Baa    -0.0000    -0.000    -0.000    -0.000  0.9955  0.0599 -0.0731
    71 H(1)   Bbb     0.0000     0.000     0.000     0.000 -0.0616  0.9979 -0.0208
              Bcc     0.0000     0.000     0.000     0.000  0.0717  0.0252  0.9971
 
              Baa    -0.0000    -0.000    -0.000    -0.000  0.9536 -0.2990 -0.0362
    72 H(1)   Bbb     0.0000     0.000     0.000     0.000  0.2982  0.9542 -0.0256
              Bcc     0.0000     0.000     0.000     0.000  0.0422  0.0137  0.9990
 
              Baa    -0.0000    -0.000    -0.000    -0.000 -0.6937  0.7177  0.0608
    73 H(1)   Bbb    -0.0000    -0.000    -0.000    -0.000  0.1337  0.0453  0.9900
              Bcc     0.0000     0.000     0.000     0.000  0.7077  0.6949 -0.1274
 
              Baa    -0.0000    -0.000    -0.000    -0.000  0.4743 -0.5834  0.6593
    74 H(1)   Bbb     0.0000     0.000     0.000     0.000  0.8794  0.2800 -0.3849
              Bcc     0.0000     0.000     0.000     0.000  0.0400  0.7624  0.6459
 
              Baa    -0.0000    -0.000    -0.000    -0.000  0.3325  0.8652 -0.3752
    75 H(1)   Bbb    -0.0000    -0.000    -0.000    -0.000  0.9172 -0.2041  0.3422
              Bcc     0.0000     0.000     0.000     0.000 -0.2195  0.4580  0.8614
 
              Baa    -0.0000    -0.000    -0.000    -0.000  0.2563  0.7600 -0.5973
    76 H(1)   Bbb    -0.0000    -0.000    -0.000    -0.000 -0.0071  0.6194  0.7850
              Bcc     0.0000     0.000     0.000     0.000  0.9666 -0.1969  0.1641
 
              Baa    -0.0000    -0.000    -0.000    -0.000  0.2479 -0.0761  0.9658
    77 H(1)   Bbb     0.0000     0.000     0.000     0.000  0.1178  0.9919  0.0479
              Bcc     0.0000     0.000     0.000     0.000  0.9616 -0.1019 -0.2549
 
              Baa    -0.0000    -0.000    -0.000    -0.000 -0.4488  0.0174  0.8935
    78 H(1)   Bbb     0.0000     0.000     0.000     0.000  0.1024  0.9942  0.0321
              Bcc     0.0000     0.000     0.000     0.000  0.8878 -0.1059  0.4480
 
              Baa    -0.0000    -0.000    -0.000    -0.000 -0.0718 -0.6701  0.7388
    79 H(1)   Bbb    -0.0000    -0.000    -0.000    -0.000  0.1000  0.7321  0.6738
              Bcc     0.0000     0.000     0.000     0.000  0.9924 -0.1222 -0.0145
 
              Baa    -0.0000    -0.000    -0.000    -0.000  0.8758 -0.0521 -0.4798
    80 H(1)   Bbb     0.0000     0.000     0.000     0.000  0.1986  0.9450  0.2599
              Bcc     0.0000     0.000     0.000     0.000  0.4399 -0.3229  0.8380
 
              Baa    -0.0000    -0.000    -0.000    -0.000 -0.5466  0.6652 -0.5086
    81 H(1)   Bbb     0.0000     0.000     0.000     0.000  0.8365  0.4618 -0.2949
              Bcc     0.0000     0.000     0.000     0.000 -0.0387  0.5867  0.8089
 
              Baa    -0.0000    -0.000    -0.000    -0.000  0.9406  0.3256 -0.0960
    82 H(1)   Bbb    -0.0000    -0.000    -0.000    -0.000  0.1092 -0.0223  0.9938
              Bcc     0.0000     0.000     0.000     0.000 -0.3214  0.9452  0.0565
 
              Baa    -0.0000    -0.000    -0.000    -0.000  0.6648  0.7466  0.0250
    83 H(1)   Bbb     0.0000     0.000     0.000     0.000 -0.4069  0.3338  0.8503
              Bcc     0.0000     0.000     0.000     0.000  0.6265 -0.5755  0.5257
 
              Baa    -0.0000    -0.000    -0.000    -0.000 -0.5326  0.6033  0.5936
    84 H(1)   Bbb     0.0000     0.000     0.000     0.000  0.5630  0.7762 -0.2838
              Bcc     0.0000     0.000     0.000     0.000  0.6320 -0.1831  0.7531
 
              Baa    -0.0000    -0.000    -0.000    -0.000 -0.4121 -0.5018  0.7605
    85 H(1)   Bbb    -0.0000    -0.000    -0.000    -0.000  0.9032 -0.3352  0.2683
              Bcc     0.0000     0.000     0.000     0.000  0.1203  0.7974  0.5913
 
              Baa    -0.0000    -0.000    -0.000    -0.000  0.1372  0.7540 -0.6424
    86 H(1)   Bbb    -0.0000    -0.000    -0.000    -0.000  0.7487  0.3457  0.5656
              Bcc     0.0000     0.000     0.000     0.000  0.6485 -0.5586 -0.5171
 
              Baa    -0.0000    -0.000    -0.000    -0.000 -0.4493 -0.0877  0.8891
    87 H(1)   Bbb    -0.0000    -0.000    -0.000    -0.000  0.8224  0.3482  0.4499
              Bcc     0.0000     0.000     0.000     0.000 -0.3490  0.9333 -0.0843
 
              Baa    -0.0000    -0.000    -0.000    -0.000  0.4313  0.9019  0.0243
    88 H(1)   Bbb     0.0000     0.000     0.000     0.000  0.7871 -0.3630 -0.4988
              Bcc     0.0000     0.000     0.000     0.000  0.4410 -0.2342  0.8664
 
              Baa    -0.0000    -0.000    -0.000    -0.000 -0.0159 -0.6797  0.7333
    89 H(1)   Bbb    -0.0000    -0.000    -0.000    -0.000  0.2234  0.7124  0.6652
              Bcc     0.0000     0.000     0.000     0.000  0.9746 -0.1744 -0.1405
 
              Baa    -0.0000    -0.000    -0.000    -0.000  0.6458  0.7632 -0.0208
    90 H(1)   Bbb    -0.0000    -0.000    -0.000    -0.000  0.4669 -0.3733  0.8016
              Bcc     0.0000     0.000     0.000     0.000  0.6040 -0.5274 -0.5975
 
              Baa    -0.0000    -0.000    -0.000    -0.000  0.0210  0.7466 -0.6650
    91 H(1)   Bbb     0.0000     0.000     0.000     0.000  0.0508  0.6635  0.7465
              Bcc     0.0000     0.000     0.000     0.000  0.9985 -0.0495 -0.0240
 
              Baa    -0.0000    -0.000    -0.000    -0.000  0.6561  0.3112  0.6875
    92 H(1)   Bbb    -0.0000    -0.000    -0.000    -0.000 -0.6310 -0.2735  0.7259
              Bcc     0.0000     0.000     0.000     0.000 -0.4139  0.9102 -0.0169
 
              Baa    -0.0000    -0.000    -0.000    -0.000  0.1779 -0.2532  0.9509
    93 H(1)   Bbb    -0.0000    -0.000    -0.000    -0.000  0.8160 -0.5022 -0.2864
              Bcc     0.0000     0.000     0.000     0.000  0.5501  0.8269  0.1172
 
              Baa    -0.0000    -0.000    -0.000    -0.000  0.0931  0.8274 -0.5538
    94 H(1)   Bbb     0.0000     0.000     0.000     0.000  0.8884 -0.3202 -0.3291
              Bcc     0.0000     0.000     0.000     0.000  0.4496  0.4613  0.7649
 
              Baa    -0.0000    -0.000    -0.000    -0.000  0.3834  0.5020  0.7753
    95 H(1)   Bbb     0.0000     0.000     0.000     0.000  0.8727 -0.4717 -0.1261
              Bcc     0.0000     0.000     0.000     0.000  0.3024  0.7249 -0.6189
 
              Baa    -0.0000    -0.000    -0.000    -0.000  0.1304 -0.3699  0.9199
    96 H(1)   Bbb    -0.0000    -0.000    -0.000    -0.000 -0.2452  0.8870  0.3914
              Bcc     0.0000     0.000     0.000     0.000  0.9607  0.2766 -0.0249
 
              Baa    -0.0000    -0.000    -0.000    -0.000 -0.6738  0.7294  0.1181
    97 H(1)   Bbb    -0.0000    -0.000    -0.000    -0.000  0.5915  0.6282 -0.5055
              Bcc     0.0000     0.000     0.000     0.000  0.4429  0.2708  0.8547
 

 ---------------------------------------------------------------------------------

 No NMR shielding tensors so no spin-rotation constants.
 Leave Link  601 at Fri Jul 24 20:26:27 2020, MaxMem=  4026531840 cpu:              14.0 elap:               1.9
 (Enter /opt/ohpc/pub/libs/gaussian/g16-A.03/sandybridge/g16/l9999.exe)

 Test job not archived.
 1\1\GINC-SKYLAKE041\FOpt\ULC-wPBE\CC-pVDZ\C55H27F10N5\RDU230\24-Jul-20
 20\0\\#P uLC-wPBE/cc-pVDZ iop(3/107=0228100000, 3/108=0228100000) opt\
 \H27 C55 N5 F10\\0,1\C,20.6276503707,0.1430743587,-1.1298256702\C,20.1
 334588947,-0.4223338638,0.0452782696\C,18.756637339,-0.4176014667,0.23
 23571637\F,18.2466897347,-0.9636549888,1.3590950568\C,17.8973607525,0.
 1383799129,-0.7286757849\N,18.3892485933,0.6776124781,-1.8572510521\C,
 19.7137614711,0.6761042589,-2.0438748278\C,16.420529202,0.1574327788,-
 0.5363336853\C,15.8327245642,0.566231401,0.6715429093\C,14.4486834004,
 0.6188174434,0.8289988917\C,13.5946305104,0.2514553621,-0.224426834\C,
 14.1656506028,-0.1724557368,-1.4333407166\C,15.5497201064,-0.214407153
 3,-1.5705869169\F,16.0517425365,-0.6474861196,-2.7419407775\C,12.11792
 20589,0.301701026,-0.0659630021\C,11.487005376,1.3489680624,0.61775817
 31\C,10.1037958701,1.3281210698,0.7282991201\F,9.4884773867,2.34316495
 91,1.3752118867\C,9.3449343157,0.2880408896,0.1702718119\N,9.954793008
 ,-0.7171335855,-0.4809166039\C,11.2850909452,-0.7044697153,-0.58835041
 2\C,7.8609932369,0.2527437835,0.2777169481\C,7.1960964138,0.508587855,
 1.4880095448\C,5.8077452481,0.4361037861,1.5879482039\C,5.0259742645,0
 .1108010032,0.4667024744\C,5.6732292134,-0.1340098302,-0.7532512174\C,
 7.0605299,-0.0596690403,-0.8307470671\F,7.635227598,-0.2822386176,-2.0
 273072327\C,3.5449832242,0.034218082,0.5626964395\C,2.9088799514,-0.53
 2874029,1.6743845824\C,1.5217137459,-0.5679924403,1.695938828\F,0.9025
 889508,-1.1150708785,2.7659990935\C,0.7642041087,-0.0546434971,0.63212
 9826\N,1.3787522498,0.4961174205,-0.4286404048\C,2.712593842,0.5361822
 986,-0.4541914006\C,-0.7231860826,-0.1016891231,0.6317788866\C,-1.4311
 742048,-1.2599448343,0.9917319092\C,-2.8238840843,-1.3051654887,0.9559
 841801\C,-3.56633423,-0.178882757,0.5632256776\C,-2.8750142001,0.98993
 8259,0.2118524714\C,-1.4844255604,1.0131062383,0.2508715587\F,-0.86711
 57494,2.168815383,-0.0575322869\C,-5.0511965958,-0.2190579077,0.521154
 1694\C,-5.7967605288,-0.8674487911,1.5142039009\C,-7.1810943943,-0.872
 7453096,1.4103459303\F,-7.9025481925,-1.4363017207,2.3982834924\C,-7.8
 265790866,-0.2621229411,0.3241917233\N,-7.108691654,0.3816431048,-0.61
 2685929\C,-5.7771562609,0.3969382594,-0.5135984341\C,-9.306336148,-0.2
 247181913,0.1804111493\C,-9.9378651633,0.9604645016,-0.228464421\C,-11
 .3199303601,1.0331654458,-0.3866673823\C,-12.1261970449,-0.0951077306,
 -0.1525275598\C,-11.5067757087,-1.2944004496,0.2287841732\C,-10.124949
 3721,-1.3425670081,0.3811820939\F,-9.5643928893,-2.5313580786,0.692235
 117\C,-13.6018777916,-0.0280959016,-0.3139412466\C,-14.4706603833,-0.6
 801515079,0.5707361563\C,-15.8373356069,-0.5713915286,0.3561387823\F,-
 16.679909816,-1.1868845097,1.2154077041\C,-16.3489800088,0.1730099412,
 -0.718090649\N,-15.5111712284,0.7925172554,-1.5670710283\C,-14.1952118
 927,0.6900590489,-1.3676570516\C,-17.8125848319,0.2999416829,-0.959193
 2467\C,-18.6674784534,-0.8145232172,-0.9261199535\C,-20.0327739105,-0.
 6902725756,-1.1886290929\C,-20.5741752178,0.5649588243,-1.4820670482\C
 ,-19.750068374,1.6915703247,-1.5089650769\C,-18.3898670861,1.545266687
 7,-1.248013937\F,-17.6195955931,2.651322793,-1.2508577631\H,21.7047183
 271,0.1691342652,-1.3335511437\H,20.7825645098,-0.8665027225,0.8089617
 432\H,20.0651549236,1.1299744263,-2.9820442991\H,16.4824061855,0.85142
 31879,1.5067315316\H,14.0259643179,0.9292974675,1.79215905\H,13.548924
 0275,-0.4575555442,-2.2933606738\H,12.0467244188,2.1918227974,1.040268
 5552\H,11.7294535705,-1.5648164463,-1.1103083329\H,7.7879865509,0.7692
 391417,2.3726243098\H,5.3229144112,0.6571585688,2.5464955678\H,5.11581
 79523,-0.4042929893,-1.6574069526\H,3.4699466259,-0.9610360943,2.51347
 08319\H,3.1584265818,1.0172836335,-1.3372903033\H,-0.8699676496,-2.152
 178292,1.2914245178\H,-3.3410942798,-2.2378085548,1.2116511448\H,-3.40
 20825231,1.9092991594,-0.0678223397\H,-5.3239419609,-1.3364281164,2.38
 52473108\H,-5.2437876414,0.9178451617,-1.3222758848\H,-9.3076074954,1.
 8369365553,-0.4189583438\H,-11.7835381435,1.9847495063,-0.6724154854\H
 ,-12.0797489938,-2.21711454,0.376869115\H,-14.1065988863,-1.2463064566
 ,1.4364289057\H,-13.5597606045,1.1971357419,-2.1086875199\H,-18.243118
 3079,-1.7992196382,-0.6983402831\H,-20.6755953673,-1.5782618596,-1.165
 6005638\H,-21.6461966208,0.6719211085,-1.6892696242\H,-20.1398282097,2
 .6929440877,-1.7246744204\\Version=EM64L-G16RevA.03\State=1-A\HF=-3381
 .7214782\S2=0.\S2-1=0.\S2A=0.\RMSD=3.641e-09\RMSF=1.550e-06\Dipole=2.5
 024627,-0.363483,1.5167304\Quadrupole=63.7824689,-30.505836,-33.276632
 9,15.1669477,15.5499278,0.0881584\PG=C01 [X(C55H27F10N5)]\\@


 Discoveries are often made by not following instructions,
 by going off the main road, by trying the untried.
 -- Frank Tyger
 Job cpu time:       1 days 15 hours 19 minutes 10.5 seconds.
 Elapsed time:       0 days  5 hours  0 minutes 37.6 seconds.
 File lengths (MBytes):  RWF=   1412 Int=      0 D2E=      0 Chk=    128 Scr=      8
 Normal termination of Gaussian 16 at Fri Jul 24 20:26:28 2020.
