 Entering Gaussian System, Link 0=g16
 Input=mols_65_5_01_c-c-N_opt_0.gjf
 Output=mols_65_5_01_c-c-N_opt_0.log
 Initial command:
 /opt/ohpc/pub/libs/gaussian/g16-A.03/sandybridge/g16/l1.exe "/mnt/gpfs2_4m/scratch/rdu230/ondemand/projects/dihedral_energies/7trial/wtuning/mols_65_5_01_c-c-N/Gau-305597.inp" -scrdir="/mnt/gpfs2_4m/scratch/rdu230/ondemand/projects/dihedral_energies/7trial/wtuning/mols_65_5_01_c-c-N/"
 Entering Link 1 = /opt/ohpc/pub/libs/gaussian/g16-A.03/sandybridge/g16/l1.exe PID=    305598.
  
 Copyright (c) 1988,1990,1992,1993,1995,1998,2003,2009,2016,
            Gaussian, Inc.  All Rights Reserved.
  
 This is part of the Gaussian(R) 16 program.  It is based on
 the Gaussian(R) 09 system (copyright 2009, Gaussian, Inc.),
 the Gaussian(R) 03 system (copyright 2003, Gaussian, Inc.),
 the Gaussian(R) 98 system (copyright 1998, Gaussian, Inc.),
 the Gaussian(R) 94 system (copyright 1995, Gaussian, Inc.),
 the Gaussian 92(TM) system (copyright 1992, Gaussian, Inc.),
 the Gaussian 90(TM) system (copyright 1990, Gaussian, Inc.),
 the Gaussian 88(TM) system (copyright 1988, Gaussian, Inc.),
 the Gaussian 86(TM) system (copyright 1986, Carnegie Mellon
 University), and the Gaussian 82(TM) system (copyright 1983,
 Carnegie Mellon University). Gaussian is a federally registered
 trademark of Gaussian, Inc.
  
 This software contains proprietary and confidential information,
 including trade secrets, belonging to Gaussian, Inc.
  
 This software is provided under written license and may be
 used, copied, transmitted, or stored only in accord with that
 written license.
  
 The following legend is applicable only to US Government
 contracts under FAR:
  
                    RESTRICTED RIGHTS LEGEND
  
 Use, reproduction and disclosure by the US Government is
 subject to restrictions as set forth in subparagraphs (a)
 and (c) of the Commercial Computer Software - Restricted
 Rights clause in FAR 52.227-19.
  
 Gaussian, Inc.
 340 Quinnipiac St., Bldg. 40, Wallingford CT 06492
  
  
 ---------------------------------------------------------------
 Warning -- This program may not be used in any manner that
 competes with the business of Gaussian, Inc. or will provide
 assistance to any competitor of Gaussian, Inc.  The licensee
 of this program is prohibited from giving any competitor of
 Gaussian, Inc. access to this program.  By using this program,
 the user acknowledges that Gaussian, Inc. is engaged in the
 business of creating and licensing software in the field of
 computational chemistry and represents and warrants to the
 licensee that it is not a competitor of Gaussian, Inc. and that
 it will not use this program in any manner prohibited above.
 ---------------------------------------------------------------
  

 Cite this work as:
 Gaussian 16, Revision A.03,
 M. J. Frisch, G. W. Trucks, H. B. Schlegel, G. E. Scuseria, 
 M. A. Robb, J. R. Cheeseman, G. Scalmani, V. Barone, 
 G. A. Petersson, H. Nakatsuji, X. Li, M. Caricato, A. V. Marenich, 
 J. Bloino, B. G. Janesko, R. Gomperts, B. Mennucci, H. P. Hratchian, 
 J. V. Ortiz, A. F. Izmaylov, J. L. Sonnenberg, D. Williams-Young, 
 F. Ding, F. Lipparini, F. Egidi, J. Goings, B. Peng, A. Petrone, 
 T. Henderson, D. Ranasinghe, V. G. Zakrzewski, J. Gao, N. Rega, 
 G. Zheng, W. Liang, M. Hada, M. Ehara, K. Toyota, R. Fukuda, 
 J. Hasegawa, M. Ishida, T. Nakajima, Y. Honda, O. Kitao, H. Nakai, 
 T. Vreven, K. Throssell, J. A. Montgomery, Jr., J. E. Peralta, 
 F. Ogliaro, M. J. Bearpark, J. J. Heyd, E. N. Brothers, K. N. Kudin, 
 V. N. Staroverov, T. A. Keith, R. Kobayashi, J. Normand, 
 K. Raghavachari, A. P. Rendell, J. C. Burant, S. S. Iyengar, 
 J. Tomasi, M. Cossi, J. M. Millam, M. Klene, C. Adamo, R. Cammi, 
 J. W. Ochterski, R. L. Martin, K. Morokuma, O. Farkas, 
 J. B. Foresman, and D. J. Fox, Gaussian, Inc., Wallingford CT, 2016.
 
 ******************************************
 Gaussian 16:  EM64L-G16RevA.03 25-Dec-2016
                24-Jul-2020 
 ******************************************
 %mem=30GB
 %nproc=8
 Will use up to    8 processors via shared memory.
 ---------------------------------------------------------------
 #P uLC-wPBE/cc-pVDZ iop(3/107=0206700000, 3/108=0206700000) opt
 ---------------------------------------------------------------
 1/18=20,19=15,26=3,38=1/1,3;
 2/9=110,12=2,17=6,18=5,40=1/2;
 3/5=16,11=2,25=1,30=1,71=1,74=-41,107=206700000,108=206700000,116=2/1,2,3;
 4//1;
 5/5=2,38=5/2;
 6/7=2,8=2,9=2,10=2,28=1/1;
 7//1,2,3,16;
 1/18=20,19=15,26=3/3(2);
 2/9=110/2;
 99//99;
 2/9=110/2;
 3/5=16,11=2,25=1,30=1,71=1,74=-41,107=206700000,108=206700000,116=2/1,2,3;
 4/5=5,16=3,69=1/1;
 5/5=2,38=5/2;
 7//1,2,3,16;
 1/18=20,19=15,26=3/3(-5);
 2/9=110/2;
 6/7=2,8=2,9=2,10=2,19=2,28=1/1;
 99/9=1/99;
 Leave Link    1 at Fri Jul 24 18:42:39 2020, MaxMem=  4026531840 cpu:               1.4 elap:               0.2
 (Enter /opt/ohpc/pub/libs/gaussian/g16-A.03/sandybridge/g16/l101.exe)
 -------------
 H27 C45 S5 N5
 -------------
 Symbolic Z-matrix:
 Charge =  0 Multiplicity = 1
 C                    -19.38242   1.55014  -0.19287 
 C                    -18.39933   2.44956  -0.29916 
 C                    -17.02632   2.12202  -0.07456 
 C                    -16.69053   0.74052   0.13759 
 C                    -17.70788  -0.23924   0.14963 
 C                    -19.08596   0.1248   -0.0379 
 C                    -15.34332   0.29846   0.28717 
 N                    -15.02215  -0.94781   0.72866 
 C                    -13.61281  -1.05133   0.69008 
 C                    -12.89655   0.00877   0.23384 
 S                    -13.99157   1.2341   -0.22592 
 C                    -11.43734   0.12936   0.17424 
 C                    -10.77583   1.41085   0.40509 
 C                    -9.40793   1.52851   0.22386 
 C                    -8.63673   0.40285  -0.11687 
 C                    -9.22234  -0.87463  -0.3918 
 C                    -10.68917  -0.94118  -0.24933 
 C                    -7.14712   0.57033  -0.2342 
 N                    -6.55738   1.63538  -0.61675 
 C                    -5.17274   1.51604  -0.59422 
 C                    -4.69075   0.31818  -0.28475 
 S                    -6.04917  -0.77017   0.017 
 C                    -3.28736  -0.23766  -0.17774 
 C                    -2.98913  -1.52627  -0.37683 
 C                    -1.65072  -1.95637  -0.34105 
 C                    -0.6646   -1.08586   0.07892 
 C                    -0.99843   0.23461   0.32624 
 C                    -2.25425   0.69246   0.16016 
 C                     0.7613   -1.62232   0.21584 
 N                     1.05801  -2.86122   0.46036 
 C                     2.40049  -2.99745   0.49372 
 C                     3.17115  -1.83234   0.20664 
 S                     2.08031  -0.5402   -0.11294 
 C                     4.68726  -1.72892   0.13281 
 C                     5.31003  -0.5895    0.55266 
 C                     6.69624  -0.39064   0.45021 
 C                     7.52575  -1.4418   -0.04529 
 C                     6.81398  -2.63181  -0.41174 
 C                     5.44354  -2.76667  -0.41139 
 C                     8.93984  -1.34673  -0.14644 
 N                     9.6645   -2.34077  -0.67356 
 C                     11.05678  -1.96941  -0.69722 
 C                     11.26452  -0.69208  -0.2374 
 S                     9.85905   0.02886   0.19103 
 C                     12.60958  -0.05685  -0.10628 
 C                     13.74493  -0.78304   0.11581 
 C                     15.03543  -0.09565   0.26844 
 C                     15.14674   1.26966  -0.02774 
 C                     13.96837   1.92669  -0.30115 
 C                     12.71298   1.37344  -0.40501 
 C                     16.45077   1.96649   0.13701 
 N                     16.54209   3.2372    0.09351 
 C                     17.88337   3.69436   0.179 
 C                     18.79624   2.58697   0.22204 
 S                     17.97654   1.1281    0.22176 
 H                    -20.41947   1.81757  -0.3837 
 H                    -18.6364   3.53746  -0.35379 
 H                    -16.25764   2.87026  -0.1539 
 H                    -17.54623  -1.26634   0.31594 
 H                    -19.81105  -0.57653   0.00812 
 H                    -13.17303  -1.95049   1.09699 
 H                    -11.33004   2.21235   0.6923 
 H                    -8.92843   2.4063    0.41038 
 H                    -8.71418  -1.72319  -0.64366 
 H                    -11.15457  -1.89824  -0.44593 
 H                    -4.60021   2.41422  -0.90642 
 H                    -3.68064  -2.27342  -0.67788 
 H                    -1.42785  -2.99466  -0.43651 
 H                    -0.1837    0.98564   0.57234 
 H                    -2.53143   1.76141   0.34325 
 H                     2.858    -3.92545   0.80366 
 H                     4.73695   0.28307   1.05956 
 H                     7.1411    0.55003   0.85652 
 H                     7.35759  -3.46223  -0.83979 
 H                     4.9903   -3.65173  -0.67907 
 H                     11.73168  -2.67875  -1.00613 
 H                     13.75678  -1.8409    0.35381 
 H                     15.91202  -0.78044   0.48794 
 H                     14.06852   3.08769  -0.45227 
 H                     11.87857   1.96675  -0.67433 
 H                     18.08868   4.74988   0.15644 
 H                     19.8824   2.71804   0.28893 
 
 ITRead=  0  0  0  0  0  0  0  0  0  0  0  0  0  0  0  0  0  0  0  0
 ITRead=  0  0  0  0  0  0  0  0  0  0  0  0  0  0  0  0  0  0  0  0
 ITRead=  0  0  0  0  0  0  0  0  0  0  0  0  0  0  0  0  0  0  0  0
 ITRead=  0  0  0  0  0  0  0  0  0  0  0  0  0  0  0  0  0  0  0  0
 ITRead=  0  0
 MicOpt= -1 -1 -1 -1 -1 -1 -1 -1 -1 -1 -1 -1 -1 -1 -1 -1 -1 -1 -1 -1
 MicOpt= -1 -1 -1 -1 -1 -1 -1 -1 -1 -1 -1 -1 -1 -1 -1 -1 -1 -1 -1 -1
 MicOpt= -1 -1 -1 -1 -1 -1 -1 -1 -1 -1 -1 -1 -1 -1 -1 -1 -1 -1 -1 -1
 MicOpt= -1 -1 -1 -1 -1 -1 -1 -1 -1 -1 -1 -1 -1 -1 -1 -1 -1 -1 -1 -1
 MicOpt= -1 -1
 NAtoms=     82 NQM=       82 NQMF=       0 NMMI=      0 NMMIF=      0
                NMic=       0 NMicF=      0.
                    Isotopes and Nuclear Properties:
 (Nuclear quadrupole moments (NQMom) in fm**2, nuclear magnetic moments (NMagM)
  in nuclear magnetons)

  Atom         1           2           3           4           5           6           7           8           9          10
 IAtWgt=          12          12          12          12          12          12          12          14          12          12
 AtmWgt=  12.0000000  12.0000000  12.0000000  12.0000000  12.0000000  12.0000000  12.0000000  14.0030740  12.0000000  12.0000000
 NucSpn=           0           0           0           0           0           0           0           2           0           0
 AtZEff=  -0.0000000  -0.0000000  -0.0000000  -0.0000000  -0.0000000  -0.0000000  -0.0000000  -0.0000000  -0.0000000  -0.0000000
 NQMom=    0.0000000   0.0000000   0.0000000   0.0000000   0.0000000   0.0000000   0.0000000   2.0440000   0.0000000   0.0000000
 NMagM=    0.0000000   0.0000000   0.0000000   0.0000000   0.0000000   0.0000000   0.0000000   0.4037610   0.0000000   0.0000000
 AtZNuc=   6.0000000   6.0000000   6.0000000   6.0000000   6.0000000   6.0000000   6.0000000   7.0000000   6.0000000   6.0000000

  Atom        11          12          13          14          15          16          17          18          19          20
 IAtWgt=          32          12          12          12          12          12          12          12          14          12
 AtmWgt=  31.9720718  12.0000000  12.0000000  12.0000000  12.0000000  12.0000000  12.0000000  12.0000000  14.0030740  12.0000000
 NucSpn=           0           0           0           0           0           0           0           0           2           0
 AtZEff=  -0.0000000  -0.0000000  -0.0000000  -0.0000000  -0.0000000  -0.0000000  -0.0000000  -0.0000000  -0.0000000  -0.0000000
 NQMom=    0.0000000   0.0000000   0.0000000   0.0000000   0.0000000   0.0000000   0.0000000   0.0000000   2.0440000   0.0000000
 NMagM=    0.0000000   0.0000000   0.0000000   0.0000000   0.0000000   0.0000000   0.0000000   0.0000000   0.4037610   0.0000000
 AtZNuc=  16.0000000   6.0000000   6.0000000   6.0000000   6.0000000   6.0000000   6.0000000   6.0000000   7.0000000   6.0000000

  Atom        21          22          23          24          25          26          27          28          29          30
 IAtWgt=          12          32          12          12          12          12          12          12          12          14
 AtmWgt=  12.0000000  31.9720718  12.0000000  12.0000000  12.0000000  12.0000000  12.0000000  12.0000000  12.0000000  14.0030740
 NucSpn=           0           0           0           0           0           0           0           0           0           2
 AtZEff=  -0.0000000  -0.0000000  -0.0000000  -0.0000000  -0.0000000  -0.0000000  -0.0000000  -0.0000000  -0.0000000  -0.0000000
 NQMom=    0.0000000   0.0000000   0.0000000   0.0000000   0.0000000   0.0000000   0.0000000   0.0000000   0.0000000   2.0440000
 NMagM=    0.0000000   0.0000000   0.0000000   0.0000000   0.0000000   0.0000000   0.0000000   0.0000000   0.0000000   0.4037610
 AtZNuc=   6.0000000  16.0000000   6.0000000   6.0000000   6.0000000   6.0000000   6.0000000   6.0000000   6.0000000   7.0000000

  Atom        31          32          33          34          35          36          37          38          39          40
 IAtWgt=          12          12          32          12          12          12          12          12          12          12
 AtmWgt=  12.0000000  12.0000000  31.9720718  12.0000000  12.0000000  12.0000000  12.0000000  12.0000000  12.0000000  12.0000000
 NucSpn=           0           0           0           0           0           0           0           0           0           0
 AtZEff=  -0.0000000  -0.0000000  -0.0000000  -0.0000000  -0.0000000  -0.0000000  -0.0000000  -0.0000000  -0.0000000  -0.0000000
 NQMom=    0.0000000   0.0000000   0.0000000   0.0000000   0.0000000   0.0000000   0.0000000   0.0000000   0.0000000   0.0000000
 NMagM=    0.0000000   0.0000000   0.0000000   0.0000000   0.0000000   0.0000000   0.0000000   0.0000000   0.0000000   0.0000000
 AtZNuc=   6.0000000   6.0000000  16.0000000   6.0000000   6.0000000   6.0000000   6.0000000   6.0000000   6.0000000   6.0000000

  Atom        41          42          43          44          45          46          47          48          49          50
 IAtWgt=          14          12          12          32          12          12          12          12          12          12
 AtmWgt=  14.0030740  12.0000000  12.0000000  31.9720718  12.0000000  12.0000000  12.0000000  12.0000000  12.0000000  12.0000000
 NucSpn=           2           0           0           0           0           0           0           0           0           0
 AtZEff=  -0.0000000  -0.0000000  -0.0000000  -0.0000000  -0.0000000  -0.0000000  -0.0000000  -0.0000000  -0.0000000  -0.0000000
 NQMom=    2.0440000   0.0000000   0.0000000   0.0000000   0.0000000   0.0000000   0.0000000   0.0000000   0.0000000   0.0000000
 NMagM=    0.4037610   0.0000000   0.0000000   0.0000000   0.0000000   0.0000000   0.0000000   0.0000000   0.0000000   0.0000000
 AtZNuc=   7.0000000   6.0000000   6.0000000  16.0000000   6.0000000   6.0000000   6.0000000   6.0000000   6.0000000   6.0000000

  Atom        51          52          53          54          55          56          57          58          59          60
 IAtWgt=          12          14          12          12          32           1           1           1           1           1
 AtmWgt=  12.0000000  14.0030740  12.0000000  12.0000000  31.9720718   1.0078250   1.0078250   1.0078250   1.0078250   1.0078250
 NucSpn=           0           2           0           0           0           1           1           1           1           1
 AtZEff=  -0.0000000  -0.0000000  -0.0000000  -0.0000000  -0.0000000  -0.0000000  -0.0000000  -0.0000000  -0.0000000  -0.0000000
 NQMom=    0.0000000   2.0440000   0.0000000   0.0000000   0.0000000   0.0000000   0.0000000   0.0000000   0.0000000   0.0000000
 NMagM=    0.0000000   0.4037610   0.0000000   0.0000000   0.0000000   2.7928460   2.7928460   2.7928460   2.7928460   2.7928460
 AtZNuc=   6.0000000   7.0000000   6.0000000   6.0000000  16.0000000   1.0000000   1.0000000   1.0000000   1.0000000   1.0000000

  Atom        61          62          63          64          65          66          67          68          69          70
 IAtWgt=           1           1           1           1           1           1           1           1           1           1
 AtmWgt=   1.0078250   1.0078250   1.0078250   1.0078250   1.0078250   1.0078250   1.0078250   1.0078250   1.0078250   1.0078250
 NucSpn=           1           1           1           1           1           1           1           1           1           1
 AtZEff=  -0.0000000  -0.0000000  -0.0000000  -0.0000000  -0.0000000  -0.0000000  -0.0000000  -0.0000000  -0.0000000  -0.0000000
 NQMom=    0.0000000   0.0000000   0.0000000   0.0000000   0.0000000   0.0000000   0.0000000   0.0000000   0.0000000   0.0000000
 NMagM=    2.7928460   2.7928460   2.7928460   2.7928460   2.7928460   2.7928460   2.7928460   2.7928460   2.7928460   2.7928460
 AtZNuc=   1.0000000   1.0000000   1.0000000   1.0000000   1.0000000   1.0000000   1.0000000   1.0000000   1.0000000   1.0000000

  Atom        71          72          73          74          75          76          77          78          79          80
 IAtWgt=           1           1           1           1           1           1           1           1           1           1
 AtmWgt=   1.0078250   1.0078250   1.0078250   1.0078250   1.0078250   1.0078250   1.0078250   1.0078250   1.0078250   1.0078250
 NucSpn=           1           1           1           1           1           1           1           1           1           1
 AtZEff=  -0.0000000  -0.0000000  -0.0000000  -0.0000000  -0.0000000  -0.0000000  -0.0000000  -0.0000000  -0.0000000  -0.0000000
 NQMom=    0.0000000   0.0000000   0.0000000   0.0000000   0.0000000   0.0000000   0.0000000   0.0000000   0.0000000   0.0000000
 NMagM=    2.7928460   2.7928460   2.7928460   2.7928460   2.7928460   2.7928460   2.7928460   2.7928460   2.7928460   2.7928460
 AtZNuc=   1.0000000   1.0000000   1.0000000   1.0000000   1.0000000   1.0000000   1.0000000   1.0000000   1.0000000   1.0000000

  Atom        81          82
 IAtWgt=           1           1
 AtmWgt=   1.0078250   1.0078250
 NucSpn=           1           1
 AtZEff=  -0.0000000  -0.0000000
 NQMom=    0.0000000   0.0000000
 NMagM=    2.7928460   2.7928460
 AtZNuc=   1.0000000   1.0000000
 Leave Link  101 at Fri Jul 24 18:42:39 2020, MaxMem=  4026531840 cpu:               3.3 elap:               0.4
 (Enter /opt/ohpc/pub/libs/gaussian/g16-A.03/sandybridge/g16/l103.exe)

 GradGradGradGradGradGradGradGradGradGradGradGradGradGradGradGradGradGrad
 Berny optimization.
 Initialization pass.
                           ----------------------------
                           !    Initial Parameters    !
                           ! (Angstroms and Degrees)  !
 --------------------------                            --------------------------
 ! Name  Definition              Value          Derivative Info.                !
 --------------------------------------------------------------------------------
 ! R1    R(1,2)                  1.3367         estimate D2E/DX2                !
 ! R2    R(1,6)                  1.4641         estimate D2E/DX2                !
 ! R3    R(1,56)                 1.0878         estimate D2E/DX2                !
 ! R4    R(2,3)                  1.4293         estimate D2E/DX2                !
 ! R5    R(2,57)                 1.1148         estimate D2E/DX2                !
 ! R6    R(3,4)                  1.4375         estimate D2E/DX2                !
 ! R7    R(3,58)                 1.0756         estimate D2E/DX2                !
 ! R8    R(4,5)                  1.4125         estimate D2E/DX2                !
 ! R9    R(4,7)                  1.4258         estimate D2E/DX2                !
 ! R10   R(5,6)                  1.4376         estimate D2E/DX2                !
 ! R11   R(5,59)                 1.053          estimate D2E/DX2                !
 ! R12   R(6,60)                 1.0098         estimate D2E/DX2                !
 ! R13   R(7,8)                  1.3606         estimate D2E/DX2                !
 ! R14   R(7,11)                 1.7222         estimate D2E/DX2                !
 ! R15   R(8,9)                  1.4137         estimate D2E/DX2                !
 ! R16   R(9,10)                 1.3583         estimate D2E/DX2                !
 ! R17   R(9,61)                 1.0805         estimate D2E/DX2                !
 ! R18   R(10,11)                1.7064         estimate D2E/DX2                !
 ! R19   R(10,12)                1.4654         estimate D2E/DX2                !
 ! R20   R(12,13)                1.4605         estimate D2E/DX2                !
 ! R21   R(12,17)                1.373          estimate D2E/DX2                !
 ! R22   R(13,14)                1.3849         estimate D2E/DX2                !
 ! R23   R(13,62)                1.0159         estimate D2E/DX2                !
 ! R24   R(14,15)                1.4064         estimate D2E/DX2                !
 ! R25   R(14,63)                1.0175         estimate D2E/DX2                !
 ! R26   R(15,16)                1.4319         estimate D2E/DX2                !
 ! R27   R(15,18)                1.5036         estimate D2E/DX2                !
 ! R28   R(16,17)                1.4752         estimate D2E/DX2                !
 ! R29   R(16,64)                1.0206         estimate D2E/DX2                !
 ! R30   R(17,65)                1.0822         estimate D2E/DX2                !
 ! R31   R(18,19)                1.2761         estimate D2E/DX2                !
 ! R32   R(18,22)                1.7509         estimate D2E/DX2                !
 ! R33   R(19,20)                1.39           estimate D2E/DX2                !
 ! R34   R(20,21)                1.3278         estimate D2E/DX2                !
 ! R35   R(20,66)                1.1099         estimate D2E/DX2                !
 ! R36   R(21,22)                1.7666         estimate D2E/DX2                !
 ! R37   R(21,23)                1.5132         estimate D2E/DX2                !
 ! R38   R(23,24)                1.3376         estimate D2E/DX2                !
 ! R39   R(23,28)                1.4306         estimate D2E/DX2                !
 ! R40   R(24,25)                1.4063         estimate D2E/DX2                !
 ! R41   R(24,67)                1.0616         estimate D2E/DX2                !
 ! R42   R(25,26)                1.3808         estimate D2E/DX2                !
 ! R43   R(25,68)                1.0662         estimate D2E/DX2                !
 ! R44   R(26,27)                1.3843         estimate D2E/DX2                !
 ! R45   R(26,29)                1.5296         estimate D2E/DX2                !
 ! R46   R(27,28)                1.347          estimate D2E/DX2                !
 ! R47   R(27,69)                1.1351         estimate D2E/DX2                !
 ! R48   R(28,70)                1.1194         estimate D2E/DX2                !
 ! R49   R(29,30)                1.2972         estimate D2E/DX2                !
 ! R50   R(29,33)                1.7375         estimate D2E/DX2                !
 ! R51   R(30,31)                1.3498         estimate D2E/DX2                !
 ! R52   R(31,32)                1.4261         estimate D2E/DX2                !
 ! R53   R(31,71)                1.0801         estimate D2E/DX2                !
 ! R54   R(32,33)                1.721          estimate D2E/DX2                !
 ! R55   R(32,34)                1.5214         estimate D2E/DX2                !
 ! R56   R(34,35)                1.3647         estimate D2E/DX2                !
 ! R57   R(34,39)                1.3946         estimate D2E/DX2                !
 ! R58   R(35,36)                1.4042         estimate D2E/DX2                !
 ! R59   R(35,72)                1.1605         estimate D2E/DX2                !
 ! R60   R(36,37)                1.4278         estimate D2E/DX2                !
 ! R61   R(36,73)                1.1171         estimate D2E/DX2                !
 ! R62   R(37,38)                1.4342         estimate D2E/DX2                !
 ! R63   R(37,40)                1.4209         estimate D2E/DX2                !
 ! R64   R(38,39)                1.3771         estimate D2E/DX2                !
 ! R65   R(38,74)                1.0809         estimate D2E/DX2                !
 ! R66   R(39,75)                1.0298         estimate D2E/DX2                !
 ! R67   R(40,41)                1.3383         estimate D2E/DX2                !
 ! R68   R(40,44)                1.6885         estimate D2E/DX2                !
 ! R69   R(41,42)                1.4411         estimate D2E/DX2                !
 ! R70   R(42,43)                1.3734         estimate D2E/DX2                !
 ! R71   R(42,76)                1.0267         estimate D2E/DX2                !
 ! R72   R(43,44)                1.6367         estimate D2E/DX2                !
 ! R73   R(43,45)                1.4933         estimate D2E/DX2                !
 ! R74   R(45,46)                1.3659         estimate D2E/DX2                !
 ! R75   R(45,50)                1.4648         estimate D2E/DX2                !
 ! R76   R(46,47)                1.4701         estimate D2E/DX2                !
 ! R77   R(46,77)                1.0844         estimate D2E/DX2                !
 ! R78   R(47,48)                1.4015         estimate D2E/DX2                !
 ! R79   R(47,78)                1.1338         estimate D2E/DX2                !
 ! R80   R(48,49)                1.3766         estimate D2E/DX2                !
 ! R81   R(48,51)                1.4877         estimate D2E/DX2                !
 ! R82   R(49,50)                1.3758         estimate D2E/DX2                !
 ! R83   R(49,79)                1.1751         estimate D2E/DX2                !
 ! R84   R(50,80)                1.0587         estimate D2E/DX2                !
 ! R85   R(51,52)                1.2747         estimate D2E/DX2                !
 ! R86   R(51,55)                1.743          estimate D2E/DX2                !
 ! R87   R(52,53)                1.4196         estimate D2E/DX2                !
 ! R88   R(53,54)                1.4358         estimate D2E/DX2                !
 ! R89   R(53,81)                1.0755         estimate D2E/DX2                !
 ! R90   R(54,55)                1.6734         estimate D2E/DX2                !
 ! R91   R(54,82)                1.0961         estimate D2E/DX2                !
 ! A1    A(2,1,6)              120.9684         estimate D2E/DX2                !
 ! A2    A(2,1,56)             121.4511         estimate D2E/DX2                !
 ! A3    A(6,1,56)             116.8034         estimate D2E/DX2                !
 ! A4    A(1,2,3)              122.6715         estimate D2E/DX2                !
 ! A5    A(1,2,57)             120.2744         estimate D2E/DX2                !
 ! A6    A(3,2,57)             115.8251         estimate D2E/DX2                !
 ! A7    A(2,3,4)              117.8935         estimate D2E/DX2                !
 ! A8    A(2,3,58)             121.0297         estimate D2E/DX2                !
 ! A9    A(4,3,58)             120.8293         estimate D2E/DX2                !
 ! A10   A(3,4,5)              119.9768         estimate D2E/DX2                !
 ! A11   A(3,4,7)              122.2897         estimate D2E/DX2                !
 ! A12   A(5,4,7)              117.6855         estimate D2E/DX2                !
 ! A13   A(4,5,6)              120.9082         estimate D2E/DX2                !
 ! A14   A(4,5,59)             124.568          estimate D2E/DX2                !
 ! A15   A(6,5,59)             114.5048         estimate D2E/DX2                !
 ! A16   A(1,6,5)              117.0284         estimate D2E/DX2                !
 ! A17   A(1,6,60)             122.3827         estimate D2E/DX2                !
 ! A18   A(5,6,60)             120.4295         estimate D2E/DX2                !
 ! A19   A(4,7,8)              122.7579         estimate D2E/DX2                !
 ! A20   A(4,7,11)             122.8171         estimate D2E/DX2                !
 ! A21   A(8,7,11)             114.1438         estimate D2E/DX2                !
 ! A22   A(7,8,9)              107.0703         estimate D2E/DX2                !
 ! A23   A(8,9,10)             118.5369         estimate D2E/DX2                !
 ! A24   A(8,9,61)             117.1571         estimate D2E/DX2                !
 ! A25   A(10,9,61)            124.1486         estimate D2E/DX2                !
 ! A26   A(9,10,11)            108.2123         estimate D2E/DX2                !
 ! A27   A(9,10,12)            127.0836         estimate D2E/DX2                !
 ! A28   A(11,10,12)           124.6767         estimate D2E/DX2                !
 ! A29   A(7,11,10)             91.9076         estimate D2E/DX2                !
 ! A30   A(10,12,13)           121.1176         estimate D2E/DX2                !
 ! A31   A(10,12,17)           119.4051         estimate D2E/DX2                !
 ! A32   A(13,12,17)           119.0831         estimate D2E/DX2                !
 ! A33   A(12,13,14)           120.0826         estimate D2E/DX2                !
 ! A34   A(12,13,62)           119.3306         estimate D2E/DX2                !
 ! A35   A(14,13,62)           120.5854         estimate D2E/DX2                !
 ! A36   A(13,14,15)           120.3539         estimate D2E/DX2                !
 ! A37   A(13,14,63)           120.9847         estimate D2E/DX2                !
 ! A38   A(15,14,63)           118.4571         estimate D2E/DX2                !
 ! A39   A(14,15,16)           122.4326         estimate D2E/DX2                !
 ! A40   A(14,15,18)           118.2301         estimate D2E/DX2                !
 ! A41   A(16,15,18)           119.3106         estimate D2E/DX2                !
 ! A42   A(15,16,17)           115.3618         estimate D2E/DX2                !
 ! A43   A(15,16,64)           125.837          estimate D2E/DX2                !
 ! A44   A(17,16,64)           118.7746         estimate D2E/DX2                !
 ! A45   A(12,17,16)           122.4397         estimate D2E/DX2                !
 ! A46   A(12,17,65)           120.7456         estimate D2E/DX2                !
 ! A47   A(16,17,65)           116.7401         estimate D2E/DX2                !
 ! A48   A(15,18,19)           125.0432         estimate D2E/DX2                !
 ! A49   A(15,18,22)           121.6541         estimate D2E/DX2                !
 ! A50   A(19,18,22)           113.0916         estimate D2E/DX2                !
 ! A51   A(18,19,20)           112.5722         estimate D2E/DX2                !
 ! A52   A(19,20,21)           116.2867         estimate D2E/DX2                !
 ! A53   A(19,20,66)           116.0918         estimate D2E/DX2                !
 ! A54   A(21,20,66)           127.4697         estimate D2E/DX2                !
 ! A55   A(20,21,22)           108.4493         estimate D2E/DX2                !
 ! A56   A(20,21,23)           133.1981         estimate D2E/DX2                !
 ! A57   A(22,21,23)           118.3434         estimate D2E/DX2                !
 ! A58   A(18,22,21)            89.199          estimate D2E/DX2                !
 ! A59   A(21,23,24)           123.3756         estimate D2E/DX2                !
 ! A60   A(21,23,28)           116.5908         estimate D2E/DX2                !
 ! A61   A(24,23,28)           120.0332         estimate D2E/DX2                !
 ! A62   A(23,24,25)           120.2032         estimate D2E/DX2                !
 ! A63   A(23,24,67)           125.0992         estimate D2E/DX2                !
 ! A64   A(25,24,67)           114.3244         estimate D2E/DX2                !
 ! A65   A(24,25,26)           119.6451         estimate D2E/DX2                !
 ! A66   A(24,25,68)           119.6363         estimate D2E/DX2                !
 ! A67   A(26,25,68)           119.4639         estimate D2E/DX2                !
 ! A68   A(25,26,27)           118.9136         estimate D2E/DX2                !
 ! A69   A(25,26,29)           118.1553         estimate D2E/DX2                !
 ! A70   A(27,26,29)           122.9127         estimate D2E/DX2                !
 ! A71   A(26,27,28)           121.8068         estimate D2E/DX2                !
 ! A72   A(26,27,69)           119.788          estimate D2E/DX2                !
 ! A73   A(28,27,69)           118.1015         estimate D2E/DX2                !
 ! A74   A(23,28,27)           118.7777         estimate D2E/DX2                !
 ! A75   A(23,28,70)           118.7297         estimate D2E/DX2                !
 ! A76   A(27,28,70)           122.3647         estimate D2E/DX2                !
 ! A77   A(26,29,30)           124.4059         estimate D2E/DX2                !
 ! A78   A(26,29,33)           118.1839         estimate D2E/DX2                !
 ! A79   A(30,29,33)           117.1842         estimate D2E/DX2                !
 ! A80   A(29,30,31)           109.1806         estimate D2E/DX2                !
 ! A81   A(30,31,32)           116.7458         estimate D2E/DX2                !
 ! A82   A(30,31,71)           121.0048         estimate D2E/DX2                !
 ! A83   A(32,31,71)           122.0601         estimate D2E/DX2                !
 ! A84   A(31,32,33)           107.9544         estimate D2E/DX2                !
 ! A85   A(31,32,34)           127.143          estimate D2E/DX2                !
 ! A86   A(33,32,34)           124.8615         estimate D2E/DX2                !
 ! A87   A(29,33,32)            88.7641         estimate D2E/DX2                !
 ! A88   A(32,34,35)           119.7734         estimate D2E/DX2                !
 ! A89   A(32,34,39)           120.5796         estimate D2E/DX2                !
 ! A90   A(35,34,39)           119.594          estimate D2E/DX2                !
 ! A91   A(34,35,36)           123.1143         estimate D2E/DX2                !
 ! A92   A(34,35,72)           122.4666         estimate D2E/DX2                !
 ! A93   A(36,35,72)           114.3871         estimate D2E/DX2                !
 ! A94   A(35,36,37)           119.6442         estimate D2E/DX2                !
 ! A95   A(35,36,73)           119.0698         estimate D2E/DX2                !
 ! A96   A(37,36,73)           120.9856         estimate D2E/DX2                !
 ! A97   A(36,37,38)           114.2804         estimate D2E/DX2                !
 ! A98   A(36,37,40)           123.6175         estimate D2E/DX2                !
 ! A99   A(38,37,40)           122.0883         estimate D2E/DX2                !
 ! A100  A(37,38,39)           125.1053         estimate D2E/DX2                !
 ! A101  A(37,38,74)           119.277          estimate D2E/DX2                !
 ! A102  A(39,38,74)           115.1746         estimate D2E/DX2                !
 ! A103  A(34,39,38)           117.833          estimate D2E/DX2                !
 ! A104  A(34,39,75)           120.1517         estimate D2E/DX2                !
 ! A105  A(38,39,75)           121.4751         estimate D2E/DX2                !
 ! A106  A(37,40,41)           121.1461         estimate D2E/DX2                !
 ! A107  A(37,40,44)           125.5958         estimate D2E/DX2                !
 ! A108  A(41,40,44)           112.8955         estimate D2E/DX2                !
 ! A109  A(40,41,42)           109.7658         estimate D2E/DX2                !
 ! A110  A(41,42,43)           112.3524         estimate D2E/DX2                !
 ! A111  A(41,42,76)           117.5146         estimate D2E/DX2                !
 ! A112  A(43,42,76)           130.0823         estimate D2E/DX2                !
 ! A113  A(42,43,44)           111.5573         estimate D2E/DX2                !
 ! A114  A(42,43,45)           124.1448         estimate D2E/DX2                !
 ! A115  A(44,43,45)           124.2735         estimate D2E/DX2                !
 ! A116  A(40,44,43)            93.2283         estimate D2E/DX2                !
 ! A117  A(43,45,46)           122.4674         estimate D2E/DX2                !
 ! A118  A(43,45,50)           117.4542         estimate D2E/DX2                !
 ! A119  A(46,45,50)           119.5782         estimate D2E/DX2                !
 ! A120  A(45,46,47)           119.8645         estimate D2E/DX2                !
 ! A121  A(45,46,77)           124.2932         estimate D2E/DX2                !
 ! A122  A(47,46,77)           115.0729         estimate D2E/DX2                !
 ! A123  A(46,47,48)           120.2178         estimate D2E/DX2                !
 ! A124  A(46,47,78)           114.6063         estimate D2E/DX2                !
 ! A125  A(48,47,78)           124.6028         estimate D2E/DX2                !
 ! A126  A(47,48,49)           116.0371         estimate D2E/DX2                !
 ! A127  A(47,48,51)           120.1672         estimate D2E/DX2                !
 ! A128  A(49,48,51)           123.2822         estimate D2E/DX2                !
 ! A129  A(48,49,50)           127.1671         estimate D2E/DX2                !
 ! A130  A(48,49,79)           115.0976         estimate D2E/DX2                !
 ! A131  A(50,49,79)           117.7342         estimate D2E/DX2                !
 ! A132  A(45,50,49)           116.2102         estimate D2E/DX2                !
 ! A133  A(45,50,80)           122.9198         estimate D2E/DX2                !
 ! A134  A(49,50,80)           120.865          estimate D2E/DX2                !
 ! A135  A(48,51,52)           121.7316         estimate D2E/DX2                !
 ! A136  A(48,51,55)           123.1879         estimate D2E/DX2                !
 ! A137  A(52,51,55)           114.7358         estimate D2E/DX2                !
 ! A138  A(51,52,53)           112.7462         estimate D2E/DX2                !
 ! A139  A(52,53,54)           110.7407         estimate D2E/DX2                !
 ! A140  A(52,53,81)           119.6786         estimate D2E/DX2                !
 ! A141  A(54,53,81)           129.5073         estimate D2E/DX2                !
 ! A142  A(53,54,55)           111.1589         estimate D2E/DX2                !
 ! A143  A(53,54,82)           122.6597         estimate D2E/DX2                !
 ! A144  A(55,54,82)           126.1333         estimate D2E/DX2                !
 ! A145  A(51,55,54)            90.542          estimate D2E/DX2                !
 ! D1    D(6,1,2,3)             -9.436          estimate D2E/DX2                !
 ! D2    D(6,1,2,57)          -176.2364         estimate D2E/DX2                !
 ! D3    D(56,1,2,3)          -179.0156         estimate D2E/DX2                !
 ! D4    D(56,1,2,57)           14.184          estimate D2E/DX2                !
 ! D5    D(2,1,6,5)              7.0168         estimate D2E/DX2                !
 ! D6    D(2,1,6,60)          -177.558          estimate D2E/DX2                !
 ! D7    D(56,1,6,5)           177.0621         estimate D2E/DX2                !
 ! D8    D(56,1,6,60)           -7.5128         estimate D2E/DX2                !
 ! D9    D(1,2,3,4)              6.5335         estimate D2E/DX2                !
 ! D10   D(1,2,3,58)          -179.1357         estimate D2E/DX2                !
 ! D11   D(57,2,3,4)           173.8783         estimate D2E/DX2                !
 ! D12   D(57,2,3,58)          -11.7909         estimate D2E/DX2                !
 ! D13   D(2,3,4,5)             -1.4184         estimate D2E/DX2                !
 ! D14   D(2,3,4,7)            176.0033         estimate D2E/DX2                !
 ! D15   D(58,3,4,5)          -175.7611         estimate D2E/DX2                !
 ! D16   D(58,3,4,7)             1.6606         estimate D2E/DX2                !
 ! D17   D(3,4,5,6)             -0.4833         estimate D2E/DX2                !
 ! D18   D(3,4,5,59)          -178.8081         estimate D2E/DX2                !
 ! D19   D(7,4,5,6)           -178.022          estimate D2E/DX2                !
 ! D20   D(7,4,5,59)             3.6532         estimate D2E/DX2                !
 ! D21   D(3,4,7,8)            167.5818         estimate D2E/DX2                !
 ! D22   D(3,4,7,11)           -18.8685         estimate D2E/DX2                !
 ! D23   D(5,4,7,8)            -14.9403         estimate D2E/DX2                !
 ! D24   D(5,4,7,11)           158.6094         estimate D2E/DX2                !
 ! D25   D(4,5,6,1)             -2.0708         estimate D2E/DX2                !
 ! D26   D(4,5,6,60)          -177.5904         estimate D2E/DX2                !
 ! D27   D(59,5,6,1)           176.4133         estimate D2E/DX2                !
 ! D28   D(59,5,6,60)            0.8937         estimate D2E/DX2                !
 ! D29   D(4,7,8,9)            177.3074         estimate D2E/DX2                !
 ! D30   D(11,7,8,9)             3.2461         estimate D2E/DX2                !
 ! D31   D(4,7,11,10)         -177.6324         estimate D2E/DX2                !
 ! D32   D(8,7,11,10)           -3.5751         estimate D2E/DX2                !
 ! D33   D(7,8,9,10)            -1.2087         estimate D2E/DX2                !
 ! D34   D(7,8,9,61)           174.4224         estimate D2E/DX2                !
 ! D35   D(8,9,10,11)           -1.3296         estimate D2E/DX2                !
 ! D36   D(8,9,10,12)          176.8216         estimate D2E/DX2                !
 ! D37   D(61,9,10,11)        -176.6318         estimate D2E/DX2                !
 ! D38   D(61,9,10,12)           1.5194         estimate D2E/DX2                !
 ! D39   D(9,10,11,7)            2.6241         estimate D2E/DX2                !
 ! D40   D(12,10,11,7)        -175.5825         estimate D2E/DX2                !
 ! D41   D(9,10,12,13)        -144.9223         estimate D2E/DX2                !
 ! D42   D(9,10,12,17)          42.3514         estimate D2E/DX2                !
 ! D43   D(11,10,12,13)         32.942          estimate D2E/DX2                !
 ! D44   D(11,10,12,17)       -139.7842         estimate D2E/DX2                !
 ! D45   D(10,12,13,14)       -174.0879         estimate D2E/DX2                !
 ! D46   D(10,12,13,62)          5.4751         estimate D2E/DX2                !
 ! D47   D(17,12,13,14)         -1.3386         estimate D2E/DX2                !
 ! D48   D(17,12,13,62)        178.2244         estimate D2E/DX2                !
 ! D49   D(10,12,17,16)        177.2404         estimate D2E/DX2                !
 ! D50   D(10,12,17,65)         -6.004          estimate D2E/DX2                !
 ! D51   D(13,12,17,16)          4.3651         estimate D2E/DX2                !
 ! D52   D(13,12,17,65)       -178.8793         estimate D2E/DX2                !
 ! D53   D(12,13,14,15)         -3.2305         estimate D2E/DX2                !
 ! D54   D(12,13,14,63)       -177.9571         estimate D2E/DX2                !
 ! D55   D(62,13,14,15)        177.2121         estimate D2E/DX2                !
 ! D56   D(62,13,14,63)          2.4854         estimate D2E/DX2                !
 ! D57   D(13,14,15,16)          4.9239         estimate D2E/DX2                !
 ! D58   D(13,14,15,18)       -176.971          estimate D2E/DX2                !
 ! D59   D(63,14,15,16)        179.7821         estimate D2E/DX2                !
 ! D60   D(63,14,15,18)         -2.1128         estimate D2E/DX2                !
 ! D61   D(14,15,16,17)         -1.9507         estimate D2E/DX2                !
 ! D62   D(14,15,16,64)        179.9594         estimate D2E/DX2                !
 ! D63   D(18,15,16,17)        179.9639         estimate D2E/DX2                !
 ! D64   D(18,15,16,64)          1.8741         estimate D2E/DX2                !
 ! D65   D(14,15,18,19)        -31.7235         estimate D2E/DX2                !
 ! D66   D(14,15,18,22)        153.9277         estimate D2E/DX2                !
 ! D67   D(16,15,18,19)        146.4424         estimate D2E/DX2                !
 ! D68   D(16,15,18,22)        -27.9065         estimate D2E/DX2                !
 ! D69   D(15,16,17,12)         -2.7548         estimate D2E/DX2                !
 ! D70   D(15,16,17,65)       -179.6326         estimate D2E/DX2                !
 ! D71   D(64,16,17,12)        175.4786         estimate D2E/DX2                !
 ! D72   D(64,16,17,65)         -1.3992         estimate D2E/DX2                !
 ! D73   D(15,18,19,20)        178.3491         estimate D2E/DX2                !
 ! D74   D(22,18,19,20)         -6.8791         estimate D2E/DX2                !
 ! D75   D(15,18,22,21)       -179.3354         estimate D2E/DX2                !
 ! D76   D(19,18,22,21)          5.6925         estimate D2E/DX2                !
 ! D77   D(18,19,20,21)          4.7609         estimate D2E/DX2                !
 ! D78   D(18,19,20,66)       -179.3786         estimate D2E/DX2                !
 ! D79   D(19,20,21,22)         -0.3121         estimate D2E/DX2                !
 ! D80   D(19,20,21,23)        178.5293         estimate D2E/DX2                !
 ! D81   D(66,20,21,22)       -175.6269         estimate D2E/DX2                !
 ! D82   D(66,20,21,23)          3.2145         estimate D2E/DX2                !
 ! D83   D(20,21,22,18)         -2.8087         estimate D2E/DX2                !
 ! D84   D(23,21,22,18)        178.151          estimate D2E/DX2                !
 ! D85   D(20,21,23,24)       -152.263          estimate D2E/DX2                !
 ! D86   D(20,21,23,28)         27.9674         estimate D2E/DX2                !
 ! D87   D(22,21,23,24)         26.4882         estimate D2E/DX2                !
 ! D88   D(22,21,23,28)       -153.2814         estimate D2E/DX2                !
 ! D89   D(21,23,24,25)        176.0918         estimate D2E/DX2                !
 ! D90   D(21,23,24,67)          3.5161         estimate D2E/DX2                !
 ! D91   D(28,23,24,25)         -4.1462         estimate D2E/DX2                !
 ! D92   D(28,23,24,67)       -176.7219         estimate D2E/DX2                !
 ! D93   D(21,23,28,27)        177.0455         estimate D2E/DX2                !
 ! D94   D(21,23,28,70)          1.0575         estimate D2E/DX2                !
 ! D95   D(24,23,28,27)         -2.7322         estimate D2E/DX2                !
 ! D96   D(24,23,28,70)       -178.7203         estimate D2E/DX2                !
 ! D97   D(23,24,25,26)          8.8257         estimate D2E/DX2                !
 ! D98   D(23,24,25,68)        175.9657         estimate D2E/DX2                !
 ! D99   D(67,24,25,26)       -177.8366         estimate D2E/DX2                !
 ! D100  D(67,24,25,68)        -10.6966         estimate D2E/DX2                !
 ! D101  D(24,25,26,27)         -6.5119         estimate D2E/DX2                !
 ! D102  D(24,25,26,29)        175.0029         estimate D2E/DX2                !
 ! D103  D(68,25,26,27)       -173.6742         estimate D2E/DX2                !
 ! D104  D(68,25,26,29)          7.8406         estimate D2E/DX2                !
 ! D105  D(25,26,27,28)         -0.4283         estimate D2E/DX2                !
 ! D106  D(25,26,27,69)       -173.978          estimate D2E/DX2                !
 ! D107  D(29,26,27,28)        177.9807         estimate D2E/DX2                !
 ! D108  D(29,26,27,69)          4.431          estimate D2E/DX2                !
 ! D109  D(25,26,29,30)        -27.016          estimate D2E/DX2                !
 ! D110  D(25,26,29,33)        147.3564         estimate D2E/DX2                !
 ! D111  D(27,26,29,30)        154.5635         estimate D2E/DX2                !
 ! D112  D(27,26,29,33)        -31.064          estimate D2E/DX2                !
 ! D113  D(26,27,28,23)          5.0626         estimate D2E/DX2                !
 ! D114  D(26,27,28,70)       -179.1028         estimate D2E/DX2                !
 ! D115  D(69,27,28,23)        178.7169         estimate D2E/DX2                !
 ! D116  D(69,27,28,70)         -5.4485         estimate D2E/DX2                !
 ! D117  D(26,29,30,31)        178.9028         estimate D2E/DX2                !
 ! D118  D(33,29,30,31)          4.479          estimate D2E/DX2                !
 ! D119  D(26,29,33,32)       -178.7333         estimate D2E/DX2                !
 ! D120  D(30,29,33,32)         -3.9517         estimate D2E/DX2                !
 ! D121  D(29,30,31,32)         -2.752          estimate D2E/DX2                !
 ! D122  D(29,30,31,71)        172.3483         estimate D2E/DX2                !
 ! D123  D(30,31,32,33)         -0.0501         estimate D2E/DX2                !
 ! D124  D(30,31,32,34)       -177.7913         estimate D2E/DX2                !
 ! D125  D(71,31,32,33)       -175.0947         estimate D2E/DX2                !
 ! D126  D(71,31,32,34)          7.1642         estimate D2E/DX2                !
 ! D127  D(31,32,33,29)          2.0023         estimate D2E/DX2                !
 ! D128  D(34,32,33,29)        179.8079         estimate D2E/DX2                !
 ! D129  D(31,32,34,35)       -145.0257         estimate D2E/DX2                !
 ! D130  D(31,32,34,39)         37.6308         estimate D2E/DX2                !
 ! D131  D(33,32,34,35)         37.5934         estimate D2E/DX2                !
 ! D132  D(33,32,34,39)       -139.7501         estimate D2E/DX2                !
 ! D133  D(32,34,35,36)       -176.5026         estimate D2E/DX2                !
 ! D134  D(32,34,35,72)          5.6713         estimate D2E/DX2                !
 ! D135  D(39,34,35,36)          0.8672         estimate D2E/DX2                !
 ! D136  D(39,34,35,72)       -176.9589         estimate D2E/DX2                !
 ! D137  D(32,34,39,38)       -177.9954         estimate D2E/DX2                !
 ! D138  D(32,34,39,75)         -6.3002         estimate D2E/DX2                !
 ! D139  D(35,34,39,38)          4.6564         estimate D2E/DX2                !
 ! D140  D(35,34,39,75)        176.3516         estimate D2E/DX2                !
 ! D141  D(34,35,36,37)         -3.5601         estimate D2E/DX2                !
 ! D142  D(34,35,36,73)       -177.3293         estimate D2E/DX2                !
 ! D143  D(72,35,36,37)        174.4262         estimate D2E/DX2                !
 ! D144  D(72,35,36,73)          0.657          estimate D2E/DX2                !
 ! D145  D(35,36,37,38)          0.628          estimate D2E/DX2                !
 ! D146  D(35,36,37,40)       -178.0456         estimate D2E/DX2                !
 ! D147  D(73,36,37,38)        174.275          estimate D2E/DX2                !
 ! D148  D(73,36,37,40)         -4.3985         estimate D2E/DX2                !
 ! D149  D(36,37,38,39)          5.2114         estimate D2E/DX2                !
 ! D150  D(36,37,38,74)        177.1874         estimate D2E/DX2                !
 ! D151  D(40,37,38,39)       -176.0924         estimate D2E/DX2                !
 ! D152  D(40,37,38,74)         -4.1164         estimate D2E/DX2                !
 ! D153  D(36,37,40,41)       -177.0135         estimate D2E/DX2                !
 ! D154  D(36,37,40,44)         -4.429          estimate D2E/DX2                !
 ! D155  D(38,37,40,41)          4.4137         estimate D2E/DX2                !
 ! D156  D(38,37,40,44)        176.9981         estimate D2E/DX2                !
 ! D157  D(37,38,39,34)         -7.9654         estimate D2E/DX2                !
 ! D158  D(37,38,39,75)       -179.5446         estimate D2E/DX2                !
 ! D159  D(74,38,39,34)        179.7664         estimate D2E/DX2                !
 ! D160  D(74,38,39,75)          8.1872         estimate D2E/DX2                !
 ! D161  D(37,40,41,42)        178.0606         estimate D2E/DX2                !
 ! D162  D(44,40,41,42)          4.6022         estimate D2E/DX2                !
 ! D163  D(37,40,44,43)       -177.4075         estimate D2E/DX2                !
 ! D164  D(41,40,44,43)         -4.2942         estimate D2E/DX2                !
 ! D165  D(40,41,42,43)         -2.7312         estimate D2E/DX2                !
 ! D166  D(40,41,42,76)        174.941          estimate D2E/DX2                !
 ! D167  D(41,42,43,44)         -0.3842         estimate D2E/DX2                !
 ! D168  D(41,42,43,45)        177.8822         estimate D2E/DX2                !
 ! D169  D(76,42,43,44)       -177.6856         estimate D2E/DX2                !
 ! D170  D(76,42,43,45)          0.5807         estimate D2E/DX2                !
 ! D171  D(42,43,44,40)          2.5487         estimate D2E/DX2                !
 ! D172  D(45,43,44,40)       -175.7151         estimate D2E/DX2                !
 ! D173  D(42,43,45,46)        -28.1591         estimate D2E/DX2                !
 ! D174  D(42,43,45,50)        143.6848         estimate D2E/DX2                !
 ! D175  D(44,43,45,46)        149.8897         estimate D2E/DX2                !
 ! D176  D(44,43,45,50)        -38.2664         estimate D2E/DX2                !
 ! D177  D(43,45,46,47)       -178.5051         estimate D2E/DX2                !
 ! D178  D(43,45,46,77)         -9.0614         estimate D2E/DX2                !
 ! D179  D(50,45,46,47)          9.8181         estimate D2E/DX2                !
 ! D180  D(50,45,46,77)        179.2619         estimate D2E/DX2                !
 ! D181  D(43,45,50,49)       -178.7836         estimate D2E/DX2                !
 ! D182  D(43,45,50,80)          2.0211         estimate D2E/DX2                !
 ! D183  D(46,45,50,49)         -6.6944         estimate D2E/DX2                !
 ! D184  D(46,45,50,80)        174.1103         estimate D2E/DX2                !
 ! D185  D(45,46,47,48)        -10.4729         estimate D2E/DX2                !
 ! D186  D(45,46,47,78)        177.8152         estimate D2E/DX2                !
 ! D187  D(77,46,47,48)        179.1463         estimate D2E/DX2                !
 ! D188  D(77,46,47,78)          7.4344         estimate D2E/DX2                !
 ! D189  D(46,47,48,49)          7.4873         estimate D2E/DX2                !
 ! D190  D(46,47,48,51)        179.5343         estimate D2E/DX2                !
 ! D191  D(78,47,48,49)        178.3253         estimate D2E/DX2                !
 ! D192  D(78,47,48,51)         -9.6277         estimate D2E/DX2                !
 ! D193  D(47,48,49,50)         -4.8383         estimate D2E/DX2                !
 ! D194  D(47,48,49,79)        174.7604         estimate D2E/DX2                !
 ! D195  D(51,48,49,50)       -176.6116         estimate D2E/DX2                !
 ! D196  D(51,48,49,79)          2.9871         estimate D2E/DX2                !
 ! D197  D(47,48,51,52)       -168.171          estimate D2E/DX2                !
 ! D198  D(47,48,51,55)         18.9282         estimate D2E/DX2                !
 ! D199  D(49,48,51,52)          3.2768         estimate D2E/DX2                !
 ! D200  D(49,48,51,55)       -169.624          estimate D2E/DX2                !
 ! D201  D(48,49,50,45)          4.2788         estimate D2E/DX2                !
 ! D202  D(48,49,50,80)       -176.5081         estimate D2E/DX2                !
 ! D203  D(79,49,50,45)       -175.3106         estimate D2E/DX2                !
 ! D204  D(79,49,50,80)          3.9025         estimate D2E/DX2                !
 ! D205  D(48,51,52,53)       -175.8613         estimate D2E/DX2                !
 ! D206  D(55,51,52,53)         -2.4001         estimate D2E/DX2                !
 ! D207  D(48,51,55,54)        174.2073         estimate D2E/DX2                !
 ! D208  D(52,51,55,54)          0.8532         estimate D2E/DX2                !
 ! D209  D(51,52,53,54)          3.0447         estimate D2E/DX2                !
 ! D210  D(51,52,53,81)       -179.7822         estimate D2E/DX2                !
 ! D211  D(52,53,54,55)         -2.3669         estimate D2E/DX2                !
 ! D212  D(52,53,54,82)       -179.9869         estimate D2E/DX2                !
 ! D213  D(81,53,54,55)       -179.1832         estimate D2E/DX2                !
 ! D214  D(81,53,54,82)          3.1968         estimate D2E/DX2                !
 ! D215  D(53,54,55,51)          0.9417         estimate D2E/DX2                !
 ! D216  D(82,54,55,51)        178.4608         estimate D2E/DX2                !
 --------------------------------------------------------------------------------
 Trust Radius=3.00D-01 FncErr=1.00D-07 GrdErr=1.00D-06 EigMax=2.50D+02 EigMin=1.00D-04
 Number of steps in this run=    462 maximum allowed number of steps=    492.
 GradGradGradGradGradGradGradGradGradGradGradGradGradGradGradGradGradGrad

 Leave Link  103 at Fri Jul 24 18:42:40 2020, MaxMem=  4026531840 cpu:               0.2 elap:               0.0
 (Enter /opt/ohpc/pub/libs/gaussian/g16-A.03/sandybridge/g16/l202.exe)
 Stoichiometry    C45H27N5S5
 Framework group  C1[X(C45H27N5S5)]
 Deg. of freedom   240
 Full point group                 C1      NOp   1
 Largest Abelian subgroup         C1      NOp   1
 Largest concise Abelian subgroup C1      NOp   1
                         Standard orientation:                         
 ---------------------------------------------------------------------
 Center     Atomic      Atomic             Coordinates (Angstroms)
 Number     Number       Type             X           Y           Z
 ---------------------------------------------------------------------
      1          6           0      -19.380427    1.555754   -0.195230
      2          6           0      -18.397157    2.454428   -0.306077
      3          6           0      -17.024185    2.127695   -0.080131
      4          6           0      -16.688655    0.747174    0.138695
      5          6           0      -17.706217   -0.232296    0.155700
      6          6           0      -19.084252    0.131128   -0.033354
      7          6           0      -15.341513    0.305552    0.290196
      8          7           0      -15.020534   -0.938621    0.737704
      9          6           0      -13.611224   -1.042629    0.699382
     10          6           0      -12.894815    0.015073    0.237843
     11         16           0      -13.989650    1.238385   -0.227695
     12          6           0      -11.435585    0.135055    0.177398
     13          6           0      -10.773757    1.417506    0.401868
     14          6           0       -9.405871    1.533983    0.219823
     15          6           0       -8.634976    0.406513   -0.115546
     16          6           0       -9.220906   -0.872166   -0.384130
     17          6           0      -10.687729   -0.937705   -0.241076
     18          6           0       -7.145346    0.573090   -0.233954
     19          7           0       -6.555448    1.636138   -0.621801
     20          6           0       -5.170831    1.516607   -0.598933
     21          6           0       -4.689037    0.320165   -0.283715
     22         16           0       -6.047647   -0.766400    0.023590
     23          6           0       -3.285750   -0.235453   -0.174240
     24          6           0       -2.987834   -1.525081   -0.367091
     25          6           0       -1.649510   -1.955291   -0.329458
     26          6           0       -0.663131   -1.082964    0.086089
     27          6           0       -0.996631    0.238768    0.327022
     28          6           0       -2.252376    0.696079    0.158930
     29          6           0        0.762675   -1.619060    0.225368
     30          7           0        1.059157   -2.856809    0.475878
     31          6           0        2.401618   -2.993170    0.509663
     32          6           0        3.172480   -1.829643    0.216760
     33         16           0        2.081857   -0.538839   -0.108925
     34          6           0        4.688597   -1.726915    0.142156
     35          6           0        5.311686   -0.585593    0.556334
     36          6           0        6.697928   -0.387537    0.452670
     37          6           0        7.527120   -1.441288   -0.037840
     38          6           0        6.815020   -2.632917   -0.398359
     39          6           0        5.444557   -2.767474   -0.397106
     40          6           0        8.941213   -1.347020   -0.139711
     41          7           0        9.665564   -2.343780   -0.662104
     42          6           0       11.057915   -1.972841   -0.687817
     43          6           0       11.266017   -0.693323   -0.234272
     44         16           0        9.860777    0.029999    0.190883
     45          6           0       12.611238   -0.057760   -0.106492
     46          6           0       13.746468   -0.783105    0.118930
     47          6           0       15.037147   -0.095260    0.267975
     48          6           0       15.148702    1.268568   -0.034881
     49          6           0       13.970425    1.924515   -0.311282
     50          6           0       12.714896    1.371036   -0.412220
     51          6           0       16.452909    1.965910    0.126229
     52          7           0       16.544499    3.236368    0.076515
     53          6           0       17.885887    3.693653    0.159540
     54          6           0       18.798530    2.586290    0.207817
     55         16           0       17.978514    1.127611    0.214804
     56          1           0      -20.417458    1.822473   -0.387177
     57          1           0      -18.634003    3.542106   -0.365972
     58          1           0      -16.255359    2.875366   -0.163255
     59          1           0      -17.544755   -1.258606    0.326993
     60          1           0      -19.809479   -0.569811    0.016215
     61          1           0      -13.171567   -1.939887    1.110593
     62          1           0      -11.327743    2.220524    0.685271
     63          1           0       -8.926143    2.412575    0.401978
     64          1           0       -8.712979   -1.722055   -0.631936
     65          1           0      -11.153373   -1.895605   -0.432927
     66          1           0       -4.598157    2.413125   -0.915618
     67          1           0       -3.679561   -2.273544   -0.664369
     68          1           0       -1.426885   -2.994084   -0.419891
     69          1           0       -0.181689    0.990817    0.569304
     70          1           0       -2.529299    1.765966    0.336853
     71          1           0        2.858984   -3.919744    0.824043
     72          1           0        4.738889    0.289561    1.059072
     73          1           0        7.143063    0.554999    0.854301
     74          1           0        7.358381   -3.465529   -0.822446
     75          1           0        4.991080   -3.653734   -0.660377
     76          1           0       11.732610   -2.683824   -0.993386
     77          1           0       13.758130   -1.839792    0.362089
     78          1           0       15.913630   -0.779160    0.490658
     79          1           0       14.070800    3.084739   -0.468082
     80          1           0       11.880567    1.963207   -0.684282
     81          1           0       18.091424    4.749002    0.131794
     82          1           0       19.884726    2.717441    0.273873
 ---------------------------------------------------------------------
 Rotational constants (GHZ):           0.2498581           0.0047787           0.0046969
 Leave Link  202 at Fri Jul 24 18:42:40 2020, MaxMem=  4026531840 cpu:               0.1 elap:               0.0
 (Enter /opt/ohpc/pub/libs/gaussian/g16-A.03/sandybridge/g16/l301.exe)
 Standard basis: CC-pVDZ (5D, 7F)
 Ernie: Thresh=  0.10000D-02 Tol=  0.10000D-05 Strict=F.
 Ernie:  150 primitive shells out of 1485 were deleted.
 There are   980 symmetry adapted cartesian basis functions of A   symmetry.
 There are   925 symmetry adapted basis functions of A   symmetry.
   925 basis functions,  2194 primitive gaussians,   980 cartesian basis functions
   206 alpha electrons      206 beta electrons
       nuclear repulsion energy      6168.8531680085 Hartrees.
 IExCor=32609 DFT=T Ex+Corr=LC-wPBE ExCW=0 ScaHFX=  1.000000
 ScaDFX=  1.000000  0.000000  1.000000  1.000000 ScalE2=  1.000000  1.000000
 IRadAn=      5 IRanWt=     -1 IRanGd=            0 ICorTp=0 IEmpDi=  4
 HFx  wShort=  0.000000 wLong=  0.206700 cFull=  0.000000 cShort=  0.000000 cLong=  1.000000
 DFx  wShort=  0.000000 wLong=  0.206700 cFull=  0.000000 cShort=  0.000000 cLong=  1.000000
 NAtoms=   82 NActive=   82 NUniq=   82 SFac= 1.00D+00 NAtFMM=   60 NAOKFM=T Big=T
 Integral buffers will be    131072 words long.
 Raffenetti 2 integral format.
 Two-electron integral symmetry is turned on.
 Leave Link  301 at Fri Jul 24 18:42:40 2020, MaxMem=  4026531840 cpu:               0.4 elap:               0.1
 (Enter /opt/ohpc/pub/libs/gaussian/g16-A.03/sandybridge/g16/l302.exe)
 NPDir=0 NMtPBC=     1 NCelOv=     1 NCel=       1 NClECP=     1 NCelD=      1
         NCelK=      1 NCelE2=     1 NClLst=     1 CellRange=     0.0.
 One-electron integrals computed using PRISM.
 One-electron integral symmetry used in STVInt
 NBasis=   925 RedAO= T EigKep=  2.84D-04  NBF=   925
 NBsUse=   925 1.00D-06 EigRej= -1.00D+00 NBFU=   925
 Precomputing XC quadrature grid using
 IXCGrd= 4 IRadAn=           5 IRanWt=          -1 IRanGd=           0 AccXCQ= 0.00D+00.
 Generated NRdTot=       0 NPtTot=           0 NUsed=           0 NTot=          32
 NSgBfM=   568   568   568   568   568 MxSgAt=    82 MxSgA2=    76.
 Leave Link  302 at Fri Jul 24 18:42:42 2020, MaxMem=  4026531840 cpu:              22.2 elap:               2.8
 (Enter /opt/ohpc/pub/libs/gaussian/g16-A.03/sandybridge/g16/l303.exe)
 DipDrv:  MaxL=1.
 Leave Link  303 at Fri Jul 24 18:42:43 2020, MaxMem=  4026531840 cpu:               1.4 elap:               0.2
 (Enter /opt/ohpc/pub/libs/gaussian/g16-A.03/sandybridge/g16/l401.exe)
 ExpMin= 1.22D-01 ExpMax= 1.11D+05 ExpMxC= 1.07D+03 IAcc=3 IRadAn=         5 AccDes= 0.00D+00
 Harris functional with IExCor=32609 and IRadAn=       5 diagonalized for initial guess.
 HarFok:  IExCor=32609 AccDes= 0.00D+00 IRadAn=         5 IDoV= 1 UseB2=F ITyADJ=14
 ICtDFT=  3500011 ScaDFX=  1.000000  1.000000  1.000000  1.000000
 FoFCou: FMM=F IPFlag=           0 FMFlag=      100000 FMFlg1=        2001
         NFxFlg=           0 DoJE=T BraDBF=F KetDBF=T FulRan=T
         wScrn=  0.000000 ICntrl=       500 IOpCl=  0 I1Cent=   200000004 NGrid=           0
         NMat0=    1 NMatS0=      1 NMatT0=    0 NMatD0=    1 NMtDS0=    0 NMtDT0=    0
 Petite list used in FoFCou.
 Harris En= -3993.21004978066    
 JPrj=0 DoOrth=F DoCkMO=F.
 Initial guess <Sx>= 0.0000 <Sy>= 0.0000 <Sz>= 0.0000 <S**2>=-0.0000 S=-0.0000
 Leave Link  401 at Fri Jul 24 18:42:52 2020, MaxMem=  4026531840 cpu:              76.3 elap:               9.6
 (Enter /opt/ohpc/pub/libs/gaussian/g16-A.03/sandybridge/g16/l502.exe)
 Integral symmetry usage will be decided dynamically.
 UHF open shell SCF:
 Using DIIS extrapolation, IDIIS=  1040.
 NGot=  4026531840 LenX=  4024593424 LenY=  4023632044
 Requested convergence on RMS density matrix=1.00D-08 within 128 cycles.
 Requested convergence on MAX density matrix=1.00D-06.
 Requested convergence on             energy=1.00D-06.
 No special actions if energy rises.
 Fock matrices will be formed incrementally for  20 cycles.
 Integral accuracy reduced to 1.0D-05 until final iterations.

 Cycle   1  Pass 0  IDiag  1:
 FoFJK:  IHMeth= 1 ICntrl=       0 DoSepK=T KAlg= 0 I1Cent=           0 FoldK=F
 IRaf=         1 NMat=       1 IRICut=       1 DoRegI=T DoRafI=F ISym2E= 0 IDoP0=0 IntGTp=1.
 FoFCou: FMM=T IPFlag=           0 FMFlag=      100000 FMFlg1=        2001
         NFxFlg=           0 DoJE=T BraDBF=F KetDBF=F FulRan=T
         wScrn=  0.000000 ICntrl=       500 IOpCl=  0 I1Cent=           0 NGrid=           0
         NMat0=    1 NMatS0=      1 NMatT0=    0 NMatD0=    1 NMtDS0=    0 NMtDT0=    0
 Symmetry not used in FoFCou.
 FMM levels:  10  Number of levels for PrismC:   9
 E= -3992.26816584442    
 DIIS: error= 2.22D-02 at cycle   1 NSaved=   1.
 NSaved= 1 IEnMin= 1 EnMin= -3992.26816584442     IErMin= 1 ErrMin= 2.22D-02
 ErrMax= 2.22D-02  0.00D+00 EMaxC= 1.00D-01 BMatC= 3.56D+00 BMatP= 3.56D+00
 IDIUse=3 WtCom= 7.78D-01 WtEn= 2.22D-01
 Coeff-Com:  0.100D+01
 Coeff-En:   0.100D+01
 Coeff:      0.100D+01
 Gap=     0.277 Goal=   None    Shift=    0.000
 Gap=     0.277 Goal=   None    Shift=    0.000
 GapD=    0.277 DampG=1.000 DampE=0.500 DampFc=0.5000 IDamp=-1.
 Damping current iteration by 5.00D-01
 RMSDP=2.74D-03 MaxDP=1.60D-01              OVMax= 1.97D-01

 Cycle   2  Pass 0  IDiag  1:
 RMSU=  1.36D-03    CP:  9.86D-01
 E= -3992.74292912508     Delta-E=       -0.474763280654 Rises=F Damp=T
 DIIS: error= 4.47D-03 at cycle   2 NSaved=   2.
 NSaved= 2 IEnMin= 2 EnMin= -3992.74292912508     IErMin= 2 ErrMin= 4.47D-03
 ErrMax= 4.47D-03  0.00D+00 EMaxC= 1.00D-01 BMatC= 2.25D-01 BMatP= 3.56D+00
 IDIUse=3 WtCom= 9.55D-01 WtEn= 4.47D-02
 Coeff-Com:  0.728D-01 0.927D+00
 Coeff-En:   0.902D-01 0.910D+00
 Coeff:      0.736D-01 0.926D+00
 Gap=     0.249 Goal=   None    Shift=    0.000
 Gap=     0.249 Goal=   None    Shift=    0.000
 RMSDP=7.09D-04 MaxDP=3.19D-02 DE=-4.75D-01 OVMax= 1.51D-01

 Cycle   3  Pass 0  IDiag  1:
 RMSU=  6.86D-04    CP:  9.76D-01  9.05D-01
 E= -3993.29930663813     Delta-E=       -0.556377513052 Rises=F Damp=F
 DIIS: error= 4.40D-03 at cycle   3 NSaved=   3.
 NSaved= 3 IEnMin= 3 EnMin= -3993.29930663813     IErMin= 3 ErrMin= 4.40D-03
 ErrMax= 4.40D-03  0.00D+00 EMaxC= 1.00D-01 BMatC= 1.94D-01 BMatP= 2.25D-01
 IDIUse=3 WtCom= 9.56D-01 WtEn= 4.40D-02
 Coeff-Com: -0.151D-02 0.479D+00 0.523D+00
 Coeff-En:   0.000D+00 0.000D+00 0.100D+01
 Coeff:     -0.144D-02 0.458D+00 0.544D+00
 Gap=     0.240 Goal=   None    Shift=    0.000
 Gap=     0.240 Goal=   None    Shift=    0.000
 RMSDP=2.91D-04 MaxDP=2.48D-02 DE=-5.56D-01 OVMax= 3.74D-02

 Cycle   4  Pass 0  IDiag  1:
 RMSU=  2.28D-04    CP:  9.78D-01  9.64D-01  7.67D-01
 E= -3993.34253730056     Delta-E=       -0.043230662430 Rises=F Damp=F
 DIIS: error= 1.15D-03 at cycle   4 NSaved=   4.
 NSaved= 4 IEnMin= 4 EnMin= -3993.34253730056     IErMin= 4 ErrMin= 1.15D-03
 ErrMax= 1.15D-03  0.00D+00 EMaxC= 1.00D-01 BMatC= 1.75D-02 BMatP= 1.94D-01
 IDIUse=3 WtCom= 9.89D-01 WtEn= 1.15D-02
 Coeff-Com: -0.346D-02 0.663D-01 0.243D+00 0.694D+00
 Coeff-En:   0.000D+00 0.000D+00 0.000D+00 0.100D+01
 Coeff:     -0.342D-02 0.655D-01 0.240D+00 0.698D+00
 Gap=     0.242 Goal=   None    Shift=    0.000
 Gap=     0.242 Goal=   None    Shift=    0.000
 RMSDP=8.90D-05 MaxDP=7.76D-03 DE=-4.32D-02 OVMax= 9.47D-03

 Cycle   5  Pass 0  IDiag  1:
 RMSU=  6.59D-05    CP:  9.77D-01  9.52D-01  8.26D-01  8.22D-01
 E= -3993.34688918134     Delta-E=       -0.004351880785 Rises=F Damp=F
 DIIS: error= 2.40D-04 at cycle   5 NSaved=   5.
 NSaved= 5 IEnMin= 5 EnMin= -3993.34688918134     IErMin= 5 ErrMin= 2.40D-04
 ErrMax= 2.40D-04  0.00D+00 EMaxC= 1.00D-01 BMatC= 9.09D-04 BMatP= 1.75D-02
 IDIUse=3 WtCom= 9.98D-01 WtEn= 2.40D-03
 Coeff-Com:  0.157D-02-0.168D-01 0.373D-01 0.224D+00 0.754D+00
 Coeff-En:   0.000D+00 0.000D+00 0.000D+00 0.000D+00 0.100D+01
 Coeff:      0.157D-02-0.168D-01 0.372D-01 0.224D+00 0.754D+00
 Gap=     0.244 Goal=   None    Shift=    0.000
 Gap=     0.244 Goal=   None    Shift=    0.000
 RMSDP=3.24D-05 MaxDP=2.41D-03 DE=-4.35D-03 OVMax= 4.96D-03

 Cycle   6  Pass 0  IDiag  1:
 RMSU=  2.67D-05    CP:  9.77D-01  9.47D-01  8.43D-01  8.79D-01  1.02D+00
 E= -3993.34720535340     Delta-E=       -0.000316172052 Rises=F Damp=F
 DIIS: error= 1.53D-04 at cycle   6 NSaved=   6.
 NSaved= 6 IEnMin= 6 EnMin= -3993.34720535340     IErMin= 6 ErrMin= 1.53D-04
 ErrMax= 1.53D-04  0.00D+00 EMaxC= 1.00D-01 BMatC= 2.84D-04 BMatP= 9.09D-04
 IDIUse=3 WtCom= 9.98D-01 WtEn= 1.53D-03
 Coeff-Com:  0.201D-02-0.204D-01-0.153D-01 0.190D-01 0.386D+00 0.629D+00
 Coeff-En:   0.000D+00 0.000D+00 0.000D+00 0.000D+00 0.000D+00 0.100D+01
 Coeff:      0.200D-02-0.203D-01-0.152D-01 0.190D-01 0.385D+00 0.629D+00
 Gap=     0.244 Goal=   None    Shift=    0.000
 Gap=     0.244 Goal=   None    Shift=    0.000
 RMSDP=1.75D-05 MaxDP=9.97D-04 DE=-3.16D-04 OVMax= 2.19D-03

 Cycle   7  Pass 0  IDiag  1:
 RMSU=  1.34D-05    CP:  9.77D-01  9.45D-01  8.48D-01  8.97D-01  1.16D+00
                    CP:  9.77D-01
 E= -3993.34730826357     Delta-E=       -0.000102910173 Rises=F Damp=F
 DIIS: error= 5.40D-05 at cycle   7 NSaved=   7.
 NSaved= 7 IEnMin= 7 EnMin= -3993.34730826357     IErMin= 7 ErrMin= 5.40D-05
 ErrMax= 5.40D-05  0.00D+00 EMaxC= 1.00D-01 BMatC= 3.63D-05 BMatP= 2.84D-04
 IDIUse=1 WtCom= 1.00D+00 WtEn= 0.00D+00
 Coeff-Com:  0.785D-03-0.564D-02-0.112D-01-0.288D-01 0.417D-02 0.243D+00
 Coeff-Com:  0.798D+00
 Coeff:      0.785D-03-0.564D-02-0.112D-01-0.288D-01 0.417D-02 0.243D+00
 Coeff:      0.798D+00
 Gap=     0.244 Goal=   None    Shift=    0.000
 Gap=     0.244 Goal=   None    Shift=    0.000
 RMSDP=1.45D-05 MaxDP=4.63D-04 DE=-1.03D-04 OVMax= 1.53D-03

 Cycle   8  Pass 0  IDiag  1:
 RMSU=  1.14D-05    CP:  9.77D-01  9.44D-01  8.51D-01  9.08D-01  1.21D+00
                    CP:  1.23D+00  1.27D+00
 E= -3993.34732875766     Delta-E=       -0.000020494090 Rises=F Damp=F
 DIIS: error= 4.52D-05 at cycle   8 NSaved=   8.
 NSaved= 8 IEnMin= 8 EnMin= -3993.34732875766     IErMin= 8 ErrMin= 4.52D-05
 ErrMax= 4.52D-05  0.00D+00 EMaxC= 1.00D-01 BMatC= 1.42D-05 BMatP= 3.63D-05
 IDIUse=1 WtCom= 1.00D+00 WtEn= 0.00D+00
 Coeff-Com:  0.158D-03-0.150D-03-0.376D-02-0.193D-01-0.641D-01 0.278D-01
 Coeff-Com:  0.454D+00 0.605D+00
 Coeff:      0.158D-03-0.150D-03-0.376D-02-0.193D-01-0.641D-01 0.278D-01
 Coeff:      0.454D+00 0.605D+00
 Gap=     0.244 Goal=   None    Shift=    0.000
 Gap=     0.244 Goal=   None    Shift=    0.000
 RMSDP=1.39D-05 MaxDP=4.40D-04 DE=-2.05D-05 OVMax= 5.36D-04

 Cycle   9  Pass 0  IDiag  1:
 RMSU=  9.18D-06    CP:  9.77D-01  9.44D-01  8.51D-01  9.12D-01  1.23D+00
                    CP:  1.37D+00  1.81D+00  1.56D+00
 E= -3993.34733540749     Delta-E=       -0.000006649832 Rises=F Damp=F
 DIIS: error= 5.24D-05 at cycle   9 NSaved=   9.
 NSaved= 9 IEnMin= 9 EnMin= -3993.34733540749     IErMin= 8 ErrMin= 4.52D-05
 ErrMax= 5.24D-05  0.00D+00 EMaxC= 1.00D-01 BMatC= 6.27D-06 BMatP= 1.42D-05
 IDIUse=1 WtCom= 1.00D+00 WtEn= 0.00D+00
 Coeff-Com:  0.110D-03-0.738D-04-0.267D-02-0.141D-01-0.481D-01 0.179D-01
 Coeff-Com:  0.331D+00 0.455D+00 0.261D+00
 Coeff:      0.110D-03-0.738D-04-0.267D-02-0.141D-01-0.481D-01 0.179D-01
 Coeff:      0.331D+00 0.455D+00 0.261D+00
 Gap=     0.244 Goal=   None    Shift=    0.000
 Gap=     0.244 Goal=   None    Shift=    0.000
 RMSDP=6.61D-06 MaxDP=1.86D-04 DE=-6.65D-06 OVMax= 6.75D-05

 Initial convergence to 1.0D-05 achieved.  Increase integral accuracy.
 Cycle  10  Pass 1  IDiag  1:
 E= -3993.34647614742     Delta-E=        0.000859260072 Rises=F Damp=F
 DIIS: error= 2.19D-04 at cycle   1 NSaved=   1.
 NSaved= 1 IEnMin= 1 EnMin= -3993.34647614742     IErMin= 1 ErrMin= 2.19D-04
 ErrMax= 2.19D-04  0.00D+00 EMaxC= 1.00D-01 BMatC= 1.43D-04 BMatP= 1.43D-04
 IDIUse=3 WtCom= 9.98D-01 WtEn= 2.19D-03
 Coeff-Com:  0.100D+01
 Coeff-En:   0.100D+01
 Coeff:      0.100D+01
 Gap=     0.244 Goal=   None    Shift=    0.000
 Gap=     0.244 Goal=   None    Shift=    0.000
 RMSDP=6.61D-06 MaxDP=1.86D-04 DE= 8.59D-04 OVMax= 5.37D-04

 Cycle  11  Pass 1  IDiag  1:
 RMSU=  1.40D-04    CP:  1.00D+00
 E= -3993.34650762761     Delta-E=       -0.000031480193 Rises=F Damp=F
 DIIS: error= 9.47D-06 at cycle   2 NSaved=   2.
 NSaved= 2 IEnMin= 2 EnMin= -3993.34650762761     IErMin= 2 ErrMin= 9.47D-06
 ErrMax= 9.47D-06  0.00D+00 EMaxC= 1.00D-01 BMatC= 4.49D-07 BMatP= 1.43D-04
 IDIUse=1 WtCom= 1.00D+00 WtEn= 0.00D+00
 Coeff-Com: -0.365D-01 0.104D+01
 Coeff:     -0.365D-01 0.104D+01
 Gap=     0.244 Goal=   None    Shift=    0.000
 Gap=     0.244 Goal=   None    Shift=    0.000
 RMSDP=8.00D-06 MaxDP=3.28D-04 DE=-3.15D-05 OVMax= 1.11D-04

 Cycle  12  Pass 1  IDiag  1:
 RMSU=  2.76D-06    CP:  1.00D+00  1.05D+00
 E= -3993.34650776147     Delta-E=       -0.000000133861 Rises=F Damp=F
 DIIS: error= 6.04D-06 at cycle   3 NSaved=   3.
 NSaved= 3 IEnMin= 3 EnMin= -3993.34650776147     IErMin= 3 ErrMin= 6.04D-06
 ErrMax= 6.04D-06  0.00D+00 EMaxC= 1.00D-01 BMatC= 2.59D-07 BMatP= 4.49D-07
 IDIUse=1 WtCom= 1.00D+00 WtEn= 0.00D+00
 Coeff-Com: -0.195D-01 0.511D+00 0.509D+00
 Coeff:     -0.195D-01 0.511D+00 0.509D+00
 Gap=     0.244 Goal=   None    Shift=    0.000
 Gap=     0.244 Goal=   None    Shift=    0.000
 RMSDP=3.98D-07 MaxDP=3.08D-05 DE=-1.34D-07 OVMax= 5.21D-05

 Cycle  13  Pass 1  IDiag  1:
 RMSU=  3.54D-07    CP:  1.00D+00  1.05D+00  1.04D+00
 E= -3993.34650783057     Delta-E=       -0.000000069100 Rises=F Damp=F
 DIIS: error= 2.06D-06 at cycle   4 NSaved=   4.
 NSaved= 4 IEnMin= 4 EnMin= -3993.34650783057     IErMin= 4 ErrMin= 2.06D-06
 ErrMax= 2.06D-06  0.00D+00 EMaxC= 1.00D-01 BMatC= 2.91D-08 BMatP= 2.59D-07
 IDIUse=1 WtCom= 1.00D+00 WtEn= 0.00D+00
 Coeff-Com:  0.134D-03-0.220D-01 0.215D+00 0.807D+00
 Coeff:      0.134D-03-0.220D-01 0.215D+00 0.807D+00
 Gap=     0.244 Goal=   None    Shift=    0.000
 Gap=     0.244 Goal=   None    Shift=    0.000
 RMSDP=2.88D-07 MaxDP=1.08D-05 DE=-6.91D-08 OVMax= 3.41D-05

 Cycle  14  Pass 1  IDiag  1:
 RMSU=  1.58D-07    CP:  1.00D+00  1.06D+00  1.10D+00  9.48D-01
 E= -3993.34650784997     Delta-E=       -0.000000019400 Rises=F Damp=F
 DIIS: error= 5.86D-07 at cycle   5 NSaved=   5.
 NSaved= 5 IEnMin= 5 EnMin= -3993.34650784997     IErMin= 5 ErrMin= 5.86D-07
 ErrMax= 5.86D-07  0.00D+00 EMaxC= 1.00D-01 BMatC= 5.77D-09 BMatP= 2.91D-08
 IDIUse=1 WtCom= 1.00D+00 WtEn= 0.00D+00
 Coeff-Com:  0.257D-02-0.761D-01 0.394D-01 0.384D+00 0.650D+00
 Coeff:      0.257D-02-0.761D-01 0.394D-01 0.384D+00 0.650D+00
 Gap=     0.244 Goal=   None    Shift=    0.000
 Gap=     0.244 Goal=   None    Shift=    0.000
 RMSDP=8.72D-08 MaxDP=4.66D-06 DE=-1.94D-08 OVMax= 1.80D-05

 Cycle  15  Pass 1  IDiag  1:
 RMSU=  6.50D-08    CP:  1.00D+00  1.06D+00  1.12D+00  1.04D+00  1.13D+00
 E= -3993.34650785098     Delta-E=       -0.000000001006 Rises=F Damp=F
 DIIS: error= 2.88D-07 at cycle   6 NSaved=   6.
 NSaved= 6 IEnMin= 6 EnMin= -3993.34650785098     IErMin= 6 ErrMin= 2.88D-07
 ErrMax= 2.88D-07  0.00D+00 EMaxC= 1.00D-01 BMatC= 9.56D-10 BMatP= 5.77D-09
 IDIUse=1 WtCom= 1.00D+00 WtEn= 0.00D+00
 Coeff-Com:  0.681D-03-0.163D-01-0.350D-01-0.788D-01 0.227D+00 0.903D+00
 Coeff:      0.681D-03-0.163D-01-0.350D-01-0.788D-01 0.227D+00 0.903D+00
 Gap=     0.244 Goal=   None    Shift=    0.000
 Gap=     0.244 Goal=   None    Shift=    0.000
 RMSDP=4.96D-08 MaxDP=2.59D-06 DE=-1.01D-09 OVMax= 1.42D-05

 Cycle  16  Pass 1  IDiag  1:
 RMSU=  2.61D-08    CP:  1.00D+00  1.06D+00  1.12D+00  1.06D+00  1.37D+00
                    CP:  1.18D+00
 E= -3993.34650785191     Delta-E=       -0.000000000933 Rises=F Damp=F
 DIIS: error= 1.17D-07 at cycle   7 NSaved=   7.
 NSaved= 7 IEnMin= 7 EnMin= -3993.34650785191     IErMin= 7 ErrMin= 1.17D-07
 ErrMax= 1.17D-07  0.00D+00 EMaxC= 1.00D-01 BMatC= 2.64D-10 BMatP= 9.56D-10
 IDIUse=1 WtCom= 1.00D+00 WtEn= 0.00D+00
 Coeff-Com: -0.266D-03 0.100D-01-0.292D-01-0.144D+00-0.332D-01 0.475D+00
 Coeff-Com:  0.722D+00
 Coeff:     -0.266D-03 0.100D-01-0.292D-01-0.144D+00-0.332D-01 0.475D+00
 Coeff:      0.722D+00
 Gap=     0.244 Goal=   None    Shift=    0.000
 Gap=     0.244 Goal=   None    Shift=    0.000
 RMSDP=2.46D-08 MaxDP=1.64D-06 DE=-9.33D-10 OVMax= 6.20D-06

 Cycle  17  Pass 1  IDiag  1:
 RMSU=  1.27D-08    CP:  1.00D+00  1.06D+00  1.12D+00  1.08D+00  1.47D+00
                    CP:  1.37D+00  1.08D+00
 E= -3993.34650785222     Delta-E=       -0.000000000311 Rises=F Damp=F
 DIIS: error= 3.75D-08 at cycle   8 NSaved=   8.
 NSaved= 8 IEnMin= 8 EnMin= -3993.34650785222     IErMin= 8 ErrMin= 3.75D-08
 ErrMax= 3.75D-08  0.00D+00 EMaxC= 1.00D-01 BMatC= 2.09D-11 BMatP= 2.64D-10
[...]
              Bcc     0.0000     0.000     0.000     0.000  0.3837  0.9172  0.1075
 
              Baa    -0.0000    -0.000    -0.000    -0.000  0.9778  0.2092 -0.0130
    23 C(13)  Bbb     0.0000     0.000     0.000     0.000  0.0220 -0.0410  0.9989
              Bcc     0.0000     0.000     0.000     0.000 -0.2085  0.9770  0.0447
 
              Baa    -0.0000    -0.000    -0.000    -0.000  0.8108 -0.5784  0.0900
    24 C(13)  Bbb    -0.0000    -0.000    -0.000    -0.000  0.5843  0.8089 -0.0658
              Bcc     0.0000     0.000     0.000     0.000 -0.0347  0.1059  0.9938
 
              Baa    -0.0000    -0.000    -0.000    -0.000  0.5310  0.8464 -0.0390
    25 C(13)  Bbb     0.0000     0.000     0.000     0.000 -0.1367  0.1310  0.9819
              Bcc     0.0000     0.000     0.000     0.000  0.8362 -0.5161  0.1853
 
              Baa    -0.0000    -0.000    -0.000    -0.000  0.9590  0.2803 -0.0422
    26 C(13)  Bbb     0.0000     0.000     0.000     0.000 -0.1616  0.6630  0.7310
              Bcc     0.0000     0.000     0.000     0.000 -0.2329  0.6942 -0.6811
 
              Baa    -0.0000    -0.000    -0.000    -0.000  0.0929  0.2468  0.9646
    27 C(13)  Bbb    -0.0000    -0.000    -0.000    -0.000  0.4955  0.8288 -0.2598
              Bcc     0.0000     0.000     0.000     0.000  0.8636 -0.5021  0.0453
 
              Baa    -0.0000    -0.000    -0.000    -0.000 -0.5251  0.8352 -0.1636
    28 C(13)  Bbb    -0.0000    -0.000    -0.000    -0.000  0.1788  0.2962  0.9382
              Bcc     0.0000     0.000     0.000     0.000  0.8321  0.4634 -0.3049
 
              Baa    -0.0000    -0.000    -0.000    -0.000 -0.5829  0.7939 -0.1731
    29 C(13)  Bbb    -0.0000    -0.000    -0.000    -0.000  0.8121  0.5765 -0.0905
              Bcc     0.0000     0.000     0.000     0.000 -0.0279  0.1934  0.9807
 
              Baa    -0.0000    -0.000    -0.000    -0.000 -0.0571  0.0902  0.9943
    30 N(14)  Bbb     0.0000     0.000     0.000     0.000  0.9363  0.3505  0.0220
              Bcc     0.0000     0.000     0.000     0.000 -0.3466  0.9322 -0.1044
 
              Baa    -0.0000    -0.000    -0.000    -0.000  0.5265  0.8381 -0.1430
    31 C(13)  Bbb     0.0000     0.000     0.000     0.000 -0.0089  0.1736  0.9848
              Bcc     0.0000     0.000     0.000     0.000  0.8501 -0.5172  0.0989
 
              Baa    -0.0000    -0.000    -0.000    -0.000  0.3226  0.9421 -0.0919
    32 C(13)  Bbb    -0.0000    -0.000    -0.000    -0.000 -0.2097  0.1658  0.9636
              Bcc     0.0000     0.000     0.000     0.000  0.9230 -0.2916  0.2511
 
              Baa    -0.0000    -0.000    -0.000    -0.000  0.6085  0.7831 -0.1283
    33 S(33)  Bbb    -0.0000    -0.000    -0.000    -0.000  0.7896 -0.6136 -0.0000
              Bcc     0.0000     0.000     0.000     0.000  0.0787  0.1013  0.9917
 
              Baa    -0.0000    -0.000    -0.000    -0.000  0.9949 -0.0605 -0.0809
    34 C(13)  Bbb     0.0000     0.000     0.000     0.000  0.0817  0.9527  0.2927
              Bcc     0.0000     0.000     0.000     0.000  0.0594 -0.2978  0.9528
 
              Baa    -0.0000    -0.000    -0.000    -0.000 -0.2031  0.6640  0.7196
    35 C(13)  Bbb     0.0000     0.000     0.000     0.000  0.9153 -0.1323  0.3804
              Bcc     0.0000     0.000     0.000     0.000  0.3478  0.7360 -0.5809
 
              Baa    -0.0000    -0.000    -0.000    -0.000  0.9951 -0.0853 -0.0502
    36 C(13)  Bbb     0.0000     0.000     0.000     0.000  0.0534  0.0348  0.9980
              Bcc     0.0000     0.000     0.000     0.000  0.0834  0.9958 -0.0392
 
              Baa    -0.0000    -0.000    -0.000    -0.000  0.9770 -0.1352 -0.1649
    37 C(13)  Bbb     0.0000     0.000     0.000     0.000  0.2109  0.5002  0.8398
              Bcc     0.0000     0.000     0.000     0.000  0.0311  0.8553 -0.5172
 
              Baa    -0.0000    -0.000    -0.000    -0.000 -0.4586  0.8516  0.2540
    38 C(13)  Bbb     0.0000     0.000     0.000     0.000  0.7882  0.5218 -0.3263
              Bcc     0.0000     0.000     0.000     0.000  0.4104 -0.0506  0.9105
 
              Baa    -0.0000    -0.000    -0.000    -0.000  0.8752 -0.4837 -0.0028
    39 C(13)  Bbb     0.0000     0.000     0.000     0.000 -0.1816 -0.3340  0.9249
              Bcc     0.0000     0.000     0.000     0.000  0.4483  0.8090  0.3801
 
              Baa    -0.0000    -0.000    -0.000    -0.000  0.9250 -0.2711 -0.2662
    40 C(13)  Bbb     0.0000     0.000     0.000     0.000  0.3601  0.8490  0.3866
              Bcc     0.0000     0.000     0.000     0.000  0.1212 -0.4534  0.8830
 
              Baa    -0.0000    -0.000    -0.000    -0.000  0.7831 -0.5383 -0.3115
    41 N(14)  Bbb     0.0000     0.000     0.000     0.000  0.3968  0.0467  0.9167
              Bcc     0.0000     0.000     0.000     0.000  0.4789  0.8415 -0.2501
 
              Baa    -0.0000    -0.000    -0.000    -0.000 -0.0240  0.9651  0.2607
    42 C(13)  Bbb     0.0000     0.000     0.000     0.000  0.9359 -0.0700  0.3453
              Bcc     0.0000     0.000     0.000     0.000 -0.3516 -0.2522  0.9015
 
              Baa    -0.0000    -0.000    -0.000    -0.000  0.3369  0.8888  0.3106
    43 C(13)  Bbb     0.0000     0.000     0.000     0.000  0.8729 -0.4185  0.2508
              Bcc     0.0000     0.000     0.000     0.000 -0.3529 -0.1867  0.9168
 
              Baa    -0.0000    -0.000    -0.000    -0.000 -0.0173  0.0360  0.9992
    44 S(33)  Bbb     0.0000     0.000     0.000     0.000  0.7835  0.6214 -0.0088
              Bcc     0.0000     0.000     0.000     0.000 -0.6212  0.7827 -0.0389
 
              Baa    -0.0000    -0.000    -0.000    -0.000  0.9881  0.0964  0.1196
    45 C(13)  Bbb    -0.0000    -0.000    -0.000    -0.000 -0.1261  0.0645  0.9899
              Bcc     0.0000     0.000     0.000     0.000 -0.0877  0.9933 -0.0759
 
              Baa    -0.0000    -0.000    -0.000    -0.000 -0.0591  0.0163  0.9981
    46 C(13)  Bbb    -0.0000    -0.000    -0.000    -0.000  0.7128 -0.6993  0.0537
              Bcc     0.0000     0.000     0.000     0.000  0.6988  0.7147  0.0297
 
              Baa    -0.0000    -0.000    -0.000    -0.000  0.8856 -0.4005  0.2353
    47 C(13)  Bbb    -0.0000    -0.000    -0.000    -0.000  0.4240  0.9039 -0.0572
              Bcc     0.0000     0.000     0.000     0.000 -0.1897  0.1504  0.9702
 
              Baa    -0.0000    -0.000    -0.000    -0.000 -0.3006  0.9427 -0.1447
    48 C(13)  Bbb    -0.0000    -0.000    -0.000    -0.000  0.9429  0.3166  0.1037
              Bcc     0.0000     0.000     0.000     0.000 -0.1436  0.1052  0.9840
 
              Baa    -0.0000    -0.000    -0.000    -0.000 -0.5271  0.6907 -0.4951
    49 C(13)  Bbb     0.0000     0.000     0.000     0.000 -0.1280  0.5114  0.8497
              Bcc     0.0000     0.000     0.000     0.000  0.8401  0.5112 -0.1812
 
              Baa    -0.0000    -0.000    -0.000    -0.000 -0.2600  0.1024  0.9602
    50 C(13)  Bbb     0.0000     0.000     0.000     0.000  0.9409 -0.1967  0.2758
              Bcc     0.0000     0.000     0.000     0.000  0.2171  0.9751 -0.0452
 
              Baa    -0.0000    -0.000    -0.000    -0.000 -0.0289  0.9994 -0.0210
    51 C(13)  Bbb     0.0000     0.000     0.000     0.000 -0.6228 -0.0016  0.7824
              Bcc     0.0000     0.000     0.000     0.000  0.7819  0.0357  0.6224
 
              Baa    -0.0000    -0.000    -0.000    -0.000  0.9301  0.0156  0.3670
    52 N(14)  Bbb     0.0000     0.000     0.000     0.000  0.2002  0.8161 -0.5422
              Bcc     0.0000     0.000     0.000     0.000 -0.3079  0.5777  0.7559
 
              Baa    -0.0000    -0.000    -0.000    -0.000  0.3906  0.9195 -0.0441
    53 C(13)  Bbb    -0.0000    -0.000    -0.000    -0.000  0.9197 -0.3919 -0.0237
              Bcc     0.0000     0.000     0.000     0.000  0.0391  0.0313  0.9987
 
              Baa    -0.0000    -0.000    -0.000    -0.000 -0.0323 -0.1030  0.9942
    54 C(13)  Bbb    -0.0000    -0.000    -0.000    -0.000 -0.0655  0.9928  0.1007
              Bcc     0.0000     0.000     0.000     0.000  0.9973  0.0618  0.0388
 
              Baa    -0.0000    -0.000    -0.000    -0.000  0.7908  0.4195  0.4457
    55 S(33)  Bbb    -0.0000    -0.000    -0.000    -0.000 -0.2823 -0.3961  0.8737
              Bcc     0.0000     0.000     0.000     0.000 -0.5431  0.8168  0.1948
 
              Baa    -0.0000    -0.000    -0.000    -0.000  0.8768 -0.3388  0.3413
    56 H(1)   Bbb     0.0000     0.000     0.000     0.000 -0.3901 -0.0860  0.9167
              Bcc     0.0000     0.000     0.000     0.000  0.2812  0.9369  0.2076
 
              Baa    -0.0000    -0.000    -0.000    -0.000  0.1166 -0.1994  0.9730
    57 H(1)   Bbb     0.0000     0.000     0.000     0.000  0.0332  0.9799  0.1968
              Bcc     0.0000     0.000     0.000     0.000  0.9926 -0.0093 -0.1209
 
              Baa    -0.0000    -0.000    -0.000    -0.000 -0.0094  0.9260  0.3773
    58 H(1)   Bbb    -0.0000    -0.000    -0.000    -0.000  0.6204 -0.2905  0.7285
              Bcc     0.0000     0.000     0.000     0.000  0.7842  0.2409 -0.5718
 
              Baa    -0.0000    -0.000    -0.000    -0.000  0.4804 -0.5138  0.7108
    59 H(1)   Bbb     0.0000     0.000     0.000     0.000  0.8738  0.2110 -0.4381
              Bcc     0.0000     0.000     0.000     0.000  0.0752  0.8316  0.5503
 
              Baa    -0.0000    -0.000    -0.000    -0.000  0.8641  0.3036 -0.4015
    60 H(1)   Bbb     0.0000     0.000     0.000     0.000  0.5028 -0.5574  0.6607
              Bcc     0.0000     0.000     0.000     0.000  0.0232  0.7727  0.6343
 
              Baa    -0.0000    -0.000    -0.000    -0.000  0.6652 -0.0302  0.7461
    61 H(1)   Bbb    -0.0000    -0.000    -0.000    -0.000 -0.1122  0.9838  0.1398
              Bcc     0.0000     0.000     0.000     0.000  0.7382  0.1767 -0.6510
 
              Baa    -0.0000    -0.000    -0.000    -0.000  0.6730 -0.6336  0.3816
    62 H(1)   Bbb     0.0000     0.000     0.000     0.000  0.0555  0.5578  0.8281
              Bcc     0.0000     0.000     0.000     0.000  0.7375  0.5362 -0.4106
 
              Baa    -0.0000    -0.000    -0.000    -0.000  0.9455 -0.2793 -0.1675
    63 H(1)   Bbb    -0.0000    -0.000    -0.000    -0.000  0.2730  0.3992  0.8753
              Bcc     0.0000     0.000     0.000     0.000  0.1776  0.8733 -0.4536
 
              Baa    -0.0000    -0.000    -0.000    -0.000  0.9888 -0.1426  0.0450
    64 H(1)   Bbb     0.0000     0.000     0.000     0.000 -0.0312  0.0975  0.9947
              Bcc     0.0000     0.000     0.000     0.000  0.1462  0.9850 -0.0920
 
              Baa    -0.0000    -0.000    -0.000    -0.000 -0.1757 -0.6563  0.7338
    65 H(1)   Bbb     0.0000     0.000     0.000     0.000  0.9469 -0.3164 -0.0563
              Bcc     0.0000     0.000     0.000     0.000  0.2692  0.6850  0.6770
 
              Baa    -0.0000    -0.000    -0.000    -0.000  0.1175  0.8188  0.5620
    66 H(1)   Bbb    -0.0000    -0.000    -0.000    -0.000  0.8852 -0.3429  0.3144
              Bcc     0.0000     0.000     0.000     0.000 -0.4501 -0.4605  0.7651
 
              Baa    -0.0000    -0.000    -0.000    -0.000 -0.4258  0.8850 -0.1883
    67 H(1)   Bbb     0.0000     0.000     0.000     0.000 -0.1733  0.1245  0.9770
              Bcc     0.0000     0.000     0.000     0.000  0.8881  0.4486  0.1003
 
              Baa    -0.0000    -0.000    -0.000    -0.000  0.4285  0.8802 -0.2043
    68 H(1)   Bbb     0.0000     0.000     0.000     0.000  0.5378 -0.0667  0.8404
              Bcc     0.0000     0.000     0.000     0.000  0.7261 -0.4700 -0.5019
 
              Baa    -0.0000    -0.000    -0.000    -0.000  0.0040  0.2305  0.9731
    69 H(1)   Bbb    -0.0000    -0.000    -0.000    -0.000 -0.5941  0.7833 -0.1831
              Bcc     0.0000     0.000     0.000     0.000  0.8044  0.5773 -0.1400
 
              Baa    -0.0000    -0.000    -0.000    -0.000  0.3030  0.7697  0.5619
    70 H(1)   Bbb    -0.0000    -0.000    -0.000    -0.000 -0.4540 -0.4018  0.7953
              Bcc     0.0000     0.000     0.000     0.000  0.8379 -0.4961  0.2277
 
              Baa    -0.0000    -0.000    -0.000    -0.000 -0.6253  0.7511 -0.2118
    71 H(1)   Bbb     0.0000     0.000     0.000     0.000  0.3283  0.4994  0.8018
              Bcc     0.0000     0.000     0.000     0.000  0.7080  0.4318 -0.5588
 
              Baa    -0.0000    -0.000    -0.000    -0.000  0.8559 -0.5171  0.0048
    72 H(1)   Bbb     0.0000     0.000     0.000     0.000  0.2414  0.4076  0.8807
              Bcc     0.0000     0.000     0.000     0.000  0.4574  0.7526 -0.4736
 
              Baa    -0.0000    -0.000    -0.000    -0.000  0.7223  0.6709  0.1677
    73 H(1)   Bbb     0.0000     0.000     0.000     0.000  0.0789 -0.3209  0.9438
              Bcc     0.0000     0.000     0.000     0.000  0.6870 -0.6685 -0.2847
 
              Baa    -0.0000    -0.000    -0.000    -0.000 -0.5678  0.7752  0.2769
    74 H(1)   Bbb     0.0000     0.000     0.000     0.000 -0.1981 -0.4552  0.8681
              Bcc     0.0000     0.000     0.000     0.000  0.7990  0.4381  0.4120
 
              Baa    -0.0000    -0.000    -0.000    -0.000  0.6444  0.5871  0.4900
    75 H(1)   Bbb     0.0000     0.000     0.000     0.000 -0.5424 -0.1008  0.8341
              Bcc     0.0000     0.000     0.000     0.000 -0.5390  0.8033 -0.2534
 
              Baa    -0.0000    -0.000    -0.000    -0.000  0.8390 -0.2981 -0.4553
    76 H(1)   Bbb     0.0000     0.000     0.000     0.000  0.1956 -0.6156  0.7634
              Bcc     0.0000     0.000     0.000     0.000  0.5078  0.7296  0.4581
 
              Baa    -0.0000    -0.000    -0.000    -0.000 -0.0616  0.3612  0.9304
    77 H(1)   Bbb    -0.0000    -0.000    -0.000    -0.000  0.9966  0.0739  0.0373
              Bcc     0.0000     0.000     0.000     0.000 -0.0553  0.9295 -0.3646
 
              Baa    -0.0000    -0.000    -0.000    -0.000  0.9573 -0.1790  0.2271
    78 H(1)   Bbb     0.0000     0.000     0.000     0.000  0.2182  0.9625 -0.1612
              Bcc     0.0000     0.000     0.000     0.000 -0.1897  0.2038  0.9604
 
              Baa    -0.0000    -0.000    -0.000    -0.000 -0.1597  0.1860  0.9695
    79 H(1)   Bbb    -0.0000    -0.000    -0.000    -0.000  0.8915 -0.3946  0.2226
              Bcc     0.0000     0.000     0.000     0.000  0.4239  0.8998 -0.1028
 
              Baa    -0.0000    -0.000    -0.000    -0.000 -0.1964  0.1684  0.9660
    80 H(1)   Bbb    -0.0000    -0.000    -0.000    -0.000  0.5283  0.8481 -0.0405
              Bcc     0.0000     0.000     0.000     0.000  0.8261 -0.5023  0.2555
 
              Baa    -0.0000    -0.000    -0.000    -0.000  0.1395  0.9819 -0.1279
    81 H(1)   Bbb     0.0000     0.000     0.000     0.000 -0.0908  0.1413  0.9858
              Bcc     0.0000     0.000     0.000     0.000  0.9860 -0.1259  0.1089
 
              Baa    -0.0000    -0.000    -0.000    -0.000 -0.1659 -0.1056  0.9805
    82 H(1)   Bbb    -0.0000    -0.000    -0.000    -0.000 -0.0065  0.9943  0.1060
              Bcc     0.0000     0.000     0.000     0.000  0.9861 -0.0112  0.1656
 

 ---------------------------------------------------------------------------------

 No NMR shielding tensors so no spin-rotation constants.
 Leave Link  601 at Fri Jul 24 22:15:30 2020, MaxMem=  4026531840 cpu:              12.0 elap:               1.7
 (Enter /opt/ohpc/pub/libs/gaussian/g16-A.03/sandybridge/g16/l9999.exe)

 Test job not archived.
 1\1\GINC-SKYLAKE038\FOpt\ULC-wPBE\CC-pVDZ\C45H27N5S5\RDU230\24-Jul-202
 0\0\\#P uLC-wPBE/cc-pVDZ iop(3/107=0206700000, 3/108=0206700000) opt\\
 H27 C45 S5 N5\\0,1\C,-19.5159000196,1.1355379215,0.0227860134\C,-18.57
 1743994,1.6835977415,-0.8524320892\C,-17.209555767,1.4438467916,-0.655
 8904347\C,-16.7748818829,0.6508939818,0.4200769859\C,-17.7293746976,0.
 1029304916,1.2966358701\C,-19.08920005,0.3452529934,1.0971486475\C,-15
 .3465711288,0.3705701361,0.6652773212\N,-14.9093353254,-0.3542824205,1
 .670099427\C,-13.54483971,-0.4496894138,1.651306925\C,-12.8865381572,0
 .2004544067,0.6269492057\S,-14.075512128,0.9816089408,-0.3790626829\C,
 -11.4413522659,0.2749463429,0.3581166602\C,-10.8662722827,1.3844625559
 ,-0.2923681505\C,-9.4952321393,1.4481033361,-0.5268211503\C,-8.6488039
 573,0.4040356311,-0.1118898061\C,-9.2174019571,-0.7060984609,0.5357535
 007\C,-10.5911071795,-0.7728955472,0.7615049628\C,-7.2027333437,0.5135
 991267,-0.3754703579\N,-6.6535326605,1.5313496623,-0.9998376013\C,-5.2
 992203377,1.3716677822,-1.1033794474\C,-4.7614627131,0.2223544461,-0.5
 591737959\S,-6.0575068764,-0.7151306162,0.1312620081\C,-3.3562297678,-
 0.2140876776,-0.5249053523\C,-3.0059674552,-1.5785822836,-0.5088185044
 \C,-1.6719468337,-1.9770214779,-0.490872627\C,-0.6394520974,-1.0216897
 23,-0.4946911063\C,-0.9833416445,0.3409058249,-0.5090600391\C,-2.31908
 79081,0.7386684851,-0.5177362192\C,0.7592022386,-1.4866616276,-0.47966
 27402\N,1.1020672257,-2.7547539889,-0.4436105845\C,2.4623338531,-2.896
 5227055,-0.4394297994\C,3.2119040089,-1.7374999177,-0.4727103563\S,2.1
 203518649,-0.3802558703,-0.5162413029\C,4.6757851124,-1.5842409013,-0.
 4727922237\C,5.2981352881,-0.4491400712,0.0798555568\C,6.6865780886,-0
 .3248628971,0.0854522265\C,7.4991652643,-1.3357408621,-0.4547818395\C,
 6.8819456273,-2.4721746184,-1.0092026276\C,5.4949506779,-2.5905396974,
 -1.023515188\C,8.9706749607,-1.2495894527,-0.466082686\N,9.7478773857,
 -2.1795265662,-0.9742916554\C,11.06683557,-1.8405943499,-0.8481666243\
 C,11.3470343515,-0.6353041636,-0.235737705\S,9.8398748404,0.1157075103
 ,0.2107100502\C,12.6557484118,-0.0170513125,0.032404298\C,13.792051936
 6,-0.8245039038,0.2321782022\C,15.042497065,-0.2536861574,0.4633051615
 \C,15.1968178848,1.14196041,0.515459336\C,14.0628732779,1.95229846,0.3
 272158596\C,12.8156773511,1.381444736,0.086767707\C,16.4998348328,1.78
 77490116,0.76381657\N,16.662557449,3.0892579249,0.8304809564\C,17.9746
 785261,3.4101631013,1.0697809181\C,18.8409717179,2.3527542471,1.190528
 7641\S,17.9795407627,0.8695343865,0.9953775548\H,-20.5859854411,1.3250
 158733,-0.1327695979\H,-18.8975394358,2.3046196498,-1.6968350286\H,-16
 .4788332507,1.8815208108,-1.3501296546\H,-17.3747366293,-0.5130603661,
 2.1315632352\H,-19.8247950408,-0.0875618848,1.7877540118\H,-13.0393170
 553,-1.005188154,2.4498238768\H,-11.5055152786,2.2202943818,-0.6068387
 958\H,-9.0474011383,2.3125989921,-1.0308993401\H,-8.5832017666,-1.5425
 315157,0.859967604\H,-11.0162458507,-1.6632429094,1.2412355423\H,-4.71
 19122032,2.1347377863,-1.6272566887\H,-3.7954227631,-2.3418918071,-0.5
 261304744\H,-1.3990130212,-3.0388071173,-0.480825626\H,-0.1987817979,1
 .109858414,-0.5000401788\H,-2.5636613752,1.8079663588,-0.4976608179\H,
 2.8925825661,-3.9031958352,-0.3844435985\H,4.684869027,0.3443482929,0.
 5269432342\H,7.1394111176,0.5737016376,0.526227609\H,7.5201832714,-3.2
 534027251,-1.4386276144\H,5.0336871843,-3.4711347965,-1.4882118949\H,1
 1.8306984619,-2.5140855801,-1.2538010185\H,13.6903239538,-1.9168776772
 ,0.2265678918\H,15.9078918631,-0.9125000292,0.6179718636\H,14.18835932
 3,3.0407064802,0.3674228984\H,11.9477320436,2.0340031487,-0.077762572\
 H,18.262861319,4.4644398005,1.151368448\H,19.9176086233,2.3652140694,1
 .3797636941\\Version=EM64L-G16RevA.03\State=1-A\HF=-3993.4909613\S2=0.
 \S2-1=0.\S2A=0.\RMSD=7.611e-09\RMSF=2.270e-06\Dipole=1.200032,0.273044
 4,0.0721258\Quadrupole=44.2448336,-15.2215446,-29.023289,-3.0494706,12
 .7088284,-3.1575542\PG=C01 [X(C45H27N5S5)]\\@


 NO SCIENCE HAS EVER MADE MORE RAPID PROGRESS IN A
 SHORTER TIME THAN CHEMISTRY.
   -- MARTIN HEINRICH KLOPROTH, 1791
 (FIRST PROFESSOR OF CHEMISTRY AT THE UNIVERSITY OF BERLIN)
 Job cpu time:       1 days  3 hours 47 minutes 54.0 seconds.
 Elapsed time:       0 days  3 hours 32 minutes 48.8 seconds.
 File lengths (MBytes):  RWF=    992 Int=      0 D2E=      0 Chk=     92 Scr=      8
 Normal termination of Gaussian 16 at Fri Jul 24 22:15:30 2020.
