 Entering Gaussian System, Link 0=g16
 Input=mols_65_3_21_n-cF-N_opt_0.gjf
 Output=mols_65_3_21_n-cF-N_opt_0.log
 Initial command:
 /opt/ohpc/pub/libs/gaussian/g16-A.03/sandybridge/g16/l1.exe "/mnt/gpfs2_4m/scratch/rdu230/ondemand/projects/dihedral_energies/7trial/wtuning/mols_65_3_21_n-cF-N/Gau-449379.inp" -scrdir="/mnt/gpfs2_4m/scratch/rdu230/ondemand/projects/dihedral_energies/7trial/wtuning/mols_65_3_21_n-cF-N/"
 Entering Link 1 = /opt/ohpc/pub/libs/gaussian/g16-A.03/sandybridge/g16/l1.exe PID=    449380.
  
 Copyright (c) 1988,1990,1992,1993,1995,1998,2003,2009,2016,
            Gaussian, Inc.  All Rights Reserved.
  
 This is part of the Gaussian(R) 16 program.  It is based on
 the Gaussian(R) 09 system (copyright 2009, Gaussian, Inc.),
 the Gaussian(R) 03 system (copyright 2003, Gaussian, Inc.),
 the Gaussian(R) 98 system (copyright 1998, Gaussian, Inc.),
 the Gaussian(R) 94 system (copyright 1995, Gaussian, Inc.),
 the Gaussian 92(TM) system (copyright 1992, Gaussian, Inc.),
 the Gaussian 90(TM) system (copyright 1990, Gaussian, Inc.),
 the Gaussian 88(TM) system (copyright 1988, Gaussian, Inc.),
 the Gaussian 86(TM) system (copyright 1986, Carnegie Mellon
 University), and the Gaussian 82(TM) system (copyright 1983,
 Carnegie Mellon University). Gaussian is a federally registered
 trademark of Gaussian, Inc.
  
 This software contains proprietary and confidential information,
 including trade secrets, belonging to Gaussian, Inc.
  
 This software is provided under written license and may be
 used, copied, transmitted, or stored only in accord with that
 written license.
  
 The following legend is applicable only to US Government
 contracts under FAR:
  
                    RESTRICTED RIGHTS LEGEND
  
 Use, reproduction and disclosure by the US Government is
 subject to restrictions as set forth in subparagraphs (a)
 and (c) of the Commercial Computer Software - Restricted
 Rights clause in FAR 52.227-19.
  
 Gaussian, Inc.
 340 Quinnipiac St., Bldg. 40, Wallingford CT 06492
  
  
 ---------------------------------------------------------------
 Warning -- This program may not be used in any manner that
 competes with the business of Gaussian, Inc. or will provide
 assistance to any competitor of Gaussian, Inc.  The licensee
 of this program is prohibited from giving any competitor of
 Gaussian, Inc. access to this program.  By using this program,
 the user acknowledges that Gaussian, Inc. is engaged in the
 business of creating and licensing software in the field of
 computational chemistry and represents and warrants to the
 licensee that it is not a competitor of Gaussian, Inc. and that
 it will not use this program in any manner prohibited above.
 ---------------------------------------------------------------
  

 Cite this work as:
 Gaussian 16, Revision A.03,
 M. J. Frisch, G. W. Trucks, H. B. Schlegel, G. E. Scuseria, 
 M. A. Robb, J. R. Cheeseman, G. Scalmani, V. Barone, 
 G. A. Petersson, H. Nakatsuji, X. Li, M. Caricato, A. V. Marenich, 
 J. Bloino, B. G. Janesko, R. Gomperts, B. Mennucci, H. P. Hratchian, 
 J. V. Ortiz, A. F. Izmaylov, J. L. Sonnenberg, D. Williams-Young, 
 F. Ding, F. Lipparini, F. Egidi, J. Goings, B. Peng, A. Petrone, 
 T. Henderson, D. Ranasinghe, V. G. Zakrzewski, J. Gao, N. Rega, 
 G. Zheng, W. Liang, M. Hada, M. Ehara, K. Toyota, R. Fukuda, 
 J. Hasegawa, M. Ishida, T. Nakajima, Y. Honda, O. Kitao, H. Nakai, 
 T. Vreven, K. Throssell, J. A. Montgomery, Jr., J. E. Peralta, 
 F. Ogliaro, M. J. Bearpark, J. J. Heyd, E. N. Brothers, K. N. Kudin, 
 V. N. Staroverov, T. A. Keith, R. Kobayashi, J. Normand, 
 K. Raghavachari, A. P. Rendell, J. C. Burant, S. S. Iyengar, 
 J. Tomasi, M. Cossi, J. M. Millam, M. Klene, C. Adamo, R. Cammi, 
 J. W. Ochterski, R. L. Martin, K. Morokuma, O. Farkas, 
 J. B. Foresman, and D. J. Fox, Gaussian, Inc., Wallingford CT, 2016.
 
 ******************************************
 Gaussian 16:  EM64L-G16RevA.03 25-Dec-2016
                25-Jul-2020 
 ******************************************
 %mem=30GB
 %nproc=8
 Will use up to    8 processors via shared memory.
 ---------------------------------------------------------------
 #P uLC-wPBE/cc-pVDZ iop(3/107=0341700000, 3/108=0341700000) opt
 ---------------------------------------------------------------
 1/18=20,19=15,26=3,38=1/1,3;
 2/9=110,12=2,17=6,18=5,40=1/2;
 3/5=16,11=2,25=1,30=1,71=1,74=-41,107=341700000,108=341700000,116=2/1,2,3;
 4//1;
 5/5=2,38=5/2;
 6/7=2,8=2,9=2,10=2,28=1/1;
 7//1,2,3,16;
 1/18=20,19=15,26=3/3(2);
 2/9=110/2;
 99//99;
 2/9=110/2;
 3/5=16,11=2,25=1,30=1,71=1,74=-41,107=341700000,108=341700000,116=2/1,2,3;
 4/5=5,16=3,69=1/1;
 5/5=2,38=5/2;
 7//1,2,3,16;
 1/18=20,19=15,26=3/3(-5);
 2/9=110/2;
 6/7=2,8=2,9=2,10=2,19=2,28=1/1;
 99/9=1/99;
 Leave Link    1 at Sat Jul 25 06:46:15 2020, MaxMem=  4026531840 cpu:               1.2 elap:               0.2
 (Enter /opt/ohpc/pub/libs/gaussian/g16-A.03/sandybridge/g16/l101.exe)
 ----------------
 H11 C24 S3 N6 F3
 ----------------
 Symbolic Z-matrix:
 Charge =  0 Multiplicity = 1
 C                    -11.32981   0.40235  -0.03644 
 C                    -10.29321   1.33505   0.04885 
 N                    -8.94824   1.06606   0.03058 
 C                    -8.62486  -0.26359   0.04934 
 C                    -9.52846  -1.28793   0.012 
 F                    -9.2423   -2.63256  -0.01782 
 C                    -10.92746  -0.9599    0.04991 
 C                    -7.13946  -0.57385   0.03027 
 N                    -6.59679  -1.78973   0.00128 
 C                    -5.26181  -1.70417  -0.04846 
 C                    -4.73126  -0.46836  -0.00856 
 S                    -6.0549    0.68713   0.0234 
 C                    -3.27537  -0.03802  -0.00644 
 C                    -2.29481  -0.98074   0.00411 
 N                    -0.98446  -0.64323   0.02903 
 C                    -0.58088   0.70743   0.03234 
 C                    -1.53706   1.68049  -0.04897 
 F                    -1.24375   2.93895   0.01895 
 C                    -2.85962   1.31563   0.00707 
 C                     0.89264   0.96669  -0.03413 
 N                     1.39331   2.22231   0.02403 
 C                     2.7333    2.11897  -0.03758 
 C                     3.27164   0.82505  -0.01351 
 S                     2.04838  -0.33987   0.01569 
 C                     4.71749   0.46368  -0.01803 
 C                     5.72788   1.39589   0.01754 
 N                     7.0886    1.08788   0.04868 
 C                     7.41301  -0.21919   0.02537 
 C                     6.54727  -1.25426   0.01109 
 F                     6.84558  -2.49619   0.00393 
 C                     5.18767  -0.90401   0.01522 
 C                     8.9383   -0.55901   0.01042 
 N                     9.48262  -1.74464   0.00463 
 C                     10.79034  -1.67822   0.04366 
 C                     11.31202  -0.42826  -0.02813 
 S                     10.08096   0.79874   0.00439 
 H                    -12.37403   0.69973  -0.03116 
 H                    -10.51808   2.38392  -0.04078 
 H                    -11.71178  -1.77668   0.01415 
 H                    -4.71177  -2.62101  -0.04974 
 H                    -2.50122  -2.03756   0.02242 
 H                    -3.62043   2.20728   0.01895 
 H                     3.30511   2.99786  -0.02818 
 H                     5.53997   2.39141   0.0229 
 H                     4.45973  -1.75898  -0.03847 
 H                     11.39207  -2.56092  -0.04617 
 H                     12.37557  -0.09688  -0.04964 
 
 ITRead=  0  0  0  0  0  0  0  0  0  0  0  0  0  0  0  0  0  0  0  0
 ITRead=  0  0  0  0  0  0  0  0  0  0  0  0  0  0  0  0  0  0  0  0
 ITRead=  0  0  0  0  0  0  0
 MicOpt= -1 -1 -1 -1 -1 -1 -1 -1 -1 -1 -1 -1 -1 -1 -1 -1 -1 -1 -1 -1
 MicOpt= -1 -1 -1 -1 -1 -1 -1 -1 -1 -1 -1 -1 -1 -1 -1 -1 -1 -1 -1 -1
 MicOpt= -1 -1 -1 -1 -1 -1 -1
 NAtoms=     47 NQM=       47 NQMF=       0 NMMI=      0 NMMIF=      0
                NMic=       0 NMicF=      0.
                    Isotopes and Nuclear Properties:
 (Nuclear quadrupole moments (NQMom) in fm**2, nuclear magnetic moments (NMagM)
  in nuclear magnetons)

  Atom         1           2           3           4           5           6           7           8           9          10
 IAtWgt=          12          12          14          12          12          19          12          12          14          12
 AtmWgt=  12.0000000  12.0000000  14.0030740  12.0000000  12.0000000  18.9984033  12.0000000  12.0000000  14.0030740  12.0000000
 NucSpn=           0           0           2           0           0           1           0           0           2           0
 AtZEff=  -0.0000000  -0.0000000  -0.0000000  -0.0000000  -0.0000000  -0.0000000  -0.0000000  -0.0000000  -0.0000000  -0.0000000
 NQMom=    0.0000000   0.0000000   2.0440000   0.0000000   0.0000000   0.0000000   0.0000000   0.0000000   2.0440000   0.0000000
 NMagM=    0.0000000   0.0000000   0.4037610   0.0000000   0.0000000   2.6288670   0.0000000   0.0000000   0.4037610   0.0000000
 AtZNuc=   6.0000000   6.0000000   7.0000000   6.0000000   6.0000000   9.0000000   6.0000000   6.0000000   7.0000000   6.0000000

  Atom        11          12          13          14          15          16          17          18          19          20
 IAtWgt=          12          32          12          12          14          12          12          19          12          12
 AtmWgt=  12.0000000  31.9720718  12.0000000  12.0000000  14.0030740  12.0000000  12.0000000  18.9984033  12.0000000  12.0000000
 NucSpn=           0           0           0           0           2           0           0           1           0           0
 AtZEff=  -0.0000000  -0.0000000  -0.0000000  -0.0000000  -0.0000000  -0.0000000  -0.0000000  -0.0000000  -0.0000000  -0.0000000
 NQMom=    0.0000000   0.0000000   0.0000000   0.0000000   2.0440000   0.0000000   0.0000000   0.0000000   0.0000000   0.0000000
 NMagM=    0.0000000   0.0000000   0.0000000   0.0000000   0.4037610   0.0000000   0.0000000   2.6288670   0.0000000   0.0000000
 AtZNuc=   6.0000000  16.0000000   6.0000000   6.0000000   7.0000000   6.0000000   6.0000000   9.0000000   6.0000000   6.0000000

  Atom        21          22          23          24          25          26          27          28          29          30
 IAtWgt=          14          12          12          32          12          12          14          12          12          19
 AtmWgt=  14.0030740  12.0000000  12.0000000  31.9720718  12.0000000  12.0000000  14.0030740  12.0000000  12.0000000  18.9984033
 NucSpn=           2           0           0           0           0           0           2           0           0           1
 AtZEff=  -0.0000000  -0.0000000  -0.0000000  -0.0000000  -0.0000000  -0.0000000  -0.0000000  -0.0000000  -0.0000000  -0.0000000
 NQMom=    2.0440000   0.0000000   0.0000000   0.0000000   0.0000000   0.0000000   2.0440000   0.0000000   0.0000000   0.0000000
 NMagM=    0.4037610   0.0000000   0.0000000   0.0000000   0.0000000   0.0000000   0.4037610   0.0000000   0.0000000   2.6288670
 AtZNuc=   7.0000000   6.0000000   6.0000000  16.0000000   6.0000000   6.0000000   7.0000000   6.0000000   6.0000000   9.0000000

  Atom        31          32          33          34          35          36          37          38          39          40
 IAtWgt=          12          12          14          12          12          32           1           1           1           1
 AtmWgt=  12.0000000  12.0000000  14.0030740  12.0000000  12.0000000  31.9720718   1.0078250   1.0078250   1.0078250   1.0078250
 NucSpn=           0           0           2           0           0           0           1           1           1           1
 AtZEff=  -0.0000000  -0.0000000  -0.0000000  -0.0000000  -0.0000000  -0.0000000  -0.0000000  -0.0000000  -0.0000000  -0.0000000
 NQMom=    0.0000000   0.0000000   2.0440000   0.0000000   0.0000000   0.0000000   0.0000000   0.0000000   0.0000000   0.0000000
 NMagM=    0.0000000   0.0000000   0.4037610   0.0000000   0.0000000   0.0000000   2.7928460   2.7928460   2.7928460   2.7928460
 AtZNuc=   6.0000000   6.0000000   7.0000000   6.0000000   6.0000000  16.0000000   1.0000000   1.0000000   1.0000000   1.0000000

  Atom        41          42          43          44          45          46          47
 IAtWgt=           1           1           1           1           1           1           1
 AtmWgt=   1.0078250   1.0078250   1.0078250   1.0078250   1.0078250   1.0078250   1.0078250
 NucSpn=           1           1           1           1           1           1           1
 AtZEff=  -0.0000000  -0.0000000  -0.0000000  -0.0000000  -0.0000000  -0.0000000  -0.0000000
 NQMom=    0.0000000   0.0000000   0.0000000   0.0000000   0.0000000   0.0000000   0.0000000
 NMagM=    2.7928460   2.7928460   2.7928460   2.7928460   2.7928460   2.7928460   2.7928460
 AtZNuc=   1.0000000   1.0000000   1.0000000   1.0000000   1.0000000   1.0000000   1.0000000
 Leave Link  101 at Sat Jul 25 06:46:15 2020, MaxMem=  4026531840 cpu:               3.4 elap:               0.5
 (Enter /opt/ohpc/pub/libs/gaussian/g16-A.03/sandybridge/g16/l103.exe)

 GradGradGradGradGradGradGradGradGradGradGradGradGradGradGradGradGradGrad
 Berny optimization.
 Initialization pass.
                           ----------------------------
                           !    Initial Parameters    !
                           ! (Angstroms and Degrees)  !
 --------------------------                            --------------------------
 ! Name  Definition              Value          Derivative Info.                !
 --------------------------------------------------------------------------------
 ! R1    R(1,2)                  1.397          estimate D2E/DX2                !
 ! R2    R(1,7)                  1.423          estimate D2E/DX2                !
 ! R3    R(1,37)                 1.0858         estimate D2E/DX2                !
 ! R4    R(2,3)                  1.3717         estimate D2E/DX2                !
 ! R5    R(2,38)                 1.0764         estimate D2E/DX2                !
 ! R6    R(3,4)                  1.3685         estimate D2E/DX2                !
 ! R7    R(4,5)                  1.3664         estimate D2E/DX2                !
 ! R8    R(4,8)                  1.5176         estimate D2E/DX2                !
 ! R9    R(5,6)                  1.3751         estimate D2E/DX2                !
 ! R10   R(5,7)                  1.4374         estimate D2E/DX2                !
 ! R11   R(7,39)                 1.1329         estimate D2E/DX2                !
 ! R12   R(8,9)                  1.3318         estimate D2E/DX2                !
 ! R13   R(8,12)                 1.6632         estimate D2E/DX2                !
 ! R14   R(9,10)                 1.3386         estimate D2E/DX2                !
 ! R15   R(10,11)                1.3455         estimate D2E/DX2                !
 ! R16   R(10,40)                1.0692         estimate D2E/DX2                !
 ! R17   R(11,12)                1.7573         estimate D2E/DX2                !
 ! R18   R(11,13)                1.5182         estimate D2E/DX2                !
 ! R19   R(13,14)                1.3603         estimate D2E/DX2                !
 ! R20   R(13,19)                1.4161         estimate D2E/DX2                !
 ! R21   R(14,15)                1.3533         estimate D2E/DX2                !
 ! R22   R(14,41)                1.0769         estimate D2E/DX2                !
 ! R23   R(15,16)                1.4097         estimate D2E/DX2                !
 ! R24   R(16,17)                1.3667         estimate D2E/DX2                !
 ! R25   R(16,20)                1.4976         estimate D2E/DX2                !
 ! R26   R(17,18)                1.294          estimate D2E/DX2                !
 ! R27   R(17,19)                1.3731         estimate D2E/DX2                !
 ! R28   R(19,42)                1.1722         estimate D2E/DX2                !
 ! R29   R(20,21)                1.353          estimate D2E/DX2                !
 ! R30   R(20,24)                1.7451         estimate D2E/DX2                !
 ! R31   R(21,22)                1.3454         estimate D2E/DX2                !
 ! R32   R(22,23)                1.4017         estimate D2E/DX2                !
 ! R33   R(22,43)                1.0486         estimate D2E/DX2                !
 ! R34   R(23,24)                1.6895         estimate D2E/DX2                !
 ! R35   R(23,25)                1.4903         estimate D2E/DX2                !
 ! R36   R(25,26)                1.3752         estimate D2E/DX2                !
 ! R37   R(25,31)                1.4466         estimate D2E/DX2                !
 ! R38   R(26,27)                1.3955         estimate D2E/DX2                !
 ! R39   R(26,44)                1.0131         estimate D2E/DX2                !
 ! R40   R(27,28)                1.3469         estimate D2E/DX2                !
 ! R41   R(28,29)                1.3495         estimate D2E/DX2                !
 ! R42   R(28,32)                1.5628         estimate D2E/DX2                !
 ! R43   R(29,30)                1.2773         estimate D2E/DX2                !
 ! R44   R(29,31)                1.404          estimate D2E/DX2                !
 ! R45   R(31,45)                1.1242         estimate D2E/DX2                !
 ! R46   R(32,33)                1.3046         estimate D2E/DX2                !
 ! R47   R(32,36)                1.7746         estimate D2E/DX2                !
 ! R48   R(33,34)                1.31           estimate D2E/DX2                !
 ! R49   R(34,35)                1.3564         estimate D2E/DX2                !
 ! R50   R(34,46)                1.072          estimate D2E/DX2                !
 ! R51   R(35,36)                1.7384         estimate D2E/DX2                !
 ! R52   R(35,47)                1.1142         estimate D2E/DX2                !
 ! A1    A(2,1,7)              115.1895         estimate D2E/DX2                !
 ! A2    A(2,1,37)             122.0359         estimate D2E/DX2                !
 ! A3    A(7,1,37)             122.2636         estimate D2E/DX2                !
 ! A4    A(1,2,3)              126.5685         estimate D2E/DX2                !
 ! A5    A(1,2,38)             119.3699         estimate D2E/DX2                !
 ! A6    A(3,2,38)             113.2524         estimate D2E/DX2                !
 ! A7    A(2,3,4)              114.9626         estimate D2E/DX2                !
 ! A8    A(3,4,5)              124.8694         estimate D2E/DX2                !
 ! A9    A(3,4,8)              115.4518         estimate D2E/DX2                !
 ! A10   A(5,4,8)              119.581          estimate D2E/DX2                !
 ! A11   A(4,5,6)              126.5856         estimate D2E/DX2                !
 ! A12   A(4,5,7)              118.1516         estimate D2E/DX2                !
 ! A13   A(6,5,7)              115.2307         estimate D2E/DX2                !
 ! A14   A(1,7,5)              119.4737         estimate D2E/DX2                !
 ! A15   A(1,7,39)             119.5043         estimate D2E/DX2                !
 ! A16   A(5,7,39)             120.5585         estimate D2E/DX2                !
 ! A17   A(4,8,9)              125.8567         estimate D2E/DX2                !
 ! A18   A(4,8,12)             118.901          estimate D2E/DX2                !
 ! A19   A(9,8,12)             115.2368         estimate D2E/DX2                !
 ! A20   A(8,9,10)             110.4148         estimate D2E/DX2                !
 ! A21   A(9,10,11)            116.7983         estimate D2E/DX2                !
 ! A22   A(9,10,40)            117.2761         estimate D2E/DX2                !
 ! A23   A(11,10,40)           125.7887         estimate D2E/DX2                !
 ! A24   A(10,11,12)           107.9061         estimate D2E/DX2                !
 ! A25   A(10,11,13)           129.684          estimate D2E/DX2                !
 ! A26   A(12,11,13)           122.4056         estimate D2E/DX2                !
 ! A27   A(8,12,11)             89.5833         estimate D2E/DX2                !
 ! A28   A(11,13,14)           119.6599         estimate D2E/DX2                !
 ! A29   A(11,13,19)           123.5396         estimate D2E/DX2                !
 ! A30   A(14,13,19)           116.7924         estimate D2E/DX2                !
 ! A31   A(13,14,15)           121.6859         estimate D2E/DX2                !
 ! A32   A(13,14,41)           122.8238         estimate D2E/DX2                !
 ! A33   A(15,14,41)           115.467          estimate D2E/DX2                !
 ! A34   A(14,15,16)           121.0769         estimate D2E/DX2                !
 ! A35   A(15,16,17)           118.8002         estimate D2E/DX2                !
 ! A36   A(15,16,20)           116.5799         estimate D2E/DX2                !
 ! A37   A(17,16,20)           124.228          estimate D2E/DX2                !
 ! A38   A(16,17,18)           122.0559         estimate D2E/DX2                !
 ! A39   A(16,17,19)           118.8339         estimate D2E/DX2                !
 ! A40   A(18,17,19)           118.3344         estimate D2E/DX2                !
 ! A41   A(13,19,17)           122.4378         estimate D2E/DX2                !
 ! A42   A(13,19,42)           122.4567         estimate D2E/DX2                !
 ! A43   A(17,19,42)           115.0526         estimate D2E/DX2                !
 ! A44   A(16,20,21)           121.5221         estimate D2E/DX2                !
 ! A45   A(16,20,24)           121.382          estimate D2E/DX2                !
 ! A46   A(21,20,24)           116.6489         estimate D2E/DX2                !
 ! A47   A(20,21,22)           107.1757         estimate D2E/DX2                !
 ! A48   A(21,22,23)           116.9145         estimate D2E/DX2                !
 ! A49   A(21,22,43)           118.5777         estimate D2E/DX2                !
 ! A50   A(23,22,43)           124.3435         estimate D2E/DX2                !
 ! A51   A(22,23,24)           111.0223         estimate D2E/DX2                !
 ! A52   A(22,23,25)           126.6122         estimate D2E/DX2                !
 ! A53   A(24,23,25)           122.3649         estimate D2E/DX2                !
 ! A54   A(20,24,23)            87.8672         estimate D2E/DX2                !
 ! A55   A(23,25,26)           123.2539         estimate D2E/DX2                !
 ! A56   A(23,25,31)           122.9895         estimate D2E/DX2                !
 ! A57   A(26,25,31)           113.6714         estimate D2E/DX2                !
 ! A58   A(25,26,27)           124.5673         estimate D2E/DX2                !
 ! A59   A(25,26,44)           122.003          estimate D2E/DX2                !
 ! A60   A(27,26,44)           113.4297         estimate D2E/DX2                !
 ! A61   A(26,27,28)           116.6573         estimate D2E/DX2                !
 ! A62   A(27,28,29)           126.1558         estimate D2E/DX2                !
 ! A63   A(27,28,32)           116.5043         estimate D2E/DX2                !
 ! A64   A(29,28,32)           117.3397         estimate D2E/DX2                !
 ! A65   A(28,29,30)           126.5851         estimate D2E/DX2                !
 ! A66   A(28,29,31)           115.4599         estimate D2E/DX2                !
 ! A67   A(30,29,31)           117.953          estimate D2E/DX2                !
 ! A68   A(25,31,29)           123.4028         estimate D2E/DX2                !
 ! A69   A(25,31,45)           120.4956         estimate D2E/DX2                !
 ! A70   A(29,31,45)           115.9252         estimate D2E/DX2                !
 ! A71   A(28,32,33)           127.2208         estimate D2E/DX2                !
 ! A72   A(28,32,36)           117.5237         estimate D2E/DX2                !
 ! A73   A(33,32,36)           115.2553         estimate D2E/DX2                !
 ! A74   A(32,33,34)           111.7342         estimate D2E/DX2                !
 ! A75   A(33,34,35)           115.4098         estimate D2E/DX2                !
 ! A76   A(33,34,46)           121.0694         estimate D2E/DX2                !
 ! A77   A(35,34,46)           122.5797         estimate D2E/DX2                !
 ! A78   A(34,35,36)           112.154          estimate D2E/DX2                !
 ! A79   A(34,35,47)           129.9594         estimate D2E/DX2                !
 ! A80   A(36,35,47)           117.8009         estimate D2E/DX2                !
 ! A81   A(32,36,35)            85.1824         estimate D2E/DX2                !
 ! D1    D(7,1,2,3)              9.0603         estimate D2E/DX2                !
 ! D2    D(7,1,2,38)           178.0276         estimate D2E/DX2                !
 ! D3    D(37,1,2,3)          -178.9692         estimate D2E/DX2                !
 ! D4    D(37,1,2,38)          -10.0019         estimate D2E/DX2                !
 ! D5    D(2,1,7,5)             -9.2297         estimate D2E/DX2                !
 ! D6    D(2,1,7,39)           178.5362         estimate D2E/DX2                !
 ! D7    D(37,1,7,5)           178.82           estimate D2E/DX2                !
 ! D8    D(37,1,7,39)            6.5859         estimate D2E/DX2                !
 ! D9    D(1,2,3,4)             -6.1502         estimate D2E/DX2                !
 ! D10   D(38,2,3,4)          -175.6922         estimate D2E/DX2                !
 ! D11   D(2,3,4,5)              3.6646         estimate D2E/DX2                !
 ! D12   D(2,3,4,8)           -179.9636         estimate D2E/DX2                !
 ! D13   D(3,4,5,6)            177.5653         estimate D2E/DX2                !
 ! D14   D(3,4,5,7)             -4.6032         estimate D2E/DX2                !
 ! D15   D(8,4,5,6)              1.3326         estimate D2E/DX2                !
 ! D16   D(8,4,5,7)            179.1641         estimate D2E/DX2                !
 ! D17   D(3,4,8,9)           -177.7685         estimate D2E/DX2                !
 ! D18   D(3,4,8,12)             1.3399         estimate D2E/DX2                !
 ! D19   D(5,4,8,9)             -1.1912         estimate D2E/DX2                !
 ! D20   D(5,4,8,12)           177.9172         estimate D2E/DX2                !
 ! D21   D(4,5,7,1)              7.4413         estimate D2E/DX2                !
 ! D22   D(4,5,7,39)           179.5918         estimate D2E/DX2                !
 ! D23   D(6,5,7,1)           -174.4835         estimate D2E/DX2                !
 ! D24   D(6,5,7,39)            -2.333          estimate D2E/DX2                !
 ! D25   D(4,8,9,10)           178.1787         estimate D2E/DX2                !
 ! D26   D(12,8,9,10)           -0.9584         estimate D2E/DX2                !
 ! D27   D(4,8,12,11)         -179.6479         estimate D2E/DX2                !
 ! D28   D(9,8,12,11)           -0.4468         estimate D2E/DX2                !
 ! D29   D(8,9,10,11)            2.4436         estimate D2E/DX2                !
 ! D30   D(8,9,10,40)          178.4396         estimate D2E/DX2                !
 ! D31   D(9,10,11,12)          -2.7004         estimate D2E/DX2                !
 ! D32   D(9,10,11,13)         178.0601         estimate D2E/DX2                !
 ! D33   D(40,10,11,12)       -178.3124         estimate D2E/DX2                !
 ! D34   D(40,10,11,13)          2.4481         estimate D2E/DX2                !
 ! D35   D(10,11,12,8)           1.6938         estimate D2E/DX2                !
 ! D36   D(13,11,12,8)        -178.9994         estimate D2E/DX2                !
 ! D37   D(10,11,13,14)         -2.6083         estimate D2E/DX2                !
 ! D38   D(10,11,13,19)        178.4606         estimate D2E/DX2                !
 ! D39   D(12,11,13,14)        178.2488         estimate D2E/DX2                !
 ! D40   D(12,11,13,19)         -0.6823         estimate D2E/DX2                !
 ! D41   D(11,13,14,15)       -178.8737         estimate D2E/DX2                !
 ! D42   D(11,13,14,41)         -0.7109         estimate D2E/DX2                !
 ! D43   D(19,13,14,15)          0.1282         estimate D2E/DX2                !
 ! D44   D(19,13,14,41)        178.2911         estimate D2E/DX2                !
 ! D45   D(11,13,19,17)       -177.1469         estimate D2E/DX2                !
 ! D46   D(11,13,19,42)          0.0743         estimate D2E/DX2                !
 ! D47   D(14,13,19,17)          3.8936         estimate D2E/DX2                !
 ! D48   D(14,13,19,42)       -178.8851         estimate D2E/DX2                !
 ! D49   D(13,14,15,16)         -0.607          estimate D2E/DX2                !
 ! D50   D(41,14,15,16)       -178.897          estimate D2E/DX2                !
 ! D51   D(14,15,16,17)         -2.817          estimate D2E/DX2                !
 ! D52   D(14,15,16,20)       -175.9375         estimate D2E/DX2                !
 ! D53   D(15,16,17,18)        176.3294         estimate D2E/DX2                !
 ! D54   D(15,16,17,19)          6.5904         estimate D2E/DX2                !
 ! D55   D(20,16,17,18)        -11.1148         estimate D2E/DX2                !
 ! D56   D(20,16,17,19)        179.1463         estimate D2E/DX2                !
 ! D57   D(15,16,20,21)       -176.9668         estimate D2E/DX2                !
 ! D58   D(15,16,20,24)         -4.8973         estimate D2E/DX2                !
 ! D59   D(17,16,20,21)         10.3267         estimate D2E/DX2                !
 ! D60   D(17,16,20,24)       -177.6038         estimate D2E/DX2                !
 ! D61   D(16,17,19,13)         -7.3258         estimate D2E/DX2                !
 ! D62   D(16,17,19,42)        175.2623         estimate D2E/DX2                !
 ! D63   D(18,17,19,13)       -177.4493         estimate D2E/DX2                !
 ! D64   D(18,17,19,42)          5.1387         estimate D2E/DX2                !
 ! D65   D(16,20,21,22)        179.0103         estimate D2E/DX2                !
 ! D66   D(24,20,21,22)          6.5833         estimate D2E/DX2                !
 ! D67   D(16,20,24,23)       -176.9491         estimate D2E/DX2                !
 ! D68   D(21,20,24,23)         -4.5107         estimate D2E/DX2                !
 ! D69   D(20,21,22,23)         -5.833          estimate D2E/DX2                !
 ! D70   D(20,21,22,43)        178.6218         estimate D2E/DX2                !
 ! D71   D(21,22,23,24)          2.7617         estimate D2E/DX2                !
 ! D72   D(21,22,23,25)       -177.5035         estimate D2E/DX2                !
 ! D73   D(43,22,23,24)        178.0229         estimate D2E/DX2                !
 ! D74   D(43,22,23,25)         -2.2423         estimate D2E/DX2                !
 ! D75   D(22,23,24,20)          0.9268         estimate D2E/DX2                !
 ! D76   D(25,23,24,20)       -178.8212         estimate D2E/DX2                !
 ! D77   D(22,23,25,26)          3.2419         estimate D2E/DX2                !
 ! D78   D(22,23,25,31)        179.6722         estimate D2E/DX2                !
 ! D79   D(24,23,25,26)       -177.0512         estimate D2E/DX2                !
 ! D80   D(24,23,25,31)         -0.6209         estimate D2E/DX2                !
 ! D81   D(23,25,26,27)        178.288          estimate D2E/DX2                !
 ! D82   D(23,25,26,44)         -1.7495         estimate D2E/DX2                !
 ! D83   D(31,25,26,27)          1.5568         estimate D2E/DX2                !
 ! D84   D(31,25,26,44)       -178.4807         estimate D2E/DX2                !
 ! D85   D(23,25,31,29)        179.9922         estimate D2E/DX2                !
 ! D86   D(23,25,31,45)          5.0178         estimate D2E/DX2                !
 ! D87   D(26,25,31,29)         -3.2668         estimate D2E/DX2                !
 ! D88   D(26,25,31,45)       -178.2412         estimate D2E/DX2                !
 ! D89   D(25,26,27,28)          0.8332         estimate D2E/DX2                !
 ! D90   D(44,26,27,28)       -179.1322         estimate D2E/DX2                !
 ! D91   D(26,27,28,29)         -1.903          estimate D2E/DX2                !
 ! D92   D(26,27,28,32)        177.9531         estimate D2E/DX2                !
 ! D93   D(27,28,29,30)       -179.1649         estimate D2E/DX2                !
 ! D94   D(27,28,29,31)          0.3103         estimate D2E/DX2                !
 ! D95   D(32,28,29,30)          0.98           estimate D2E/DX2                !
 ! D96   D(32,28,29,31)       -179.5448         estimate D2E/DX2                !
 ! D97   D(27,28,32,33)        179.0682         estimate D2E/DX2                !
 ! D98   D(27,28,32,36)         -0.769          estimate D2E/DX2                !
 ! D99   D(29,28,32,33)         -1.0625         estimate D2E/DX2                !
 ! D100  D(29,28,32,36)        179.1003         estimate D2E/DX2                !
 ! D101  D(28,29,31,25)          2.44           estimate D2E/DX2                !
 ! D102  D(28,29,31,45)        177.6256         estimate D2E/DX2                !
 ! D103  D(30,29,31,25)       -178.037          estimate D2E/DX2                !
 ! D104  D(30,29,31,45)         -2.8514         estimate D2E/DX2                !
 ! D105  D(28,32,33,34)       -177.5655         estimate D2E/DX2                !
 ! D106  D(36,32,33,34)          2.2749         estimate D2E/DX2                !
 ! D107  D(28,32,36,35)       -179.4242         estimate D2E/DX2                !
 ! D108  D(33,32,36,35)          0.7192         estimate D2E/DX2                !
 ! D109  D(32,33,34,35)         -5.129          estimate D2E/DX2                !
 ! D110  D(32,33,34,46)       -174.3036         estimate D2E/DX2                !
 ! D111  D(33,34,35,36)          5.7336         estimate D2E/DX2                !
 ! D112  D(33,34,35,47)       -177.7626         estimate D2E/DX2                !
 ! D113  D(46,34,35,36)        174.7274         estimate D2E/DX2                !
 ! D114  D(46,34,35,47)         -8.7688         estimate D2E/DX2                !
 ! D115  D(34,35,36,32)         -3.4285         estimate D2E/DX2                !
 ! D116  D(47,35,36,32)        179.6005         estimate D2E/DX2                !
 --------------------------------------------------------------------------------
 Trust Radius=3.00D-01 FncErr=1.00D-07 GrdErr=1.00D-06 EigMax=2.50D+02 EigMin=1.00D-04
 Number of steps in this run=    259 maximum allowed number of steps=    282.
 GradGradGradGradGradGradGradGradGradGradGradGradGradGradGradGradGradGrad

 Leave Link  103 at Sat Jul 25 06:46:16 2020, MaxMem=  4026531840 cpu:               0.1 elap:               0.0
 (Enter /opt/ohpc/pub/libs/gaussian/g16-A.03/sandybridge/g16/l202.exe)
                          Input orientation:                          
 ---------------------------------------------------------------------
 Center     Atomic      Atomic             Coordinates (Angstroms)
 Number     Number       Type             X           Y           Z
 ---------------------------------------------------------------------
      1          6           0      -11.329805    0.402346   -0.036442
      2          6           0      -10.293214    1.335051    0.048852
      3          7           0       -8.948240    1.066062    0.030578
      4          6           0       -8.624861   -0.263586    0.049341
      5          6           0       -9.528463   -1.287928    0.011998
      6          9           0       -9.242301   -2.632559   -0.017816
      7          6           0      -10.927461   -0.959903    0.049908
      8          6           0       -7.139459   -0.573852    0.030271
      9          7           0       -6.596786   -1.789726    0.001279
     10          6           0       -5.261812   -1.704165   -0.048463
     11          6           0       -4.731258   -0.468362   -0.008560
     12         16           0       -6.054905    0.687125    0.023400
     13          6           0       -3.275368   -0.038018   -0.006442
     14          6           0       -2.294805   -0.980737    0.004113
     15          7           0       -0.984456   -0.643226    0.029025
     16          6           0       -0.580883    0.707425    0.032341
     17          6           0       -1.537064    1.680490   -0.048968
     18          9           0       -1.243751    2.938945    0.018949
     19          6           0       -2.859620    1.315629    0.007067
     20          6           0        0.892643    0.966688   -0.034129
     21          7           0        1.393308    2.222312    0.024031
     22          6           0        2.733295    2.118970   -0.037576
     23          6           0        3.271636    0.825047   -0.013505
     24         16           0        2.048377   -0.339868    0.015692
     25          6           0        4.717493    0.463683   -0.018030
     26          6           0        5.727881    1.395893    0.017541
     27          7           0        7.088599    1.087883    0.048681
     28          6           0        7.413013   -0.219185    0.025367
     29          6           0        6.547269   -1.254257    0.011090
     30          9           0        6.845584   -2.496193    0.003925
     31          6           0        5.187673   -0.904011    0.015215
     32          6           0        8.938300   -0.559014    0.010422
     33          7           0        9.482621   -1.744635    0.004629
     34          6           0       10.790344   -1.678224    0.043662
     35          6           0       11.312017   -0.428260   -0.028132
     36         16           0       10.080962    0.798741    0.004394
     37          1           0      -12.374030    0.699727   -0.031157
     38          1           0      -10.518076    2.383919   -0.040783
     39          1           0      -11.711779   -1.776684    0.014153
     40          1           0       -4.711770   -2.621008   -0.049739
     41          1           0       -2.501217   -2.037559    0.022416
     42          1           0       -3.620434    2.207279    0.018950
     43          1           0        3.305109    2.997856   -0.028182
     44          1           0        5.539971    2.391409    0.022897
     45          1           0        4.459731   -1.758977   -0.038474
     46          1           0       11.392068   -2.560916   -0.046165
     47          1           0       12.375572   -0.096876   -0.049639
 ---------------------------------------------------------------------
                    Distance matrix (angstroms):
                    1          2          3          4          5
     1  C    0.000000
     2  C    1.397045   0.000000
     3  N    2.473229   1.371730   0.000000
     4  C    2.787032   2.310637   1.368536   0.000000
     5  C    2.470669   2.732439   2.424515   1.366443   0.000000
     6  F    3.683567   4.104972   3.710608   2.449036   1.375067
     7  C    1.423046   2.380984   2.832353   2.405582   1.437440
     8  C    4.303070   3.686520   2.441517   1.517580   2.493507
     9  N    5.216136   4.840462   3.699422   2.538602   2.974331
    10  C    6.423245   5.878887   4.611958   3.659909   4.287332
    11  C    6.655804   5.847303   4.487641   3.899414   4.866753
    12  S    5.282921   4.287624   2.918053   2.740292   3.995819
    13  C    8.066522   7.151121   5.779432   5.354537   6.376818
    14  C    9.140339   8.327030   6.961198   6.370711   7.240182
    15  N   10.398257   9.516667   8.145153   7.649858   8.568313
    16  C   10.753471   9.732603   8.375040   8.102391   9.167390
    17  C    9.875808   8.763507   7.437028   7.350236   8.525121
    18  F   10.400283   9.190547   7.928870   8.045987   9.300697
    19  C    8.519390   7.433737   6.093778   5.977768   7.159050
    20  C   12.235470  11.192228   9.841597   9.597053  10.662311
    21  N   12.852764  11.720181  10.405987  10.322017  11.472010
    22  C   14.167483  13.050362  11.729089  11.605681  12.726355
    23  C   14.607576  13.574577  12.222332  11.946368  12.973351
    24  S   13.398856  12.454771  11.086138  10.673564  11.615595
    25  C   16.047426  15.036126  13.679089  13.362330  14.353268
    26  C   17.086682  16.021241  14.679833  14.448394  15.490609
    27  N   18.431354  17.383570  16.036864  15.771471  16.786083
    28  C   18.753222  17.774326  16.411657  16.037953  16.975158
    29  C   17.953729  17.038422  15.668282  15.204487  16.075767
    30  F   18.405106  17.561858  16.190591  15.630779  16.418568
    31  C   16.569137  15.642007  14.272542  13.827415  14.721143
    32  C   20.290946  19.324598  17.960222  17.565689  18.481143
    33  N   20.922913  20.014247  18.643962  18.168005  19.016570
    34  C   22.217925  21.297800  19.928446  19.466675  20.322580
    35  C   22.657054  21.677205  20.315375  19.937709  20.858242
    36  S   21.414475  20.381282  19.031098  18.736018  19.720137
    37  H    1.085757   2.177116   3.445874   3.871785   3.471295
    38  H    2.141391   1.076439   2.050908   3.256020   3.803233
    39  H    2.212834   3.420004   3.964672   3.437989   2.237355
    40  H    7.275935   6.841976   5.616815   4.569413   4.998144
    41  H    9.159725   8.490607   7.155182   6.375478   7.067124
    42  H    7.918033   6.729611   5.448672   5.581253   6.864498
    43  H   14.863292  13.699826  12.404831  12.367991  13.530341
    44  H   16.986737  15.868406  14.548707  14.411529  15.511136
    45  H   15.936774  15.074151  13.702529  13.170059  13.996214
    46  H   22.914287  22.032681  20.661292  20.148556  20.959306
    47  H   23.710637  22.714180  21.355651  21.001328  21.936480
                    6          7          8          9         10
     6  F    0.000000
     7  C    2.375317   0.000000
     8  C    2.943218   3.807674   0.000000
     9  N    2.776595   4.409730   1.331797   0.000000
    10  C    4.087438   5.715171   2.193026   1.338638   0.000000
    11  C    5.003333   6.215944   2.410823   2.286109   1.345470
    12  S    4.602336   5.143462   1.663240   2.535531   2.520402
    13  C    6.506617   7.707631   3.901239   3.755044   2.593024
    14  C    7.141197   8.632803   4.861781   4.377386   3.054381
    15  N    8.494212   9.948069   6.155394   5.728305   4.407649
    16  C    9.283220  10.480075   6.682559   6.513664   5.266250
    17  C    8.830291   9.755050   6.039467   6.135610   5.032856
    18  F    9.747811  10.439167   6.862889   7.142522   6.140670
    19  C    7.505160   8.382717   4.678429   4.858979   3.859115
    20  C   10.755089  11.976380   8.178757   7.980640   6.709022
    21  N   11.691352  12.725113   8.979236   8.940837   7.727425
    22  C   12.883801  14.003691  10.233629  10.115821   8.862179
    23  C   12.982822  14.310990  10.504748  10.208967   8.900442
    24  S   11.521153  12.990688   9.190826   8.765908   7.436685
    25  C   14.299041  15.709736  11.902358  11.536513  10.212102
    26  C   15.502775  16.821155  13.017238  12.729723  11.418759
    27  N   16.749460  18.132067  14.324781  13.984729  12.662449
    28  C   16.829311  18.355442  14.556794  14.097576  12.761732
    29  C   15.849640  17.477252  13.703643  13.154961  11.817798
    30  F   16.088478  17.839379  14.116569  13.460922  12.133387
    31  C   14.533173  16.115268  12.331562  11.817705  10.480269
    32  C   18.298487  19.869845  16.077778  15.583762  14.246334
    33  N   18.745976  20.425212  16.663281  16.079471  14.744584
    34  C   20.055458  21.729682  17.963787  17.387539  16.052441
    35  C   20.672180  22.245969  18.452143  17.960503  16.622880
    36  S   19.625565  21.081953  17.275057  16.877424  15.545676
    37  H    4.572968   2.203067   5.387626   6.290865   7.507506
    38  H    5.176213   3.370010   4.490937   5.726919   6.658889
    39  H    2.613784   1.132945   4.727914   5.115026   6.450679
    40  H    4.530658   6.434595   3.176621   2.060805   1.069181
    41  H    6.767411   8.494921   4.863722   4.103115   2.781557
    42  H    7.418273   7.963959   4.485349   4.983476   4.242412
    43  H   13.752788  14.772813  11.038547  10.998606   9.772489
    44  H   15.612734  16.805009  13.021550  12.836792  11.552374
    45  H   13.729867  15.408180  11.659779  11.056631   9.721703
    46  H   20.634513  22.377083  18.637912  18.005440  16.675903
    47  H   21.766101  23.319221  19.521023  19.047800  17.710468
                   11         12         13         14         15
    11  C    0.000000
    12  S    1.757331   0.000000
    13  C    1.518162   2.872725   0.000000
    14  C    2.489777   4.113452   1.360270   0.000000
    15  N    3.751069   5.242072   2.369771   1.353347   0.000000
    16  C    4.313903   5.474067   2.795968   2.405871   1.409660
    17  C    3.849945   4.626327   2.444745   2.767511   2.389794
    18  F    4.875777   5.312054   3.604223   4.058182   3.591557
    19  C    2.585710   3.256552   1.416118   2.364809   2.711796
    20  C    5.804161   6.953408   4.287484   3.735472   2.473724
    21  N    6.689626   7.604780   5.187153   4.884885   3.723586
    22  C    7.900296   8.904289   6.384168   5.906921   4.632044
    23  C    8.106741   9.327634   6.603650   5.852045   4.502439
    24  S    6.780896   8.168106   5.332341   4.390225   3.047996
    25  C    9.494614  10.774795   8.008599   7.159550   5.808587
    26  C   10.624016  11.804085   9.116752   8.367320   7.015241
    27  N   11.922005  13.149637  10.425090   9.608821   8.256594
    28  C   12.146874  13.498378  10.689964   9.737666   8.408169
    29  C   11.305892  12.750839   9.897663   8.846306   7.556491
    30  F   11.753107  13.287457  10.415200   9.265167   8.046343
    31  C    9.928522  11.354618   8.507260   7.482880   6.177651
    32  C   13.669872  15.044907  12.224787  11.241020   9.923131
    33  N   14.271069  15.726682  12.871633  11.802174  10.524894
    34  C   15.568771  17.010517  14.161110  13.103785  11.820209
    35  C   16.043337  17.402779  14.592620  13.618072  12.298485
    36  S   14.866324  16.136264  13.382520  12.503046  11.159003
    37  H    7.731553   6.319373   9.128556  10.218414  11.468633
    38  H    6.451652   4.775262   7.637001   8.885106  10.002919
    39  H    7.102105   6.170143   8.613734   9.450557  10.787048
    40  H    2.153128   3.571149   2.955835   2.921491   4.220272
    41  H    2.726980   4.478013   2.144366   1.076946   2.060284
    42  H    2.897195   2.870111   2.271800   3.452674   3.882507
    43  H    8.752042   9.641162   7.247046   6.869446   5.626821
    44  H   10.661962  11.719460   9.144024   8.529680   7.195637
    45  H    9.281210  10.795592   7.924297   6.799355   5.557754
    46  H   16.258593  17.746872  14.882885  13.777880  12.524438
    47  H   17.110912  18.447289  15.651110  14.697077  13.371426
                   16         17         18         19         20
    16  C    0.000000
    17  C    1.366656   0.000000
    18  F    2.327929   1.293968   0.000000
    19  C    2.358642   1.373105   2.290487   0.000000
    20  C    1.497636   2.532432   2.908057   3.768678   0.000000
    21  N    2.488450   2.980936   2.732704   4.348535   1.353011
    22  C    3.602933   4.292827   4.061090   5.650491   2.171581
    23  C    3.854587   4.884326   4.985814   6.150886   2.383295
    24  S    2.830213   4.115995   4.646368   5.179689   1.745076
    25  C    5.304219   6.371896   6.454821   7.624899   3.857817
    26  C    6.346236   7.270821   7.140355   8.587882   4.854525
    27  N    7.678930   8.646547   8.535536   9.950913   6.197694
    28  C    8.047424   9.149763   9.214846  10.386673   6.627598
    29  C    7.393186   8.600743   8.847768   9.751610   6.075314
    30  F    8.088040   9.365696   9.745681  10.426935   6.886980
    31  C    5.989429   7.204572   7.492098   8.347802   4.685001
    32  C    9.603082  10.712243  10.766148  11.945929   8.189160
    33  N   10.357967  11.539836  11.704323  12.715979   9.007802
    34  C   11.618789  12.777110  12.889465  13.974477  10.245296
    35  C   11.947155  13.020989  12.999523  14.278574  10.512339
    36  S   10.662273  11.651560  11.525182  12.950901   9.189935
    37  H   11.793320  10.881270  11.353401   9.534401  13.269359
    38  H   10.077886   9.008521   9.291110   7.732754  11.498395
    39  H   11.404735  10.746202  11.481149   9.376736  12.899608
    40  H    5.305604   5.346180   6.553240   4.350954   6.654416
    41  H    3.350033   3.841689   5.132916   3.372322   4.532878
    42  H    3.389485   2.150012   2.486756   1.172186   4.680785
    43  H    4.511172   5.018219   4.549486   6.390228   3.153676
    44  H    6.348287   7.113016   6.805784   8.468216   4.861146
    45  H    5.612125   6.913146   7.389416   7.939029   4.489252
    46  H   12.411276  13.607057  13.781024  14.769599  11.076193
    47  H   12.981654  14.025707  13.953740  15.300636  11.532089
                   21         22         23         24         25
    21  N    0.000000
    22  C    1.345377   0.000000
    23  C    2.341340   1.401652   0.000000
    24  S    2.644608   2.553005   1.689450   0.000000
    25  C    3.760951   2.584066   1.490338   2.787653   0.000000
    26  C    4.412656   3.081140   2.521898   4.068368   1.375196
    27  N    5.807226   4.476522   3.826507   5.238645   2.452798
    28  C    6.495980   5.231701   4.271175   5.366002   2.781011
    29  C    6.216914   5.091898   3.879933   4.590878   2.510029
    30  F    7.210548   6.181616   4.878939   5.259569   3.645562
    31  C    4.916419   3.894249   2.581020   3.189583   1.446638
    32  C    8.041322   6.758401   5.833291   6.893409   4.343032
    33  N    9.009663   7.777058   6.721602   7.565810   5.252012
    34  C   10.174421   8.907374   7.924683   8.843866   6.439805
    35  C   10.266891   8.948907   8.137488   9.264165   6.654578
    36  S    8.803537   7.465452   6.809400   8.112890   5.373971
    37  H   13.851386  15.173845  15.646178  14.459902  17.093158
    38  H   11.912657  13.254020  13.877571  12.858380  15.356119
    39  H   13.701656  14.961249  15.207646  13.834968  16.581353
    40  H    7.793277   8.825901   8.695480   7.134947   9.921055
    41  H    5.771813   6.684344   6.443728   4.856028   7.639871
    42  H    5.013767   6.354594   7.029385   6.214772   8.518364
    43  H    2.063778   1.048571   2.173116   3.566749   2.901201
    44  H    4.150110   2.820516   2.756839   4.432962   2.096252
    45  H    5.025686   4.244886   2.844182   2.798470   2.237650
    46  H   11.084196   9.842548   8.798138   9.604241   7.327956
    47  H   11.224713   9.893615   9.150568  10.330260   7.678633
                   26         27         28         29         30
    26  C    0.000000
    27  N    1.395490   0.000000
    28  C    2.334140   1.346928   0.000000
    29  C    2.773938   2.404178   1.349478   0.000000
    30  F    4.049417   3.592584   2.346743   1.277282   0.000000
    31  C    2.362496   2.753594   2.328353   1.403991   2.298660
    32  C    3.758790   2.476919   1.562756   2.490059   2.851695
    33  N    4.895013   3.708968   2.571129   2.976038   2.742044
    34  C    5.922787   4.621070   3.679062   4.264328   4.028869
    35  C    5.874708   4.487967   3.904972   4.835973   4.922032
    36  S    4.393868   3.006626   2.855620   4.086787   4.617820
    37  H   18.115358  19.466663  19.808449  19.021971  19.483549
    38  H   16.276078  17.654538  18.119174  17.448926  18.036468
    39  H   17.725885  19.017391  19.188111  18.266521  18.571309
    40  H   11.185988  12.369894  12.360613  11.341855  11.558153
    41  H    8.916651  10.086310  10.079606   9.082334   9.358065
    42  H    9.383461  10.767419  11.297111  10.740786  11.474337
    43  H    2.904858   4.238951   5.217959   5.347299   6.536097
    44  H    1.013110   2.024375   3.213019   3.782284   5.059016
    45  H    3.400669   3.875971   3.331202   2.148258   2.497515
    46  H    6.909661   5.642923   4.617543   5.018238   4.547221
    47  H    6.813565   5.418986   4.964633   5.942418   6.028296
                   31         32         33         34         35
    31  C    0.000000
    32  C    3.766464   0.000000
    33  N    4.376453   1.304613   0.000000
    34  C    5.655982   2.164210   1.309990   0.000000
    35  C    6.142948   2.377628   2.254020   1.356358   0.000000
    36  S    5.181096   1.774602   2.612810   2.576843   1.738415
    37  H   17.634839  21.349510  21.992939  23.286229  23.712891
    38  H   16.046313  19.677755  20.422412  21.692324  22.010485
    39  H   16.921969  20.685949  21.194426  22.502358  23.063287
    40  H   10.047451  13.805066  14.221523  15.531037  16.173137
    41  H    7.772002  11.534678  11.987431  13.296434  13.906755
    42  H    9.341461  12.859792  13.686047  14.925424  15.163323
    43  H    4.332493   6.662256   7.788065   8.826077   8.709124
    44  H    3.314207   4.500421   5.714165   6.642948   6.424146
    45  H    1.124166   4.636797   5.023095   6.331661   6.980311
    46  H    6.422120   3.167300   2.077230   1.072047   2.134234
    47  H    7.233365   3.468720   3.329748   2.241052   1.114193
                   36         37         38         39         40
    36  S    0.000000
    37  H   22.455238   0.000000
    38  H   20.659990   2.506224   0.000000
    39  H   21.944395   2.563833   4.328806   0.000000
    40  H   15.182969   8.350919   7.665674   7.051035   0.000000
    41  H   12.897913  10.245391   9.155517   9.214259   2.287392
    42  H   13.773614   8.882605   6.900162   9.018972   4.950564
    43  H    7.123858  15.846665  13.836818  15.757695   9.789916
    44  H    4.812227  17.993781  16.058175  17.748125  11.411739
    45  H    6.175921  17.012372  15.540215  16.171605   9.211930
    46  H    3.606778  23.988736  22.461207  23.117232  16.103951
    47  H    2.463795  24.762426  23.027669  24.145938  17.272768
                   41         42         43         44         45
    41  H    0.000000
    42  H    4.389910   0.000000
    43  H    7.685791   6.970680   0.000000
    44  H    9.180221   9.162256   2.316246   0.000000
    45  H    6.966786   9.001308   4.894969   4.289101   0.000000
    46  H   13.903308  15.751671   9.813214   7.666638   6.978572
    47  H   15.003009  16.161251   9.583899   7.274769   8.088464
                   46         47
    46  H    0.000000
    47  H    2.653071   0.000000
 Stoichiometry    C24H11F3N6S3
 Framework group  C1[X(C24H11F3N6S3)]
 Deg. of freedom   135
 Full point group                 C1      NOp   1
 Largest Abelian subgroup         C1      NOp   1
 Largest concise Abelian subgroup C1      NOp   1
                         Standard orientation:                         
 ---------------------------------------------------------------------
 Center     Atomic      Atomic             Coordinates (Angstroms)
 Number     Number       Type             X           Y           Z
 ---------------------------------------------------------------------
      1          6           0       11.333012    0.417090    0.046797
      2          6           0       10.295466    1.348818   -0.037551
      3          7           0        8.950770    1.078401   -0.019930
      4          6           0        8.628786   -0.251560   -0.040456
      5          6           0        9.533450   -1.275003   -0.004205
      6          9           0        9.248687   -2.619969    0.023835
      7          6           0       10.932113   -0.945468   -0.041376
      8          6           0        7.143705   -0.563402   -0.022123
      9          7           0        6.602297   -1.779879    0.005199
     10          6           0        5.267223   -1.695777    0.054742
     11          6           0        4.735386   -0.460479    0.016286
     12         16           0        6.057831    0.696430   -0.013901
     13          6           0        3.279047   -0.031655    0.014378
     14          6           0        2.299473   -0.975384    0.002399
     15          7           0        0.988778   -0.639212   -0.022386
     16          6           0        0.583793    0.711020   -0.024080
     17          6           0        1.538938    1.684980    0.058685
     18          9           0        1.244324    2.943212   -0.007701
     19          6           0        2.861887    1.321573    0.002492
     20          6           0       -0.890018    0.968657    0.042379
     21          7           0       -1.391983    2.223830   -0.014302
     22          6           0       -2.731875    2.119009    0.046864
     23          6           0       -3.268857    0.824556    0.021025
     24         16           0       -2.044374   -0.339042   -0.009369
     25          6           0       -4.714336    0.461675    0.024758
     26          6           0       -5.725690    1.392873   -0.009863
     27          7           0       -7.086078    1.083481   -0.041708
     28          6           0       -7.409131   -0.223954   -0.020129
     29          6           0       -6.542308   -1.258138   -0.006967
     30          9           0       -6.839326   -2.500393   -0.001448
     31          6           0       -5.183078   -0.906466   -0.010333
     32          6           0       -8.934065   -0.565396   -0.005968
     33          7           0       -9.477147   -1.751592   -0.001806
     34          6           0      -10.784930   -1.686499   -0.041057
     35          6           0      -11.307926   -0.437173    0.032204
     36         16           0      -10.078148    0.791155    0.001520
     37          1           0       12.376927    0.715569    0.042131
     38          1           0       10.519211    2.397806    0.053467
     39          1           0       11.717276   -1.761474   -0.006477
     40          1           0        4.718139   -2.613195    0.054726
     41          1           0        2.506994   -2.031966   -0.017198
     42          1           0        3.621771    2.214032   -0.008083
     43          1           0       -3.304605    2.997308    0.038454
     44          1           0       -5.538820    2.388591   -0.013911
     45          1           0       -4.454255   -1.760738    0.042438
     46          1           0      -11.385751   -2.569932    0.047510
     47          1           0      -12.371832   -0.106928    0.053886
 ---------------------------------------------------------------------
 Rotational constants (GHZ):           0.4880633           0.0196921           0.0189289
 Leave Link  202 at Sat Jul 25 06:46:16 2020, MaxMem=  4026531840 cpu:               0.1 elap:               0.0
 (Enter /opt/ohpc/pub/libs/gaussian/g16-A.03/sandybridge/g16/l301.exe)
 Standard basis: CC-pVDZ (5D, 7F)
 Ernie: Thresh=  0.10000D-02 Tol=  0.10000D-05 Strict=F.
 Ernie:  96 primitive shells out of 931 were deleted.
 There are   607 symmetry adapted cartesian basis functions of A   symmetry.
 There are   571 symmetry adapted basis functions of A   symmetry.
   571 basis functions,  1379 primitive gaussians,   607 cartesian basis functions
   136 alpha electrons      136 beta electrons
       nuclear repulsion energy      3650.2275410676 Hartrees.
 IExCor=32609 DFT=T Ex+Corr=LC-wPBE ExCW=0 ScaHFX=  1.000000
 ScaDFX=  1.000000  0.000000  1.000000  1.000000 ScalE2=  1.000000  1.000000
 IRadAn=      5 IRanWt=     -1 IRanGd=            0 ICorTp=0 IEmpDi=  4
 HFx  wShort=  0.000000 wLong=  0.341700 cFull=  0.000000 cShort=  0.000000 cLong=  1.000000
 DFx  wShort=  0.000000 wLong=  0.341700 cFull=  0.000000 cShort=  0.000000 cLong=  1.000000
 NAtoms=   47 NActive=   47 NUniq=   47 SFac= 1.00D+00 NAtFMM=   60 NAOKFM=F Big=F
 Integral buffers will be    131072 words long.
 Raffenetti 2 integral format.
 Two-electron integral symmetry is turned on.
 Leave Link  301 at Sat Jul 25 06:46:16 2020, MaxMem=  4026531840 cpu:               0.4 elap:               0.1
 (Enter /opt/ohpc/pub/libs/gaussian/g16-A.03/sandybridge/g16/l302.exe)
 NPDir=0 NMtPBC=     1 NCelOv=     1 NCel=       1 NClECP=     1 NCelD=      1
         NCelK=      1 NCelE2=     1 NClLst=     1 CellRange=     0.0.
 One-electron integrals computed using PRISM.
 One-electron integral symmetry used in STVInt
 NBasis=   571 RedAO= T EigKep=  4.21D-04  NBF=   571
 NBsUse=   571 1.00D-06 EigRej= -1.00D+00 NBFU=   571
 Precomputing XC quadrature grid using
 IXCGrd= 4 IRadAn=           5 IRanWt=          -1 IRanGd=           0 AccXCQ= 0.00D+00.
 Generated NRdTot=       0 NPtTot=           0 NUsed=           0 NTot=          32
 NSgBfM=   511   508   511   511   511 MxSgAt=    47 MxSgA2=    47.
 Leave Link  302 at Sat Jul 25 06:46:17 2020, MaxMem=  4026531840 cpu:               7.1 elap:               0.9
 (Enter /opt/ohpc/pub/libs/gaussian/g16-A.03/sandybridge/g16/l303.exe)
 DipDrv:  MaxL=1.
 Leave Link  303 at Sat Jul 25 06:46:17 2020, MaxMem=  4026531840 cpu:               0.8 elap:               0.2
 (Enter /opt/ohpc/pub/libs/gaussian/g16-A.03/sandybridge/g16/l401.exe)
 ExpMin= 1.22D-01 ExpMax= 1.11D+05 ExpMxC= 1.07D+03 IAcc=3 IRadAn=         5 AccDes= 0.00D+00
 Harris functional with IExCor=32609 and IRadAn=       5 diagonalized for initial guess.
 HarFok:  IExCor=32609 AccDes= 0.00D+00 IRadAn=         5 IDoV= 1 UseB2=F ITyADJ=14
 ICtDFT=  3500011 ScaDFX=  1.000000  1.000000  1.000000  1.000000
 FoFCou: FMM=F IPFlag=           0 FMFlag=      100000 FMFlg1=           0
         NFxFlg=           0 DoJE=T BraDBF=F KetDBF=T FulRan=T
         wScrn=  0.000000 ICntrl=       500 IOpCl=  0 I1Cent=   200000004 NGrid=           0
         NMat0=    1 NMatS0=      1 NMatT0=    0 NMatD0=    1 NMtDS0=    0 NMtDT0=    0
 Petite list used in FoFCou.
 Harris En= -2741.86117115970    
 JPrj=0 DoOrth=F DoCkMO=F.
 Initial guess <Sx>= 0.0000 <Sy>= 0.0000 <Sz>= 0.0000 <S**2>=-0.0000 S=-0.0000
 Leave Link  401 at Sat Jul 25 06:46:21 2020, MaxMem=  4026531840 cpu:              32.8 elap:               4.1
 (Enter /opt/ohpc/pub/libs/gaussian/g16-A.03/sandybridge/g16/l502.exe)
 Integral symmetry usage will be decided dynamically.
 UHF open shell SCF:
 Using DIIS extrapolation, IDIIS=  1040.
 NGot=  4026531840 LenX=  4025784083 LenY=  4025415027
 Requested convergence on RMS density matrix=1.00D-08 within 128 cycles.
 Requested convergence on MAX density matrix=1.00D-06.
 Requested convergence on             energy=1.00D-06.
 No special actions if energy rises.
 Fock matrices will be formed incrementally for  20 cycles.
 Integral accuracy reduced to 1.0D-05 until final iterations.

 Cycle   1  Pass 0  IDiag  1:
 FoFJK:  IHMeth= 1 ICntrl=       0 DoSepK=T KAlg= 0 I1Cent=           0 FoldK=F
 IRaf=         1 NMat=       1 IRICut=       1 DoRegI=T DoRafI=F ISym2E= 0 IDoP0=0 IntGTp=1.
 FoFCou: FMM=F IPFlag=           0 FMFlag=      100000 FMFlg1=           0
         NFxFlg=           0 DoJE=T BraDBF=F KetDBF=F FulRan=T
         wScrn=  0.000000 ICntrl=       500 IOpCl=  0 I1Cent=           0 NGrid=           0
         NMat0=    1 NMatS0=      1 NMatT0=    0 NMatD0=    1 NMtDS0=    0 NMtDT0=    0
 Symmetry not used in FoFCou.
 E= -2741.71201537137    
 DIIS: error= 1.64D-02 at cycle   1 NSaved=   1.
 NSaved= 1 IEnMin= 1 EnMin= -2741.71201537137     IErMin= 1 ErrMin= 1.64D-02
 ErrMax= 1.64D-02  0.00D+00 EMaxC= 1.00D-01 BMatC= 2.02D+00 BMatP= 2.02D+00
 IDIUse=3 WtCom= 8.36D-01 WtEn= 1.64D-01
 Coeff-Com:  0.100D+01
 Coeff-En:   0.100D+01
 Coeff:      0.100D+01
 Gap=     0.256 Goal=   None    Shift=    0.000
 Gap=     0.256 Goal=   None    Shift=    0.000
 GapD=    0.256 DampG=1.000 DampE=0.500 DampFc=0.5000 IDamp=-1.
 Damping current iteration by 5.00D-01
 RMSDP=2.78D-03 MaxDP=1.47D-01              OVMax= 2.01D-01

 Cycle   2  Pass 0  IDiag  1:
 RMSU=  1.38D-03    CP:  9.92D-01
 E= -2741.98523717997     Delta-E=       -0.273221808603 Rises=F Damp=T
 DIIS: error= 4.18D-03 at cycle   2 NSaved=   2.
 NSaved= 2 IEnMin= 2 EnMin= -2741.98523717997     IErMin= 2 ErrMin= 4.18D-03
 ErrMax= 4.18D-03  0.00D+00 EMaxC= 1.00D-01 BMatC= 1.25D-01 BMatP= 2.02D+00
 IDIUse=3 WtCom= 9.58D-01 WtEn= 4.18D-02
 Coeff-Com:  0.133D-02 0.999D+00
 Coeff-En:   0.000D+00 0.100D+01
 Coeff:      0.128D-02 0.999D+00
 Gap=     0.266 Goal=   None    Shift=    0.000
 Gap=     0.266 Goal=   None    Shift=    0.000
 RMSDP=8.32D-04 MaxDP=2.48D-02 DE=-2.73D-01 OVMax= 1.41D-01

 Cycle   3  Pass 0  IDiag  1:
 RMSU=  8.03D-04    CP:  9.85D-01  1.14D+00
 E= -2742.27437623846     Delta-E=       -0.289139058488 Rises=F Damp=F
 DIIS: error= 4.90D-03 at cycle   3 NSaved=   3.
 NSaved= 3 IEnMin= 3 EnMin= -2742.27437623846     IErMin= 2 ErrMin= 4.18D-03
 ErrMax= 4.90D-03  0.00D+00 EMaxC= 1.00D-01 BMatC= 6.32D-02 BMatP= 1.25D-01
 IDIUse=3 WtCom= 9.51D-01 WtEn= 4.90D-02
 Coeff-Com: -0.428D-01 0.413D+00 0.630D+00
 Coeff-En:   0.000D+00 0.000D+00 0.100D+01
 Coeff:     -0.407D-01 0.392D+00 0.648D+00
 Gap=     0.265 Goal=   None    Shift=    0.000
 Gap=     0.265 Goal=   None    Shift=    0.000
 RMSDP=2.52D-04 MaxDP=1.84D-02 DE=-2.89D-01 OVMax= 2.35D-02

 Cycle   4  Pass 0  IDiag  1:
 RMSU=  2.25D-04    CP:  9.85D-01  1.18D+00  8.79D-01
 E= -2742.28833761352     Delta-E=       -0.013961375057 Rises=F Damp=F
 DIIS: error= 1.09D-03 at cycle   4 NSaved=   4.
 NSaved= 4 IEnMin= 4 EnMin= -2742.28833761352     IErMin= 4 ErrMin= 1.09D-03
 ErrMax= 1.09D-03  0.00D+00 EMaxC= 1.00D-01 BMatC= 7.57D-03 BMatP= 6.32D-02
 IDIUse=3 WtCom= 9.89D-01 WtEn= 1.09D-02
 Coeff-Com: -0.879D-02 0.270D-01 0.256D+00 0.726D+00
 Coeff-En:   0.000D+00 0.000D+00 0.000D+00 0.100D+01
 Coeff:     -0.869D-02 0.267D-01 0.253D+00 0.729D+00
 Gap=     0.268 Goal=   None    Shift=    0.000
 Gap=     0.268 Goal=   None    Shift=    0.000
 RMSDP=9.08D-05 MaxDP=5.12D-03 DE=-1.40D-02 OVMax= 8.72D-03

 Cycle   5  Pass 0  IDiag  1:
 RMSU=  7.48D-05    CP:  9.85D-01  1.18D+00  9.35D-01  8.97D-01
 E= -2742.29047465888     Delta-E=       -0.002137045361 Rises=F Damp=F
 DIIS: error= 4.51D-04 at cycle   5 NSaved=   5.
 NSaved= 5 IEnMin= 5 EnMin= -2742.29047465888     IErMin= 5 ErrMin= 4.51D-04
 ErrMax= 4.51D-04  0.00D+00 EMaxC= 1.00D-01 BMatC= 6.42D-04 BMatP= 7.57D-03
 IDIUse=3 WtCom= 9.95D-01 WtEn= 4.51D-03
 Coeff-Com:  0.403D-02-0.328D-01 0.212D-01 0.232D+00 0.775D+00
 Coeff-En:   0.000D+00 0.000D+00 0.000D+00 0.000D+00 0.100D+01
 Coeff:      0.401D-02-0.326D-01 0.211D-01 0.231D+00 0.776D+00
 Gap=     0.270 Goal=   None    Shift=    0.000
 Gap=     0.270 Goal=   None    Shift=    0.000
 RMSDP=3.90D-05 MaxDP=1.77D-03 DE=-2.14D-03 OVMax= 4.59D-03

 Cycle   6  Pass 0  IDiag  1:
 RMSU=  2.86D-05    CP:  9.85D-01  1.18D+00  9.53D-01  9.87D-01  1.10D+00
 E= -2742.29075303118     Delta-E=       -0.000278372301 Rises=F Damp=F
 DIIS: error= 2.06D-04 at cycle   6 NSaved=   6.
 NSaved= 6 IEnMin= 6 EnMin= -2742.29075303118     IErMin= 6 ErrMin= 2.06D-04
 ErrMax= 2.06D-04  0.00D+00 EMaxC= 1.00D-01 BMatC= 1.28D-04 BMatP= 6.42D-04
 IDIUse=3 WtCom= 9.98D-01 WtEn= 2.06D-03
 Coeff-Com:  0.431D-02-0.207D-01-0.339D-01-0.243D-01 0.284D+00 0.790D+00
 Coeff-En:   0.000D+00 0.000D+00 0.000D+00 0.000D+00 0.000D+00 0.100D+01
 Coeff:      0.431D-02-0.206D-01-0.338D-01-0.242D-01 0.284D+00 0.791D+00
 Gap=     0.271 Goal=   None    Shift=    0.000
 Gap=     0.271 Goal=   None    Shift=    0.000
 RMSDP=2.07D-05 MaxDP=1.24D-03 DE=-2.78D-04 OVMax= 2.51D-03

 Cycle   7  Pass 0  IDiag  1:
 RMSU=  1.39D-05    CP:  9.85D-01  1.18D+00  9.63D-01  1.02D+00  1.25D+00
                    CP:  1.08D+00
 E= -2742.29083078092     Delta-E=       -0.000077749743 Rises=F Damp=F
 DIIS: error= 1.23D-04 at cycle   7 NSaved=   7.
 NSaved= 7 IEnMin= 7 EnMin= -2742.29083078092     IErMin= 7 ErrMin= 1.23D-04
 ErrMax= 1.23D-04  0.00D+00 EMaxC= 1.00D-01 BMatC= 2.47D-05 BMatP= 1.28D-04
 IDIUse=3 WtCom= 9.99D-01 WtEn= 1.23D-03
 Coeff-Com:  0.108D-02-0.194D-02-0.132D-01-0.437D-01-0.575D-01 0.265D+00
 Coeff-Com:  0.850D+00
 Coeff-En:   0.000D+00 0.000D+00 0.000D+00 0.000D+00 0.000D+00 0.000D+00
 Coeff-En:   0.100D+01
 Coeff:      0.108D-02-0.194D-02-0.132D-01-0.436D-01-0.574D-01 0.265D+00
 Coeff:      0.851D+00
 Gap=     0.271 Goal=   None    Shift=    0.000
 Gap=     0.271 Goal=   None    Shift=    0.000
 RMSDP=1.07D-05 MaxDP=6.13D-04 DE=-7.77D-05 OVMax= 1.49D-03

 Cycle   8  Pass 0  IDiag  1:
 RMSU=  5.16D-06    CP:  9.85D-01  1.18D+00  9.65D-01  1.03D+00  1.32D+00
                    CP:  1.30D+00  1.15D+00
 E= -2742.29084805562     Delta-E=       -0.000017274695 Rises=F Damp=F
 DIIS: error= 4.74D-05 at cycle   8 NSaved=   8.
 NSaved= 8 IEnMin= 8 EnMin= -2742.29084805562     IErMin= 8 ErrMin= 4.74D-05
 ErrMax= 4.74D-05  0.00D+00 EMaxC= 1.00D-01 BMatC= 5.84D-06 BMatP= 2.47D-05
 IDIUse=1 WtCom= 1.00D+00 WtEn= 0.00D+00
 Coeff-Com: -0.349D-03 0.313D-02 0.210D-02-0.115D-01-0.864D-01-0.632D-01
 Coeff-Com:  0.356D+00 0.800D+00
 Coeff:     -0.349D-03 0.313D-02 0.210D-02-0.115D-01-0.864D-01-0.632D-01
 Coeff:      0.356D+00 0.800D+00
 Gap=     0.271 Goal=   None    Shift=    0.000
 Gap=     0.271 Goal=   None    Shift=    0.000
 RMSDP=5.11D-06 MaxDP=2.86D-04 DE=-1.73D-05 OVMax= 7.47D-04

 Initial convergence to 1.0D-05 achieved.  Increase integral accuracy.
 Cycle   9  Pass 1  IDiag  1:
 E= -2742.29039352105     Delta-E=        0.000454534564 Rises=F Damp=F
 DIIS: error= 1.12D-04 at cycle   1 NSaved=   1.
 NSaved= 1 IEnMin= 1 EnMin= -2742.29039352105     IErMin= 1 ErrMin= 1.12D-04
 ErrMax= 1.12D-04  0.00D+00 EMaxC= 1.00D-01 BMatC= 2.60D-05 BMatP= 2.60D-05
 IDIUse=3 WtCom= 9.99D-01 WtEn= 1.12D-03
 Coeff-Com:  0.100D+01
 Coeff-En:   0.100D+01
 Coeff:      0.100D+01
 Gap=     0.271 Goal=   None    Shift=    0.000
 Gap=     0.271 Goal=   None    Shift=    0.000
 RMSDP=5.11D-06 MaxDP=2.86D-04 DE= 4.55D-04 OVMax= 3.84D-04

 Cycle  10  Pass 1  IDiag  1:
 RMSU=  8.45D-05    CP:  1.00D+00
 E= -2742.29039929773     Delta-E=       -0.000005776679 Rises=F Damp=F
 DIIS: error= 1.34D-05 at cycle   2 NSaved=   2.
 NSaved= 2 IEnMin= 2 EnMin= -2742.29039929773     IErMin= 2 ErrMin= 1.34D-05
 ErrMax= 1.34D-05  0.00D+00 EMaxC= 1.00D-01 BMatC= 6.18D-07 BMatP= 2.60D-05
 IDIUse=1 WtCom= 1.00D+00 WtEn= 0.00D+00
 Coeff-Com: -0.315D-02 0.100D+01
 Coeff:     -0.315D-02 0.100D+01
 Gap=     0.271 Goal=   None    Shift=    0.000
 Gap=     0.271 Goal=   None    Shift=    0.000
 RMSDP=4.74D-06 MaxDP=3.14D-04 DE=-5.78D-06 OVMax= 1.92D-04

 Cycle  11  Pass 1  IDiag  1:
 RMSU=  1.98D-06    CP:  1.00D+00  1.05D+00
 E= -2742.29039928676     Delta-E=        0.000000010978 Rises=F Damp=F
 DIIS: error= 1.50D-05 at cycle   3 NSaved=   3.
 NSaved= 3 IEnMin= 2 EnMin= -2742.29039929773     IErMin= 2 ErrMin= 1.34D-05
 ErrMax= 1.50D-05  0.00D+00 EMaxC= 1.00D-01 BMatC= 9.25D-07 BMatP= 6.18D-07
 IDIUse=1 WtCom= 1.00D+00 WtEn= 0.00D+00
 Coeff-Com: -0.244D-01 0.569D+00 0.455D+00
 Coeff:     -0.244D-01 0.569D+00 0.455D+00
 Gap=     0.271 Goal=   None    Shift=    0.000
 Gap=     0.271 Goal=   None    Shift=    0.000
 RMSDP=8.76D-07 MaxDP=5.61D-05 DE= 1.10D-08 OVMax= 1.01D-04

 Cycle  12  Pass 1  IDiag  1:
 RMSU=  7.22D-07    CP:  1.00D+00  1.05D+00  7.83D-01
 E= -2742.29039953115     Delta-E=       -0.000000244398 Rises=F Damp=F
 DIIS: error= 3.40D-06 at cycle   4 NSaved=   4.
 NSaved= 4 IEnMin= 4 EnMin= -2742.29039953115     IErMin= 4 ErrMin= 3.40D-06
 ErrMax= 3.40D-06  0.00D+00 EMaxC= 1.00D-01 BMatC= 1.95D-08 BMatP= 6.18D-07
 IDIUse=1 WtCom= 1.00D+00 WtEn= 0.00D+00
 Coeff-Com:  0.627D-04-0.641D-01-0.800D-02 0.107D+01
 Coeff:      0.627D-04-0.641D-01-0.800D-02 0.107D+01
 Gap=     0.271 Goal=   None    Shift=    0.000
 Gap=     0.271 Goal=   None    Shift=    0.000
 RMSDP=3.92D-07 MaxDP=2.40D-05 DE=-2.44D-07 OVMax= 7.53D-05

 Cycle  13  Pass 1  IDiag  1:
 RMSU=  2.71D-07    CP:  1.00D+00  1.05D+00  8.83D-01  1.24D+00
 E= -2742.29039955608     Delta-E=       -0.000000024932 Rises=F Damp=F
 DIIS: error= 2.16D-06 at cycle   5 NSaved=   5.
 NSaved= 5 IEnMin= 5 EnMin= -2742.29039955608     IErMin= 5 ErrMin= 2.16D-06
 ErrMax= 2.16D-06  0.00D+00 EMaxC= 1.00D-01 BMatC= 1.02D-08 BMatP= 1.95D-08
 IDIUse=1 WtCom= 1.00D+00 WtEn= 0.00D+00
 Coeff-Com:  0.974D-02-0.259D+00-0.189D+00 0.541D+00 0.897D+00
 Coeff:      0.974D-02-0.259D+00-0.189D+00 0.541D+00 0.897D+00
 Gap=     0.271 Goal=   None    Shift=    0.000
 Gap=     0.271 Goal=   None    Shift=    0.000
 RMSDP=2.93D-07 MaxDP=1.61D-05 DE=-2.49D-08 OVMax= 5.95D-05

 Cycle  14  Pass 1  IDiag  1:
 RMSU=  1.45D-07    CP:  1.00D+00  1.06D+00  9.40D-01  1.48D+00  1.54D+00
 E= -2742.29039956832     Delta-E=       -0.000000012235 Rises=F Damp=F
 DIIS: error= 5.38D-07 at cycle   6 NSaved=   6.
 NSaved= 6 IEnMin= 6 EnMin= -2742.29039956832     IErMin= 6 ErrMin= 5.38D-07
 ErrMax= 5.38D-07  0.00D+00 EMaxC= 1.00D-01 BMatC= 8.22D-10 BMatP= 1.02D-08
 IDIUse=1 WtCom= 1.00D+00 WtEn= 0.00D+00
 Coeff-Com:  0.274D-02-0.654D-01-0.523D-01 0.220D-01 0.259D+00 0.834D+00
 Coeff:      0.274D-02-0.654D-01-0.523D-01 0.220D-01 0.259D+00 0.834D+00
 Gap=     0.271 Goal=   None    Shift=    0.000
 Gap=     0.271 Goal=   None    Shift=    0.000
 RMSDP=7.86D-08 MaxDP=3.77D-06 DE=-1.22D-08 OVMax= 1.73D-05

 Cycle  15  Pass 1  IDiag  1:
 RMSU=  3.74D-08    CP:  1.00D+00  1.06D+00  9.42D-01  1.50D+00  1.76D+00
                    CP:  1.14D+00
 E= -2742.29039958261     Delta-E=       -0.000000014294 Rises=F Damp=F
 DIIS: error= 2.46D-07 at cycle   7 NSaved=   7.
 NSaved= 7 IEnMin= 7 EnMin= -2742.29039958261     IErMin= 7 ErrMin= 2.46D-07
 ErrMax= 2.46D-07  0.00D+00 EMaxC= 1.00D-01 BMatC= 2.25D-10 BMatP= 8.22D-10
 IDIUse=1 WtCom= 1.00D+00 WtEn= 0.00D+00
 Coeff-Com: -0.517D-03 0.170D-01 0.105D-01-0.862D-01-0.525D-01 0.364D+00
 Coeff-Com:  0.748D+00
 Coeff:     -0.517D-03 0.170D-01 0.105D-01-0.862D-01-0.525D-01 0.364D+00
 Coeff:      0.748D+00
 Gap=     0.271 Goal=   None    Shift=    0.000
 Gap=     0.271 Goal=   None    Shift=    0.000
 RMSDP=3.29D-08 MaxDP=1.38D-06 DE=-1.43D-08 OVMax= 6.17D-06

 Cycle  16  Pass 1  IDiag  1:
 RMSU=  1.66D-08    CP:  1.00D+00  1.05D+00  9.42D-01  1.51D+00  1.83D+00
                    CP:  1.25D+00  1.05D+00
 E= -2742.29039958267     Delta-E=       -0.000000000060 Rises=F Damp=F
 DIIS: error= 9.52D-08 at cycle   8 NSaved=   8.
 NSaved= 8 IEnMin= 8 EnMin= -2742.29039958267     IErMin= 8 ErrMin= 9.52D-08
 ErrMax= 9.52D-08  0.00D+00 EMaxC= 1.00D-01 BMatC= 2.60D-11 BMatP= 2.25D-10
 IDIUse=1 WtCom= 1.00D+00 WtEn= 0.00D+00
 Coeff-Com: -0.470D-03 0.127D-01 0.934D-02-0.301D-01-0.494D-01 0.256D-01
 Coeff-Com:  0.249D+00 0.783D+00
 Coeff:     -0.470D-03 0.127D-01 0.934D-02-0.301D-01-0.494D-01 0.256D-01
 Coeff:      0.249D+00 0.783D+00
 Gap=     0.271 Goal=   None    Shift=    0.000
 Gap=     0.271 Goal=   None    Shift=    0.000
 RMSDP=1.07D-08 MaxDP=4.02D-07 DE=-6.00D-11 OVMax= 2.39D-06

 Cycle  17  Pass 1  IDiag  1:
 RMSU=  6.95D-09    CP:  1.00D+00  1.05D+00  9.41D-01  1.51D+00  1.85D+00
                    CP:  1.27D+00  1.17D+00  1.20D+00
 E= -2742.29039958268     Delta-E=       -0.000000000005 Rises=F Damp=F
 DIIS: error= 4.34D-08 at cycle   9 NSaved=   9.
 NSaved= 9 IEnMin= 9 EnMin= -2742.29039958268     IErMin= 9 ErrMin= 4.34D-08
 ErrMax= 4.34D-08  0.00D+00 EMaxC= 1.00D-01 BMatC= 6.75D-12 BMatP= 2.60D-11
 IDIUse=1 WtCom= 1.00D+00 WtEn= 0.00D+00
 Coeff-Com:  0.771D-04-0.314D-02-0.138D-02 0.242D-01 0.578D-02-0.118D+00
 Coeff-Com: -0.200D+00 0.202D+00 0.109D+01
 Coeff:      0.771D-04-0.314D-02-0.138D-02 0.242D-01 0.578D-02-0.118D+00
 Coeff:     -0.200D+00 0.202D+00 0.109D+01
 Gap=     0.271 Goal=   None    Shift=    0.000
 Gap=     0.271 Goal=   None    Shift=    0.000
 RMSDP=8.16D-09 MaxDP=3.19D-07 DE=-5.46D-12 OVMax= 1.93D-06

 SCF Done:  E(ULC-wPBE) =  -2742.29039958     A.U. after   17 cycles
            NFock= 17  Conv=0.82D-08     -V/T= 2.0046
 <Sx>= 0.0000 <Sy>= 0.0000 <Sz>= 0.0000 <S**2>=-0.0000 S=-0.0000
 <L.S>= 0.000000000000E+00
 KE= 2.729700782778D+03 PE=-1.375454014805D+04 EE= 4.632321424617D+03
 Annihilation of the first spin contaminant:
 S**2 before annihilation    -0.0000,   after     0.0000
 Leave Link  502 at Sat Jul 25 06:51:40 2020, MaxMem=  4026531840 cpu:            2545.2 elap:             319.3
 (Enter /opt/ohpc/pub/libs/gaussian/g16-A.03/sandybridge/g16/l601.exe)
 Copying SCF densities to generalized density rwf, IOpCl= 1 IROHF=0.

 **********************************************************************

            Population analysis using the SCF density.

 **********************************************************************

 Orbital symmetries:
 Alpha Orbitals:
       Occupied  (A) (A) (A) (A) (A) (A) (A) (A) (A) (A) (A) (A)
                 (A) (A) (A) (A) (A) (A) (A) (A) (A) (A) (A) (A)
                 (A) (A) (A) (A) (A) (A) (A) (A) (A) (A) (A) (A)
                 (A) (A) (A) (A) (A) (A) (A) (A) (A) (A) (A) (A)
                 (A) (A) (A) (A) (A) (A) (A) (A) (A) (A) (A) (A)
                 (A) (A) (A) (A) (A) (A) (A) (A) (A) (A) (A) (A)
                 (A) (A) (A) (A) (A) (A) (A) (A) (A) (A) (A) (A)
                 (A) (A) (A) (A) (A) (A) (A) (A) (A) (A) (A) (A)
                 (A) (A) (A) (A) (A) (A) (A) (A) (A) (A) (A) (A)
                 (A) (A) (A) (A) (A) (A) (A) (A) (A) (A) (A) (A)
                 (A) (A) (A) (A) (A) (A) (A) (A) (A) (A) (A) (A)
                 (A) (A) (A) (A)
       Virtual   (A) (A) (A) (A) (A) (A) (A) (A) (A) (A) (A) (A)
                 (A) (A) (A) (A) (A) (A) (A) (A) (A) (A) (A) (A)
                 (A) (A) (A) (A) (A) (A) (A) (A) (A) (A) (A) (A)
                 (A) (A) (A) (A) (A) (A) (A) (A) (A) (A) (A) (A)
                 (A) (A) (A) (A) (A) (A) (A) (A) (A) (A) (A) (A)
                 (A) (A) (A) (A) (A) (A) (A) (A) (A) (A) (A) (A)
                 (A) (A) (A) (A) (A) (A) (A) (A) (A) (A) (A) (A)
                 (A) (A) (A) (A) (A) (A) (A) (A) (A) (A) (A) (A)
                 (A) (A) (A) (A) (A) (A) (A) (A) (A) (A) (A) (A)
                 (A) (A) (A) (A) (A) (A) (A) (A) (A) (A) (A) (A)
                 (A) (A) (A) (A) (A) (A) (A) (A) (A) (A) (A) (A)
                 (A) (A) (A) (A) (A) (A) (A) (A) (A) (A) (A) (A)
                 (A) (A) (A) (A) (A) (A) (A) (A) (A) (A) (A) (A)
                 (A) (A) (A) (A) (A) (A) (A) (A) (A) (A) (A) (A)
                 (A) (A) (A) (A) (A) (A) (A) (A) (A) (A) (A) (A)
                 (A) (A) (A) (A) (A) (A) (A) (A) (A) (A) (A) (A)
                 (A) (A) (A) (A) (A) (A) (A) (A) (A) (A) (A) (A)
                 (A) (A) (A) (A) (A) (A) (A) (A) (A) (A) (A) (A)
                 (A) (A) (A) (A) (A) (A) (A) (A) (A) (A) (A) (A)
                 (A) (A) (A) (A) (A) (A) (A) (A) (A) (A) (A) (A)
                 (A) (A) (A) (A) (A) (A) (A) (A) (A) (A) (A) (A)
                 (A) (A) (A) (A) (A) (A) (A) (A) (A) (A) (A) (A)
                 (A) (A) (A) (A) (A) (A) (A) (A) (A) (A) (A) (A)
                 (A) (A) (A) (A) (A) (A) (A) (A) (A) (A) (A) (A)
                 (A) (A) (A) (A) (A) (A) (A) (A) (A) (A) (A) (A)
                 (A) (A) (A) (A) (A) (A) (A) (A) (A) (A) (A) (A)
                 (A) (A) (A) (A) (A) (A) (A) (A) (A) (A) (A) (A)
                 (A) (A) (A) (A) (A) (A) (A) (A) (A) (A) (A) (A)
                 (A) (A) (A) (A) (A) (A) (A) (A) (A) (A) (A) (A)
                 (A) (A) (A) (A) (A) (A) (A) (A) (A) (A) (A) (A)
                 (A) (A) (A) (A) (A) (A) (A) (A) (A) (A) (A) (A)
                 (A) (A) (A) (A) (A) (A) (A) (A) (A) (A) (A) (A)
                 (A) (A) (A) (A) (A) (A) (A) (A) (A) (A) (A) (A)
                 (A) (A) (A) (A) (A) (A) (A) (A) (A) (A) (A) (A)
                 (A) (A) (A) (A) (A) (A) (A) (A) (A) (A) (A) (A)
                 (A) (A) (A) (A) (A) (A) (A) (A) (A) (A) (A) (A)
                 (A) (A) (A)
 Beta  Orbitals:
       Occupied  (A) (A) (A) (A) (A) (A) (A) (A) (A) (A) (A) (A)
                 (A) (A) (A) (A) (A) (A) (A) (A) (A) (A) (A) (A)
                 (A) (A) (A) (A) (A) (A) (A) (A) (A) (A) (A) (A)
                 (A) (A) (A) (A) (A) (A) (A) (A) (A) (A) (A) (A)
                 (A) (A) (A) (A) (A) (A) (A) (A) (A) (A) (A) (A)
                 (A) (A) (A) (A) (A) (A) (A) (A) (A) (A) (A) (A)
                 (A) (A) (A) (A) (A) (A) (A) (A) (A) (A) (A) (A)
                 (A) (A) (A) (A) (A) (A) (A) (A) (A) (A) (A) (A)
                 (A) (A) (A) (A) (A) (A) (A) (A) (A) (A) (A) (A)
                 (A) (A) (A) (A) (A) (A) (A) (A) (A) (A) (A) (A)
                 (A) (A) (A) (A) (A) (A) (A) (A) (A) (A) (A) (A)
                 (A) (A) (A) (A)
       Virtual   (A) (A) (A) (A) (A) (A) (A) (A) (A) (A) (A) (A)
[...]
    21   Atom        0.000000      0.000000     -0.000000
    22   Atom       -0.000000      0.000000     -0.000000
    23   Atom       -0.000000      0.000000     -0.000000
    24   Atom       -0.000000     -0.000000      0.000000
    25   Atom        0.000000      0.000000     -0.000000
    26   Atom       -0.000000      0.000000     -0.000000
    27   Atom       -0.000000     -0.000000      0.000000
    28   Atom        0.000000     -0.000000     -0.000000
    29   Atom       -0.000000      0.000000      0.000000
    30   Atom        0.000000     -0.000000     -0.000000
    31   Atom        0.000000      0.000000     -0.000000
    32   Atom       -0.000000      0.000000      0.000000
    33   Atom        0.000000     -0.000000     -0.000000
    34   Atom        0.000000      0.000000     -0.000000
    35   Atom        0.000000      0.000000     -0.000000
    36   Atom       -0.000000      0.000000      0.000000
    37   Atom        0.000000     -0.000000     -0.000000
    38   Atom       -0.000000      0.000000     -0.000000
    39   Atom        0.000000      0.000000     -0.000000
    40   Atom        0.000000     -0.000000     -0.000000
    41   Atom        0.000000     -0.000000      0.000000
    42   Atom        0.000000      0.000000     -0.000000
    43   Atom       -0.000000      0.000000     -0.000000
    44   Atom       -0.000000      0.000000     -0.000000
    45   Atom        0.000000      0.000000     -0.000000
    46   Atom       -0.000000      0.000000     -0.000000
    47   Atom        0.000000     -0.000000     -0.000000
 --------------------------------------------------------
                        XY            XZ            YZ
 --------------------------------------------------------
     1   Atom        0.000000     -0.000000     -0.000000
     2   Atom       -0.000000      0.000000     -0.000000
     3   Atom       -0.000000      0.000000     -0.000000
     4   Atom        0.000000      0.000000      0.000000
     5   Atom       -0.000000      0.000000     -0.000000
     6   Atom        0.000000      0.000000     -0.000000
     7   Atom       -0.000000      0.000000     -0.000000
     8   Atom        0.000000     -0.000000     -0.000000
     9   Atom       -0.000000      0.000000      0.000000
    10   Atom        0.000000     -0.000000     -0.000000
    11   Atom       -0.000000     -0.000000     -0.000000
    12   Atom       -0.000000     -0.000000      0.000000
    13   Atom       -0.000000     -0.000000      0.000000
    14   Atom        0.000000      0.000000      0.000000
    15   Atom       -0.000000     -0.000000     -0.000000
    16   Atom       -0.000000      0.000000     -0.000000
    17   Atom        0.000000      0.000000      0.000000
    18   Atom       -0.000000     -0.000000     -0.000000
    19   Atom       -0.000000      0.000000      0.000000
    20   Atom        0.000000      0.000000     -0.000000
    21   Atom       -0.000000     -0.000000     -0.000000
    22   Atom        0.000000      0.000000      0.000000
    23   Atom       -0.000000     -0.000000      0.000000
    24   Atom        0.000000     -0.000000     -0.000000
    25   Atom       -0.000000     -0.000000      0.000000
    26   Atom       -0.000000      0.000000     -0.000000
    27   Atom        0.000000     -0.000000      0.000000
    28   Atom        0.000000     -0.000000     -0.000000
    29   Atom        0.000000      0.000000     -0.000000
    30   Atom        0.000000      0.000000     -0.000000
    31   Atom        0.000000      0.000000     -0.000000
    32   Atom        0.000000     -0.000000      0.000000
    33   Atom       -0.000000      0.000000     -0.000000
    34   Atom        0.000000      0.000000      0.000000
    35   Atom       -0.000000      0.000000     -0.000000
    36   Atom        0.000000     -0.000000      0.000000
    37   Atom        0.000000      0.000000      0.000000
    38   Atom        0.000000     -0.000000     -0.000000
    39   Atom       -0.000000      0.000000     -0.000000
    40   Atom       -0.000000     -0.000000     -0.000000
    41   Atom        0.000000      0.000000     -0.000000
    42   Atom        0.000000      0.000000      0.000000
    43   Atom       -0.000000     -0.000000      0.000000
    44   Atom        0.000000     -0.000000     -0.000000
    45   Atom       -0.000000      0.000000     -0.000000
    46   Atom        0.000000     -0.000000     -0.000000
    47   Atom       -0.000000      0.000000     -0.000000
 --------------------------------------------------------


 ---------------------------------------------------------------------------------
              Anisotropic Spin Dipole Couplings in Principal Axis System
 ---------------------------------------------------------------------------------

       Atom             a.u.   MegaHertz   Gauss  10(-4) cm-1        Axes

              Baa    -0.0000    -0.000    -0.000    -0.000  0.4640  0.1597  0.8713
     1 C(13)  Bbb    -0.0000    -0.000    -0.000    -0.000 -0.6219  0.7592  0.1920
              Bcc     0.0000     0.000     0.000     0.000  0.6308  0.6310 -0.4516
 
              Baa    -0.0000    -0.000    -0.000    -0.000  0.8610  0.2460 -0.4451
     2 C(13)  Bbb    -0.0000    -0.000    -0.000    -0.000  0.3386  0.3757  0.8627
              Bcc     0.0000     0.000     0.000     0.000 -0.3794  0.8935 -0.2402
 
              Baa    -0.0000    -0.000    -0.000    -0.000  0.9663  0.0727 -0.2468
     3 N(14)  Bbb     0.0000     0.000     0.000     0.000  0.2413  0.0770  0.9674
              Bcc     0.0000     0.000     0.000     0.000 -0.0893  0.9944 -0.0568
 
              Baa    -0.0000    -0.000    -0.000    -0.000 -0.4911  0.8709 -0.0182
     4 C(13)  Bbb    -0.0000    -0.000    -0.000    -0.000  0.7911  0.4371 -0.4279
              Bcc     0.0000     0.000     0.000     0.000  0.3647  0.2245  0.9036
 
              Baa    -0.0000    -0.000    -0.000    -0.000 -0.4097  0.0680  0.9097
     5 C(13)  Bbb    -0.0000    -0.000    -0.000    -0.000  0.6818  0.6854  0.2558
              Bcc     0.0000     0.000     0.000     0.000 -0.6061  0.7250 -0.3271
 
              Baa    -0.0000    -0.000    -0.000    -0.000  0.8748 -0.4756 -0.0927
     6 F(19)  Bbb     0.0000     0.000     0.000     0.000  0.2955  0.3721  0.8799
              Bcc     0.0000     0.000     0.000     0.000  0.3840  0.7971 -0.4661
 
              Baa    -0.0000    -0.000    -0.000    -0.000 -0.0492  0.2178  0.9748
     7 C(13)  Bbb    -0.0000    -0.000    -0.000    -0.000  0.9244  0.3795 -0.0381
              Bcc     0.0000     0.000     0.000     0.000 -0.3782  0.8992 -0.2200
 
              Baa    -0.0000    -0.000    -0.000    -0.000  0.0415  0.4280  0.9028
     8 C(13)  Bbb    -0.0000    -0.000    -0.000    -0.000 -0.1180  0.8994 -0.4209
              Bcc     0.0000     0.000     0.000     0.000  0.9921  0.0891 -0.0879
 
              Baa    -0.0000    -0.000    -0.000    -0.000 -0.1134 -0.3679  0.9229
     9 N(14)  Bbb     0.0000     0.000     0.000     0.000  0.3764  0.8438  0.3826
              Bcc     0.0000     0.000     0.000     0.000  0.9195 -0.3908 -0.0427
 
              Baa    -0.0000    -0.000    -0.000    -0.000  0.1485  0.2698  0.9514
    10 C(13)  Bbb    -0.0000    -0.000    -0.000    -0.000 -0.5765  0.8053 -0.1384
              Bcc     0.0000     0.000     0.000     0.000  0.8035  0.5279 -0.2751
 
              Baa    -0.0000    -0.000    -0.000    -0.000  0.0602  0.1512  0.9867
    11 C(13)  Bbb    -0.0000    -0.000    -0.000    -0.000  0.2308  0.9596 -0.1611
              Bcc     0.0000     0.000     0.000     0.000  0.9711 -0.2374 -0.0229
 
              Baa    -0.0000    -0.000    -0.000    -0.000  0.1260  0.9909 -0.0482
    12 S(33)  Bbb    -0.0000    -0.000    -0.000    -0.000  0.0304  0.0447  0.9985
              Bcc     0.0000     0.000     0.000     0.000  0.9916 -0.1273 -0.0245
 
              Baa    -0.0000    -0.000    -0.000    -0.000  0.4777  0.8500 -0.2221
    13 C(13)  Bbb    -0.0000    -0.000    -0.000    -0.000  0.2568  0.1067  0.9606
              Bcc     0.0000     0.000     0.000     0.000  0.8401 -0.5159 -0.1673
 
              Baa    -0.0000    -0.000    -0.000    -0.000 -0.0618 -0.2489  0.9666
    14 C(13)  Bbb    -0.0000    -0.000    -0.000    -0.000 -0.1071  0.9645  0.2415
              Bcc     0.0000     0.000     0.000     0.000  0.9923  0.0886  0.0862
 
              Baa    -0.0000    -0.000    -0.000    -0.000  0.8110  0.4800  0.3344
    15 N(14)  Bbb    -0.0000    -0.000    -0.000    -0.000 -0.4664  0.1856  0.8649
              Bcc     0.0000     0.000     0.000     0.000 -0.3531  0.8574 -0.3744
 
              Baa    -0.0000    -0.000    -0.000    -0.000  0.1343  0.9909  0.0124
    16 C(13)  Bbb    -0.0000    -0.000    -0.000    -0.000 -0.3401  0.0343  0.9398
              Bcc     0.0000     0.000     0.000     0.000  0.9308 -0.1305  0.3416
 
              Baa    -0.0000    -0.000    -0.000    -0.000  0.0623 -0.4668  0.8822
    17 C(13)  Bbb    -0.0000    -0.000    -0.000    -0.000 -0.5362  0.7299  0.4240
              Bcc     0.0000     0.000     0.000     0.000  0.8418  0.4994  0.2049
 
              Baa    -0.0000    -0.000    -0.000    -0.000  0.1819  0.9390  0.2917
    18 F(19)  Bbb     0.0000     0.000     0.000     0.000  0.0260 -0.3012  0.9532
              Bcc     0.0000     0.000     0.000     0.000  0.9830 -0.1658 -0.0793
 
              Baa    -0.0000    -0.000    -0.000    -0.000 -0.0344 -0.0350  0.9988
    19 C(13)  Bbb    -0.0000    -0.000    -0.000    -0.000  0.0148  0.9993  0.0355
              Bcc     0.0000     0.000     0.000     0.000  0.9993 -0.0160  0.0339
 
              Baa    -0.0000    -0.000    -0.000    -0.000 -0.2005  0.3974  0.8955
    20 C(13)  Bbb    -0.0000    -0.000    -0.000    -0.000  0.9774  0.1440  0.1550
              Bcc     0.0000     0.000     0.000     0.000 -0.0674  0.9063 -0.4173
 
              Baa    -0.0000    -0.000    -0.000    -0.000  0.6658  0.5510  0.5031
    21 N(14)  Bbb    -0.0000    -0.000    -0.000    -0.000 -0.3174 -0.4010  0.8593
              Bcc     0.0000     0.000     0.000     0.000 -0.6752  0.7318  0.0921
 
              Baa    -0.0000    -0.000    -0.000    -0.000  0.9088 -0.3098  0.2794
    22 C(13)  Bbb    -0.0000    -0.000    -0.000    -0.000 -0.3393 -0.1594  0.9271
              Bcc     0.0000     0.000     0.000     0.000  0.2426  0.9373  0.2500
 
              Baa    -0.0000    -0.000    -0.000    -0.000  0.5430 -0.3101  0.7804
    23 C(13)  Bbb    -0.0000    -0.000    -0.000    -0.000  0.8375  0.2672 -0.4766
              Bcc     0.0000     0.000     0.000     0.000 -0.0607  0.9124  0.4048
 
              Baa    -0.0000    -0.000    -0.000    -0.000  0.9179  0.0645  0.3916
    24 S(33)  Bbb    -0.0000    -0.000    -0.000    -0.000 -0.1376  0.9772  0.1617
              Bcc     0.0000     0.000     0.000     0.000 -0.3723 -0.2024  0.9058
 
              Baa    -0.0000    -0.000    -0.000    -0.000  0.3727 -0.0695  0.9253
    25 C(13)  Bbb     0.0000     0.000     0.000     0.000  0.3486  0.9346 -0.0702
              Bcc     0.0000     0.000     0.000     0.000  0.8600 -0.3488 -0.3726
 
              Baa    -0.0000    -0.000    -0.000    -0.000  0.0168  0.3446  0.9386
    26 C(13)  Bbb    -0.0000    -0.000    -0.000    -0.000  0.9418  0.3097 -0.1306
              Bcc     0.0000     0.000     0.000     0.000 -0.3357  0.8862 -0.3193
 
              Baa    -0.0000    -0.000    -0.000    -0.000 -0.5860  0.8091 -0.0443
    27 N(14)  Bbb     0.0000     0.000     0.000     0.000  0.8101  0.5861 -0.0128
              Bcc     0.0000     0.000     0.000     0.000 -0.0156  0.0434  0.9989
 
              Baa    -0.0000    -0.000    -0.000    -0.000 -0.5354  0.6439 -0.5465
    28 C(13)  Bbb    -0.0000    -0.000    -0.000    -0.000 -0.0660  0.6132  0.7871
              Bcc     0.0000     0.000     0.000     0.000  0.8420  0.4575 -0.2858
 
              Baa    -0.0000    -0.000    -0.000    -0.000  0.9871 -0.1475 -0.0629
    29 C(13)  Bbb     0.0000     0.000     0.000     0.000  0.0958  0.2274  0.9691
              Bcc     0.0000     0.000     0.000     0.000  0.1286  0.9626 -0.2386
 
              Baa    -0.0000    -0.000    -0.000    -0.000 -0.1474  0.9677  0.2046
    30 F(19)  Bbb    -0.0000    -0.000    -0.000    -0.000 -0.0917 -0.2194  0.9713
              Bcc     0.0000     0.000     0.000     0.000  0.9848  0.1244  0.1211
 
              Baa    -0.0000    -0.000    -0.000    -0.000 -0.0943  0.2653  0.9595
    31 C(13)  Bbb     0.0000     0.000     0.000     0.000  0.7584 -0.6052  0.2419
              Bcc     0.0000     0.000     0.000     0.000  0.6449  0.7506 -0.1441
 
              Baa    -0.0000    -0.000    -0.000    -0.000  0.8754 -0.3868  0.2898
    32 C(13)  Bbb     0.0000     0.000     0.000     0.000  0.4436  0.8812 -0.1637
              Bcc     0.0000     0.000     0.000     0.000 -0.1920  0.2719  0.9430
 
              Baa    -0.0000    -0.000    -0.000    -0.000 -0.1257  0.3248  0.9374
    33 N(14)  Bbb    -0.0000    -0.000    -0.000    -0.000  0.2746  0.9193 -0.2818
              Bcc     0.0000     0.000     0.000     0.000  0.9533 -0.2220  0.2047
 
              Baa    -0.0000    -0.000    -0.000    -0.000  0.1175 -0.3797  0.9176
    34 C(13)  Bbb    -0.0000    -0.000    -0.000    -0.000 -0.6162  0.6968  0.3672
              Bcc     0.0000     0.000     0.000     0.000  0.7788  0.6086  0.1520
 
              Baa    -0.0000    -0.000    -0.000    -0.000 -0.2835  0.0551  0.9574
    35 C(13)  Bbb    -0.0000    -0.000    -0.000    -0.000  0.5730  0.8102  0.1231
              Bcc     0.0000     0.000     0.000     0.000  0.7689 -0.5835  0.2613
 
              Baa    -0.0000    -0.000    -0.000    -0.000  0.8521 -0.3395  0.3984
    36 S(33)  Bbb     0.0000     0.000     0.000     0.000 -0.5076 -0.3506  0.7870
              Bcc     0.0000     0.000     0.000     0.000  0.1275  0.8729  0.4710
 
              Baa    -0.0000    -0.000    -0.000    -0.000 -0.0993  0.0804  0.9918
    37 H(1)   Bbb    -0.0000    -0.000    -0.000    -0.000 -0.3000  0.9479 -0.1068
              Bcc     0.0000     0.000     0.000     0.000  0.9488  0.3082  0.0700
 
              Baa    -0.0000    -0.000    -0.000    -0.000 -0.0267  0.4109  0.9113
    38 H(1)   Bbb    -0.0000    -0.000    -0.000    -0.000  0.9597 -0.2446  0.1384
              Bcc     0.0000     0.000     0.000     0.000  0.2798  0.8782 -0.3879
 
              Baa    -0.0000    -0.000    -0.000    -0.000  0.0973  0.2362  0.9668
    39 H(1)   Bbb    -0.0000    -0.000    -0.000    -0.000  0.5606  0.7897 -0.2494
              Bcc     0.0000     0.000     0.000     0.000  0.8224 -0.5663  0.0556
 
              Baa    -0.0000    -0.000    -0.000    -0.000  0.1730  0.6626  0.7287
    40 H(1)   Bbb    -0.0000    -0.000    -0.000    -0.000 -0.3014 -0.6688  0.6796
              Bcc     0.0000     0.000     0.000     0.000  0.9377 -0.3372  0.0840
 
              Baa    -0.0000    -0.000    -0.000    -0.000 -0.2226  0.9566  0.1881
    41 H(1)   Bbb     0.0000     0.000     0.000     0.000 -0.0576 -0.2055  0.9770
              Bcc     0.0000     0.000     0.000     0.000  0.9732  0.2066  0.1008
 
              Baa    -0.0000    -0.000    -0.000    -0.000 -0.0494 -0.2191  0.9744
    42 H(1)   Bbb     0.0000     0.000     0.000     0.000 -0.6256  0.7673  0.1408
              Bcc     0.0000     0.000     0.000     0.000  0.7786  0.6027  0.1750
 
              Baa    -0.0000    -0.000    -0.000    -0.000  0.8365  0.5155  0.1860
    43 H(1)   Bbb    -0.0000    -0.000    -0.000    -0.000 -0.0292 -0.2970  0.9544
              Bcc     0.0000     0.000     0.000     0.000 -0.5472  0.8038  0.2334
 
              Baa    -0.0000    -0.000    -0.000    -0.000 -0.0634  0.2982  0.9524
    44 H(1)   Bbb    -0.0000    -0.000    -0.000    -0.000  0.9089 -0.3769  0.1785
              Bcc     0.0000     0.000     0.000     0.000  0.4122  0.8770 -0.2471
 
              Baa    -0.0000    -0.000    -0.000    -0.000 -0.1921  0.2621  0.9457
    45 H(1)   Bbb    -0.0000    -0.000    -0.000    -0.000  0.8207  0.5714  0.0084
              Bcc     0.0000     0.000     0.000     0.000 -0.5381  0.7777 -0.3249
 
              Baa    -0.0000    -0.000    -0.000    -0.000  0.8837 -0.0486  0.4655
    46 H(1)   Bbb    -0.0000    -0.000    -0.000    -0.000 -0.4017  0.4315  0.8077
              Bcc     0.0000     0.000     0.000     0.000  0.2401  0.9008 -0.3618
 
              Baa    -0.0000    -0.000    -0.000    -0.000 -0.5777 -0.2840  0.7653
    47 H(1)   Bbb    -0.0000    -0.000    -0.000    -0.000  0.2913  0.8040  0.5183
              Bcc     0.0000     0.000     0.000     0.000  0.7625 -0.5223  0.3817
 

 ---------------------------------------------------------------------------------

 No NMR shielding tensors so no spin-rotation constants.
 Leave Link  601 at Sat Jul 25 08:55:13 2020, MaxMem=  4026531840 cpu:               5.1 elap:               0.7
 (Enter /opt/ohpc/pub/libs/gaussian/g16-A.03/sandybridge/g16/l9999.exe)

 Test job not archived.
 1\1\GINC-SKYLAKE005\FOpt\ULC-wPBE\CC-pVDZ\C24H11F3N6S3\RDU230\25-Jul-2
 020\0\\#P uLC-wPBE/cc-pVDZ iop(3/107=0341700000, 3/108=0341700000) opt
 \\H11 C24 S3 N6 F3\\0,1\C,-11.1310745901,0.3083546948,0.7309459694\C,-
 10.0861691949,1.2218156521,0.8538359575\N,-8.8188233943,0.9084385163,0
 .610759217\C,-8.5135676922,-0.3366379722,0.2300409357\C,-9.5062426564,
 -1.3094572736,0.084916235\F,-9.2056525982,-2.5516443915,-0.293432451\C
 ,-10.8308478001,-0.9874585727,0.3369350538\C,-7.0817696417,-0.58835112
 33,-0.015092683\N,-6.5469625521,-1.7118539581,-0.397890775\C,-5.194261
 0672,-1.5755986181,-0.5220090668\C,-4.6794544051,-0.338705632,-0.23143
 16469\S,-5.9658610147,0.718890329,0.2256002497\C,-3.2745177666,0.08916
 36328,-0.2824202839\C,-2.2392971261,-0.8157610489,-0.0056049949\N,-0.9
 549462385,-0.4977059321,-0.05853755\C,-0.5927258687,0.7499876816,-0.37
 60128019\C,-1.5596774903,1.7207079176,-0.6493795828\F,-1.2160030941,2.
 9694354632,-0.96179805\C,-2.9037760088,1.3932178067,-0.607837996\C,0.8
 572496725,1.0041802023,-0.4066300344\N,1.4379442287,2.1326351023,-0.69
 82280542\C,2.7947219664,2.0004637873,-0.6263356109\C,3.2669277842,0.76
 22179931,-0.2749348011\S,1.9317908298,-0.302182216,-0.0178463012\C,4.6
 659412758,0.3376885787,-0.1243387099\C,5.6453859883,1.2393900783,0.314
 6974207\N,6.925132958,0.9244197977,0.4476382303\C,7.3362450906,-0.3172
 580346,0.1694510698\C,6.4227049221,-1.2849997747,-0.2578159814\F,6.811
 6737001,-2.529039187,-0.5353339802\C,5.0860900361,-0.9608201245,-0.410
 1987617\C,8.7767295612,-0.5708379559,0.3475217715\N,9.3911962911,-1.69
 81973002,0.1316515918\C,10.727453116,-1.569089584,0.4002322753\C,11.12
 90998263,-0.3357678673,0.8225713819\S,9.7891074267,0.7299626852,0.8950
 397115\H,-12.1605478957,0.6079339262,0.9403815186\H,-10.27772515,2.255
 1752307,1.162417107\H,-11.5961905831,-1.7583076413,0.2191372088\H,-4.6
 038655636,-2.4291390579,-0.8621456849\H,-2.471203638,-1.8453987958,0.2
 86724508\H,-3.6406237768,2.1650722913,-0.8448022218\H,3.4255139188,2.8
 581230787,-0.8696550514\H,5.3690014861,2.2643748863,0.5843517516\H,4.3
 956129777,-1.730657646,-0.7645341136\H,11.3838163851,-2.4313643596,0.2
 67508961\H,12.1340953654,-0.0106642646,1.0898740631\\Version=EM64L-G16
 RevA.03\State=1-A\HF=-2742.373939\S2=0.\S2-1=0.\S2A=0.\RMSD=3.937e-09\
 RMSF=1.945e-06\Dipole=-2.0056675,0.3432317,0.2670136\Quadrupole=38.263
 8695,-19.664272,-18.5995975,-0.6702618,-2.1866464,0.6465006\PG=C01 [X(
 C24H11F3N6S3)]\\@


 THE ONLY EXISTING THINGS ARE ATOMS AND EMPTY SPACE;
 ALL ELSE IS MERE OPINION. -- DEMOCRITUS OF ABDERA D. 370 B.C.
 EXPERIMENTS ARE THE ONLY MEANS OF KNOWLEDGE AT OUR DISPOSAL
 THE REST IS POETRY, IMAGINATION. -- MAX PLANCK
 Job cpu time:       0 days 17 hours  4 minutes 51.8 seconds.
 Elapsed time:       0 days  2 hours  8 minutes 56.9 seconds.
 File lengths (MBytes):  RWF=    416 Int=      0 D2E=      0 Chk=     40 Scr=      8
 Normal termination of Gaussian 16 at Sat Jul 25 08:55:14 2020.
