 Entering Gaussian System, Link 0=g16
 Input=mols_65_3_31_cF-cF-COC_opt_0.gjf
 Output=mols_65_3_31_cF-cF-COC_opt_0.log
 Initial command:
 /opt/ohpc/pub/libs/gaussian/g16-A.03/sandybridge/g16/l1.exe "/mnt/gpfs2_4m/scratch/rdu230/ondemand/projects/dihedral_energies/7trial/wtuning/mols_65_3_31_cF-cF-COC/Gau-359924.inp" -scrdir="/mnt/gpfs2_4m/scratch/rdu230/ondemand/projects/dihedral_energies/7trial/wtuning/mols_65_3_31_cF-cF-COC/"
 Entering Link 1 = /opt/ohpc/pub/libs/gaussian/g16-A.03/sandybridge/g16/l1.exe PID=    359928.
  
 Copyright (c) 1988,1990,1992,1993,1995,1998,2003,2009,2016,
            Gaussian, Inc.  All Rights Reserved.
  
 This is part of the Gaussian(R) 16 program.  It is based on
 the Gaussian(R) 09 system (copyright 2009, Gaussian, Inc.),
 the Gaussian(R) 03 system (copyright 2003, Gaussian, Inc.),
 the Gaussian(R) 98 system (copyright 1998, Gaussian, Inc.),
 the Gaussian(R) 94 system (copyright 1995, Gaussian, Inc.),
 the Gaussian 92(TM) system (copyright 1992, Gaussian, Inc.),
 the Gaussian 90(TM) system (copyright 1990, Gaussian, Inc.),
 the Gaussian 88(TM) system (copyright 1988, Gaussian, Inc.),
 the Gaussian 86(TM) system (copyright 1986, Carnegie Mellon
 University), and the Gaussian 82(TM) system (copyright 1983,
 Carnegie Mellon University). Gaussian is a federally registered
 trademark of Gaussian, Inc.
  
 This software contains proprietary and confidential information,
 including trade secrets, belonging to Gaussian, Inc.
  
 This software is provided under written license and may be
 used, copied, transmitted, or stored only in accord with that
 written license.
  
 The following legend is applicable only to US Government
 contracts under FAR:
  
                    RESTRICTED RIGHTS LEGEND
  
 Use, reproduction and disclosure by the US Government is
 subject to restrictions as set forth in subparagraphs (a)
 and (c) of the Commercial Computer Software - Restricted
 Rights clause in FAR 52.227-19.
  
 Gaussian, Inc.
 340 Quinnipiac St., Bldg. 40, Wallingford CT 06492
  
  
 ---------------------------------------------------------------
 Warning -- This program may not be used in any manner that
 competes with the business of Gaussian, Inc. or will provide
 assistance to any competitor of Gaussian, Inc.  The licensee
 of this program is prohibited from giving any competitor of
 Gaussian, Inc. access to this program.  By using this program,
 the user acknowledges that Gaussian, Inc. is engaged in the
 business of creating and licensing software in the field of
 computational chemistry and represents and warrants to the
 licensee that it is not a competitor of Gaussian, Inc. and that
 it will not use this program in any manner prohibited above.
 ---------------------------------------------------------------
  

 Cite this work as:
 Gaussian 16, Revision A.03,
 M. J. Frisch, G. W. Trucks, H. B. Schlegel, G. E. Scuseria, 
 M. A. Robb, J. R. Cheeseman, G. Scalmani, V. Barone, 
 G. A. Petersson, H. Nakatsuji, X. Li, M. Caricato, A. V. Marenich, 
 J. Bloino, B. G. Janesko, R. Gomperts, B. Mennucci, H. P. Hratchian, 
 J. V. Ortiz, A. F. Izmaylov, J. L. Sonnenberg, D. Williams-Young, 
 F. Ding, F. Lipparini, F. Egidi, J. Goings, B. Peng, A. Petrone, 
 T. Henderson, D. Ranasinghe, V. G. Zakrzewski, J. Gao, N. Rega, 
 G. Zheng, W. Liang, M. Hada, M. Ehara, K. Toyota, R. Fukuda, 
 J. Hasegawa, M. Ishida, T. Nakajima, Y. Honda, O. Kitao, H. Nakai, 
 T. Vreven, K. Throssell, J. A. Montgomery, Jr., J. E. Peralta, 
 F. Ogliaro, M. J. Bearpark, J. J. Heyd, E. N. Brothers, K. N. Kudin, 
 V. N. Staroverov, T. A. Keith, R. Kobayashi, J. Normand, 
 K. Raghavachari, A. P. Rendell, J. C. Burant, S. S. Iyengar, 
 J. Tomasi, M. Cossi, J. M. Millam, M. Klene, C. Adamo, R. Cammi, 
 J. W. Ochterski, R. L. Martin, K. Morokuma, O. Farkas, 
 J. B. Foresman, and D. J. Fox, Gaussian, Inc., Wallingford CT, 2016.
 
 ******************************************
 Gaussian 16:  EM64L-G16RevA.03 25-Dec-2016
                24-Jul-2020 
 ******************************************
 %mem=30GB
 %nproc=8
 Will use up to    8 processors via shared memory.
 ---------------------------------------------------------------
 #P uLC-wPBE/cc-pVDZ iop(3/107=0157500000, 3/108=0157500000) opt
 ---------------------------------------------------------------
 1/18=20,19=15,26=3,38=1/1,3;
 2/9=110,12=2,17=6,18=5,40=1/2;
 3/5=16,11=2,25=1,30=1,71=1,74=-41,107=157500000,108=157500000,116=2/1,2,3;
 4//1;
 5/5=2,38=5/2;
 6/7=2,8=2,9=2,10=2,28=1/1;
 7//1,2,3,16;
 1/18=20,19=15,26=3/3(2);
 2/9=110/2;
 99//99;
 2/9=110/2;
 3/5=16,11=2,25=1,30=1,71=1,74=-41,107=157500000,108=157500000,116=2/1,2,3;
 4/5=5,16=3,69=1/1;
 5/5=2,38=5/2;
 7//1,2,3,16;
 1/18=20,19=15,26=3/3(-5);
 2/9=110/2;
 6/7=2,8=2,9=2,10=2,19=2,28=1/1;
 99/9=1/99;
 Leave Link    1 at Fri Jul 24 14:40:47 2020, MaxMem=  4026531840 cpu:               1.7 elap:               0.2
 (Enter /opt/ohpc/pub/libs/gaussian/g16-A.03/sandybridge/g16/l101.exe)
 ----------------
 H20 C33 S3 O3 F6
 ----------------
 Symbolic Z-matrix:
 Charge =  0 Multiplicity = 1
 C                    -11.41219   0.9057    0.06776 
 C                    -10.92749   0.01964   1.01231 
 C                    -9.64042  -0.47699   0.94514 
 F                    -9.10316  -1.30746   1.88041 
 C                    -8.7447    0.04858  -0.09289 
 C                    -9.26681   0.87802  -0.95793 
 F                    -8.55287   1.40034  -1.97201 
 C                    -10.64265   1.38042  -0.91562 
 C                    -7.32048  -0.44382  -0.12085 
 C                    -6.86714  -1.76061  -0.3888 
 O                    -7.73112  -2.77872  -0.56007 
 C                    -7.18639  -4.02385  -0.81274 
 C                    -5.43373  -1.80981  -0.30048 
 C                    -4.87268  -0.54883  -0.14534 
 S                    -6.06868   0.63713   0.11484 
 C                    -3.50648  -0.19352  -0.04364 
 C                    -2.8846    0.73651  -0.84685 
 C                    -1.57943   1.03479  -0.79412 
 F                    -1.04964   1.91407  -1.64981 
 C                    -0.70574   0.44832   0.19411 
 C                    -1.26274  -0.43894   1.03575 
 F                    -0.56807  -0.97845   2.01381 
 C                    -2.66577  -0.81678   0.92776 
 C                     0.70657   0.86414   0.30966 
 C                     1.29966   2.0662    0.50342 
 O                     0.4331    3.1904    0.7639 
 C                     1.17016   4.36894   0.95709 
 C                     2.71964   2.00238   0.51703 
 C                     3.16378   0.71368   0.24118 
 S                     1.8751   -0.3011   -0.00438 
 C                     4.55852   0.26954   0.07815 
 C                     5.43968   0.94996  -0.79829 
 C                     6.74486   0.5976   -0.84977 
 F                     7.50615   1.26924  -1.72109 
 C                     7.26049  -0.44427  -0.13688 
 C                     6.43231  -1.15546   0.69829 
 F                     6.80489  -2.12176   1.47288 
 C                     5.03755  -0.78743   0.7962 
 C                     8.68587  -0.86354  -0.24719 
 C                     9.75206  -0.19502   0.06088 
 O                     9.63071   1.00183   0.67323 
 C                     10.87711   1.73222   0.99054 
 C                     11.03291  -0.89181  -0.21023 
 C                     10.6778  -2.11885  -0.84445 
 S                     9.0838   -2.42333  -1.0121 
 H                    -12.44449   1.16893   0.15613 
 H                    -11.59075  -0.42401   1.80887 
 H                    -10.95476   2.08488  -1.65497 
 H                    -7.93013  -4.73967  -0.9647 
 H                    -6.54264  -4.07082  -1.65934 
 H                    -6.5657   -4.33825   0.13592 
 H                    -4.8287   -2.6714   -0.42835 
 H                    -3.48487   1.2451   -1.60902 
 H                    -3.07151  -1.44838   1.66379 
 H                     1.75367   4.61849   0.02258 
 H                     0.35325   5.18331   1.02934 
 H                     1.76796   4.40182   1.77056 
 H                     3.32888   2.90173   0.702 
 H                     5.10293   1.85023  -1.41582 
 H                     4.43634  -1.31899   1.57519 
 H                     10.67379   2.68312   1.41955 
 H                     11.52862   1.09419   1.7134 
 H                     11.48882   1.88798   0.02494 
 H                     11.97582  -0.53334  -0.08197 
 H                     11.39003  -2.84585  -1.14277 
 
 ITRead=  0  0  0  0  0  0  0  0  0  0  0  0  0  0  0  0  0  0  0  0
 ITRead=  0  0  0  0  0  0  0  0  0  0  0  0  0  0  0  0  0  0  0  0
 ITRead=  0  0  0  0  0  0  0  0  0  0  0  0  0  0  0  0  0  0  0  0
 ITRead=  0  0  0  0  0
 MicOpt= -1 -1 -1 -1 -1 -1 -1 -1 -1 -1 -1 -1 -1 -1 -1 -1 -1 -1 -1 -1
 MicOpt= -1 -1 -1 -1 -1 -1 -1 -1 -1 -1 -1 -1 -1 -1 -1 -1 -1 -1 -1 -1
 MicOpt= -1 -1 -1 -1 -1 -1 -1 -1 -1 -1 -1 -1 -1 -1 -1 -1 -1 -1 -1 -1
 MicOpt= -1 -1 -1 -1 -1
 NAtoms=     65 NQM=       65 NQMF=       0 NMMI=      0 NMMIF=      0
                NMic=       0 NMicF=      0.
                    Isotopes and Nuclear Properties:
 (Nuclear quadrupole moments (NQMom) in fm**2, nuclear magnetic moments (NMagM)
  in nuclear magnetons)

  Atom         1           2           3           4           5           6           7           8           9          10
 IAtWgt=          12          12          12          19          12          12          19          12          12          12
 AtmWgt=  12.0000000  12.0000000  12.0000000  18.9984033  12.0000000  12.0000000  18.9984033  12.0000000  12.0000000  12.0000000
 NucSpn=           0           0           0           1           0           0           1           0           0           0
 AtZEff=  -0.0000000  -0.0000000  -0.0000000  -0.0000000  -0.0000000  -0.0000000  -0.0000000  -0.0000000  -0.0000000  -0.0000000
 NQMom=    0.0000000   0.0000000   0.0000000   0.0000000   0.0000000   0.0000000   0.0000000   0.0000000   0.0000000   0.0000000
 NMagM=    0.0000000   0.0000000   0.0000000   2.6288670   0.0000000   0.0000000   2.6288670   0.0000000   0.0000000   0.0000000
 AtZNuc=   6.0000000   6.0000000   6.0000000   9.0000000   6.0000000   6.0000000   9.0000000   6.0000000   6.0000000   6.0000000

  Atom        11          12          13          14          15          16          17          18          19          20
 IAtWgt=          16          12          12          12          32          12          12          12          19          12
 AtmWgt=  15.9949146  12.0000000  12.0000000  12.0000000  31.9720718  12.0000000  12.0000000  12.0000000  18.9984033  12.0000000
 NucSpn=           0           0           0           0           0           0           0           0           1           0
 AtZEff=  -0.0000000  -0.0000000  -0.0000000  -0.0000000  -0.0000000  -0.0000000  -0.0000000  -0.0000000  -0.0000000  -0.0000000
 NQMom=    0.0000000   0.0000000   0.0000000   0.0000000   0.0000000   0.0000000   0.0000000   0.0000000   0.0000000   0.0000000
 NMagM=    0.0000000   0.0000000   0.0000000   0.0000000   0.0000000   0.0000000   0.0000000   0.0000000   2.6288670   0.0000000
 AtZNuc=   8.0000000   6.0000000   6.0000000   6.0000000  16.0000000   6.0000000   6.0000000   6.0000000   9.0000000   6.0000000

  Atom        21          22          23          24          25          26          27          28          29          30
 IAtWgt=          12          19          12          12          12          16          12          12          12          32
 AtmWgt=  12.0000000  18.9984033  12.0000000  12.0000000  12.0000000  15.9949146  12.0000000  12.0000000  12.0000000  31.9720718
 NucSpn=           0           1           0           0           0           0           0           0           0           0
 AtZEff=  -0.0000000  -0.0000000  -0.0000000  -0.0000000  -0.0000000  -0.0000000  -0.0000000  -0.0000000  -0.0000000  -0.0000000
 NQMom=    0.0000000   0.0000000   0.0000000   0.0000000   0.0000000   0.0000000   0.0000000   0.0000000   0.0000000   0.0000000
 NMagM=    0.0000000   2.6288670   0.0000000   0.0000000   0.0000000   0.0000000   0.0000000   0.0000000   0.0000000   0.0000000
 AtZNuc=   6.0000000   9.0000000   6.0000000   6.0000000   6.0000000   8.0000000   6.0000000   6.0000000   6.0000000  16.0000000

  Atom        31          32          33          34          35          36          37          38          39          40
 IAtWgt=          12          12          12          19          12          12          19          12          12          12
 AtmWgt=  12.0000000  12.0000000  12.0000000  18.9984033  12.0000000  12.0000000  18.9984033  12.0000000  12.0000000  12.0000000
 NucSpn=           0           0           0           1           0           0           1           0           0           0
 AtZEff=  -0.0000000  -0.0000000  -0.0000000  -0.0000000  -0.0000000  -0.0000000  -0.0000000  -0.0000000  -0.0000000  -0.0000000
 NQMom=    0.0000000   0.0000000   0.0000000   0.0000000   0.0000000   0.0000000   0.0000000   0.0000000   0.0000000   0.0000000
 NMagM=    0.0000000   0.0000000   0.0000000   2.6288670   0.0000000   0.0000000   2.6288670   0.0000000   0.0000000   0.0000000
 AtZNuc=   6.0000000   6.0000000   6.0000000   9.0000000   6.0000000   6.0000000   9.0000000   6.0000000   6.0000000   6.0000000

  Atom        41          42          43          44          45          46          47          48          49          50
 IAtWgt=          16          12          12          12          32           1           1           1           1           1
 AtmWgt=  15.9949146  12.0000000  12.0000000  12.0000000  31.9720718   1.0078250   1.0078250   1.0078250   1.0078250   1.0078250
 NucSpn=           0           0           0           0           0           1           1           1           1           1
 AtZEff=  -0.0000000  -0.0000000  -0.0000000  -0.0000000  -0.0000000  -0.0000000  -0.0000000  -0.0000000  -0.0000000  -0.0000000
 NQMom=    0.0000000   0.0000000   0.0000000   0.0000000   0.0000000   0.0000000   0.0000000   0.0000000   0.0000000   0.0000000
 NMagM=    0.0000000   0.0000000   0.0000000   0.0000000   0.0000000   2.7928460   2.7928460   2.7928460   2.7928460   2.7928460
 AtZNuc=   8.0000000   6.0000000   6.0000000   6.0000000  16.0000000   1.0000000   1.0000000   1.0000000   1.0000000   1.0000000

  Atom        51          52          53          54          55          56          57          58          59          60
 IAtWgt=           1           1           1           1           1           1           1           1           1           1
 AtmWgt=   1.0078250   1.0078250   1.0078250   1.0078250   1.0078250   1.0078250   1.0078250   1.0078250   1.0078250   1.0078250
 NucSpn=           1           1           1           1           1           1           1           1           1           1
 AtZEff=  -0.0000000  -0.0000000  -0.0000000  -0.0000000  -0.0000000  -0.0000000  -0.0000000  -0.0000000  -0.0000000  -0.0000000
 NQMom=    0.0000000   0.0000000   0.0000000   0.0000000   0.0000000   0.0000000   0.0000000   0.0000000   0.0000000   0.0000000
 NMagM=    2.7928460   2.7928460   2.7928460   2.7928460   2.7928460   2.7928460   2.7928460   2.7928460   2.7928460   2.7928460
 AtZNuc=   1.0000000   1.0000000   1.0000000   1.0000000   1.0000000   1.0000000   1.0000000   1.0000000   1.0000000   1.0000000

  Atom        61          62          63          64          65
 IAtWgt=           1           1           1           1           1
 AtmWgt=   1.0078250   1.0078250   1.0078250   1.0078250   1.0078250
 NucSpn=           1           1           1           1           1
 AtZEff=  -0.0000000  -0.0000000  -0.0000000  -0.0000000  -0.0000000
 NQMom=    0.0000000   0.0000000   0.0000000   0.0000000   0.0000000
 NMagM=    2.7928460   2.7928460   2.7928460   2.7928460   2.7928460
 AtZNuc=   1.0000000   1.0000000   1.0000000   1.0000000   1.0000000
 Leave Link  101 at Fri Jul 24 14:40:47 2020, MaxMem=  4026531840 cpu:               3.5 elap:               0.5
 (Enter /opt/ohpc/pub/libs/gaussian/g16-A.03/sandybridge/g16/l103.exe)

 GradGradGradGradGradGradGradGradGradGradGradGradGradGradGradGradGradGrad
 Berny optimization.
 Initialization pass.
                           ----------------------------
                           !    Initial Parameters    !
                           ! (Angstroms and Degrees)  !
 --------------------------                            --------------------------
 ! Name  Definition              Value          Derivative Info.                !
 --------------------------------------------------------------------------------
 ! R1    R(1,2)                  1.3828         estimate D2E/DX2                !
 ! R2    R(1,8)                  1.3359         estimate D2E/DX2                !
 ! R3    R(1,46)                 1.069          estimate D2E/DX2                !
 ! R4    R(2,3)                  1.3812         estimate D2E/DX2                !
 ! R5    R(2,47)                 1.1275         estimate D2E/DX2                !
 ! R6    R(3,4)                  1.3613         estimate D2E/DX2                !
 ! R7    R(3,5)                  1.4683         estimate D2E/DX2                !
 ! R8    R(5,6)                  1.3072         estimate D2E/DX2                !
 ! R9    R(5,9)                  1.5072         estimate D2E/DX2                !
 ! R10   R(6,7)                  1.3457         estimate D2E/DX2                !
 ! R11   R(6,8)                  1.4653         estimate D2E/DX2                !
 ! R12   R(8,48)                 1.0679         estimate D2E/DX2                !
 ! R13   R(9,10)                 1.4182         estimate D2E/DX2                !
 ! R14   R(9,15)                 1.6706         estimate D2E/DX2                !
 ! R15   R(10,11)                1.3462         estimate D2E/DX2                !
 ! R16   R(10,13)                1.437          estimate D2E/DX2                !
 ! R17   R(11,12)                1.3824         estimate D2E/DX2                !
 ! R18   R(12,49)                1.0434         estimate D2E/DX2                !
 ! R19   R(12,50)                1.0646         estimate D2E/DX2                !
 ! R20   R(12,51)                1.1765         estimate D2E/DX2                !
 ! R21   R(13,14)                1.3889         estimate D2E/DX2                !
 ! R22   R(13,52)                1.0605         estimate D2E/DX2                !
 ! R23   R(14,15)                1.7043         estimate D2E/DX2                !
 ! R24   R(14,16)                1.4153         estimate D2E/DX2                !
 ! R25   R(16,17)                1.3773         estimate D2E/DX2                !
 ! R26   R(16,23)                1.4279         estimate D2E/DX2                !
 ! R27   R(17,18)                1.3399         estimate D2E/DX2                !
 ! R28   R(17,53)                1.0954         estimate D2E/DX2                !
 ! R29   R(18,19)                1.3364         estimate D2E/DX2                !
 ! R30   R(18,20)                1.4436         estimate D2E/DX2                !
 ! R31   R(20,21)                1.3438         estimate D2E/DX2                !
 ! R32   R(20,24)                1.4768         estimate D2E/DX2                !
 ! R33   R(21,22)                1.3154         estimate D2E/DX2                !
 ! R34   R(21,23)                1.457          estimate D2E/DX2                !
 ! R35   R(23,54)                1.0513         estimate D2E/DX2                !
 ! R36   R(24,25)                1.3543         estimate D2E/DX2                !
 ! R37   R(24,30)                1.6798         estimate D2E/DX2                !
 ! R38   R(25,26)                1.4431         estimate D2E/DX2                !
 ! R39   R(25,28)                1.4215         estimate D2E/DX2                !
 ! R40   R(26,27)                1.4034         estimate D2E/DX2                !
 ! R41   R(27,55)                1.1296         estimate D2E/DX2                !
 ! R42   R(27,56)                1.1558         estimate D2E/DX2                !
 ! R43   R(27,57)                1.01           estimate D2E/DX2                !
 ! R44   R(28,29)                1.3907         estimate D2E/DX2                !
 ! R45   R(28,58)                1.1019         estimate D2E/DX2                !
 ! R46   R(29,30)                1.6586         estimate D2E/DX2                !
 ! R47   R(29,31)                1.4728         estimate D2E/DX2                !
 ! R48   R(31,32)                1.4169         estimate D2E/DX2                !
 ! R49   R(31,38)                1.3646         estimate D2E/DX2                !
 ! R50   R(32,33)                1.3529         estimate D2E/DX2                !
 ! R51   R(32,59)                1.1425         estimate D2E/DX2                !
 ! R52   R(33,34)                1.3379         estimate D2E/DX2                !
 ! R53   R(33,35)                1.3637         estimate D2E/DX2                !
 ! R54   R(35,36)                1.3745         estimate D2E/DX2                !
 ! R55   R(35,39)                1.4898         estimate D2E/DX2                !
 ! R56   R(36,37)                1.2933         estimate D2E/DX2                !
 ! R57   R(36,38)                1.4458         estimate D2E/DX2                !
 ! R58   R(38,60)                1.1184         estimate D2E/DX2                !
 ! R59   R(39,40)                1.2956         estimate D2E/DX2                !
 ! R60   R(39,45)                1.7822         estimate D2E/DX2                !
 ! R61   R(40,41)                1.3499         estimate D2E/DX2                !
 ! R62   R(40,43)                1.4831         estimate D2E/DX2                !
 ! R63   R(41,42)                1.4791         estimate D2E/DX2                !
 ! R64   R(42,61)                1.0628         estimate D2E/DX2                !
 ! R65   R(42,62)                1.1636         estimate D2E/DX2                !
 ! R66   R(42,63)                1.1536         estimate D2E/DX2                !
 ! R67   R(43,44)                1.4262         estimate D2E/DX2                !
 ! R68   R(43,64)                1.0169         estimate D2E/DX2                !
 ! R69   R(44,45)                1.6315         estimate D2E/DX2                !
 ! R70   R(44,65)                1.0606         estimate D2E/DX2                !
 ! A1    A(2,1,8)              121.9115         estimate D2E/DX2                !
 ! A2    A(2,1,46)             116.0909         estimate D2E/DX2                !
 ! A3    A(8,1,46)             121.9801         estimate D2E/DX2                !
 ! A4    A(1,2,3)              121.5871         estimate D2E/DX2                !
 ! A5    A(1,2,47)             121.9046         estimate D2E/DX2                !
 ! A6    A(3,2,47)             116.1712         estimate D2E/DX2                !
 ! A7    A(2,3,4)              123.6227         estimate D2E/DX2                !
 ! A8    A(2,3,5)              118.3029         estimate D2E/DX2                !
 ! A9    A(4,3,5)              117.6009         estimate D2E/DX2                !
 ! A10   A(3,5,6)              116.8251         estimate D2E/DX2                !
 ! A11   A(3,5,9)              118.2041         estimate D2E/DX2                !
 ! A12   A(6,5,9)              124.9197         estimate D2E/DX2                !
 ! A13   A(5,6,7)              122.2111         estimate D2E/DX2                !
 ! A14   A(5,6,8)              124.9915         estimate D2E/DX2                !
 ! A15   A(7,6,8)              112.7572         estimate D2E/DX2                !
 ! A16   A(1,8,6)              116.1225         estimate D2E/DX2                !
 ! A17   A(1,8,48)             125.1514         estimate D2E/DX2                !
 ! A18   A(6,8,48)             118.726          estimate D2E/DX2                !
 ! A19   A(5,9,10)             127.5107         estimate D2E/DX2                !
 ! A20   A(5,9,15)             119.607          estimate D2E/DX2                !
 ! A21   A(10,9,15)            112.824          estimate D2E/DX2                !
 ! A22   A(9,10,11)            121.4049         estimate D2E/DX2                !
 ! A23   A(9,10,13)            109.8187         estimate D2E/DX2                !
 ! A24   A(11,10,13)           128.4706         estimate D2E/DX2                !
 ! A25   A(10,11,12)           116.8431         estimate D2E/DX2                !
 ! A26   A(11,12,49)           111.3264         estimate D2E/DX2                !
 ! A27   A(11,12,50)           115.0481         estimate D2E/DX2                !
 ! A28   A(11,12,51)           107.5311         estimate D2E/DX2                !
 ! A29   A(49,12,50)           106.5558         estimate D2E/DX2                !
 ! A30   A(49,12,51)           108.0695         estimate D2E/DX2                !
 ! A31   A(50,12,51)           108.0854         estimate D2E/DX2                !
 ! A32   A(10,13,14)           112.256          estimate D2E/DX2                !
 ! A33   A(10,13,52)           126.1198         estimate D2E/DX2                !
 ! A34   A(14,13,52)           121.3739         estimate D2E/DX2                !
 ! A35   A(13,14,15)           111.4299         estimate D2E/DX2                !
 ! A36   A(13,14,16)           128.7489         estimate D2E/DX2                !
 ! A37   A(15,14,16)           119.4554         estimate D2E/DX2                !
 ! A38   A(9,15,14)             93.0982         estimate D2E/DX2                !
 ! A39   A(14,16,17)           124.2973         estimate D2E/DX2                !
 ! A40   A(14,16,23)           120.5077         estimate D2E/DX2                !
 ! A41   A(17,16,23)           115.1919         estimate D2E/DX2                !
 ! A42   A(16,17,18)           124.5569         estimate D2E/DX2                !
 ! A43   A(16,17,53)           118.1563         estimate D2E/DX2                !
 ! A44   A(18,17,53)           117.2469         estimate D2E/DX2                !
 ! A45   A(17,18,19)           120.4931         estimate D2E/DX2                !
 ! A46   A(17,18,20)           121.7394         estimate D2E/DX2                !
 ! A47   A(19,18,20)           117.7553         estimate D2E/DX2                !
 ! A48   A(18,20,21)           116.4956         estimate D2E/DX2                !
 ! A49   A(18,20,24)           121.1965         estimate D2E/DX2                !
 ! A50   A(21,20,24)           122.2293         estimate D2E/DX2                !
 ! A51   A(20,21,22)           121.171          estimate D2E/DX2                !
 ! A52   A(20,21,23)           121.5967         estimate D2E/DX2                !
 ! A53   A(22,21,23)           117.2124         estimate D2E/DX2                !
 ! A54   A(16,23,21)           120.2774         estimate D2E/DX2                !
 ! A55   A(16,23,54)           120.7493         estimate D2E/DX2                !
 ! A56   A(21,23,54)           118.3941         estimate D2E/DX2                !
 ! A57   A(20,24,25)           132.8364         estimate D2E/DX2                !
 ! A58   A(20,24,30)           117.0848         estimate D2E/DX2                !
 ! A59   A(25,24,30)           109.7421         estimate D2E/DX2                !
 ! A60   A(24,25,26)           117.0185         estimate D2E/DX2                !
 ! A61   A(24,25,28)           113.5144         estimate D2E/DX2                !
 ! A62   A(26,25,28)           129.2782         estimate D2E/DX2                !
 ! A63   A(25,26,27)           111.3257         estimate D2E/DX2                !
 ! A64   A(26,27,55)           110.0553         estimate D2E/DX2                !
 ! A65   A(26,27,56)           103.2447         estimate D2E/DX2                !
 ! A66   A(26,27,57)           116.6823         estimate D2E/DX2                !
 ! A67   A(55,27,56)           105.1391         estimate D2E/DX2                !
 ! A68   A(55,27,57)           110.693          estimate D2E/DX2                !
 ! A69   A(56,27,57)           110.1849         estimate D2E/DX2                !
 ! A70   A(25,28,29)           111.0223         estimate D2E/DX2                !
 ! A71   A(25,28,58)           121.1499         estimate D2E/DX2                !
 ! A72   A(29,28,58)           127.8077         estimate D2E/DX2                !
 ! A73   A(28,29,30)           110.3764         estimate D2E/DX2                !
 ! A74   A(28,29,31)           127.1448         estimate D2E/DX2                !
 ! A75   A(30,29,31)           122.3383         estimate D2E/DX2                !
 ! A76   A(24,30,29)            95.0715         estimate D2E/DX2                !
 ! A77   A(29,31,32)           120.8367         estimate D2E/DX2                !
 ! A78   A(29,31,38)           120.514          estimate D2E/DX2                !
 ! A79   A(32,31,38)           118.6285         estimate D2E/DX2                !
 ! A80   A(31,32,33)           119.8963         estimate D2E/DX2                !
 ! A81   A(31,32,59)           121.969          estimate D2E/DX2                !
 ! A82   A(33,32,59)           117.9715         estimate D2E/DX2                !
 ! A83   A(32,33,34)           116.2957         estimate D2E/DX2                !
 ! A84   A(32,33,35)           122.9488         estimate D2E/DX2                !
 ! A85   A(34,33,35)           120.5879         estimate D2E/DX2                !
 ! A86   A(33,35,36)           119.0213         estimate D2E/DX2                !
 ! A87   A(33,35,39)           122.5518         estimate D2E/DX2                !
 ! A88   A(36,35,39)           118.4148         estimate D2E/DX2                !
 ! A89   A(35,36,37)           125.2366         estimate D2E/DX2                !
 ! A90   A(35,36,38)           119.3874         estimate D2E/DX2                !
 ! A91   A(37,36,38)           115.3117         estimate D2E/DX2                !
 ! A92   A(31,38,36)           120.01           estimate D2E/DX2                !
 ! A93   A(31,38,60)           123.0876         estimate D2E/DX2                !
 ! A94   A(36,38,60)           116.4085         estimate D2E/DX2                !
 ! A95   A(35,39,40)           128.646          estimate D2E/DX2                !
 ! A96   A(35,39,45)           119.4507         estimate D2E/DX2                !
 ! A97   A(40,39,45)           111.7097         estimate D2E/DX2                !
 ! A98   A(39,40,41)           119.4314         estimate D2E/DX2                !
 ! A99   A(39,40,43)           115.139          estimate D2E/DX2                !
 ! A100  A(41,40,43)           125.2488         estimate D2E/DX2                !
 ! A101  A(40,41,42)           117.3481         estimate D2E/DX2                !
 ! A102  A(41,42,61)           111.5427         estimate D2E/DX2                !
 ! A103  A(41,42,62)           109.5311         estimate D2E/DX2                !
 ! A104  A(41,42,63)           109.508          estimate D2E/DX2                !
 ! A105  A(61,42,62)           110.2992         estimate D2E/DX2                !
 ! A106  A(61,42,63)           108.5721         estimate D2E/DX2                !
 ! A107  A(62,42,63)           107.2846         estimate D2E/DX2                !
 ! A108  A(40,43,44)           105.6925         estimate D2E/DX2                !
 ! A109  A(40,43,64)           127.7439         estimate D2E/DX2                !
 ! A110  A(44,43,64)           126.1765         estimate D2E/DX2                !
 ! A111  A(43,44,45)           116.7147         estimate D2E/DX2                !
 ! A112  A(43,44,65)           123.2056         estimate D2E/DX2                !
 ! A113  A(45,44,65)           119.9538         estimate D2E/DX2                !
 ! A114  A(39,45,44)            90.6132         estimate D2E/DX2                !
 ! D1    D(8,1,2,3)             -3.561          estimate D2E/DX2                !
 ! D2    D(8,1,2,47)          -176.6374         estimate D2E/DX2                !
 ! D3    D(46,1,2,3)           174.9459         estimate D2E/DX2                !
 ! D4    D(46,1,2,47)            1.8695         estimate D2E/DX2                !
 ! D5    D(2,1,8,6)              1.7034         estimate D2E/DX2                !
 ! D6    D(2,1,8,48)          -178.2602         estimate D2E/DX2                !
 ! D7    D(46,1,8,6)          -176.7157         estimate D2E/DX2                !
 ! D8    D(46,1,8,48)            3.3207         estimate D2E/DX2                !
 ! D9    D(1,2,3,4)            177.2391         estimate D2E/DX2                !
 ! D10   D(1,2,3,5)              5.3359         estimate D2E/DX2                !
 ! D11   D(47,2,3,4)            -9.3082         estimate D2E/DX2                !
 ! D12   D(47,2,3,5)           178.7886         estimate D2E/DX2                !
 ! D13   D(2,3,5,6)             -5.4904         estimate D2E/DX2                !
 ! D14   D(2,3,5,9)            176.9811         estimate D2E/DX2                !
 ! D15   D(4,3,5,6)           -177.8854         estimate D2E/DX2                !
 ! D16   D(4,3,5,9)              4.5861         estimate D2E/DX2                !
 ! D17   D(3,5,6,7)           -178.4197         estimate D2E/DX2                !
 ! D18   D(3,5,6,8)              4.0587         estimate D2E/DX2                !
 ! D19   D(9,5,6,7)             -1.0761         estimate D2E/DX2                !
 ! D20   D(9,5,6,8)           -178.5976         estimate D2E/DX2                !
 ! D21   D(3,5,9,10)            65.3503         estimate D2E/DX2                !
 ! D22   D(3,5,9,15)          -117.6397         estimate D2E/DX2                !
 ! D23   D(6,5,9,10)          -111.9597         estimate D2E/DX2                !
 ! D24   D(6,5,9,15)            65.0502         estimate D2E/DX2                !
 ! D25   D(5,6,8,1)             -2.2123         estimate D2E/DX2                !
 ! D26   D(5,6,8,48)           177.7538         estimate D2E/DX2                !
 ! D27   D(7,6,8,1)           -179.9384         estimate D2E/DX2                !
 ! D28   D(7,6,8,48)             0.0277         estimate D2E/DX2                !
 ! D29   D(5,9,10,11)           -5.1486         estimate D2E/DX2                !
 ! D30   D(5,9,10,13)         -179.307          estimate D2E/DX2                !
 ! D31   D(15,9,10,11)         177.6718         estimate D2E/DX2                !
 ! D32   D(15,9,10,13)           3.5134         estimate D2E/DX2                !
 ! D33   D(5,9,15,14)         -176.5535         estimate D2E/DX2                !
 ! D34   D(10,9,15,14)           0.8734         estimate D2E/DX2                !
 ! D35   D(9,10,11,12)        -179.812          estimate D2E/DX2                !
 ! D36   D(13,10,11,12)         -6.8367         estimate D2E/DX2                !
 ! D37   D(9,10,13,14)          -7.416          estimate D2E/DX2                !
 ! D38   D(9,10,13,52)         178.3056         estimate D2E/DX2                !
 ! D39   D(11,10,13,14)        178.9543         estimate D2E/DX2                !
 ! D40   D(11,10,13,52)          4.6759         estimate D2E/DX2                !
 ! D41   D(10,11,12,49)       -177.9611         estimate D2E/DX2                !
 ! D42   D(10,11,12,50)        -56.6219         estimate D2E/DX2                !
 ! D43   D(10,11,12,51)         63.8409         estimate D2E/DX2                !
 ! D44   D(10,13,14,15)          8.1382         estimate D2E/DX2                !
 ! D45   D(10,13,14,16)       -178.9502         estimate D2E/DX2                !
 ! D46   D(52,13,14,15)       -177.2742         estimate D2E/DX2                !
 ! D47   D(52,13,14,16)         -4.3626         estimate D2E/DX2                !
 ! D48   D(13,14,15,9)          -5.2183         estimate D2E/DX2                !
 ! D49   D(16,14,15,9)        -178.8727         estimate D2E/DX2                !
 ! D50   D(13,14,16,17)        125.8862         estimate D2E/DX2                !
 ! D51   D(13,14,16,23)        -53.4433         estimate D2E/DX2                !
 ! D52   D(15,14,16,17)        -61.6945         estimate D2E/DX2                !
 ! D53   D(15,14,16,23)        118.9761         estimate D2E/DX2                !
 ! D54   D(14,16,17,18)       -176.9547         estimate D2E/DX2                !
 ! D55   D(14,16,17,53)          0.6766         estimate D2E/DX2                !
 ! D56   D(23,16,17,18)          2.4069         estimate D2E/DX2                !
 ! D57   D(23,16,17,53)       -179.9619         estimate D2E/DX2                !
 ! D58   D(14,16,23,21)       -179.4724         estimate D2E/DX2                !
 ! D59   D(14,16,23,54)         -8.3386         estimate D2E/DX2                !
 ! D60   D(17,16,23,21)          1.1397         estimate D2E/DX2                !
 ! D61   D(17,16,23,54)        172.2735         estimate D2E/DX2                !
 ! D62   D(16,17,18,19)        177.3064         estimate D2E/DX2                !
 ! D63   D(16,17,18,20)         -3.9966         estimate D2E/DX2                !
 ! D64   D(53,17,18,19)         -0.3445         estimate D2E/DX2                !
 ! D65   D(53,17,18,20)        178.3525         estimate D2E/DX2                !
 ! D66   D(17,18,20,21)          1.6959         estimate D2E/DX2                !
 ! D67   D(17,18,20,24)       -175.1482         estimate D2E/DX2                !
 ! D68   D(19,18,20,21)       -179.5728         estimate D2E/DX2                !
 ! D69   D(19,18,20,24)          3.583          estimate D2E/DX2                !
 ! D70   D(18,20,21,22)       -176.5445         estimate D2E/DX2                !
 ! D71   D(18,20,21,23)          1.7858         estimate D2E/DX2                !
 ! D72   D(24,20,21,22)          0.2643         estimate D2E/DX2                !
 ! D73   D(24,20,21,23)        178.5946         estimate D2E/DX2                !
 ! D74   D(18,20,24,25)         56.1081         estimate D2E/DX2                !
 ! D75   D(18,20,24,30)       -116.4311         estimate D2E/DX2                !
 ! D76   D(21,20,24,25)       -120.5528         estimate D2E/DX2                !
 ! D77   D(21,20,24,30)         66.9079         estimate D2E/DX2                !
 ! D78   D(20,21,23,16)         -3.2496         estimate D2E/DX2                !
 ! D79   D(20,21,23,54)       -174.5894         estimate D2E/DX2                !
 ! D80   D(22,21,23,16)        175.144          estimate D2E/DX2                !
 ! D81   D(22,21,23,54)          3.8041         estimate D2E/DX2                !
 ! D82   D(20,24,25,26)          6.0249         estimate D2E/DX2                !
 ! D83   D(20,24,25,28)       -178.502          estimate D2E/DX2                !
 ! D84   D(30,24,25,26)        178.9697         estimate D2E/DX2                !
 ! D85   D(30,24,25,28)         -5.5572         estimate D2E/DX2                !
 ! D86   D(20,24,30,29)        178.9183         estimate D2E/DX2                !
 ! D87   D(25,24,30,29)          4.7244         estimate D2E/DX2                !
 ! D88   D(24,25,26,27)        179.4885         estimate D2E/DX2                !
 ! D89   D(28,25,26,27)          4.8533         estimate D2E/DX2                !
 ! D90   D(24,25,28,29)          3.7501         estimate D2E/DX2                !
 ! D91   D(24,25,28,58)       -177.761          estimate D2E/DX2                !
 ! D92   D(26,25,28,29)        178.5384         estimate D2E/DX2                !
 ! D93   D(26,25,28,58)         -2.9727         estimate D2E/DX2                !
 ! D94   D(25,26,27,55)         61.9031         estimate D2E/DX2                !
 ! D95   D(25,26,27,56)        173.714          estimate D2E/DX2                !
 ! D96   D(25,26,27,57)        -65.2875         estimate D2E/DX2                !
 ! D97   D(25,28,29,30)         -0.1302         estimate D2E/DX2                !
 ! D98   D(25,28,29,31)        175.6037         estimate D2E/DX2                !
 ! D99   D(58,28,29,30)       -178.4933         estimate D2E/DX2                !
 ! D100  D(58,28,29,31)         -2.7594         estimate D2E/DX2                !
 ! D101  D(28,29,30,24)         -2.6051         estimate D2E/DX2                !
 ! D102  D(31,29,30,24)       -178.5808         estimate D2E/DX2                !
 ! D103  D(28,29,31,32)        -50.7324         estimate D2E/DX2                !
 ! D104  D(28,29,31,38)        127.5862         estimate D2E/DX2                !
 ! D105  D(30,29,31,32)        124.5334         estimate D2E/DX2                !
 ! D106  D(30,29,31,38)        -57.1481         estimate D2E/DX2                !
 ! D107  D(29,31,32,33)        174.4368         estimate D2E/DX2                !
 ! D108  D(29,31,32,59)         -0.8238         estimate D2E/DX2                !
 ! D109  D(38,31,32,33)         -3.9128         estimate D2E/DX2                !
 ! D110  D(38,31,32,59)       -179.1735         estimate D2E/DX2                !
 ! D111  D(29,31,38,36)       -175.653          estimate D2E/DX2                !
 ! D112  D(29,31,38,60)         -4.0108         estimate D2E/DX2                !
 ! D113  D(32,31,38,36)          2.7021         estimate D2E/DX2                !
 ! D114  D(32,31,38,60)        174.3444         estimate D2E/DX2                !
 ! D115  D(31,32,33,34)        178.7143         estimate D2E/DX2                !
 ! D116  D(31,32,33,35)          3.4016         estimate D2E/DX2                !
 ! D117  D(59,32,33,34)         -5.8377         estimate D2E/DX2                !
 ! D118  D(59,32,33,35)        178.8496         estimate D2E/DX2                !
 ! D119  D(32,33,35,36)         -1.5674         estimate D2E/DX2                !
 ! D120  D(32,33,35,39)        177.1489         estimate D2E/DX2                !
 ! D121  D(34,33,35,36)       -176.6854         estimate D2E/DX2                !
 ! D122  D(34,33,35,39)          2.0309         estimate D2E/DX2                !
 ! D123  D(33,35,36,37)       -176.6528         estimate D2E/DX2                !
 ! D124  D(33,35,36,38)          0.2866         estimate D2E/DX2                !
 ! D125  D(39,35,36,37)          4.5775         estimate D2E/DX2                !
 ! D126  D(39,35,36,38)       -178.4831         estimate D2E/DX2                !
 ! D127  D(33,35,39,40)         63.3994         estimate D2E/DX2                !
 ! D128  D(33,35,39,45)       -111.0945         estimate D2E/DX2                !
 ! D129  D(36,35,39,40)       -117.8769         estimate D2E/DX2                !
 ! D130  D(36,35,39,45)         67.6292         estimate D2E/DX2                !
 ! D131  D(35,36,38,31)         -0.9468         estimate D2E/DX2                !
 ! D132  D(35,36,38,60)       -173.132          estimate D2E/DX2                !
 ! D133  D(37,36,38,31)        176.2881         estimate D2E/DX2                !
 ! D134  D(37,36,38,60)          4.1029         estimate D2E/DX2                !
 ! D135  D(35,39,40,41)          6.4025         estimate D2E/DX2                !
 ! D136  D(35,39,40,43)       -178.2279         estimate D2E/DX2                !
 ! D137  D(45,39,40,41)       -178.7572         estimate D2E/DX2                !
 ! D138  D(45,39,40,43)         -3.3876         estimate D2E/DX2                !
 ! D139  D(35,39,45,44)        176.7966         estimate D2E/DX2                !
 ! D140  D(40,39,45,44)          1.4232         estimate D2E/DX2                !
 ! D141  D(39,40,41,42)       -179.3465         estimate D2E/DX2                !
 ! D142  D(43,40,41,42)          5.7878         estimate D2E/DX2                !
 ! D143  D(39,40,43,44)          3.9257         estimate D2E/DX2                !
 ! D144  D(39,40,43,64)        177.0719         estimate D2E/DX2                !
 ! D145  D(41,40,43,44)        178.9867         estimate D2E/DX2                !
 ! D146  D(41,40,43,64)         -7.8671         estimate D2E/DX2                !
 ! D147  D(40,41,42,61)        176.7925         estimate D2E/DX2                !
 ! D148  D(40,41,42,62)        -60.8102         estimate D2E/DX2                !
 ! D149  D(40,41,42,63)         56.5853         estimate D2E/DX2                !
 ! D150  D(40,43,44,45)         -2.8169         estimate D2E/DX2                !
 ! D151  D(40,43,44,65)       -178.7287         estimate D2E/DX2                !
 ! D152  D(64,43,44,45)       -176.1034         estimate D2E/DX2                !
 ! D153  D(64,43,44,65)          7.9848         estimate D2E/DX2                !
 ! D154  D(43,44,45,39)          1.0147         estimate D2E/DX2                !
 ! D155  D(65,44,45,39)        177.067          estimate D2E/DX2                !
 --------------------------------------------------------------------------------
 Trust Radius=3.00D-01 FncErr=1.00D-07 GrdErr=1.00D-06 EigMax=2.50D+02 EigMin=1.00D-04
 Number of steps in this run=    349 maximum allowed number of steps=    390.
 GradGradGradGradGradGradGradGradGradGradGradGradGradGradGradGradGradGrad

 Leave Link  103 at Fri Jul 24 14:40:47 2020, MaxMem=  4026531840 cpu:               0.1 elap:               0.0
 (Enter /opt/ohpc/pub/libs/gaussian/g16-A.03/sandybridge/g16/l202.exe)
 Stoichiometry    C33H20F6O3S3
 Framework group  C1[X(C33H20F6O3S3)]
 Deg. of freedom   189
 Full point group                 C1      NOp   1
 Largest Abelian subgroup         C1      NOp   1
 Largest concise Abelian subgroup C1      NOp   1
                         Standard orientation:                         
 ---------------------------------------------------------------------
 Center     Atomic      Atomic             Coordinates (Angstroms)
 Number     Number       Type             X           Y           Z
 ---------------------------------------------------------------------
      1          6           0      -11.419184    0.912130    0.065072
      2          6           0      -10.934032    0.033480    1.016296
      3          6           0       -9.647073   -0.463838    0.952256
      4          9           0       -9.109353   -1.286974    1.893725
      5          6           0       -8.751918    0.053393   -0.090436
      6          6           0       -9.274444    0.876047   -0.961675
      7          9           0       -8.561046    1.390242   -1.980288
      8          6           0      -10.650190    1.378960   -0.922492
      9          6           0       -7.327780   -0.439412   -0.115376
     10          6           0       -6.874783   -1.758341   -0.373193
     11          8           0       -7.738998   -2.777645   -0.535892
     12          6           0       -7.194592   -4.024813   -0.779056
     13          6           0       -5.441319   -1.807040   -0.285362
     14          6           0       -4.880004   -0.544951   -0.140526
     15         16           0       -6.075684    0.643187    0.111011
     16          6           0       -3.513697   -0.189043   -0.042468
     17          6           0       -2.892183    0.734524   -0.853378
     18          6           0       -1.586937    1.033031   -0.803802
     19          9           0       -1.057553    1.905450   -1.666726
     20          6           0       -0.712725    0.454257    0.188503
     21          6           0       -1.269336   -0.426246    1.037456
     22          9           0       -0.574133   -0.958116    2.019327
     23          6           0       -2.672480   -0.804735    0.933307
     24          6           0        0.699711    0.870778    0.299899
     25          6           0        1.293086    2.074250    0.483802
     26          8           0        0.426837    3.200597    0.735926
     27          6           0        1.164173    4.380517    0.919353
     28          6           0        2.713057    2.010343    0.497048
     29          6           0        3.156863    0.719440    0.231108
     30         16           0        1.867889   -0.297068   -0.005646
     31          6           0        4.551441    0.273836    0.070746
     32          6           0        5.432153    0.947186   -0.811580
     33          6           0        6.737251    0.594252   -0.861067
     34          9           0        7.498104    1.258878   -1.738131
     35          6           0        7.253185   -0.442035   -0.140288
     36          6           0        6.425415   -1.146488    0.700969
     37          9           0        6.798331   -2.106693    1.482939
     38          6           0        5.030762   -0.777506    0.796825
     39          6           0        8.678438   -0.862355   -0.248152
     40          6           0        9.744907   -0.191574    0.053975
     41          8           0        9.624088    1.010086    0.656926
     42          6           0       10.870786    1.742782    0.967706
     43          6           0       11.025491   -0.890662   -0.212407
     44          6           0       10.669829   -2.122624   -0.836704
     45         16           0        9.075682   -2.428197   -1.000974
     46          1           0      -12.451404    1.176193    0.151986
     47          1           0      -11.596863   -0.403771    1.816730
     48          1           0      -10.962652    2.077607   -1.667192
     49          1           0       -7.938526   -4.741707   -0.924905
     50          1           0       -6.551366   -4.078558   -1.625651
     51          1           0       -6.573370   -4.331802    0.171680
     52          1           0       -4.836488   -2.669701   -0.406798
     53          1           0       -3.492850    1.237172   -1.619167
     54          1           0       -3.077858   -1.430450    1.674554
     55          1           0        1.747145    4.622598   -0.017451
     56          1           0        0.347418    5.195548    0.985669
     57          1           0        1.762469    4.419733    1.732174
     58          1           0        3.322538    2.911038    0.674538
     59          1           0        5.095148    1.842598   -1.435993
     60          1           0        4.429959   -1.302806    1.580353
     61          1           0       10.667853    2.697067    1.389315
     62          1           0       11.522643    1.110390    1.695180
     63          1           0       11.481923    1.890834    0.000525
     64          1           0       11.968527   -0.531327   -0.087552
     65          1           0       11.381779   -2.852059   -1.129703
 ---------------------------------------------------------------------
 Rotational constants (GHZ):           0.2085155           0.0154720           0.0149296
 Leave Link  202 at Fri Jul 24 14:40:47 2020, MaxMem=  4026531840 cpu:               0.2 elap:               0.0
 (Enter /opt/ohpc/pub/libs/gaussian/g16-A.03/sandybridge/g16/l301.exe)
 Standard basis: CC-pVDZ (5D, 7F)
 Ernie: Thresh=  0.10000D-02 Tol=  0.10000D-05 Strict=F.
 Ernie:  114 primitive shells out of 1174 were deleted.
 There are   787 symmetry adapted cartesian basis functions of A   symmetry.
 There are   742 symmetry adapted basis functions of A   symmetry.
   742 basis functions,  1739 primitive gaussians,   787 cartesian basis functions
   172 alpha electrons      172 beta electrons
       nuclear repulsion energy      5495.1779720572 Hartrees.
 IExCor=32609 DFT=T Ex+Corr=LC-wPBE ExCW=0 ScaHFX=  1.000000
 ScaDFX=  1.000000  0.000000  1.000000  1.000000 ScalE2=  1.000000  1.000000
 IRadAn=      5 IRanWt=     -1 IRanGd=            0 ICorTp=0 IEmpDi=  4
 HFx  wShort=  0.000000 wLong=  0.157500 cFull=  0.000000 cShort=  0.000000 cLong=  1.000000
 DFx  wShort=  0.000000 wLong=  0.157500 cFull=  0.000000 cShort=  0.000000 cLong=  1.000000
 NAtoms=   65 NActive=   65 NUniq=   65 SFac= 1.00D+00 NAtFMM=   60 NAOKFM=T Big=T
 Integral buffers will be    131072 words long.
 Raffenetti 2 integral format.
 Two-electron integral symmetry is turned on.
 Leave Link  301 at Fri Jul 24 14:40:47 2020, MaxMem=  4026531840 cpu:               0.6 elap:               0.1
 (Enter /opt/ohpc/pub/libs/gaussian/g16-A.03/sandybridge/g16/l302.exe)
 NPDir=0 NMtPBC=     1 NCelOv=     1 NCel=       1 NClECP=     1 NCelD=      1
         NCelK=      1 NCelE2=     1 NClLst=     1 CellRange=     0.0.
 One-electron integrals computed using PRISM.
 One-electron integral symmetry used in STVInt
 NBasis=   742 RedAO= T EigKep=  3.24D-04  NBF=   742
 NBsUse=   742 1.00D-06 EigRej= -1.00D+00 NBFU=   742
 Precomputing XC quadrature grid using
 IXCGrd= 4 IRadAn=           5 IRanWt=          -1 IRanGd=           0 AccXCQ= 0.00D+00.
 Generated NRdTot=       0 NPtTot=           0 NUsed=           0 NTot=          32
 NSgBfM=   679   679   679   679   679 MxSgAt=    65 MxSgA2=    65.
 Leave Link  302 at Fri Jul 24 14:40:50 2020, MaxMem=  4026531840 cpu:              24.1 elap:               3.1
 (Enter /opt/ohpc/pub/libs/gaussian/g16-A.03/sandybridge/g16/l303.exe)
 DipDrv:  MaxL=1.
 Leave Link  303 at Fri Jul 24 14:40:51 2020, MaxMem=  4026531840 cpu:               1.7 elap:               0.3
 (Enter /opt/ohpc/pub/libs/gaussian/g16-A.03/sandybridge/g16/l401.exe)
 ExpMin= 1.22D-01 ExpMax= 1.11D+05 ExpMxC= 1.07D+03 IAcc=3 IRadAn=         5 AccDes= 0.00D+00
 Harris functional with IExCor=32609 and IRadAn=       5 diagonalized for initial guess.
 HarFok:  IExCor=32609 AccDes= 0.00D+00 IRadAn=         5 IDoV= 1 UseB2=F ITyADJ=14
 ICtDFT=  3500011 ScaDFX=  1.000000  1.000000  1.000000  1.000000
 FoFCou: FMM=F IPFlag=           0 FMFlag=      100000 FMFlg1=        2001
         NFxFlg=           0 DoJE=T BraDBF=F KetDBF=T FulRan=T
         wScrn=  0.000000 ICntrl=       500 IOpCl=  0 I1Cent=   200000004 NGrid=           0
         NMat0=    1 NMatS0=      1 NMatT0=    0 NMatD0=    1 NMtDS0=    0 NMtDT0=    0
 Petite list used in FoFCou.
 Harris En= -3286.53952911628    
 JPrj=0 DoOrth=F DoCkMO=F.
 Initial guess <Sx>= 0.0000 <Sy>= 0.0000 <Sz>= 0.0000 <S**2>=-0.0000 S=-0.0000
 Leave Link  401 at Fri Jul 24 14:41:03 2020, MaxMem=  4026531840 cpu:              98.7 elap:              12.4
 (Enter /opt/ohpc/pub/libs/gaussian/g16-A.03/sandybridge/g16/l502.exe)
 Integral symmetry usage will be decided dynamically.
 UHF open shell SCF:
 Using DIIS extrapolation, IDIIS=  1040.
 NGot=  4026531840 LenX=  4025278819 LenY=  4024658663
 Requested convergence on RMS density matrix=1.00D-08 within 128 cycles.
 Requested convergence on MAX density matrix=1.00D-06.
 Requested convergence on             energy=1.00D-06.
 No special actions if energy rises.
 Fock matrices will be formed incrementally for  20 cycles.
 Integral accuracy reduced to 1.0D-05 until final iterations.

 Cycle   1  Pass 0  IDiag  1:
 FoFJK:  IHMeth= 1 ICntrl=       0 DoSepK=T KAlg= 0 I1Cent=           0 FoldK=F
 IRaf=         1 NMat=       1 IRICut=       1 DoRegI=T DoRafI=F ISym2E= 0 IDoP0=0 IntGTp=1.
 FoFCou: FMM=T IPFlag=           0 FMFlag=      100000 FMFlg1=        2001
         NFxFlg=           0 DoJE=T BraDBF=F KetDBF=F FulRan=T
         wScrn=  0.000000 ICntrl=       500 IOpCl=  0 I1Cent=           0 NGrid=           0
         NMat0=    1 NMatS0=      1 NMatT0=    0 NMatD0=    1 NMtDS0=    0 NMtDT0=    0
 Symmetry not used in FoFCou.
 FMM levels:  10  Number of levels for PrismC:   9
 E= -3285.69567237148    
 DIIS: error= 1.53D-02 at cycle   1 NSaved=   1.
 NSaved= 1 IEnMin= 1 EnMin= -3285.69567237148     IErMin= 1 ErrMin= 1.53D-02
 ErrMax= 1.53D-02  0.00D+00 EMaxC= 1.00D-01 BMatC= 2.91D+00 BMatP= 2.91D+00
 IDIUse=3 WtCom= 8.47D-01 WtEn= 1.53D-01
 Coeff-Com:  0.100D+01
 Coeff-En:   0.100D+01
 Coeff:      0.100D+01
 Gap=     0.267 Goal=   None    Shift=    0.000
 Gap=     0.267 Goal=   None    Shift=    0.000
 GapD=    0.267 DampG=1.000 DampE=0.500 DampFc=0.5000 IDamp=-1.
 Damping current iteration by 5.00D-01
 RMSDP=2.80D-03 MaxDP=1.59D-01              OVMax= 2.41D-01

 Cycle   2  Pass 0  IDiag  1:
 RMSU=  1.40D-03    CP:  9.95D-01
 E= -3286.05141886748     Delta-E=       -0.355746496001 Rises=F Damp=T
 DIIS: error= 3.34D-03 at cycle   2 NSaved=   2.
 NSaved= 2 IEnMin= 2 EnMin= -3286.05141886748     IErMin= 2 ErrMin= 3.34D-03
 ErrMax= 3.34D-03  0.00D+00 EMaxC= 1.00D-01 BMatC= 1.61D-01 BMatP= 2.91D+00
 IDIUse=3 WtCom= 9.67D-01 WtEn= 3.34D-02
 Coeff-Com:  0.826D-01 0.917D+00
 Coeff-En:   0.132D+00 0.868D+00
 Coeff:      0.843D-01 0.916D+00
 Gap=     0.306 Goal=   None    Shift=    0.000
 Gap=     0.306 Goal=   None    Shift=    0.000
 RMSDP=8.35D-04 MaxDP=3.09D-02 DE=-3.56D-01 OVMax= 1.89D-01

 Cycle   3  Pass 0  IDiag  1:
 RMSU=  8.34D-04    CP:  9.97D-01  9.75D-01
 E= -3286.48546083347     Delta-E=       -0.434041965993 Rises=F Damp=F
 DIIS: error= 3.28D-03 at cycle   3 NSaved=   3.
 NSaved= 3 IEnMin= 3 EnMin= -3286.48546083347     IErMin= 3 ErrMin= 3.28D-03
 ErrMax= 3.28D-03  0.00D+00 EMaxC= 1.00D-01 BMatC= 1.04D-01 BMatP= 1.61D-01
 IDIUse=3 WtCom= 9.67D-01 WtEn= 3.28D-02
 Coeff-Com:  0.135D-01 0.435D+00 0.551D+00
 Coeff-En:   0.000D+00 0.000D+00 0.100D+01
 Coeff:      0.131D-01 0.421D+00 0.566D+00
 Gap=     0.244 Goal=   None    Shift=    0.000
 Gap=     0.244 Goal=   None    Shift=    0.000
 RMSDP=3.19D-04 MaxDP=2.53D-02 DE=-4.34D-01 OVMax= 4.41D-02

 Cycle   4  Pass 0  IDiag  1:
 RMSU=  2.25D-04    CP:  9.97D-01  1.03D+00  7.44D-01
 E= -3286.50772869592     Delta-E=       -0.022267862449 Rises=F Damp=F
 DIIS: error= 1.45D-03 at cycle   4 NSaved=   4.
 NSaved= 4 IEnMin= 4 EnMin= -3286.50772869592     IErMin= 4 ErrMin= 1.45D-03
 ErrMax= 1.45D-03  0.00D+00 EMaxC= 1.00D-01 BMatC= 1.85D-02 BMatP= 1.04D-01
 IDIUse=3 WtCom= 9.86D-01 WtEn= 1.45D-02
 Coeff-Com:  0.475D-02 0.108D+00 0.309D+00 0.578D+00
 Coeff-En:   0.000D+00 0.000D+00 0.129D+00 0.871D+00
 Coeff:      0.468D-02 0.107D+00 0.306D+00 0.583D+00
 Gap=     0.242 Goal=   None    Shift=    0.000
 Gap=     0.242 Goal=   None    Shift=    0.000
 RMSDP=1.17D-04 MaxDP=1.22D-02 DE=-2.23D-02 OVMax= 1.80D-02

 Cycle   5  Pass 0  IDiag  1:
 RMSU=  8.04D-05    CP:  9.97D-01  1.02D+00  7.94D-01  6.86D-01
 E= -3286.51200393098     Delta-E=       -0.004275235053 Rises=F Damp=F
 DIIS: error= 4.35D-04 at cycle   5 NSaved=   5.
 NSaved= 5 IEnMin= 5 EnMin= -3286.51200393098     IErMin= 5 ErrMin= 4.35D-04
 ErrMax= 4.35D-04  0.00D+00 EMaxC= 1.00D-01 BMatC= 2.28D-03 BMatP= 1.85D-02
 IDIUse=3 WtCom= 9.96D-01 WtEn= 4.35D-03
 Coeff-Com:  0.402D-02 0.488D-02 0.104D+00 0.321D+00 0.565D+00
 Coeff-En:   0.000D+00 0.000D+00 0.000D+00 0.164D-01 0.984D+00
 Coeff:      0.401D-02 0.486D-02 0.104D+00 0.320D+00 0.567D+00
 Gap=     0.244 Goal=   None    Shift=    0.000
 Gap=     0.244 Goal=   None    Shift=    0.000
 RMSDP=4.47D-05 MaxDP=3.79D-03 DE=-4.28D-03 OVMax= 6.92D-03

 Cycle   6  Pass 0  IDiag  1:
 RMSU=  3.12D-05    CP:  9.97D-01  1.01D+00  8.10D-01  7.78D-01  7.47D-01
 E= -3286.51254618142     Delta-E=       -0.000542250447 Rises=F Damp=F
 DIIS: error= 1.75D-04 at cycle   6 NSaved=   6.
 NSaved= 6 IEnMin= 6 EnMin= -3286.51254618142     IErMin= 6 ErrMin= 1.75D-04
 ErrMax= 1.75D-04  0.00D+00 EMaxC= 1.00D-01 BMatC= 2.30D-04 BMatP= 2.28D-03
 IDIUse=3 WtCom= 9.98D-01 WtEn= 1.75D-03
 Coeff-Com:  0.286D-02-0.159D-01 0.826D-02 0.762D-01 0.271D+00 0.657D+00
 Coeff-En:   0.000D+00 0.000D+00 0.000D+00 0.000D+00 0.000D+00 0.100D+01
 Coeff:      0.285D-02-0.158D-01 0.825D-02 0.760D-01 0.271D+00 0.658D+00
 Gap=     0.244 Goal=   None    Shift=    0.000
 Gap=     0.244 Goal=   None    Shift=    0.000
 RMSDP=1.99D-05 MaxDP=9.14D-04 DE=-5.42D-04 OVMax= 2.49D-03

 Cycle   7  Pass 0  IDiag  1:
 RMSU=  1.67D-05    CP:  9.97D-01  1.01D+00  8.16D-01  7.87D-01  8.61D-01
                    CP:  9.75D-01
 E= -3286.51261393454     Delta-E=       -0.000067753119 Rises=F Damp=F
 DIIS: error= 5.35D-05 at cycle   7 NSaved=   7.
 NSaved= 7 IEnMin= 7 EnMin= -3286.51261393454     IErMin= 7 ErrMin= 5.35D-05
 ErrMax= 5.35D-05  0.00D+00 EMaxC= 1.00D-01 BMatC= 3.55D-05 BMatP= 2.30D-04
 IDIUse=1 WtCom= 1.00D+00 WtEn= 0.00D+00
 Coeff-Com:  0.127D-02-0.919D-02-0.857D-02-0.577D-02 0.474D-01 0.314D+00
 Coeff-Com:  0.661D+00
 Coeff:      0.127D-02-0.919D-02-0.857D-02-0.577D-02 0.474D-01 0.314D+00
 Coeff:      0.661D+00
 Gap=     0.244 Goal=   None    Shift=    0.000
 Gap=     0.244 Goal=   None    Shift=    0.000
 RMSDP=1.60D-05 MaxDP=5.48D-04 DE=-6.78D-05 OVMax= 1.08D-03

 Cycle   8  Pass 0  IDiag  1:
 RMSU=  1.30D-05    CP:  9.97D-01  1.01D+00  8.18D-01  7.97D-01  8.82D-01
                    CP:  1.18D+00  1.33D+00
 E= -3286.51263257744     Delta-E=       -0.000018642897 Rises=F Damp=F
 DIIS: error= 4.87D-05 at cycle   8 NSaved=   8.
 NSaved= 8 IEnMin= 8 EnMin= -3286.51263257744     IErMin= 8 ErrMin= 4.87D-05
 ErrMax= 4.87D-05  0.00D+00 EMaxC= 1.00D-01 BMatC= 7.99D-06 BMatP= 3.55D-05
 IDIUse=1 WtCom= 1.00D+00 WtEn= 0.00D+00
 Coeff-Com:  0.374D-03-0.267D-02-0.409D-02-0.112D-01-0.133D-01 0.637D-01
 Coeff-Com:  0.316D+00 0.652D+00
 Coeff:      0.374D-03-0.267D-02-0.409D-02-0.112D-01-0.133D-01 0.637D-01
 Coeff:      0.316D+00 0.652D+00
 Gap=     0.244 Goal=   None    Shift=    0.000
 Gap=     0.244 Goal=   None    Shift=    0.000
 RMSDP=2.20D-05 MaxDP=9.59D-04 DE=-1.86D-05 OVMax= 5.27D-04

 Cycle   9  Pass 0  IDiag  1:
 RMSU=  1.30D-05    CP:  9.97D-01  1.01D+00  8.21D-01  8.00D-01  9.00D-01
                    CP:  1.30D+00  2.08D+00  1.91D+00
 E= -3286.51264086053     Delta-E=       -0.000008283088 Rises=F Damp=F
 DIIS: error= 7.32D-05 at cycle   9 NSaved=   9.
 NSaved= 9 IEnMin= 9 EnMin= -3286.51264086053     IErMin= 8 ErrMin= 4.87D-05
 ErrMax= 7.32D-05  0.00D+00 EMaxC= 1.00D-01 BMatC= 1.03D-05 BMatP= 7.99D-06
 IDIUse=1 WtCom= 1.00D+00 WtEn= 0.00D+00
 Coeff-Com:  0.389D-03-0.280D-02-0.463D-02-0.133D-01-0.176D-01 0.647D-01
 Coeff-Com:  0.354D+00 0.781D+00-0.162D+00
 Coeff:      0.389D-03-0.280D-02-0.463D-02-0.133D-01-0.176D-01 0.647D-01
 Coeff:      0.354D+00 0.781D+00-0.162D+00
 Gap=     0.244 Goal=   None    Shift=    0.000
 Gap=     0.244 Goal=   None    Shift=    0.000
 RMSDP=6.86D-06 MaxDP=3.24D-04 DE=-8.28D-06 OVMax= 3.22D-05

 Initial convergence to 1.0D-05 achieved.  Increase integral accuracy.
 Cycle  10  Pass 1  IDiag  1:
 E= -3286.51203667745     Delta-E=        0.000604183075 Rises=F Damp=F
 DIIS: error= 3.53D-04 at cycle   1 NSaved=   1.
 NSaved= 1 IEnMin= 1 EnMin= -3286.51203667745     IErMin= 1 ErrMin= 3.53D-04
 ErrMax= 3.53D-04  0.00D+00 EMaxC= 1.00D-01 BMatC= 1.62D-04 BMatP= 1.62D-04
 IDIUse=3 WtCom= 9.96D-01 WtEn= 3.53D-03
 Coeff-Com:  0.100D+01
 Coeff-En:   0.100D+01
 Coeff:      0.100D+01
 Gap=     0.244 Goal=   None    Shift=    0.000
 Gap=     0.244 Goal=   None    Shift=    0.000
 RMSDP=6.86D-06 MaxDP=3.24D-04 DE= 6.04D-04 OVMax= 5.69D-04

 Cycle  11  Pass 1  IDiag  1:
 RMSU=  2.05D-04    CP:  9.99D-01
 E= -3286.51207247383     Delta-E=       -0.000035796376 Rises=F Damp=F
 DIIS: error= 1.42D-05 at cycle   2 NSaved=   2.
 NSaved= 2 IEnMin= 2 EnMin= -3286.51207247383     IErMin= 2 ErrMin= 1.42D-05
 ErrMax= 1.42D-05  0.00D+00 EMaxC= 1.00D-01 BMatC= 1.38D-06 BMatP= 1.62D-04
 IDIUse=1 WtCom= 1.00D+00 WtEn= 0.00D+00
 Coeff-Com: -0.245D-01 0.102D+01
 Coeff:     -0.245D-01 0.102D+01
 Gap=     0.244 Goal=   None    Shift=    0.000
 Gap=     0.244 Goal=   None    Shift=    0.000
 RMSDP=1.03D-05 MaxDP=5.45D-04 DE=-3.58D-05 OVMax= 3.29D-04

 Cycle  12  Pass 1  IDiag  1:
 RMSU=  3.11D-06    CP:  9.99D-01  1.05D+00
 E= -3286.51207230977     Delta-E=        0.000000164062 Rises=F Damp=F
 DIIS: error= 2.44D-05 at cycle   3 NSaved=   3.
 NSaved= 3 IEnMin= 2 EnMin= -3286.51207247383     IErMin= 2 ErrMin= 1.42D-05
 ErrMax= 2.44D-05  0.00D+00 EMaxC= 1.00D-01 BMatC= 2.76D-06 BMatP= 1.38D-06
 IDIUse=1 WtCom= 1.00D+00 WtEn= 0.00D+00
 Coeff-Com: -0.225D-01 0.618D+00 0.405D+00
 Coeff:     -0.225D-01 0.618D+00 0.405D+00
 Gap=     0.244 Goal=   None    Shift=    0.000
 Gap=     0.244 Goal=   None    Shift=    0.000
 RMSDP=1.21D-06 MaxDP=9.62D-05 DE= 1.64D-07 OVMax= 1.63D-04

 Cycle  13  Pass 1  IDiag  1:
 RMSU=  1.03D-06    CP:  9.99D-01  1.05D+00  8.25D-01
 E= -3286.51207284073     Delta-E=       -0.000000530967 Rises=F Damp=F
 DIIS: error= 1.54D-06 at cycle   4 NSaved=   4.
 NSaved= 4 IEnMin= 4 EnMin= -3286.51207284073     IErMin= 4 ErrMin= 1.54D-06
 ErrMax= 1.54D-06  0.00D+00 EMaxC= 1.00D-01 BMatC= 2.48D-08 BMatP= 1.38D-06
 IDIUse=1 WtCom= 1.00D+00 WtEn= 0.00D+00
 Coeff-Com: -0.637D-02 0.159D+00 0.126D+00 0.721D+00
 Coeff:     -0.637D-02 0.159D+00 0.126D+00 0.721D+00
 Gap=     0.244 Goal=   None    Shift=    0.000
 Gap=     0.244 Goal=   None    Shift=    0.000
 RMSDP=2.57D-07 MaxDP=1.27D-05 DE=-5.31D-07 OVMax= 3.80D-05

 Cycle  14  Pass 1  IDiag  1:
 RMSU=  1.87D-07    CP:  9.99D-01  1.05D+00  8.61D-01  1.04D+00
 E= -3286.51207284308     Delta-E=       -0.000000002345 Rises=F Damp=F
 DIIS: error= 7.86D-07 at cycle   5 NSaved=   5.
 NSaved= 5 IEnMin= 5 EnMin= -3286.51207284308     IErMin= 5 ErrMin= 7.86D-07
 ErrMax= 7.86D-07  0.00D+00 EMaxC= 1.00D-01 BMatC= 8.47D-09 BMatP= 2.48D-08
 IDIUse=1 WtCom= 1.00D+00 WtEn= 0.00D+00
 Coeff-Com:  0.138D-02-0.461D-01-0.224D-01 0.357D+00 0.710D+00
 Coeff:      0.138D-02-0.461D-01-0.224D-01 0.357D+00 0.710D+00
 Gap=     0.244 Goal=   None    Shift=    0.000
 Gap=     0.244 Goal=   None    Shift=    0.000
 RMSDP=1.46D-07 MaxDP=7.25D-06 DE=-2.34D-09 OVMax= 2.77D-05

 Cycle  15  Pass 1  IDiag  1:
 RMSU=  1.06D-07    CP:  9.99D-01  1.05D+00  8.79D-01  1.10D+00  9.88D-01
 E= -3286.51207285159     Delta-E=       -0.000000008513 Rises=F Damp=F
 DIIS: error= 3.93D-07 at cycle   6 NSaved=   6.
 NSaved= 6 IEnMin= 6 EnMin= -3286.51207285159     IErMin= 6 ErrMin= 3.93D-07
 ErrMax= 3.93D-07  0.00D+00 EMaxC= 1.00D-01 BMatC= 1.54D-09 BMatP= 8.47D-09
 IDIUse=1 WtCom= 1.00D+00 WtEn= 0.00D+00
 Coeff-Com:  0.136D-02-0.395D-01-0.256D-01 0.958D-01 0.367D+00 0.601D+00
 Coeff:      0.136D-02-0.395D-01-0.256D-01 0.958D-01 0.367D+00 0.601D+00
 Gap=     0.244 Goal=   None    Shift=    0.000
 Gap=     0.244 Goal=   None    Shift=    0.000
 RMSDP=4.96D-08 MaxDP=2.35D-06 DE=-8.51D-09 OVMax= 1.32D-05

 Cycle  16  Pass 1  IDiag  1:
 RMSU=  3.80D-08    CP:  9.99D-01  1.05D+00  8.82D-01  1.11D+00  1.14D+00
                    CP:  1.07D+00
 E= -3286.51207284717     Delta-E=        0.000000004422 Rises=F Damp=F
 DIIS: error= 1.28D-07 at cycle   7 NSaved=   7.
 NSaved= 7 IEnMin= 6 EnMin= -3286.51207285159     IErMin= 7 ErrMin= 1.28D-07
 ErrMax= 1.28D-07  0.00D+00 EMaxC= 1.00D-01 BMatC= 2.78D-10 BMatP= 1.54D-09
 IDIUse=1 WtCom= 1.00D+00 WtEn= 0.00D+00
 Coeff-Com:  0.222D-03-0.468D-02-0.632D-02-0.682D-01-0.369D-01 0.283D+00
 Coeff-Com:  0.833D+00
 Coeff:      0.222D-03-0.468D-02-0.632D-02-0.682D-01-0.369D-01 0.283D+00
 Coeff:      0.833D+00
 Gap=     0.244 Goal=   None    Shift=    0.000
 Gap=     0.244 Goal=   None    Shift=    0.000
 RMSDP=3.35D-08 MaxDP=2.10D-06 DE= 4.42D-09 OVMax= 8.94D-06

 Cycle  17  Pass 1  IDiag  1:
 RMSU=  1.49D-08    CP:  9.99D-01  1.05D+00  8.83D-01  1.11D+00  1.21D+00
                    CP:  1.31D+00  1.03D+00
 E= -3286.51207284751     Delta-E=       -0.000000000337 Rises=F Damp=F
 DIIS: error= 8.42D-08 at cycle   8 NSaved=   8.
 NSaved= 8 IEnMin= 6 EnMin= -3286.51207285159     IErMin= 8 ErrMin= 8.42D-08
 ErrMax= 8.42D-08  0.00D+00 EMaxC= 1.00D-01 BMatC= 6.17D-11 BMatP= 2.78D-10
 IDIUse=1 WtCom= 1.00D+00 WtEn= 0.00D+00
 Coeff-Com: -0.133D-03 0.483D-02 0.108D-02-0.564D-01-0.869D-01 0.488D-01
 Coeff-Com:  0.464D+00 0.625D+00
 Coeff:     -0.133D-03 0.483D-02 0.108D-02-0.564D-01-0.869D-01 0.488D-01
 Coeff:      0.464D+00 0.625D+00
 Gap=     0.244 Goal=   None    Shift=    0.000
 Gap=     0.244 Goal=   None    Shift=    0.000
 RMSDP=1.14D-08 MaxDP=7.04D-07 DE=-3.37D-10 OVMax= 3.30D-06

 Cycle  18  Pass 1  IDiag  1:
 RMSU=  6.13D-09    CP:  9.99D-01  1.05D+00  8.82D-01  1.11D+00  1.24D+00
                    CP:  1.37D+00  1.15D+00  9.44D-01
 E= -3286.51207284723     Delta-E=        0.000000000278 Rises=F Damp=F
 DIIS: error= 2.45D-08 at cycle   9 NSaved=   9.
 NSaved= 9 IEnMin= 6 EnMin= -3286.51207285159     IErMin= 9 ErrMin= 2.45D-08
 ErrMax= 2.45D-08  0.00D+00 EMaxC= 1.00D-01 BMatC= 2.65D-12 BMatP= 6.17D-11
 IDIUse=1 WtCom= 1.00D+00 WtEn= 0.00D+00
 Coeff-Com: -0.683D-04 0.234D-02 0.781D-03-0.214D-01-0.361D-01 0.948D-02
 Coeff-Com:  0.170D+00 0.277D+00 0.598D+00
 Coeff:     -0.683D-04 0.234D-02 0.781D-03-0.214D-01-0.361D-01 0.948D-02
 Coeff:      0.170D+00 0.277D+00 0.598D+00
 Gap=     0.244 Goal=   None    Shift=    0.000
 Gap=     0.244 Goal=   None    Shift=    0.000
 RMSDP=2.01D-09 MaxDP=1.37D-07 DE= 2.78D-10 OVMax= 3.57D-07

 SCF Done:  E(ULC-wPBE) =  -3286.51207285     A.U. after   18 cycles
            NFock= 18  Conv=0.20D-08     -V/T= 2.0040
 <Sx>= 0.0000 <Sy>= 0.0000 <Sz>= 0.0000 <S**2>=-0.0000 S=-0.0000
 <L.S>= 0.000000000000E+00
 KE= 3.273329019234D+03 PE=-1.873455390677D+04 EE= 6.679534842631D+03
 Annihilation of the first spin contaminant:
 S**2 before annihilation    -0.0000,   after    -0.0000
 Leave Link  502 at Fri Jul 24 14:54:07 2020, MaxMem=  4026531840 cpu:            6122.2 elap:             783.7
 (Enter /opt/ohpc/pub/libs/gaussian/g16-A.03/sandybridge/g16/l601.exe)
 Copying SCF densities to generalized density rwf, IOpCl= 1 IROHF=0.

 **********************************************************************

            Population analysis using the SCF density.

 **********************************************************************

 Orbital symmetries:
 Alpha Orbitals:
       Occupied  (A) (A) (A) (A) (A) (A) (A) (A) (A) (A) (A) (A)
                 (A) (A) (A) (A) (A) (A) (A) (A) (A) (A) (A) (A)
                 (A) (A) (A) (A) (A) (A) (A) (A) (A) (A) (A) (A)
                 (A) (A) (A) (A) (A) (A) (A) (A) (A) (A) (A) (A)
                 (A) (A) (A) (A) (A) (A) (A) (A) (A) (A) (A) (A)
                 (A) (A) (A) (A) (A) (A) (A) (A) (A) (A) (A) (A)
                 (A) (A) (A) (A) (A) (A) (A) (A) (A) (A) (A) (A)
                 (A) (A) (A) (A) (A) (A) (A) (A) (A) (A) (A) (A)
                 (A) (A) (A) (A) (A) (A) (A) (A) (A) (A) (A) (A)
                 (A) (A) (A) (A) (A) (A) (A) (A) (A) (A) (A) (A)
                 (A) (A) (A) (A) (A) (A) (A) (A) (A) (A) (A) (A)
                 (A) (A) (A) (A) (A) (A) (A) (A) (A) (A) (A) (A)
                 (A) (A) (A) (A) (A) (A) (A) (A) (A) (A) (A) (A)
                 (A) (A) (A) (A) (A) (A) (A) (A) (A) (A) (A) (A)
                 (A) (A) (A) (A)
       Virtual   (A) (A) (A) (A) (A) (A) (A) (A) (A) (A) (A) (A)
                 (A) (A) (A) (A) (A) (A) (A) (A) (A) (A) (A) (A)
                 (A) (A) (A) (A) (A) (A) (A) (A) (A) (A) (A) (A)
                 (A) (A) (A) (A) (A) (A) (A) (A) (A) (A) (A) (A)
                 (A) (A) (A) (A) (A) (A) (A) (A) (A) (A) (A) (A)
                 (A) (A) (A) (A) (A) (A) (A) (A) (A) (A) (A) (A)
                 (A) (A) (A) (A) (A) (A) (A) (A) (A) (A) (A) (A)
                 (A) (A) (A) (A) (A) (A) (A) (A) (A) (A) (A) (A)
                 (A) (A) (A) (A) (A) (A) (A) (A) (A) (A) (A) (A)
                 (A) (A) (A) (A) (A) (A) (A) (A) (A) (A) (A) (A)
                 (A) (A) (A) (A) (A) (A) (A) (A) (A) (A) (A) (A)
                 (A) (A) (A) (A) (A) (A) (A) (A) (A) (A) (A) (A)
                 (A) (A) (A) (A) (A) (A) (A) (A) (A) (A) (A) (A)
                 (A) (A) (A) (A) (A) (A) (A) (A) (A) (A) (A) (A)
                 (A) (A) (A) (A) (A) (A) (A) (A) (A) (A) (A) (A)
                 (A) (A) (A) (A) (A) (A) (A) (A) (A) (A) (A) (A)
                 (A) (A) (A) (A) (A) (A) (A) (A) (A) (A) (A) (A)
                 (A) (A) (A) (A) (A) (A) (A) (A) (A) (A) (A) (A)
                 (A) (A) (A) (A) (A) (A) (A) (A) (A) (A) (A) (A)
                 (A) (A) (A) (A) (A) (A) (A) (A) (A) (A) (A) (A)
                 (A) (A) (A) (A) (A) (A) (A) (A) (A) (A) (A) (A)
                 (A) (A) (A) (A) (A) (A) (A) (A) (A) (A) (A) (A)
                 (A) (A) (A) (A) (A) (A) (A) (A) (A) (A) (A) (A)
                 (A) (A) (A) (A) (A) (A) (A) (A) (A) (A) (A) (A)
                 (A) (A) (A) (A) (A) (A) (A) (A) (A) (A) (A) (A)
                 (A) (A) (A) (A) (A) (A) (A) (A) (A) (A) (A) (A)
                 (A) (A) (A) (A) (A) (A) (A) (A) (A) (A) (A) (A)
                 (A) (A) (A) (A) (A) (A) (A) (A) (A) (A) (A) (A)
                 (A) (A) (A) (A) (A) (A) (A) (A) (A) (A) (A) (A)
                 (A) (A) (A) (A) (A) (A) (A) (A) (A) (A) (A) (A)
                 (A) (A) (A) (A) (A) (A) (A) (A) (A) (A) (A) (A)
                 (A) (A) (A) (A) (A) (A) (A) (A) (A) (A) (A) (A)
                 (A) (A) (A) (A) (A) (A) (A) (A) (A) (A) (A) (A)
                 (A) (A) (A) (A) (A) (A) (A) (A) (A) (A) (A) (A)
                 (A) (A) (A) (A) (A) (A) (A) (A) (A) (A) (A) (A)
                 (A) (A) (A) (A) (A) (A) (A) (A) (A) (A) (A) (A)
                 (A) (A) (A) (A) (A) (A) (A) (A) (A) (A) (A) (A)
                 (A) (A) (A) (A) (A) (A) (A) (A) (A) (A) (A) (A)
                 (A) (A) (A) (A) (A) (A) (A) (A) (A) (A) (A) (A)
                 (A) (A) (A) (A) (A) (A) (A) (A) (A) (A) (A) (A)
                 (A) (A) (A) (A) (A) (A) (A) (A) (A) (A) (A) (A)
                 (A) (A) (A) (A) (A) (A) (A) (A) (A) (A) (A) (A)
                 (A) (A) (A) (A) (A) (A) (A) (A) (A) (A) (A) (A)
                 (A) (A) (A) (A) (A) (A) (A) (A) (A) (A) (A) (A)
                 (A) (A) (A) (A) (A) (A) (A) (A) (A) (A) (A) (A)
                 (A) (A) (A) (A) (A) (A) (A) (A) (A) (A) (A) (A)
                 (A) (A) (A) (A) (A) (A) (A) (A) (A) (A) (A) (A)
                 (A) (A) (A) (A) (A) (A)
 Beta  Orbitals:
       Occupied  (A) (A) (A) (A) (A) (A) (A) (A) (A) (A) (A) (A)
                 (A) (A) (A) (A) (A) (A) (A) (A) (A) (A) (A) (A)
                 (A) (A) (A) (A) (A) (A) (A) (A) (A) (A) (A) (A)
                 (A) (A) (A) (A) (A) (A) (A) (A) (A) (A) (A) (A)
                 (A) (A) (A) (A) (A) (A) (A) (A) (A) (A) (A) (A)
                 (A) (A) (A) (A) (A) (A) (A) (A) (A) (A) (A) (A)
                 (A) (A) (A) (A) (A) (A) (A) (A) (A) (A) (A) (A)
                 (A) (A) (A) (A) (A) (A) (A) (A) (A) (A) (A) (A)
                 (A) (A) (A) (A) (A) (A) (A) (A) (A) (A) (A) (A)
                 (A) (A) (A) (A) (A) (A) (A) (A) (A) (A) (A) (A)
                 (A) (A) (A) (A) (A) (A) (A) (A) (A) (A) (A) (A)
                 (A) (A) (A) (A) (A) (A) (A) (A) (A) (A) (A) (A)
                 (A) (A) (A) (A) (A) (A) (A) (A) (A) (A) (A) (A)
                 (A) (A) (A) (A) (A) (A) (A) (A) (A) (A) (A) (A)
                 (A) (A) (A) (A)
       Virtual   (A) (A) (A) (A) (A) (A) (A) (A) (A) (A) (A) (A)
                 (A) (A) (A) (A) (A) (A) (A) (A) (A) (A) (A) (A)
                 (A) (A) (A) (A) (A) (A) (A) (A) (A) (A) (A) (A)
                 (A) (A) (A) (A) (A) (A) (A) (A) (A) (A) (A) (A)
                 (A) (A) (A) (A) (A) (A) (A) (A) (A) (A) (A) (A)
                 (A) (A) (A) (A) (A) (A) (A) (A) (A) (A) (A) (A)
                 (A) (A) (A) (A) (A) (A) (A) (A) (A) (A) (A) (A)
                 (A) (A) (A) (A) (A) (A) (A) (A) (A) (A) (A) (A)
                 (A) (A) (A) (A) (A) (A) (A) (A) (A) (A) (A) (A)
                 (A) (A) (A) (A) (A) (A) (A) (A) (A) (A) (A) (A)
                 (A) (A) (A) (A) (A) (A) (A) (A) (A) (A) (A) (A)
                 (A) (A) (A) (A) (A) (A) (A) (A) (A) (A) (A) (A)
                 (A) (A) (A) (A) (A) (A) (A) (A) (A) (A) (A) (A)
                 (A) (A) (A) (A) (A) (A) (A) (A) (A) (A) (A) (A)
                 (A) (A) (A) (A) (A) (A) (A) (A) (A) (A) (A) (A)
                 (A) (A) (A) (A) (A) (A) (A) (A) (A) (A) (A) (A)
                 (A) (A) (A) (A) (A) (A) (A) (A) (A) (A) (A) (A)
                 (A) (A) (A) (A) (A) (A) (A) (A) (A) (A) (A) (A)
                 (A) (A) (A) (A) (A) (A) (A) (A) (A) (A) (A) (A)
                 (A) (A) (A) (A) (A) (A) (A) (A) (A) (A) (A) (A)
                 (A) (A) (A) (A) (A) (A) (A) (A) (A) (A) (A) (A)
                 (A) (A) (A) (A) (A) (A) (A) (A) (A) (A) (A) (A)
                 (A) (A) (A) (A) (A) (A) (A) (A) (A) (A) (A) (A)
                 (A) (A) (A) (A) (A) (A) (A) (A) (A) (A) (A) (A)
                 (A) (A) (A) (A) (A) (A) (A) (A) (A) (A) (A) (A)
                 (A) (A) (A) (A) (A) (A) (A) (A) (A) (A) (A) (A)
                 (A) (A) (A) (A) (A) (A) (A) (A) (A) (A) (A) (A)
                 (A) (A) (A) (A) (A) (A) (A) (A) (A) (A) (A) (A)
                 (A) (A) (A) (A) (A) (A) (A) (A) (A) (A) (A) (A)
                 (A) (A) (A) (A) (A) (A) (A) (A) (A) (A) (A) (A)
                 (A) (A) (A) (A) (A) (A) (A) (A) (A) (A) (A) (A)
                 (A) (A) (A) (A) (A) (A) (A) (A) (A) (A) (A) (A)
                 (A) (A) (A) (A) (A) (A) (A) (A) (A) (A) (A) (A)
                 (A) (A) (A) (A) (A) (A) (A) (A) (A) (A) (A) (A)
                 (A) (A) (A) (A) (A) (A) (A) (A) (A) (A) (A) (A)
                 (A) (A) (A) (A) (A) (A) (A) (A) (A) (A) (A) (A)
                 (A) (A) (A) (A) (A) (A) (A) (A) (A) (A) (A) (A)
                 (A) (A) (A) (A) (A) (A) (A) (A) (A) (A) (A) (A)
                 (A) (A) (A) (A) (A) (A) (A) (A) (A) (A) (A) (A)
                 (A) (A) (A) (A) (A) (A) (A) (A) (A) (A) (A) (A)
                 (A) (A) (A) (A) (A) (A) (A) (A) (A) (A) (A) (A)
                 (A) (A) (A) (A) (A) (A) (A) (A) (A) (A) (A) (A)
                 (A) (A) (A) (A) (A) (A) (A) (A) (A) (A) (A) (A)
                 (A) (A) (A) (A) (A) (A) (A) (A) (A) (A) (A) (A)
                 (A) (A) (A) (A) (A) (A) (A) (A) (A) (A) (A) (A)
                 (A) (A) (A) (A) (A) (A) (A) (A) (A) (A) (A) (A)
                 (A) (A) (A) (A) (A) (A) (A) (A) (A) (A) (A) (A)
                 (A) (A) (A) (A) (A) (A)
 The electronic state is 1-A.
 Alpha  occ. eigenvalues --  -88.19038 -88.18781 -88.18748 -24.39300 -24.38581
 Alpha  occ. eigenvalues --  -24.38126 -24.37940 -24.37442 -24.37393 -18.89551
 Alpha  occ. eigenvalues --  -18.88677 -18.88286 -10.08114 -10.07845 -10.07661
 Alpha  occ. eigenvalues --  -10.07431 -10.07164 -10.06746 -10.05422 -10.05297
 Alpha  occ. eigenvalues --  -10.04231 -10.03963 -10.03937 -10.03056 -10.02187
 Alpha  occ. eigenvalues --  -10.01929 -10.01701 -10.01684 -10.01589 -10.01332
 Alpha  occ. eigenvalues --  -10.01211 -10.01209 -10.01116 -10.00817 -10.00331
 Alpha  occ. eigenvalues --   -9.99801  -9.99730  -9.99729  -9.99710  -9.99671
 Alpha  occ. eigenvalues --   -9.99556  -9.99472  -9.99443  -9.99108  -9.98831
 Alpha  occ. eigenvalues --   -7.79530  -7.79392  -7.79227  -5.81554  -5.81410
 Alpha  occ. eigenvalues --   -5.81261  -5.81088  -5.80919  -5.80808  -5.80752
 Alpha  occ. eigenvalues --   -5.80614  -5.80423  -1.24794  -1.23370  -1.21919
 Alpha  occ. eigenvalues --   -1.21568  -1.21306  -1.21038  -1.08969  -1.06127
 Alpha  occ. eigenvalues --   -1.05056  -0.92761  -0.91928  -0.90725  -0.89370
 Alpha  occ. eigenvalues --   -0.88936  -0.88343  -0.83155  -0.81752  -0.80309
 Alpha  occ. eigenvalues --   -0.78250  -0.77868  -0.77405  -0.77296  -0.76935
 Alpha  occ. eigenvalues --   -0.76661  -0.76163  -0.74809  -0.73864  -0.71752
 Alpha  occ. eigenvalues --   -0.71671  -0.70113  -0.67731  -0.66363  -0.66094
 Alpha  occ. eigenvalues --   -0.66026  -0.65450  -0.64191  -0.61479  -0.61304
 Alpha  occ. eigenvalues --   -0.60910  -0.60304  -0.59640  -0.58903  -0.58823
 Alpha  occ. eigenvalues --   -0.57818  -0.57526  -0.56881  -0.56609  -0.56308
 Alpha  occ. eigenvalues --   -0.55370  -0.55310  -0.55112  -0.53395  -0.52968
 Alpha  occ. eigenvalues --   -0.52428  -0.52005  -0.51764  -0.51533  -0.51055
 Alpha  occ. eigenvalues --   -0.50934  -0.50841  -0.50380  -0.50145  -0.49896
 Alpha  occ. eigenvalues --   -0.49541  -0.49205  -0.49070  -0.48959  -0.48226
 Alpha  occ. eigenvalues --   -0.48112  -0.47867  -0.47381  -0.47181  -0.46879
 Alpha  occ. eigenvalues --   -0.45977  -0.45459  -0.45104  -0.44720  -0.44615
 Alpha  occ. eigenvalues --   -0.44485  -0.44097  -0.43610  -0.43370  -0.43080
 Alpha  occ. eigenvalues --   -0.42278  -0.42086  -0.40630  -0.40595  -0.40465
 Alpha  occ. eigenvalues --   -0.40301  -0.40039  -0.39842  -0.39774  -0.39657
 Alpha  occ. eigenvalues --   -0.38995  -0.38672  -0.38605  -0.38140  -0.37776
 Alpha  occ. eigenvalues --   -0.37114  -0.36895  -0.36663  -0.36456  -0.35640
 Alpha  occ. eigenvalues --   -0.32392  -0.32133  -0.31770  -0.29508  -0.29340
 Alpha  occ. eigenvalues --   -0.29285  -0.29245  -0.28733  -0.28072  -0.26793
 Alpha  occ. eigenvalues --   -0.26076  -0.25142
 Alpha virt. eigenvalues --   -0.00768   0.00995   0.02646   0.03246   0.03596
 Alpha virt. eigenvalues --    0.03944   0.04042   0.04744   0.05235   0.07375
 Alpha virt. eigenvalues --    0.08554   0.09247   0.10321   0.10578   0.10934
[...]
     2 C(13)  Bbb    -0.0000    -0.000    -0.000    -0.000  0.0201  0.9385  0.3447
              Bcc     0.0000     0.000     0.000     0.000 -0.4378 -0.3017  0.8469
 
              Baa    -0.0000    -0.000    -0.000    -0.000 -0.4762 -0.4828  0.7349
     3 C(13)  Bbb    -0.0000    -0.000    -0.000    -0.000  0.2230  0.7422  0.6320
              Bcc     0.0000     0.000     0.000     0.000  0.8506 -0.4648  0.2457
 
              Baa    -0.0000    -0.000    -0.000    -0.000 -0.3085  0.1431  0.9404
     4 F(19)  Bbb     0.0000     0.000     0.000     0.000  0.3125  0.9490 -0.0420
              Bcc     0.0000     0.000     0.000     0.000  0.8984 -0.2809  0.3375
 
              Baa    -0.0000    -0.000    -0.000    -0.000  0.9896  0.0424  0.1372
     5 C(13)  Bbb     0.0000     0.000     0.000     0.000 -0.1234  0.7400  0.6612
              Bcc     0.0000     0.000     0.000     0.000 -0.0735 -0.6713  0.7376
 
              Baa    -0.0000    -0.000    -0.000    -0.000 -0.3060  0.1283  0.9434
     6 C(13)  Bbb     0.0000     0.000     0.000     0.000  0.6811  0.7219  0.1227
              Bcc     0.0000     0.000     0.000     0.000 -0.6652  0.6801 -0.3083
 
              Baa    -0.0000    -0.000    -0.000    -0.000  0.7857 -0.5139 -0.3443
     7 F(19)  Bbb    -0.0000    -0.000    -0.000    -0.000  0.6000  0.4978  0.6263
              Bcc     0.0000     0.000     0.000     0.000 -0.1505 -0.6986  0.6995
 
              Baa    -0.0000    -0.000    -0.000    -0.000  0.9277 -0.1438  0.3446
     8 C(13)  Bbb    -0.0000    -0.000    -0.000    -0.000 -0.1239  0.7519  0.6475
              Bcc     0.0000     0.000     0.000     0.000 -0.3522 -0.6434  0.6797
 
              Baa    -0.0000    -0.000    -0.000    -0.000  0.9033 -0.3934  0.1711
     9 C(13)  Bbb     0.0000     0.000     0.000     0.000  0.2740  0.8359  0.4756
              Bcc     0.0000     0.000     0.000     0.000 -0.3302 -0.3827  0.8629
 
              Baa    -0.0000    -0.000    -0.000    -0.000  0.8799  0.4690 -0.0761
    10 C(13)  Bbb     0.0000     0.000     0.000     0.000 -0.4710  0.8821 -0.0093
              Bcc     0.0000     0.000     0.000     0.000  0.0628  0.0440  0.9971
 
              Baa    -0.0000     0.000     0.000     0.000  0.5357  0.8424 -0.0580
    11 O(17)  Bbb     0.0000    -0.000    -0.000    -0.000 -0.2058  0.1969  0.9586
              Bcc     0.0000    -0.000    -0.000    -0.000  0.8189 -0.5016  0.2789
 
              Baa    -0.0000    -0.000    -0.000    -0.000  0.3102 -0.1516  0.9385
    12 C(13)  Bbb     0.0000     0.000     0.000     0.000 -0.3832  0.8835  0.2693
              Bcc     0.0000     0.000     0.000     0.000  0.8700  0.4432 -0.2160
 
              Baa    -0.0000    -0.000    -0.000    -0.000 -0.0275  0.1319  0.9909
    13 C(13)  Bbb    -0.0000    -0.000    -0.000    -0.000  0.8261 -0.5552  0.0968
              Bcc     0.0000     0.000     0.000     0.000  0.5629  0.8212 -0.0937
 
              Baa    -0.0000    -0.000    -0.000    -0.000  0.9921  0.0419 -0.1179
    14 C(13)  Bbb    -0.0000    -0.000    -0.000    -0.000  0.1210 -0.5605  0.8193
              Bcc     0.0000     0.000     0.000     0.000  0.0318  0.8271  0.5611
 
              Baa    -0.0000    -0.000    -0.000    -0.000  0.6882  0.7255 -0.0031
    15 S(33)  Bbb     0.0000     0.000     0.000     0.000  0.1867 -0.1729  0.9671
              Bcc     0.0000     0.000     0.000     0.000  0.7011 -0.6661 -0.2545
 
              Baa    -0.0000    -0.000    -0.000    -0.000  0.1471  0.9394 -0.3096
    16 C(13)  Bbb    -0.0000    -0.000    -0.000    -0.000  0.8847  0.0150  0.4659
              Bcc     0.0000     0.000     0.000     0.000 -0.4423  0.3424  0.8289
 
              Baa    -0.0000    -0.000    -0.000    -0.000 -0.1387 -0.0783  0.9872
    17 C(13)  Bbb    -0.0000    -0.000    -0.000    -0.000  0.9842 -0.1214  0.1286
              Bcc     0.0000     0.000     0.000     0.000  0.1098  0.9895  0.0940
 
              Baa    -0.0000    -0.000    -0.000    -0.000 -0.2375 -0.3498  0.9062
    18 C(13)  Bbb    -0.0000    -0.000    -0.000    -0.000  0.0945  0.9202  0.3799
              Bcc     0.0000     0.000     0.000     0.000  0.9668 -0.1759  0.1855
 
              Baa    -0.0000    -0.000    -0.000    -0.000  0.7050  0.1068 -0.7012
    19 F(19)  Bbb    -0.0000    -0.000    -0.000    -0.000  0.1211  0.9559  0.2674
              Bcc     0.0000     0.000     0.000     0.000  0.6988 -0.2734  0.6609
 
              Baa    -0.0000    -0.000    -0.000    -0.000  0.3614 -0.6288  0.6885
    20 C(13)  Bbb    -0.0000    -0.000    -0.000    -0.000  0.0767  0.7559  0.6502
              Bcc     0.0000     0.000     0.000     0.000  0.9293  0.1821 -0.3214
 
              Baa    -0.0000    -0.000    -0.000    -0.000  0.5397  0.7912  0.2876
    21 C(13)  Bbb     0.0000     0.000     0.000     0.000 -0.0535 -0.3088  0.9496
              Bcc     0.0000     0.000     0.000     0.000  0.8401 -0.5279 -0.1244
 
              Baa    -0.0000    -0.000    -0.000    -0.000 -0.5240  0.3934  0.7554
    22 F(19)  Bbb     0.0000     0.000     0.000     0.000  0.7104 -0.2874  0.6425
              Bcc     0.0000     0.000     0.000     0.000  0.4699  0.8733 -0.1289
 
              Baa    -0.0000    -0.000    -0.000    -0.000 -0.1264  0.7760  0.6179
    23 C(13)  Bbb     0.0000     0.000     0.000     0.000 -0.0745 -0.6286  0.7742
              Bcc     0.0000     0.000     0.000     0.000  0.9892  0.0518  0.1373
 
              Baa    -0.0000    -0.000    -0.000    -0.000  0.6731  0.7391  0.0262
    24 C(13)  Bbb    -0.0000    -0.000    -0.000    -0.000  0.0959 -0.1224  0.9878
              Bcc     0.0000     0.000     0.000     0.000  0.7333 -0.6624 -0.1533
 
              Baa    -0.0000    -0.000    -0.000    -0.000  0.2141  0.9406  0.2636
    25 C(13)  Bbb     0.0000     0.000     0.000     0.000  0.9464 -0.1330 -0.2943
              Bcc     0.0000     0.000     0.000     0.000  0.2417 -0.3125  0.9187
 
              Baa    -0.0000     0.000     0.000     0.000  0.1920  0.8824 -0.4295
    26 O(17)  Bbb    -0.0000     0.000     0.000     0.000  0.8724 -0.3539 -0.3372
              Bcc     0.0000    -0.000    -0.000    -0.000  0.4495  0.3099  0.8378
 
              Baa    -0.0000    -0.000    -0.000    -0.000  0.7258  0.6080 -0.3218
    27 C(13)  Bbb     0.0000     0.000     0.000     0.000  0.6032 -0.3376  0.7226
              Bcc     0.0000     0.000     0.000     0.000 -0.3307  0.7185  0.6118
 
              Baa    -0.0000    -0.000    -0.000    -0.000  0.6548  0.7288  0.2000
    28 C(13)  Bbb     0.0000     0.000     0.000     0.000  0.7262 -0.5336 -0.4334
              Bcc     0.0000     0.000     0.000     0.000  0.2092 -0.4290  0.8787
 
              Baa    -0.0000    -0.000    -0.000    -0.000  0.9325 -0.3547  0.0688
    29 C(13)  Bbb    -0.0000    -0.000    -0.000    -0.000  0.3011  0.8682  0.3944
              Bcc     0.0000     0.000     0.000     0.000 -0.1996 -0.3471  0.9164
 
              Baa    -0.0000    -0.000    -0.000    -0.000  0.2583  0.5562  0.7899
    30 S(33)  Bbb    -0.0000    -0.000    -0.000    -0.000  0.0865  0.8010 -0.5924
              Bcc     0.0000     0.000     0.000     0.000  0.9622 -0.2213 -0.1588
 
              Baa    -0.0000    -0.000    -0.000    -0.000 -0.0938  0.2420  0.9657
    31 C(13)  Bbb    -0.0000    -0.000    -0.000    -0.000  0.9956  0.0312  0.0889
              Bcc     0.0000     0.000     0.000     0.000 -0.0086  0.9698 -0.2439
 
              Baa    -0.0000    -0.000    -0.000    -0.000  0.9313  0.3094 -0.1923
    32 C(13)  Bbb    -0.0000    -0.000    -0.000    -0.000 -0.3465  0.9152 -0.2058
              Bcc     0.0000     0.000     0.000     0.000  0.1123  0.2583  0.9595
 
              Baa    -0.0000    -0.000    -0.000    -0.000 -0.3454  0.6202  0.7043
    33 C(13)  Bbb    -0.0000    -0.000    -0.000    -0.000  0.5799 -0.4490  0.6798
              Bcc     0.0000     0.000     0.000     0.000  0.7379  0.6432 -0.2046
 
              Baa    -0.0000    -0.000    -0.000    -0.000  0.1897  0.7405 -0.6447
    34 F(19)  Bbb    -0.0000    -0.000    -0.000    -0.000  0.6322  0.4103  0.6573
              Bcc     0.0000     0.000     0.000     0.000  0.7512 -0.5323 -0.3903
 
              Baa    -0.0000    -0.000    -0.000    -0.000  0.7421  0.6177 -0.2602
    35 C(13)  Bbb    -0.0000    -0.000    -0.000    -0.000 -0.6459  0.7628 -0.0312
              Bcc     0.0000     0.000     0.000     0.000  0.1792  0.1912  0.9650
 
              Baa    -0.0000    -0.000    -0.000    -0.000  0.3430  0.9233 -0.1728
    36 C(13)  Bbb    -0.0000    -0.000    -0.000    -0.000  0.2426  0.0906  0.9659
              Bcc     0.0000     0.000     0.000     0.000  0.9075 -0.3732 -0.1929
 
              Baa    -0.0000    -0.000    -0.000    -0.000  0.9772 -0.1817 -0.1099
    37 F(19)  Bbb     0.0000     0.000     0.000     0.000  0.1973  0.5853  0.7864
              Bcc     0.0000     0.000     0.000     0.000  0.0785  0.7902 -0.6078
 
              Baa    -0.0000    -0.000    -0.000    -0.000  0.8400  0.4651 -0.2794
    38 C(13)  Bbb    -0.0000    -0.000    -0.000    -0.000  0.1831  0.2417  0.9529
              Bcc     0.0000     0.000     0.000     0.000 -0.5107  0.8516 -0.1179
 
              Baa    -0.0000    -0.000    -0.000    -0.000  0.2133  0.8673  0.4498
    39 C(13)  Bbb    -0.0000    -0.000    -0.000    -0.000  0.2501 -0.4935  0.8330
              Bcc     0.0000     0.000     0.000     0.000  0.9444 -0.0651 -0.3222
 
              Baa    -0.0000    -0.000    -0.000    -0.000  0.6462 -0.5912 -0.4825
    40 C(13)  Bbb     0.0000     0.000     0.000     0.000  0.7223  0.6780  0.1366
              Bcc     0.0000     0.000     0.000     0.000  0.2463 -0.4368  0.8652
 
              Baa    -0.0000     0.000     0.000     0.000 -0.1027  0.7599  0.6418
    41 O(17)  Bbb    -0.0000     0.000     0.000     0.000 -0.2866 -0.6405  0.7125
              Bcc     0.0000    -0.000    -0.000    -0.000  0.9525 -0.1108  0.2836
 
              Baa    -0.0000    -0.000    -0.000    -0.000  0.7630  0.1764 -0.6219
    42 C(13)  Bbb    -0.0000    -0.000    -0.000    -0.000 -0.2004  0.9792  0.0320
              Bcc     0.0000     0.000     0.000     0.000  0.6146  0.1002  0.7824
 
              Baa    -0.0000    -0.000    -0.000    -0.000 -0.2540 -0.3983  0.8814
    43 C(13)  Bbb     0.0000     0.000     0.000     0.000 -0.6139  0.7705  0.1713
              Bcc     0.0000     0.000     0.000     0.000  0.7474  0.4976  0.4402
 
              Baa    -0.0000    -0.000    -0.000    -0.000  0.4251 -0.0643  0.9029
    44 C(13)  Bbb     0.0000     0.000     0.000     0.000  0.7648 -0.5080 -0.3963
              Bcc     0.0000     0.000     0.000     0.000  0.4842  0.8589 -0.1668
 
              Baa    -0.0000    -0.000    -0.000    -0.000  0.5425  0.8310  0.1228
    45 S(33)  Bbb    -0.0000    -0.000    -0.000    -0.000  0.6225 -0.4958  0.6055
              Bcc     0.0000     0.000     0.000     0.000 -0.5641  0.2520  0.7863
 
              Baa    -0.0000    -0.000    -0.000    -0.000  0.2466  0.8045  0.5403
    46 H(1)   Bbb    -0.0000    -0.000    -0.000    -0.000 -0.4307 -0.4084  0.8048
              Bcc     0.0000     0.000     0.000     0.000  0.8682 -0.4312  0.2458
 
              Baa    -0.0000    -0.000    -0.000    -0.000 -0.1820  0.8823  0.4340
    47 H(1)   Bbb    -0.0000    -0.000    -0.000    -0.000  0.6847 -0.2031  0.6999
              Bcc     0.0000     0.000     0.000     0.000  0.7057  0.4246 -0.5672
 
              Baa    -0.0000    -0.000    -0.000    -0.000  0.7788  0.3607 -0.5132
    48 H(1)   Bbb    -0.0000    -0.000    -0.000    -0.000  0.0354  0.7915  0.6101
              Bcc     0.0000     0.000     0.000     0.000  0.6263 -0.4933  0.6037
 
              Baa    -0.0000    -0.000    -0.000    -0.000  0.7719  0.6050 -0.1952
    49 H(1)   Bbb    -0.0000    -0.000    -0.000    -0.000  0.2860 -0.0563  0.9566
              Bcc     0.0000     0.000     0.000     0.000 -0.5677  0.7942  0.2164
 
              Baa    -0.0000    -0.000    -0.000    -0.000  0.9220 -0.2123  0.3238
    50 H(1)   Bbb    -0.0000    -0.000    -0.000    -0.000  0.3163  0.8952 -0.3139
              Bcc     0.0000     0.000     0.000     0.000 -0.2232  0.3918  0.8926
 
              Baa    -0.0000    -0.000    -0.000    -0.000  0.5627 -0.1593  0.8111
    51 H(1)   Bbb     0.0000     0.000     0.000     0.000  0.0793  0.9871  0.1388
              Bcc     0.0000     0.000     0.000     0.000  0.8228  0.0137 -0.5681
 
              Baa    -0.0000    -0.000    -0.000    -0.000  0.3608  0.2023  0.9104
    52 H(1)   Bbb    -0.0000    -0.000    -0.000    -0.000  0.6473  0.6485 -0.4006
              Bcc     0.0000     0.000     0.000     0.000 -0.6714  0.7339  0.1030
 
              Baa    -0.0000    -0.000    -0.000    -0.000 -0.6684 -0.0879  0.7386
    53 H(1)   Bbb    -0.0000    -0.000    -0.000    -0.000  0.2371  0.9160  0.3235
              Bcc     0.0000     0.000     0.000     0.000  0.7050 -0.3914  0.5915
 
              Baa    -0.0000    -0.000    -0.000    -0.000  0.8540 -0.5130  0.0867
    54 H(1)   Bbb     0.0000     0.000     0.000     0.000  0.1285  0.3695  0.9203
              Bcc     0.0000     0.000     0.000     0.000  0.5041  0.7748 -0.3815
 
              Baa    -0.0000    -0.000    -0.000    -0.000  0.8326 -0.1775 -0.5246
    55 H(1)   Bbb     0.0000     0.000     0.000     0.000  0.5531  0.3146  0.7714
              Bcc     0.0000     0.000     0.000     0.000 -0.0281  0.9325 -0.3601
 
              Baa    -0.0000    -0.000    -0.000    -0.000 -0.4378  0.3387  0.8328
    56 H(1)   Bbb     0.0000     0.000     0.000     0.000  0.6453  0.7634  0.0288
              Bcc     0.0000     0.000     0.000     0.000  0.6261 -0.5500  0.5528
 
              Baa    -0.0000    -0.000    -0.000    -0.000 -0.3062 -0.4668  0.8297
    57 H(1)   Bbb    -0.0000    -0.000    -0.000    -0.000 -0.3102  0.8729  0.3766
              Bcc     0.0000     0.000     0.000     0.000  0.9000  0.1420  0.4121
 
              Baa    -0.0000    -0.000    -0.000    -0.000  0.3349  0.8845  0.3249
    58 H(1)   Bbb     0.0000     0.000     0.000     0.000  0.6467 -0.4666  0.6034
              Bcc     0.0000     0.000     0.000     0.000 -0.6853 -0.0080  0.7282
 
              Baa    -0.0000    -0.000    -0.000    -0.000  0.0869  0.2419  0.9664
    59 H(1)   Bbb    -0.0000    -0.000    -0.000    -0.000  0.9682  0.2080 -0.1391
              Bcc     0.0000     0.000     0.000     0.000 -0.2347  0.9477 -0.2161
 
              Baa    -0.0000    -0.000    -0.000    -0.000  0.1677  0.2232  0.9602
    60 H(1)   Bbb    -0.0000    -0.000    -0.000    -0.000 -0.3988  0.9061 -0.1409
              Bcc     0.0000     0.000     0.000     0.000  0.9015  0.3594 -0.2410
 
              Baa    -0.0000    -0.000    -0.000    -0.000  0.8376  0.5282  0.1394
    61 H(1)   Bbb    -0.0000    -0.000    -0.000    -0.000  0.0528 -0.3323  0.9417
              Bcc     0.0000     0.000     0.000     0.000 -0.5438  0.7814  0.3063
 
              Baa    -0.0000    -0.000    -0.000    -0.000  0.4979  0.1970  0.8445
    62 H(1)   Bbb    -0.0000    -0.000    -0.000    -0.000  0.7750  0.3359 -0.5353
              Bcc     0.0000     0.000     0.000     0.000 -0.3891  0.9211  0.0145
 
              Baa    -0.0000    -0.000    -0.000    -0.000  0.3258  0.9356 -0.1360
    63 H(1)   Bbb    -0.0000    -0.000    -0.000    -0.000  0.9422 -0.3095  0.1280
              Bcc     0.0000     0.000     0.000     0.000 -0.0776  0.1699  0.9824
 
              Baa    -0.0000    -0.000    -0.000    -0.000 -0.5211  0.8523  0.0439
    64 H(1)   Bbb     0.0000     0.000     0.000     0.000 -0.4857 -0.3385  0.8059
              Bcc     0.0000     0.000     0.000     0.000  0.7018  0.3987  0.5904
 
              Baa    -0.0000    -0.000    -0.000    -0.000 -0.4803  0.8770 -0.0153
    65 H(1)   Bbb     0.0000     0.000     0.000     0.000  0.7924  0.4413  0.4211
              Bcc     0.0000     0.000     0.000     0.000 -0.3761 -0.1901  0.9069
 

 ---------------------------------------------------------------------------------

 No NMR shielding tensors so no spin-rotation constants.
 Leave Link  601 at Fri Jul 24 19:09:45 2020, MaxMem=  4026531840 cpu:              12.0 elap:               1.6
 (Enter /opt/ohpc/pub/libs/gaussian/g16-A.03/sandybridge/g16/l9999.exe)

 Test job not archived.
 1\1\GINC-SKYLAKE051\FOpt\ULC-wPBE\CC-pVDZ\C33H20F6O3S3\RDU230\24-Jul-2
 020\0\\#P uLC-wPBE/cc-pVDZ iop(3/107=0157500000, 3/108=0157500000) opt
 \\H20 C33 S3 O3 F6\\0,1\C,-11.5977447449,0.8389797806,-0.4716868692\C,
 -11.1950939478,-0.0080823989,0.5668264013\C,-9.8523315512,-0.376333781
 ,0.6569311833\F,-9.4705834766,-1.1621318441,1.6861402027\C,-8.87293756
 1,0.0488733002,-0.2646159779\C,-9.3355136898,0.9077504634,-1.281860213
 6\F,-8.4376004297,1.3654152512,-2.1868484953\C,-10.6648356013,1.309402
 4543,-1.4033688063\C,-7.4700933252,-0.3758972019,-0.1608050619\C,-6.98
 36757048,-1.6688634704,0.0265066754\O,-7.8479004652,-2.7186629835,0.06
 62494545\C,-7.2830139218,-3.9988656482,0.3273562276\C,-5.559914589,-1.
 7299942179,0.1184487647\C,-4.9576584698,-0.4888548067,-0.0099396381\S,
 -6.1476878786,0.760251246,-0.2372503581\C,-3.5222102254,-0.17129607,0.
 02446626\C,-3.0075055119,0.9654441334,-0.6292055272\C,-1.6422461438,1.
 234464617,-0.5827127956\F,-1.1855077559,2.3089259552,-1.2593263212\C,-
 0.7126537183,0.426833501,0.1050807313\C,-1.2697883681,-0.7065420661,0.
 7309895993\F,-0.4373292901,-1.537367118,1.4030997511\C,-2.6256154132,-
 1.015392112,0.7104797249\C,0.718535711,0.7464537783,0.1566189477\C,1.3
 06998501,1.9786550555,0.4401416461\O,0.526645304,3.0396861103,0.779331
 9351\C,1.1928395017,4.2804013984,0.9868074675\C,2.7331568914,1.9534662
 164,0.3737705611\C,3.2361894415,0.7029901518,0.0531779455\S,1.94968590
 89,-0.4461026186,-0.1760319564\C,4.6444536205,0.3047834752,-0.09253221
 06\C,5.6178457536,1.259510807,-0.4477870213\C,6.9501814624,0.876547561
 2,-0.5765684935\F,7.8428959047,1.8139855339,-0.9602753944\C,7.40713445
 26,-0.4398752066,-0.3593351302\C,6.3972425388,-1.3633040485,-0.0234889
 218\F,6.7563947347,-2.6516357576,0.1877578183\C,5.0542993929,-1.027233
 3066,0.1150705968\C,8.8225800876,-0.810172889,-0.4817618268\C,9.922880
 4359,-0.1524753128,0.0650282834\O,9.7368914829,0.9372474018,0.86017372
 74\C,10.9113628682,1.5890526755,1.3289417707\C,11.1739340807,-0.763161
 0091,-0.2736696344\C,11.0075494333,-1.877998481,-1.0650022245\S,9.3480
 157884,-2.2018048078,-1.4001285694\H,-12.6501290104,1.1413207961,-0.55
 28653987\H,-11.8985534804,-0.3820615816,1.3206475528\H,-10.946023966,1
 .9763936438,-2.2272618247\H,-8.1312289993,-4.7046651587,0.3579652659\H
 ,-6.5807213114,-4.3099764565,-0.4759213036\H,-6.7542314524,-4.02164176
 33,1.3043060174\H,-4.986691572,-2.6557274074,0.2319130585\H,-3.6525572
 734,1.6352518929,-1.2118461403\H,-2.9708733999,-1.8978301337,1.2618529
 292\H,1.746209273,4.6046190293,0.0795285802\H,0.4011675838,5.016315846
 3,1.2108673837\H,1.8961561535,4.2305869798,1.8459428321\H,3.3781577606
 ,2.8096967978,0.5956925202\H,5.3497665407,2.2995768901,-0.6682353831\H
 ,4.3449993186,-1.809330597,0.4139339935\H,10.5637138922,2.4509350468,1
 .9249570625\H,11.521597725,0.9228375562,1.9765456509\H,11.5397292895,1
 .9567674484,0.4893787601\H,12.1541055153,-0.4030896898,0.0552151364\H,
 11.7834368992,-2.538712851,-1.4636849212\\Version=EM64L-G16RevA.03\Sta
 te=1-A\HF=-3286.6423136\S2=0.\S2-1=0.\S2A=0.\RMSD=4.805e-09\RMSF=1.878
 e-06\Dipole=0.2503812,0.4201554,0.502704\Quadrupole=30.118194,-3.45148
 48,-26.6667092,15.4101338,5.6141878,3.2097607\PG=C01 [X(C33H20F6O3S3)]
 \\@


 EDUCATION WITHOUT COMMON SENSE IS A LOAD OF BOOKS ON THE BACK OF AN ASS.
 Job cpu time:       1 days 11 hours  8 minutes 44.3 seconds.
 Elapsed time:       0 days  4 hours 28 minutes 56.7 seconds.
 File lengths (MBytes):  RWF=    660 Int=      0 D2E=      0 Chk=     60 Scr=      8
 Normal termination of Gaussian 16 at Fri Jul 24 19:09:46 2020.
