 Entering Gaussian System, Link 0=g16
 Input=mols_66_1_06_c-c-c-cOC_opt_0.gjf
 Output=mols_66_1_06_c-c-c-cOC_opt_0.log
 Initial command:
 /opt/ohpc/pub/libs/gaussian/g16-A.03/sandybridge/g16/l1.exe "/mnt/gpfs2_4m/scratch/rdu230/ondemand/projects/dihedral_energies/7trial/wtuning/mols_66_1_06_c-c-c-cOC/Gau-352122.inp" -scrdir="/mnt/gpfs2_4m/scratch/rdu230/ondemand/projects/dihedral_energies/7trial/wtuning/mols_66_1_06_c-c-c-cOC/"
 Entering Link 1 = /opt/ohpc/pub/libs/gaussian/g16-A.03/sandybridge/g16/l1.exe PID=    352123.
  
 Copyright (c) 1988,1990,1992,1993,1995,1998,2003,2009,2016,
            Gaussian, Inc.  All Rights Reserved.
  
 This is part of the Gaussian(R) 16 program.  It is based on
 the Gaussian(R) 09 system (copyright 2009, Gaussian, Inc.),
 the Gaussian(R) 03 system (copyright 2003, Gaussian, Inc.),
 the Gaussian(R) 98 system (copyright 1998, Gaussian, Inc.),
 the Gaussian(R) 94 system (copyright 1995, Gaussian, Inc.),
 the Gaussian 92(TM) system (copyright 1992, Gaussian, Inc.),
 the Gaussian 90(TM) system (copyright 1990, Gaussian, Inc.),
 the Gaussian 88(TM) system (copyright 1988, Gaussian, Inc.),
 the Gaussian 86(TM) system (copyright 1986, Carnegie Mellon
 University), and the Gaussian 82(TM) system (copyright 1983,
 Carnegie Mellon University). Gaussian is a federally registered
 trademark of Gaussian, Inc.
  
 This software contains proprietary and confidential information,
 including trade secrets, belonging to Gaussian, Inc.
  
 This software is provided under written license and may be
 used, copied, transmitted, or stored only in accord with that
 written license.
  
 The following legend is applicable only to US Government
 contracts under FAR:
  
                    RESTRICTED RIGHTS LEGEND
  
 Use, reproduction and disclosure by the US Government is
 subject to restrictions as set forth in subparagraphs (a)
 and (c) of the Commercial Computer Software - Restricted
 Rights clause in FAR 52.227-19.
  
 Gaussian, Inc.
 340 Quinnipiac St., Bldg. 40, Wallingford CT 06492
  
  
 ---------------------------------------------------------------
 Warning -- This program may not be used in any manner that
 competes with the business of Gaussian, Inc. or will provide
 assistance to any competitor of Gaussian, Inc.  The licensee
 of this program is prohibited from giving any competitor of
 Gaussian, Inc. access to this program.  By using this program,
 the user acknowledges that Gaussian, Inc. is engaged in the
 business of creating and licensing software in the field of
 computational chemistry and represents and warrants to the
 licensee that it is not a competitor of Gaussian, Inc. and that
 it will not use this program in any manner prohibited above.
 ---------------------------------------------------------------
  

 Cite this work as:
 Gaussian 16, Revision A.03,
 M. J. Frisch, G. W. Trucks, H. B. Schlegel, G. E. Scuseria, 
 M. A. Robb, J. R. Cheeseman, G. Scalmani, V. Barone, 
 G. A. Petersson, H. Nakatsuji, X. Li, M. Caricato, A. V. Marenich, 
 J. Bloino, B. G. Janesko, R. Gomperts, B. Mennucci, H. P. Hratchian, 
 J. V. Ortiz, A. F. Izmaylov, J. L. Sonnenberg, D. Williams-Young, 
 F. Ding, F. Lipparini, F. Egidi, J. Goings, B. Peng, A. Petrone, 
 T. Henderson, D. Ranasinghe, V. G. Zakrzewski, J. Gao, N. Rega, 
 G. Zheng, W. Liang, M. Hada, M. Ehara, K. Toyota, R. Fukuda, 
 J. Hasegawa, M. Ishida, T. Nakajima, Y. Honda, O. Kitao, H. Nakai, 
 T. Vreven, K. Throssell, J. A. Montgomery, Jr., J. E. Peralta, 
 F. Ogliaro, M. J. Bearpark, J. J. Heyd, E. N. Brothers, K. N. Kudin, 
 V. N. Staroverov, T. A. Keith, R. Kobayashi, J. Normand, 
 K. Raghavachari, A. P. Rendell, J. C. Burant, S. S. Iyengar, 
 J. Tomasi, M. Cossi, J. M. Millam, M. Klene, C. Adamo, R. Cammi, 
 J. W. Ochterski, R. L. Martin, K. Morokuma, O. Farkas, 
 J. B. Foresman, and D. J. Fox, Gaussian, Inc., Wallingford CT, 2016.
 
 ******************************************
 Gaussian 16:  EM64L-G16RevA.03 25-Dec-2016
                24-Jul-2020 
 ******************************************
 %mem=30GB
 %nproc=8
 Will use up to    8 processors via shared memory.
 ---------------------------------------------------------------
 #P uLC-wPBE/cc-pVDZ iop(3/107=0095400000, 3/108=0095400000) opt
 ---------------------------------------------------------------
 1/18=20,19=15,26=3,38=1/1,3;
 2/9=110,12=2,17=6,18=5,40=1/2;
 3/5=16,11=2,25=1,30=1,71=1,74=-41,107=95400000,108=95400000,116=2/1,2,3;
 4//1;
 5/5=2,38=5/2;
 6/7=2,8=2,9=2,10=2,28=1/1;
 7//1,2,3,16;
 1/18=20,19=15,26=3/3(2);
 2/9=110/2;
 99//99;
 2/9=110/2;
 3/5=16,11=2,25=1,30=1,71=1,74=-41,107=95400000,108=95400000,116=2/1,2,3;
 4/5=5,16=3,69=1/1;
 5/5=2,38=5/2;
 7//1,2,3,16;
 1/18=20,19=15,26=3/3(-5);
 2/9=110/2;
 6/7=2,8=2,9=2,10=2,19=2,28=1/1;
 99/9=1/99;
 Leave Link    1 at Fri Jul 24 15:32:32 2020, MaxMem=  4026531840 cpu:               1.8 elap:               0.3
 (Enter /opt/ohpc/pub/libs/gaussian/g16-A.03/sandybridge/g16/l101.exe)
 ----------
 H12 C13 O1
 ----------
 Symbolic Z-matrix:
 Charge =  0 Multiplicity = 1
 C                    -3.77232   0.09592  -0.02977 
 C                    -3.19426  -0.72372  -0.97456 
 C                    -1.7764   -0.86394  -0.99995 
 C                    -0.95263  -0.30837   0.05182 
 C                    -1.66101   0.42814   1.06876 
 C                    -3.0041    0.70594   1.01943 
 C                     0.44912  -0.55107   0.02068 
 C                     0.96175  -1.89796   0.25599 
 C                     2.25637  -2.16638   0.23888 
 C                     3.24255  -1.13539   0.17096 
 C                     2.73884   0.1815    0.01483 
 C                     1.38531   0.54069  -0.04754 
 O                     0.91068   1.76135  -0.17478 
 C                     1.816     2.80781  -0.47172 
 H                    -4.86599   0.29781  -0.02049 
 H                    -3.79134  -1.16113  -1.77328 
 H                    -1.32267  -1.44904  -1.78417 
 H                    -1.02196   0.85635   1.80674 
 H                    -3.5104    1.23071   1.82078 
 H                     0.26898  -2.70855   0.35314 
 H                     2.67584  -3.16239   0.34672 
 H                     4.3202   -1.33888   0.13927 
 H                     3.49282   0.94504  -0.13047 
 H                     2.44138   2.97633   0.49839 
 H                     2.41324   2.70409  -1.31341 
 H                     1.18106   3.71994  -0.59564 
 
 ITRead=  0  0  0  0  0  0  0  0  0  0  0  0  0  0  0  0  0  0  0  0
 ITRead=  0  0  0  0  0  0
 MicOpt= -1 -1 -1 -1 -1 -1 -1 -1 -1 -1 -1 -1 -1 -1 -1 -1 -1 -1 -1 -1
 MicOpt= -1 -1 -1 -1 -1 -1
 NAtoms=     26 NQM=       26 NQMF=       0 NMMI=      0 NMMIF=      0
                NMic=       0 NMicF=      0.
                    Isotopes and Nuclear Properties:
 (Nuclear quadrupole moments (NQMom) in fm**2, nuclear magnetic moments (NMagM)
  in nuclear magnetons)

  Atom         1           2           3           4           5           6           7           8           9          10
 IAtWgt=          12          12          12          12          12          12          12          12          12          12
 AtmWgt=  12.0000000  12.0000000  12.0000000  12.0000000  12.0000000  12.0000000  12.0000000  12.0000000  12.0000000  12.0000000
 NucSpn=           0           0           0           0           0           0           0           0           0           0
 AtZEff=  -0.0000000  -0.0000000  -0.0000000  -0.0000000  -0.0000000  -0.0000000  -0.0000000  -0.0000000  -0.0000000  -0.0000000
 NQMom=    0.0000000   0.0000000   0.0000000   0.0000000   0.0000000   0.0000000   0.0000000   0.0000000   0.0000000   0.0000000
 NMagM=    0.0000000   0.0000000   0.0000000   0.0000000   0.0000000   0.0000000   0.0000000   0.0000000   0.0000000   0.0000000
 AtZNuc=   6.0000000   6.0000000   6.0000000   6.0000000   6.0000000   6.0000000   6.0000000   6.0000000   6.0000000   6.0000000

  Atom        11          12          13          14          15          16          17          18          19          20
 IAtWgt=          12          12          16          12           1           1           1           1           1           1
 AtmWgt=  12.0000000  12.0000000  15.9949146  12.0000000   1.0078250   1.0078250   1.0078250   1.0078250   1.0078250   1.0078250
 NucSpn=           0           0           0           0           1           1           1           1           1           1
 AtZEff=  -0.0000000  -0.0000000  -0.0000000  -0.0000000  -0.0000000  -0.0000000  -0.0000000  -0.0000000  -0.0000000  -0.0000000
 NQMom=    0.0000000   0.0000000   0.0000000   0.0000000   0.0000000   0.0000000   0.0000000   0.0000000   0.0000000   0.0000000
 NMagM=    0.0000000   0.0000000   0.0000000   0.0000000   2.7928460   2.7928460   2.7928460   2.7928460   2.7928460   2.7928460
 AtZNuc=   6.0000000   6.0000000   8.0000000   6.0000000   1.0000000   1.0000000   1.0000000   1.0000000   1.0000000   1.0000000

  Atom        21          22          23          24          25          26
 IAtWgt=           1           1           1           1           1           1
 AtmWgt=   1.0078250   1.0078250   1.0078250   1.0078250   1.0078250   1.0078250
 NucSpn=           1           1           1           1           1           1
 AtZEff=  -0.0000000  -0.0000000  -0.0000000  -0.0000000  -0.0000000  -0.0000000
 NQMom=    0.0000000   0.0000000   0.0000000   0.0000000   0.0000000   0.0000000
 NMagM=    2.7928460   2.7928460   2.7928460   2.7928460   2.7928460   2.7928460
 AtZNuc=   1.0000000   1.0000000   1.0000000   1.0000000   1.0000000   1.0000000
 Leave Link  101 at Fri Jul 24 15:32:32 2020, MaxMem=  4026531840 cpu:               2.8 elap:               0.4
 (Enter /opt/ohpc/pub/libs/gaussian/g16-A.03/sandybridge/g16/l103.exe)

 GradGradGradGradGradGradGradGradGradGradGradGradGradGradGradGradGradGrad
 Berny optimization.
 Initialization pass.
                           ----------------------------
                           !    Initial Parameters    !
                           ! (Angstroms and Degrees)  !
 --------------------------                            --------------------------
 ! Name  Definition              Value          Derivative Info.                !
 --------------------------------------------------------------------------------
 ! R1    R(1,2)                  1.3779         estimate D2E/DX2                !
 ! R2    R(1,6)                  1.4363         estimate D2E/DX2                !
 ! R3    R(1,15)                 1.1122         estimate D2E/DX2                !
 ! R4    R(2,3)                  1.425          estimate D2E/DX2                !
 ! R5    R(2,16)                 1.0889         estimate D2E/DX2                !
 ! R6    R(3,4)                  1.4469         estimate D2E/DX2                !
 ! R7    R(3,17)                 1.0785         estimate D2E/DX2                !
 ! R8    R(4,5)                  1.4417         estimate D2E/DX2                !
 ! R9    R(4,7)                  1.4229         estimate D2E/DX2                !
 ! R10   R(5,6)                  1.3724         estimate D2E/DX2                !
 ! R11   R(5,18)                 1.066          estimate D2E/DX2                !
 ! R12   R(6,19)                 1.0835         estimate D2E/DX2                !
 ! R13   R(7,8)                  1.4602         estimate D2E/DX2                !
 ! R14   R(7,12)                 1.4398         estimate D2E/DX2                !
 ! R15   R(8,9)                  1.3223         estimate D2E/DX2                !
 ! R16   R(8,20)                 1.0707         estimate D2E/DX2                !
 ! R17   R(9,10)                 1.4283         estimate D2E/DX2                !
 ! R18   R(9,21)                 1.0861         estimate D2E/DX2                !
 ! R19   R(10,11)                1.4186         estimate D2E/DX2                !
 ! R20   R(10,22)                1.0971         estimate D2E/DX2                !
 ! R21   R(11,12)                1.4018         estimate D2E/DX2                !
 ! R22   R(11,23)                1.0829         estimate D2E/DX2                !
 ! R23   R(12,13)                1.3159         estimate D2E/DX2                !
 ! R24   R(13,14)                1.4152         estimate D2E/DX2                !
 ! R25   R(14,24)                1.1665         estimate D2E/DX2                !
 ! R26   R(14,25)                1.0373         estimate D2E/DX2                !
 ! R27   R(14,26)                1.1182         estimate D2E/DX2                !
 ! A1    A(2,1,6)              121.9455         estimate D2E/DX2                !
 ! A2    A(2,1,15)             121.7518         estimate D2E/DX2                !
 ! A3    A(6,1,15)             116.2796         estimate D2E/DX2                !
 ! A4    A(1,2,3)              119.2205         estimate D2E/DX2                !
 ! A5    A(1,2,16)             120.7867         estimate D2E/DX2                !
 ! A6    A(3,2,16)             119.5361         estimate D2E/DX2                !
 ! A7    A(2,3,4)              121.0477         estimate D2E/DX2                !
 ! A8    A(2,3,17)             119.0073         estimate D2E/DX2                !
 ! A9    A(4,3,17)             119.825          estimate D2E/DX2                !
 ! A10   A(3,4,5)              115.4153         estimate D2E/DX2                !
 ! A11   A(3,4,7)              118.6503         estimate D2E/DX2                !
 ! A12   A(5,4,7)              125.9167         estimate D2E/DX2                !
 ! A13   A(4,5,6)              123.981          estimate D2E/DX2                !
 ! A14   A(4,5,18)             113.5151         estimate D2E/DX2                !
 ! A15   A(6,5,18)             122.0221         estimate D2E/DX2                !
 ! A16   A(1,6,5)              117.6265         estimate D2E/DX2                !
 ! A17   A(1,6,19)             119.7378         estimate D2E/DX2                !
 ! A18   A(5,6,19)             121.9227         estimate D2E/DX2                !
 ! A19   A(4,7,8)              119.9752         estimate D2E/DX2                !
 ! A20   A(4,7,12)             120.8133         estimate D2E/DX2                !
 ! A21   A(8,7,12)             118.6058         estimate D2E/DX2                !
 ! A22   A(7,8,9)              121.9296         estimate D2E/DX2                !
 ! A23   A(7,8,20)             119.0629         estimate D2E/DX2                !
 ! A24   A(9,8,20)             118.7501         estimate D2E/DX2                !
 ! A25   A(8,9,10)             122.0122         estimate D2E/DX2                !
 ! A26   A(8,9,21)             124.2644         estimate D2E/DX2                !
 ! A27   A(10,9,21)            113.5786         estimate D2E/DX2                !
 ! A28   A(9,10,11)            115.4773         estimate D2E/DX2                !
 ! A29   A(9,10,22)            123.0703         estimate D2E/DX2                !
 ! A30   A(11,10,22)           121.1832         estimate D2E/DX2                !
 ! A31   A(10,11,12)           125.848          estimate D2E/DX2                !
 ! A32   A(10,11,23)           114.9675         estimate D2E/DX2                !
 ! A33   A(12,11,23)           119.057          estimate D2E/DX2                !
 ! A34   A(7,12,11)            115.5591         estimate D2E/DX2                !
 ! A35   A(7,12,13)            118.2588         estimate D2E/DX2                !
 ! A36   A(11,12,13)           126.1777         estimate D2E/DX2                !
 ! A37   A(12,13,14)           118.3908         estimate D2E/DX2                !
 ! A38   A(13,14,24)           105.9795         estimate D2E/DX2                !
 ! A39   A(13,14,25)           117.6881         estimate D2E/DX2                !
 ! A40   A(13,14,26)           105.2581         estimate D2E/DX2                !
 ! A41   A(24,14,25)           112.3716         estimate D2E/DX2                !
 ! A42   A(24,14,26)           106.1851         estimate D2E/DX2                !
 ! A43   A(25,14,26)           108.5764         estimate D2E/DX2                !
 ! D1    D(6,1,2,3)             -6.6053         estimate D2E/DX2                !
 ! D2    D(6,1,2,16)          -178.8156         estimate D2E/DX2                !
 ! D3    D(15,1,2,3)           175.21           estimate D2E/DX2                !
 ! D4    D(15,1,2,16)            2.9996         estimate D2E/DX2                !
 ! D5    D(2,1,6,5)             -1.0568         estimate D2E/DX2                !
 ! D6    D(2,1,6,19)          -171.5703         estimate D2E/DX2                !
 ! D7    D(15,1,6,5)           177.2217         estimate D2E/DX2                !
 ! D8    D(15,1,6,19)            6.7082         estimate D2E/DX2                !
 ! D9    D(1,2,3,4)              8.3635         estimate D2E/DX2                !
 ! D10   D(1,2,3,17)          -175.6261         estimate D2E/DX2                !
 ! D11   D(16,2,3,4)          -179.3273         estimate D2E/DX2                !
 ! D12   D(16,2,3,17)           -3.3169         estimate D2E/DX2                !
 ! D13   D(2,3,4,5)             -2.5096         estimate D2E/DX2                !
 ! D14   D(2,3,4,7)            176.0508         estimate D2E/DX2                !
 ! D15   D(17,3,4,5)          -178.4877         estimate D2E/DX2                !
 ! D16   D(17,3,4,7)             0.0727         estimate D2E/DX2                !
 ! D17   D(3,4,5,6)             -5.5528         estimate D2E/DX2                !
 ! D18   D(3,4,5,18)          -177.7106         estimate D2E/DX2                !
 ! D19   D(7,4,5,6)            176.0072         estimate D2E/DX2                !
 ! D20   D(7,4,5,18)             3.8493         estimate D2E/DX2                !
 ! D21   D(3,4,7,8)            -68.6531         estimate D2E/DX2                !
 ! D22   D(3,4,7,12)           120.393          estimate D2E/DX2                !
 ! D23   D(5,4,7,8)            109.7413         estimate D2E/DX2                !
 ! D24   D(5,4,7,12)           -61.2126         estimate D2E/DX2                !
 ! D25   D(4,5,6,1)              7.3769         estimate D2E/DX2                !
 ! D26   D(4,5,6,19)           177.6699         estimate D2E/DX2                !
 ! D27   D(18,5,6,1)           178.8909         estimate D2E/DX2                !
 ! D28   D(18,5,6,19)          -10.8161         estimate D2E/DX2                !
 ! D29   D(4,7,8,9)           -179.8513         estimate D2E/DX2                !
 ! D30   D(4,7,8,20)             6.0512         estimate D2E/DX2                !
 ! D31   D(12,7,8,9)            -8.699          estimate D2E/DX2                !
 ! D32   D(12,7,8,20)          177.2034         estimate D2E/DX2                !
 ! D33   D(4,7,12,11)          176.0269         estimate D2E/DX2                !
 ! D34   D(4,7,12,13)           -4.6823         estimate D2E/DX2                !
 ! D35   D(8,7,12,11)            4.9516         estimate D2E/DX2                !
 ! D36   D(8,7,12,13)         -175.7577         estimate D2E/DX2                !
 ! D37   D(7,8,9,10)             8.6658         estimate D2E/DX2                !
 ! D38   D(7,8,9,21)          -175.9928         estimate D2E/DX2                !
 ! D39   D(20,8,9,10)         -177.2188         estimate D2E/DX2                !
 ! D40   D(20,8,9,21)           -1.8774         estimate D2E/DX2                !
 ! D41   D(8,9,10,11)           -4.8725         estimate D2E/DX2                !
 ! D42   D(8,9,10,22)         -178.969          estimate D2E/DX2                !
 ! D43   D(21,9,10,11)         179.3274         estimate D2E/DX2                !
 ! D44   D(21,9,10,22)           5.2309         estimate D2E/DX2                !
 ! D45   D(9,10,11,12)           1.406          estimate D2E/DX2                !
 ! D46   D(9,10,11,23)        -174.4262         estimate D2E/DX2                !
 ! D47   D(22,10,11,12)        175.6237         estimate D2E/DX2                !
 ! D48   D(22,10,11,23)         -0.2085         estimate D2E/DX2                !
 ! D49   D(10,11,12,7)          -1.7176         estimate D2E/DX2                !
 ! D50   D(10,11,12,13)        179.0564         estimate D2E/DX2                !
 ! D51   D(23,11,12,7)         173.9598         estimate D2E/DX2                !
 ! D52   D(23,11,12,13)         -5.2662         estimate D2E/DX2                !
 ! D53   D(7,12,13,14)        -169.3199         estimate D2E/DX2                !
 ! D54   D(11,12,13,14)          9.8875         estimate D2E/DX2                !
 ! D55   D(12,13,14,24)        -71.3333         estimate D2E/DX2                !
 ! D56   D(12,13,14,25)         55.3486         estimate D2E/DX2                !
 ! D57   D(12,13,14,26)        176.4165         estimate D2E/DX2                !
 --------------------------------------------------------------------------------
 Trust Radius=3.00D-01 FncErr=1.00D-07 GrdErr=1.00D-06 EigMax=2.50D+02 EigMin=1.00D-04
 Number of steps in this run=    137 maximum allowed number of steps=    156.
 GradGradGradGradGradGradGradGradGradGradGradGradGradGradGradGradGradGrad

 Leave Link  103 at Fri Jul 24 15:32:32 2020, MaxMem=  4026531840 cpu:               0.2 elap:               0.0
 (Enter /opt/ohpc/pub/libs/gaussian/g16-A.03/sandybridge/g16/l202.exe)
                          Input orientation:                          
 ---------------------------------------------------------------------
 Center     Atomic      Atomic             Coordinates (Angstroms)
 Number     Number       Type             X           Y           Z
 ---------------------------------------------------------------------
      1          6           0       -3.772319    0.095922   -0.029765
      2          6           0       -3.194257   -0.723720   -0.974557
      3          6           0       -1.776398   -0.863941   -0.999947
      4          6           0       -0.952631   -0.308371    0.051818
      5          6           0       -1.661005    0.428136    1.068757
      6          6           0       -3.004096    0.705944    1.019425
      7          6           0        0.449122   -0.551067    0.020680
      8          6           0        0.961753   -1.897963    0.255985
      9          6           0        2.256374   -2.166378    0.238880
     10          6           0        3.242551   -1.135389    0.170958
     11          6           0        2.738840    0.181503    0.014834
     12          6           0        1.385309    0.540686   -0.047540
     13          8           0        0.910675    1.761349   -0.174777
     14          6           0        1.815997    2.807810   -0.471719
     15          1           0       -4.865985    0.297814   -0.020488
     16          1           0       -3.791338   -1.161130   -1.773275
     17          1           0       -1.322674   -1.449038   -1.784165
     18          1           0       -1.021957    0.856349    1.806735
     19          1           0       -3.510399    1.230711    1.820778
     20          1           0        0.268975   -2.708552    0.353140
     21          1           0        2.675842   -3.162390    0.346719
     22          1           0        4.320196   -1.338880    0.139270
     23          1           0        3.492816    0.945038   -0.130467
     24          1           0        2.441383    2.976326    0.498393
     25          1           0        2.413239    2.704094   -1.313413
     26          1           0        1.181064    3.719935   -0.595637
 ---------------------------------------------------------------------
                    Distance matrix (angstroms):
                    1          2          3          4          5
     1  C    0.000000
     2  C    1.377897   0.000000
     3  C    2.417910   1.425002   0.000000
     4  C    2.849693   2.500170   1.446879   0.000000
     5  C    2.403074   2.802279   2.441785   1.441666   0.000000
     6  C    1.436347   2.460907   2.837190   2.484674   1.372408
     7  C    4.271031   3.780809   2.468301   1.422948   2.551458
     8  C    5.144771   4.490601   3.184971   2.496668   3.598638
     9  C    6.444789   5.767414   4.415233   3.712802   4.771379
    10  C    7.124943   6.550891   5.160867   4.277582   5.224511
    11  C    6.511874   6.082760   4.744482   3.724017   4.531028
    12  C    5.176800   4.840507   3.588377   2.489324   3.246354
    13  O    4.972435   4.864739   3.846221   2.794100   3.152360
    14  C    6.227274   6.150382   5.163921   4.201187   4.486141
    15  H    1.112183   2.179095   3.443046   3.960685   3.387526
    16  H    2.149504   1.088937   2.178610   3.480865   3.891173
    17  H    3.386086   2.164342   1.078518   2.192917   3.431824
    18  H    3.393446   3.866664   3.377283   2.107395   1.066002
    19  H    2.186517   3.425441   3.918012   3.469895   2.151725
    20  H    4.933938   4.206699   3.068711   2.709979   3.751765
    21  H    7.234440   6.492376   5.188335   4.625820   5.676395
    22  H    8.220464   7.621420   6.220277   5.373295   6.305637
    23  H    7.315280   6.943644   5.638530   4.622365   5.316690
    24  H    6.869190   6.900751   5.897656   4.744259   4.862939
    25  H    6.834577   6.580938   5.512004   4.718886   5.239674
    26  H    6.163577   6.247646   5.470098   4.604248   4.656555
                    6          7          8          9         10
     6  C    0.000000
     7  C    3.808186   0.000000
     8  C    4.805323   1.460236   0.000000
     9  C    6.044173   2.433722   1.322264   0.000000
    10  C    6.567420   2.857842   2.406406   1.428320   0.000000
    11  C    5.853679   2.404059   2.745974   2.407388   1.418557
    12  C    4.520243   1.439800   2.493699   2.858144   2.511238
    13  O    4.226752   2.366115   3.684933   4.172416   3.734738
    14  C    5.465771   3.659625   4.837725   5.043950   4.242276
    15  H    2.171318   5.382625   6.233811   7.541055   8.236448
    16  H    3.450346   4.644562   5.220411   6.452450   7.297691
    17  H    3.915513   2.683855   3.095537   4.173353   4.976159
    18  H    2.138072   2.708299   3.731778   4.726786   4.982852
    19  H    1.083462   4.700308   5.677792   6.877375   7.343206
    20  H    4.776580   2.190371   1.070717   2.063192   3.369004
    21  H    6.904943   3.447259   2.131926   1.086104   2.112057
    22  H    7.655144   3.952205   3.406660   2.225766   1.097147
    23  H    6.602218   3.394886   3.826000   3.368400   2.116995
    24  H    5.922782   4.079193   5.099682   5.152570   4.201819
    25  H    6.227540   4.029098   5.074323   5.114266   4.199136
    26  H    5.404455   4.376876   5.686311   6.041638   5.330250
                   11         12         13         14         15
    11  C    0.000000
    12  C    1.401766   0.000000
    13  O    2.423645   1.315859   0.000000
    14  C    2.825927   2.346331   1.415225   0.000000
    15  H    7.605796   6.256069   5.961169   7.152103   0.000000
    16  H    6.902407   5.715944   5.762378   6.992048   2.521041
    17  H    4.731908   3.782597   4.229014   5.449268   4.326327
    18  H    4.220180   3.054981   2.912127   4.129593   4.292698
    19  H    6.589026   5.285329   4.879520   6.009432   2.469447
    20  H    3.816687   3.458944   4.546481   5.788257   5.962017
    21  H    3.360913   3.941280   5.256518   6.087073   8.305842
    22  H    2.197211   3.490162   4.618969   4.882557   9.332214
    23  H    1.082856   2.147548   2.708464   2.529445   8.384542
    24  H    2.851902   2.710291   2.066977   1.166457   7.800083
    25  H    2.869446   2.709134   2.107833   1.037258   7.774892
    26  H    3.914057   3.232607   2.021458   1.118243   6.971980
                   16         17         18         19         20
    16  H    0.000000
    17  H    2.485420   0.000000
    18  H    4.955418   4.277827   0.000000
    19  H    4.326320   4.996280   2.516483   0.000000
    20  H    4.837592   2.947507   4.060537   5.652913   0.000000
    21  H    7.093929   4.844004   5.652931   7.729280   2.449289
    22  H    8.335851   5.962694   6.011495   8.411212   4.281838
    23  H    7.758457   5.626301   4.913633   7.275575   4.896503
    24  H    7.818301   6.241958   4.266238   6.341891   6.087552
    25  H    7.324494   5.605993   4.995003   6.861742   6.055741
    26  H    7.066570   5.865116   4.338758   5.834820   6.561824
                   21         22         23         24         25
    21  H    0.000000
    22  H    2.464168   0.000000
    23  H    4.214987   2.444094   0.000000
    24  H    6.145064   4.720160   2.372152   0.000000
    25  H    6.102510   4.700257   2.378892   1.832360   0.000000
    26  H    7.105547   5.998820   3.641515   1.827091   1.750826
                   26
    26  H    0.000000
 Stoichiometry    C13H12O
 Framework group  C1[X(C13H12O)]
 Deg. of freedom    72
 Full point group                 C1      NOp   1
 Largest Abelian subgroup         C1      NOp   1
 Largest concise Abelian subgroup C1      NOp   1
                         Standard orientation:                         
 ---------------------------------------------------------------------
 Center     Atomic      Atomic             Coordinates (Angstroms)
 Number     Number       Type             X           Y           Z
 ---------------------------------------------------------------------
      1          6           0       -3.777824    0.086651   -0.015507
      2          6           0       -3.200303   -0.733155   -0.960487
      3          6           0       -1.782083   -0.868750   -0.990452
      4          6           0       -0.956550   -0.308149    0.057251
      5          6           0       -1.663858    0.428251    1.075008
      6          6           0       -3.008023    0.701514    1.029694
      7          6           0        0.445883   -0.546284    0.021817
      8          6           0        0.963774   -1.890959    0.258304
      9          6           0        2.259210   -2.155135    0.237329
     10          6           0        3.241731   -1.121047    0.163754
     11          6           0        2.733131    0.193828    0.006482
     12          6           0        1.378212    0.548402   -0.052016
     13          8           0        0.899107    1.767208   -0.180291
     14          6           0        1.799935    2.815996   -0.482639
     15          1           0       -4.872114    0.284951   -0.002905
     16          1           0       -3.798674   -1.174291   -1.756184
     17          1           0       -1.329123   -1.454070   -1.774945
     18          1           0       -1.023699    0.860195    1.809842
     19          1           0       -3.513303    1.226369    1.831634
     20          1           0        0.274021   -2.703615    0.359619
     21          1           0        2.682340   -3.149516    0.345903
     22          1           0        4.319928   -1.321048    0.128800
     23          1           0        3.484072    0.959526   -0.143086
     24          1           0        2.428090    2.988711    0.484942
     25          1           0        2.394621    2.712401   -1.326156
     26          1           0        1.161565    3.725745   -0.606367
 ---------------------------------------------------------------------
 Rotational constants (GHZ):           1.2096606           0.4927332           0.3878722
 Leave Link  202 at Fri Jul 24 15:32:32 2020, MaxMem=  4026531840 cpu:               0.2 elap:               0.0
 (Enter /opt/ohpc/pub/libs/gaussian/g16-A.03/sandybridge/g16/l301.exe)
 Standard basis: CC-pVDZ (5D, 7F)
 Ernie: Thresh=  0.10000D-02 Tol=  0.10000D-05 Strict=F.
 Ernie:  28 primitive shells out of 368 were deleted.
 There are   270 symmetry adapted cartesian basis functions of A   symmetry.
 There are   256 symmetry adapted basis functions of A   symmetry.
   256 basis functions,   546 primitive gaussians,   270 cartesian basis functions
    49 alpha electrons       49 beta electrons
       nuclear repulsion energy       811.4882859644 Hartrees.
 IExCor=32609 DFT=T Ex+Corr=LC-wPBE ExCW=0 ScaHFX=  1.000000
 ScaDFX=  1.000000  0.000000  1.000000  1.000000 ScalE2=  1.000000  1.000000
 IRadAn=      5 IRanWt=     -1 IRanGd=            0 ICorTp=0 IEmpDi=  4
 HFx  wShort=  0.000000 wLong=  0.095400 cFull=  0.000000 cShort=  0.000000 cLong=  1.000000
 DFx  wShort=  0.000000 wLong=  0.095400 cFull=  0.000000 cShort=  0.000000 cLong=  1.000000
 NAtoms=   26 NActive=   26 NUniq=   26 SFac= 1.00D+00 NAtFMM=   60 NAOKFM=F Big=F
 Integral buffers will be    131072 words long.
 Raffenetti 2 integral format.
 Two-electron integral symmetry is turned on.
 Leave Link  301 at Fri Jul 24 15:32:32 2020, MaxMem=  4026531840 cpu:               0.4 elap:               0.1
 (Enter /opt/ohpc/pub/libs/gaussian/g16-A.03/sandybridge/g16/l302.exe)
 NPDir=0 NMtPBC=     1 NCelOv=     1 NCel=       1 NClECP=     1 NCelD=      1
         NCelK=      1 NCelE2=     1 NClLst=     1 CellRange=     0.0.
 One-electron integrals computed using PRISM.
 One-electron integral symmetry used in STVInt
 NBasis=   256 RedAO= T EigKep=  3.56D-04  NBF=   256
 NBsUse=   256 1.00D-06 EigRej= -1.00D+00 NBFU=   256
 Precomputing XC quadrature grid using
 IXCGrd= 4 IRadAn=           5 IRanWt=          -1 IRanGd=           0 AccXCQ= 0.00D+00.
 Generated NRdTot=       0 NPtTot=           0 NUsed=           0 NTot=          32
 NSgBfM=   269   269   269   269   269 MxSgAt=    26 MxSgA2=    26.
 Leave Link  302 at Fri Jul 24 15:32:33 2020, MaxMem=  4026531840 cpu:               2.5 elap:               0.3
 (Enter /opt/ohpc/pub/libs/gaussian/g16-A.03/sandybridge/g16/l303.exe)
 DipDrv:  MaxL=1.
 Leave Link  303 at Fri Jul 24 15:32:33 2020, MaxMem=  4026531840 cpu:               0.3 elap:               0.1
 (Enter /opt/ohpc/pub/libs/gaussian/g16-A.03/sandybridge/g16/l401.exe)
 ExpMin= 1.22D-01 ExpMax= 1.17D+04 ExpMxC= 4.01D+02 IAcc=3 IRadAn=         5 AccDes= 0.00D+00
 Harris functional with IExCor=32609 and IRadAn=       5 diagonalized for initial guess.
 HarFok:  IExCor=32609 AccDes= 0.00D+00 IRadAn=         5 IDoV= 1 UseB2=F ITyADJ=14
 ICtDFT=  3500011 ScaDFX=  1.000000  1.000000  1.000000  1.000000
 FoFCou: FMM=F IPFlag=           0 FMFlag=      100000 FMFlg1=           0
         NFxFlg=           0 DoJE=T BraDBF=F KetDBF=T FulRan=T
         wScrn=  0.000000 ICntrl=       500 IOpCl=  0 I1Cent=   200000004 NGrid=           0
         NMat0=    1 NMatS0=      1 NMatT0=    0 NMatD0=    1 NMtDS0=    0 NMtDT0=    0
 Petite list used in FoFCou.
 Harris En= -577.369224274626    
 JPrj=0 DoOrth=F DoCkMO=F.
 Initial guess <Sx>= 0.0000 <Sy>= 0.0000 <Sz>= 0.0000 <S**2>= 0.0000 S= 0.0000
 Leave Link  401 at Fri Jul 24 15:32:35 2020, MaxMem=  4026531840 cpu:              14.4 elap:               1.8
 (Enter /opt/ohpc/pub/libs/gaussian/g16-A.03/sandybridge/g16/l502.exe)
 Integral symmetry usage will be decided dynamically.
 UHF open shell SCF:
 Using DIIS extrapolation, IDIIS=  1040.
 NGot=  4026531840 LenX=  4026380906 LenY=  4026307565
 Requested convergence on RMS density matrix=1.00D-08 within 128 cycles.
 Requested convergence on MAX density matrix=1.00D-06.
 Requested convergence on             energy=1.00D-06.
 No special actions if energy rises.
 Fock matrices will be formed incrementally for  20 cycles.
 Integral accuracy reduced to 1.0D-05 until final iterations.

 Cycle   1  Pass 0  IDiag  1:
 FoFJK:  IHMeth= 1 ICntrl=       0 DoSepK=T KAlg= 0 I1Cent=           0 FoldK=F
 IRaf=         1 NMat=       1 IRICut=       1 DoRegI=T DoRafI=F ISym2E= 0 IDoP0=0 IntGTp=1.
 FoFCou: FMM=F IPFlag=           0 FMFlag=      100000 FMFlg1=           0
         NFxFlg=           0 DoJE=T BraDBF=F KetDBF=F FulRan=T
         wScrn=  0.000000 ICntrl=       500 IOpCl=  0 I1Cent=           0 NGrid=           0
         NMat0=    1 NMatS0=      1 NMatT0=    0 NMatD0=    1 NMtDS0=    0 NMtDT0=    0
 Symmetry not used in FoFCou.
 E= -576.963019231624    
 DIIS: error= 2.52D-02 at cycle   1 NSaved=   1.
 NSaved= 1 IEnMin= 1 EnMin= -576.963019231624     IErMin= 1 ErrMin= 2.52D-02
 ErrMax= 2.52D-02  0.00D+00 EMaxC= 1.00D-01 BMatC= 7.69D-01 BMatP= 7.69D-01
 IDIUse=3 WtCom= 7.48D-01 WtEn= 2.52D-01
 Coeff-Com:  0.100D+01
 Coeff-En:   0.100D+01
 Coeff:      0.100D+01
 Gap=     0.246 Goal=   None    Shift=    0.000
 Gap=     0.246 Goal=   None    Shift=    0.000
 GapD=    0.246 DampG=1.000 DampE=0.500 DampFc=0.5000 IDamp=-1.
 Damping current iteration by 5.00D-01
 RMSDP=4.10D-03 MaxDP=1.02D-01              OVMax= 1.77D-01

 Cycle   2  Pass 0  IDiag  1:
 RMSU=  2.01D-03    CP:  9.80D-01
 E= -577.076544371025     Delta-E=       -0.113525139401 Rises=F Damp=T
 DIIS: error= 3.56D-03 at cycle   2 NSaved=   2.
 NSaved= 2 IEnMin= 2 EnMin= -577.076544371025     IErMin= 2 ErrMin= 3.56D-03
 ErrMax= 3.56D-03  0.00D+00 EMaxC= 1.00D-01 BMatC= 3.30D-02 BMatP= 7.69D-01
 IDIUse=3 WtCom= 9.64D-01 WtEn= 3.56D-02
 Coeff-Com:  0.296D-01 0.970D+00
 Coeff-En:   0.000D+00 0.100D+01
 Coeff:      0.285D-01 0.971D+00
 Gap=     0.239 Goal=   None    Shift=    0.000
 Gap=     0.239 Goal=   None    Shift=    0.000
 RMSDP=9.41D-04 MaxDP=3.05D-02 DE=-1.14D-01 OVMax= 1.17D-01

 Cycle   3  Pass 0  IDiag  1:
 RMSU=  9.27D-04    CP:  9.75D-01  1.06D+00
 E= -577.194885075049     Delta-E=       -0.118340704024 Rises=F Damp=F
 DIIS: error= 3.53D-03 at cycle   3 NSaved=   3.
 NSaved= 3 IEnMin= 3 EnMin= -577.194885075049     IErMin= 3 ErrMin= 3.53D-03
 ErrMax= 3.53D-03  0.00D+00 EMaxC= 1.00D-01 BMatC= 2.72D-02 BMatP= 3.30D-02
 IDIUse=3 WtCom= 9.65D-01 WtEn= 3.53D-02
 Coeff-Com: -0.146D-01 0.477D+00 0.537D+00
 Coeff-En:   0.000D+00 0.000D+00 0.100D+01
 Coeff:     -0.141D-01 0.460D+00 0.554D+00
 Gap=     0.233 Goal=   None    Shift=    0.000
 Gap=     0.233 Goal=   None    Shift=    0.000
 RMSDP=4.87D-04 MaxDP=2.21D-02 DE=-1.18D-01 OVMax= 4.17D-02

 Cycle   4  Pass 0  IDiag  1:
 RMSU=  3.29D-04    CP:  9.77D-01  1.06D+00  6.14D-01
 E= -577.200251825096     Delta-E=       -0.005366750048 Rises=F Damp=F
 DIIS: error= 1.57D-03 at cycle   4 NSaved=   4.
 NSaved= 4 IEnMin= 4 EnMin= -577.200251825096     IErMin= 4 ErrMin= 1.57D-03
 ErrMax= 1.57D-03  0.00D+00 EMaxC= 1.00D-01 BMatC= 6.33D-03 BMatP= 2.72D-02
 IDIUse=3 WtCom= 9.84D-01 WtEn= 1.57D-02
 Coeff-Com: -0.852D-02 0.150D+00 0.343D+00 0.515D+00
 Coeff-En:   0.000D+00 0.000D+00 0.212D+00 0.788D+00
 Coeff:     -0.839D-02 0.148D+00 0.341D+00 0.520D+00
 Gap=     0.229 Goal=   None    Shift=    0.000
 Gap=     0.229 Goal=   None    Shift=    0.000
 RMSDP=1.94D-04 MaxDP=5.04D-03 DE=-5.37D-03 OVMax= 1.41D-02

 Cycle   5  Pass 0  IDiag  1:
 RMSU=  7.13D-05    CP:  9.77D-01  1.08D+00  7.08D-01  5.26D-01
 E= -577.201880000067     Delta-E=       -0.001628174971 Rises=F Damp=F
 DIIS: error= 3.95D-04 at cycle   5 NSaved=   5.
 NSaved= 5 IEnMin= 5 EnMin= -577.201880000067     IErMin= 5 ErrMin= 3.95D-04
 ErrMax= 3.95D-04  0.00D+00 EMaxC= 1.00D-01 BMatC= 2.82D-04 BMatP= 6.33D-03
 IDIUse=3 WtCom= 9.96D-01 WtEn= 3.95D-03
 Coeff-Com: -0.219D-02 0.388D-01 0.127D+00 0.256D+00 0.581D+00
 Coeff-En:   0.000D+00 0.000D+00 0.000D+00 0.000D+00 0.100D+01
 Coeff:     -0.218D-02 0.387D-01 0.126D+00 0.255D+00 0.582D+00
 Gap=     0.230 Goal=   None    Shift=    0.000
 Gap=     0.230 Goal=   None    Shift=    0.000
 RMSDP=4.34D-05 MaxDP=1.88D-03 DE=-1.63D-03 OVMax= 3.39D-03

 Cycle   6  Pass 0  IDiag  1:
 RMSU=  3.24D-05    CP:  9.77D-01  1.07D+00  7.10D-01  5.68D-01  6.51D-01
 E= -577.201933294400     Delta-E=       -0.000053294332 Rises=F Damp=F
 DIIS: error= 1.93D-04 at cycle   6 NSaved=   6.
 NSaved= 6 IEnMin= 6 EnMin= -577.201933294400     IErMin= 6 ErrMin= 1.93D-04
 ErrMax= 1.93D-04  0.00D+00 EMaxC= 1.00D-01 BMatC= 6.71D-05 BMatP= 2.82D-04
 IDIUse=3 WtCom= 9.98D-01 WtEn= 1.93D-03
 Coeff-Com:  0.171D-03 0.259D-02 0.302D-01 0.857D-01 0.361D+00 0.520D+00
 Coeff-En:   0.000D+00 0.000D+00 0.000D+00 0.000D+00 0.208D+00 0.792D+00
 Coeff:      0.170D-03 0.258D-02 0.301D-01 0.855D-01 0.361D+00 0.521D+00
 Gap=     0.230 Goal=   None    Shift=    0.000
 Gap=     0.230 Goal=   None    Shift=    0.000
 RMSDP=1.84D-05 MaxDP=6.62D-04 DE=-5.33D-05 OVMax= 1.76D-03

 Cycle   7  Pass 0  IDiag  1:
 RMSU=  9.83D-06    CP:  9.77D-01  1.07D+00  7.10D-01  5.71D-01  7.74D-01
                    CP:  6.09D-01
 E= -577.201950197532     Delta-E=       -0.000016903132 Rises=F Damp=F
 DIIS: error= 5.02D-05 at cycle   7 NSaved=   7.
 NSaved= 7 IEnMin= 7 EnMin= -577.201950197532     IErMin= 7 ErrMin= 5.02D-05
 ErrMax= 5.02D-05  0.00D+00 EMaxC= 1.00D-01 BMatC= 3.71D-06 BMatP= 6.71D-05
 IDIUse=1 WtCom= 1.00D+00 WtEn= 0.00D+00
 Coeff-Com:  0.327D-03-0.655D-03 0.972D-02 0.319D-01 0.161D+00 0.290D+00
 Coeff-Com:  0.508D+00
 Coeff:      0.327D-03-0.655D-03 0.972D-02 0.319D-01 0.161D+00 0.290D+00
 Coeff:      0.508D+00
 Gap=     0.230 Goal=   None    Shift=    0.000
 Gap=     0.230 Goal=   None    Shift=    0.000
 RMSDP=4.99D-06 MaxDP=1.80D-04 DE=-1.69D-05 OVMax= 3.47D-04

 Initial convergence to 1.0D-05 achieved.  Increase integral accuracy.
 Cycle   8  Pass 1  IDiag  1:
 E= -577.201748614687     Delta-E=        0.000201582845 Rises=F Damp=F
 DIIS: error= 1.00D-04 at cycle   1 NSaved=   1.
 NSaved= 1 IEnMin= 1 EnMin= -577.201748614687     IErMin= 1 ErrMin= 1.00D-04
 ErrMax= 1.00D-04  0.00D+00 EMaxC= 1.00D-01 BMatC= 4.00D-06 BMatP= 4.00D-06
 IDIUse=1 WtCom= 1.00D+00 WtEn= 0.00D+00
 Coeff-Com:  0.100D+01
 Coeff:      0.100D+01
 Gap=     0.230 Goal=   None    Shift=    0.000
 Gap=     0.230 Goal=   None    Shift=    0.000
 RMSDP=4.99D-06 MaxDP=1.80D-04 DE= 2.02D-04 OVMax= 2.01D-04

 Cycle   9  Pass 1  IDiag  1:
 RMSU=  7.92D-05    CP:  1.00D+00
 E= -577.201749336721     Delta-E=       -0.000000722035 Rises=F Damp=F
 DIIS: error= 1.56D-05 at cycle   2 NSaved=   2.
 NSaved= 2 IEnMin= 2 EnMin= -577.201749336721     IErMin= 2 ErrMin= 1.56D-05
 ErrMax= 1.56D-05  0.00D+00 EMaxC= 1.00D-01 BMatC= 8.41D-07 BMatP= 4.00D-06
 IDIUse=1 WtCom= 1.00D+00 WtEn= 0.00D+00
 Coeff-Com:  0.217D+00 0.783D+00
 Coeff:      0.217D+00 0.783D+00
 Gap=     0.230 Goal=   None    Shift=    0.000
 Gap=     0.230 Goal=   None    Shift=    0.000
 RMSDP=5.01D-06 MaxDP=1.16D-04 DE=-7.22D-07 OVMax= 2.39D-04

 Cycle  10  Pass 1  IDiag  1:
 RMSU=  3.91D-06    CP:  1.00D+00  1.04D+00
 E= -577.201749251562     Delta-E=        0.000000085159 Rises=F Damp=F
 DIIS: error= 2.15D-05 at cycle   3 NSaved=   3.
 NSaved= 3 IEnMin= 2 EnMin= -577.201749336721     IErMin= 2 ErrMin= 1.56D-05
 ErrMax= 2.15D-05  0.00D+00 EMaxC= 1.00D-01 BMatC= 1.16D-06 BMatP= 8.41D-07
 IDIUse=1 WtCom= 1.00D+00 WtEn= 0.00D+00
 Coeff-Com: -0.136D-01 0.544D+00 0.469D+00
 Coeff:     -0.136D-01 0.544D+00 0.469D+00
 Gap=     0.230 Goal=   None    Shift=    0.000
 Gap=     0.230 Goal=   None    Shift=    0.000
 RMSDP=2.38D-06 MaxDP=8.65D-05 DE= 8.52D-08 OVMax= 1.62D-04

 Cycle  11  Pass 1  IDiag  1:
 RMSU=  7.80D-07    CP:  1.00D+00  1.05D+00  4.83D-01
 E= -577.201749535885     Delta-E=       -0.000000284323 Rises=F Damp=F
 DIIS: error= 4.05D-06 at cycle   4 NSaved=   4.
 NSaved= 4 IEnMin= 4 EnMin= -577.201749535885     IErMin= 4 ErrMin= 4.05D-06
 ErrMax= 4.05D-06  0.00D+00 EMaxC= 1.00D-01 BMatC= 3.42D-08 BMatP= 8.41D-07
 IDIUse=1 WtCom= 1.00D+00 WtEn= 0.00D+00
 Coeff-Com: -0.140D-01 0.327D+00 0.299D+00 0.388D+00
 Coeff:     -0.140D-01 0.327D+00 0.299D+00 0.388D+00
 Gap=     0.230 Goal=   None    Shift=    0.000
 Gap=     0.230 Goal=   None    Shift=    0.000
 RMSDP=3.55D-07 MaxDP=1.68D-05 DE=-2.84D-07 OVMax= 2.91D-05

 Cycle  12  Pass 1  IDiag  1:
 RMSU=  2.51D-07    CP:  1.00D+00  1.05D+00  5.19D-01  7.47D-01
 E= -577.201749544634     Delta-E=       -0.000000008749 Rises=F Damp=F
 DIIS: error= 3.57D-07 at cycle   5 NSaved=   5.
 NSaved= 5 IEnMin= 5 EnMin= -577.201749544634     IErMin= 5 ErrMin= 3.57D-07
 ErrMax= 3.57D-07  0.00D+00 EMaxC= 1.00D-01 BMatC= 3.42D-10 BMatP= 3.42D-08
 IDIUse=1 WtCom= 1.00D+00 WtEn= 0.00D+00
 Coeff-Com: -0.432D-02 0.870D-01 0.817D-01 0.122D+00 0.714D+00
 Coeff:     -0.432D-02 0.870D-01 0.817D-01 0.122D+00 0.714D+00
 Gap=     0.230 Goal=   None    Shift=    0.000
 Gap=     0.230 Goal=   None    Shift=    0.000
 RMSDP=9.45D-08 MaxDP=2.09D-06 DE=-8.75D-09 OVMax= 6.41D-06

 Cycle  13  Pass 1  IDiag  1:
 RMSU=  7.16D-08    CP:  1.00D+00  1.05D+00  5.22D-01  7.98D-01  1.02D+00
 E= -577.201749544697     Delta-E=       -0.000000000063 Rises=F Damp=F
 DIIS: error= 3.82D-07 at cycle   6 NSaved=   6.
 NSaved= 6 IEnMin= 6 EnMin= -577.201749544697     IErMin= 5 ErrMin= 3.57D-07
 ErrMax= 3.82D-07  0.00D+00 EMaxC= 1.00D-01 BMatC= 2.15D-10 BMatP= 3.42D-10
 IDIUse=1 WtCom= 1.00D+00 WtEn= 0.00D+00
 Coeff-Com: -0.983D-04-0.569D-02-0.353D-02-0.432D-02 0.441D+00 0.573D+00
 Coeff:     -0.983D-04-0.569D-02-0.353D-02-0.432D-02 0.441D+00 0.573D+00
 Gap=     0.230 Goal=   None    Shift=    0.000
 Gap=     0.230 Goal=   None    Shift=    0.000
 RMSDP=4.42D-08 MaxDP=1.43D-06 DE=-6.28D-11 OVMax= 4.86D-06

 Cycle  14  Pass 1  IDiag  1:
 RMSU=  2.98D-08    CP:  1.00D+00  1.05D+00  5.24D-01  8.09D-01  1.09D+00
                    CP:  7.36D-01
 E= -577.201749544751     Delta-E=       -0.000000000054 Rises=F Damp=F
 DIIS: error= 1.28D-07 at cycle   7 NSaved=   7.
 NSaved= 7 IEnMin= 7 EnMin= -577.201749544751     IErMin= 7 ErrMin= 1.28D-07
 ErrMax= 1.28D-07  0.00D+00 EMaxC= 1.00D-01 BMatC= 2.35D-11 BMatP= 2.15D-10
 IDIUse=1 WtCom= 1.00D+00 WtEn= 0.00D+00
 Coeff-Com:  0.740D-03-0.188D-01-0.165D-01-0.286D-01 0.765D-01 0.291D+00
 Coeff-Com:  0.696D+00
 Coeff:      0.740D-03-0.188D-01-0.165D-01-0.286D-01 0.765D-01 0.291D+00
 Coeff:      0.696D+00
 Gap=     0.230 Goal=   None    Shift=    0.000
 Gap=     0.230 Goal=   None    Shift=    0.000
 RMSDP=1.77D-08 MaxDP=3.13D-07 DE=-5.41D-11 OVMax= 1.86D-06

 Cycle  15  Pass 1  IDiag  1:
 RMSU=  9.78D-09    CP:  1.00D+00  1.05D+00  5.25D-01  8.16D-01  1.12D+00
                    CP:  8.80D-01  1.08D+00
 E= -577.201749544768     Delta-E=       -0.000000000017 Rises=F Damp=F
 DIIS: error= 2.96D-08 at cycle   8 NSaved=   8.
 NSaved= 8 IEnMin= 8 EnMin= -577.201749544768     IErMin= 8 ErrMin= 2.96D-08
 ErrMax= 2.96D-08  0.00D+00 EMaxC= 1.00D-01 BMatC= 1.50D-12 BMatP= 2.35D-11
 IDIUse=1 WtCom= 1.00D+00 WtEn= 0.00D+00
 Coeff-Com:  0.288D-03-0.666D-02-0.592D-02-0.118D-01-0.683D-02 0.767D-01
 Coeff-Com:  0.275D+00 0.680D+00
 Coeff:      0.288D-03-0.666D-02-0.592D-02-0.118D-01-0.683D-02 0.767D-01
 Coeff:      0.275D+00 0.680D+00
 Gap=     0.230 Goal=   None    Shift=    0.000
 Gap=     0.230 Goal=   None    Shift=    0.000
 RMSDP=4.79D-09 MaxDP=1.45D-07 DE=-1.66D-11 OVMax= 6.23D-07

 SCF Done:  E(ULC-wPBE) =  -577.201749545     A.U. after   15 cycles
            NFock= 15  Conv=0.48D-08     -V/T= 2.0064
 <Sx>= 0.0000 <Sy>= 0.0000 <Sz>= 0.0000 <S**2>=-0.0000 S=-0.0000
 <L.S>= 0.000000000000E+00
 KE= 5.735232005628D+02 PE=-2.964732721079D+03 EE= 1.002519485008D+03
 Annihilation of the first spin contaminant:
 S**2 before annihilation    -0.0000,   after    -0.0000
 Leave Link  502 at Fri Jul 24 15:34:00 2020, MaxMem=  4026531840 cpu:             676.9 elap:              84.9
 (Enter /opt/ohpc/pub/libs/gaussian/g16-A.03/sandybridge/g16/l601.exe)
 Copying SCF densities to generalized density rwf, IOpCl= 1 IROHF=0.

 **********************************************************************

            Population analysis using the SCF density.

 **********************************************************************

 Orbital symmetries:
 Alpha Orbitals:
       Occupied  (A) (A) (A) (A) (A) (A) (A) (A) (A) (A) (A) (A)
                 (A) (A) (A) (A) (A) (A) (A) (A) (A) (A) (A) (A)
                 (A) (A) (A) (A) (A) (A) (A) (A) (A) (A) (A) (A)
                 (A) (A) (A) (A) (A) (A) (A) (A) (A) (A) (A) (A)
                 (A)
       Virtual   (A) (A) (A) (A) (A) (A) (A) (A) (A) (A) (A) (A)
                 (A) (A) (A) (A) (A) (A) (A) (A) (A) (A) (A) (A)
                 (A) (A) (A) (A) (A) (A) (A) (A) (A) (A) (A) (A)
                 (A) (A) (A) (A) (A) (A) (A) (A) (A) (A) (A) (A)
                 (A) (A) (A) (A) (A) (A) (A) (A) (A) (A) (A) (A)
                 (A) (A) (A) (A) (A) (A) (A) (A) (A) (A) (A) (A)
                 (A) (A) (A) (A) (A) (A) (A) (A) (A) (A) (A) (A)
                 (A) (A) (A) (A) (A) (A) (A) (A) (A) (A) (A) (A)
                 (A) (A) (A) (A) (A) (A) (A) (A) (A) (A) (A) (A)
                 (A) (A) (A) (A) (A) (A) (A) (A) (A) (A) (A) (A)
                 (A) (A) (A) (A) (A) (A) (A) (A) (A) (A) (A) (A)
                 (A) (A) (A) (A) (A) (A) (A) (A) (A) (A) (A) (A)
                 (A) (A) (A) (A) (A) (A) (A) (A) (A) (A) (A) (A)
                 (A) (A) (A) (A) (A) (A) (A) (A) (A) (A) (A) (A)
                 (A) (A) (A) (A) (A) (A) (A) (A) (A) (A) (A) (A)
                 (A) (A) (A) (A) (A) (A) (A) (A) (A) (A) (A) (A)
                 (A) (A) (A) (A) (A) (A) (A) (A) (A) (A) (A) (A)
                 (A) (A) (A)
 Beta  Orbitals:
       Occupied  (A) (A) (A) (A) (A) (A) (A) (A) (A) (A) (A) (A)
                 (A) (A) (A) (A) (A) (A) (A) (A) (A) (A) (A) (A)
                 (A) (A) (A) (A) (A) (A) (A) (A) (A) (A) (A) (A)
                 (A) (A) (A) (A) (A) (A) (A) (A) (A) (A) (A) (A)
                 (A)
       Virtual   (A) (A) (A) (A) (A) (A) (A) (A) (A) (A) (A) (A)
                 (A) (A) (A) (A) (A) (A) (A) (A) (A) (A) (A) (A)
                 (A) (A) (A) (A) (A) (A) (A) (A) (A) (A) (A) (A)
                 (A) (A) (A) (A) (A) (A) (A) (A) (A) (A) (A) (A)
                 (A) (A) (A) (A) (A) (A) (A) (A) (A) (A) (A) (A)
                 (A) (A) (A) (A) (A) (A) (A) (A) (A) (A) (A) (A)
                 (A) (A) (A) (A) (A) (A) (A) (A) (A) (A) (A) (A)
                 (A) (A) (A) (A) (A) (A) (A) (A) (A) (A) (A) (A)
                 (A) (A) (A) (A) (A) (A) (A) (A) (A) (A) (A) (A)
                 (A) (A) (A) (A) (A) (A) (A) (A) (A) (A) (A) (A)
                 (A) (A) (A) (A) (A) (A) (A) (A) (A) (A) (A) (A)
                 (A) (A) (A) (A) (A) (A) (A) (A) (A) (A) (A) (A)
                 (A) (A) (A) (A) (A) (A) (A) (A) (A) (A) (A) (A)
                 (A) (A) (A) (A) (A) (A) (A) (A) (A) (A) (A) (A)
                 (A) (A) (A) (A) (A) (A) (A) (A) (A) (A) (A) (A)
                 (A) (A) (A) (A) (A) (A) (A) (A) (A) (A) (A) (A)
                 (A) (A) (A) (A) (A) (A) (A) (A) (A) (A) (A) (A)
                 (A) (A) (A)
 The electronic state is 1-A.
 Alpha  occ. eigenvalues --  -18.86167 -10.01198 -10.01078  -9.95921  -9.95745
 Alpha  occ. eigenvalues --   -9.95693  -9.95152  -9.95147  -9.95011  -9.94978
 Alpha  occ. eigenvalues --   -9.94974  -9.94675  -9.94652  -9.93934  -1.05660
 Alpha  occ. eigenvalues --   -0.83405  -0.81253  -0.75761  -0.73926  -0.72142
 Alpha  occ. eigenvalues --   -0.70724  -0.67832  -0.61936  -0.59265  -0.58137
 Alpha  occ. eigenvalues --   -0.56764  -0.53841  -0.51081  -0.48749  -0.47980
 Alpha  occ. eigenvalues --   -0.47689  -0.45848  -0.44481  -0.43682  -0.42274
 Alpha  occ. eigenvalues --   -0.41809  -0.40955  -0.38879  -0.38423  -0.36934
 Alpha  occ. eigenvalues --   -0.35714  -0.34854  -0.34474  -0.33506  -0.32320
 Alpha  occ. eigenvalues --   -0.27567  -0.27094  -0.25920  -0.23552
 Alpha virt. eigenvalues --   -0.00586   0.01575   0.02836   0.03927   0.08853
 Alpha virt. eigenvalues --    0.09641   0.10358   0.12474   0.13196   0.13657
 Alpha virt. eigenvalues --    0.14276   0.15109   0.15457   0.16196   0.16368
 Alpha virt. eigenvalues --    0.17436   0.18030   0.18316   0.19256   0.24628
 Alpha virt. eigenvalues --    0.25708   0.28273   0.29741   0.31252   0.31928
 Alpha virt. eigenvalues --    0.32576   0.34457   0.35105   0.37104   0.42974
 Alpha virt. eigenvalues --    0.44044   0.44659   0.44840   0.45483   0.46053
 Alpha virt. eigenvalues --    0.47610   0.47987   0.48956   0.49544   0.50113
 Alpha virt. eigenvalues --    0.51122   0.51355   0.52133   0.52471   0.52770
 Alpha virt. eigenvalues --    0.53760   0.54267   0.54409   0.55574   0.56172
 Alpha virt. eigenvalues --    0.56805   0.56965   0.58454   0.58656   0.60420
 Alpha virt. eigenvalues --    0.61901   0.63055   0.63950   0.64626   0.64892
 Alpha virt. eigenvalues --    0.65604   0.66163   0.66524   0.67644   0.67912
 Alpha virt. eigenvalues --    0.68787   0.70417   0.70867   0.72792   0.74116
 Alpha virt. eigenvalues --    0.74399   0.75109   0.78236   0.80402   0.83113
 Alpha virt. eigenvalues --    0.86704   0.88149   0.89009   0.89164   0.89754
 Alpha virt. eigenvalues --    0.91629   0.92548   0.93011   0.93604   0.95341
 Alpha virt. eigenvalues --    0.96011   0.97363   0.98147   1.00824   1.01405
 Alpha virt. eigenvalues --    1.02275   1.03440   1.04377   1.05054   1.05400
 Alpha virt. eigenvalues --    1.05831   1.06391   1.08845   1.10977   1.11819
 Alpha virt. eigenvalues --    1.13190   1.15273   1.17430   1.21405   1.22894
 Alpha virt. eigenvalues --    1.25247   1.28060   1.30801   1.31619   1.33337
 Alpha virt. eigenvalues --    1.35496   1.37359   1.38416   1.42162   1.45154
 Alpha virt. eigenvalues --    1.46277   1.47033   1.47803   1.48286   1.49268
 Alpha virt. eigenvalues --    1.50633   1.53087   1.53966   1.55263   1.56659
 Alpha virt. eigenvalues --    1.57328   1.59311   1.59565   1.60444   1.60652
 Alpha virt. eigenvalues --    1.61972   1.62655   1.63412   1.63716   1.64508
 Alpha virt. eigenvalues --    1.65747   1.65849   1.67010   1.67759   1.68702
 Alpha virt. eigenvalues --    1.70039   1.71103   1.71532   1.72805   1.74358
 Alpha virt. eigenvalues --    1.75003   1.76750   1.77653   1.79018   1.79938
 Alpha virt. eigenvalues --    1.81537   1.82970   1.83715   1.84616   1.86224
 Alpha virt. eigenvalues --    1.86867   1.88552   1.89002   1.90687   1.91872
 Alpha virt. eigenvalues --    1.93938   1.94928   1.96776   1.97605   1.98092
 Alpha virt. eigenvalues --    1.98511   1.99222   2.01734   2.04037   2.06666
 Alpha virt. eigenvalues --    2.09882   2.13196   2.14073   2.15883   2.16516
 Alpha virt. eigenvalues --    2.20076   2.23233   2.25351   2.30382   2.35514
 Alpha virt. eigenvalues --    2.36305   2.37336   2.38199   2.39081   2.39835
 Alpha virt. eigenvalues --    2.41921   2.44788   2.47366   2.53721   2.55722
 Alpha virt. eigenvalues --    2.59995   2.61596   2.63605   2.64288   2.69699
 Alpha virt. eigenvalues --    2.72279   2.73344   2.79698   2.84348   2.87139
 Alpha virt. eigenvalues --    2.89122   3.00563   3.02000   3.27066   3.39362
 Alpha virt. eigenvalues --    3.45603   3.55304
  Beta  occ. eigenvalues --  -18.86167 -10.01198 -10.01078  -9.95921  -9.95745
  Beta  occ. eigenvalues --   -9.95693  -9.95152  -9.95147  -9.95011  -9.94978
  Beta  occ. eigenvalues --   -9.94974  -9.94675  -9.94652  -9.93934  -1.05660
  Beta  occ. eigenvalues --   -0.83405  -0.81253  -0.75761  -0.73926  -0.72142
  Beta  occ. eigenvalues --   -0.70724  -0.67832  -0.61936  -0.59265  -0.58137
  Beta  occ. eigenvalues --   -0.56764  -0.53841  -0.51081  -0.48749  -0.47980
  Beta  occ. eigenvalues --   -0.47689  -0.45848  -0.44481  -0.43682  -0.42274
  Beta  occ. eigenvalues --   -0.41809  -0.40955  -0.38879  -0.38423  -0.36934
  Beta  occ. eigenvalues --   -0.35714  -0.34854  -0.34474  -0.33506  -0.32320
  Beta  occ. eigenvalues --   -0.27567  -0.27094  -0.25920  -0.23552
  Beta virt. eigenvalues --   -0.00586   0.01575   0.02836   0.03927   0.08853
  Beta virt. eigenvalues --    0.09641   0.10358   0.12474   0.13196   0.13657
  Beta virt. eigenvalues --    0.14276   0.15109   0.15457   0.16196   0.16368
  Beta virt. eigenvalues --    0.17436   0.18030   0.18316   0.19256   0.24628
  Beta virt. eigenvalues --    0.25708   0.28273   0.29741   0.31252   0.31928
  Beta virt. eigenvalues --    0.32576   0.34457   0.35105   0.37104   0.42974
  Beta virt. eigenvalues --    0.44044   0.44659   0.44840   0.45483   0.46053
  Beta virt. eigenvalues --    0.47610   0.47987   0.48956   0.49544   0.50113
  Beta virt. eigenvalues --    0.51122   0.51355   0.52133   0.52471   0.52770
  Beta virt. eigenvalues --    0.53760   0.54267   0.54409   0.55574   0.56172
  Beta virt. eigenvalues --    0.56805   0.56965   0.58454   0.58656   0.60420
  Beta virt. eigenvalues --    0.61901   0.63055   0.63950   0.64626   0.64892
  Beta virt. eigenvalues --    0.65604   0.66163   0.66524   0.67644   0.67912
  Beta virt. eigenvalues --    0.68787   0.70417   0.70867   0.72792   0.74116
  Beta virt. eigenvalues --    0.74399   0.75109   0.78236   0.80402   0.83113
  Beta virt. eigenvalues --    0.86704   0.88149   0.89009   0.89164   0.89754
  Beta virt. eigenvalues --    0.91629   0.92548   0.93011   0.93604   0.95341
  Beta virt. eigenvalues --    0.96011   0.97363   0.98147   1.00824   1.01405
  Beta virt. eigenvalues --    1.02275   1.03440   1.04377   1.05054   1.05400
  Beta virt. eigenvalues --    1.05831   1.06391   1.08845   1.10977   1.11819
  Beta virt. eigenvalues --    1.13190   1.15273   1.17430   1.21405   1.22894
  Beta virt. eigenvalues --    1.25247   1.28060   1.30801   1.31619   1.33337
  Beta virt. eigenvalues --    1.35496   1.37359   1.38416   1.42162   1.45154
  Beta virt. eigenvalues --    1.46277   1.47033   1.47803   1.48286   1.49268
  Beta virt. eigenvalues --    1.50633   1.53087   1.53966   1.55263   1.56659
  Beta virt. eigenvalues --    1.57328   1.59311   1.59565   1.60444   1.60652
  Beta virt. eigenvalues --    1.61972   1.62655   1.63412   1.63716   1.64508
  Beta virt. eigenvalues --    1.65747   1.65849   1.67010   1.67759   1.68702
  Beta virt. eigenvalues --    1.70039   1.71103   1.71532   1.72805   1.74358
  Beta virt. eigenvalues --    1.75003   1.76750   1.77653   1.79018   1.79938
  Beta virt. eigenvalues --    1.81537   1.82970   1.83715   1.84616   1.86224
  Beta virt. eigenvalues --    1.86867   1.88552   1.89002   1.90687   1.91872
  Beta virt. eigenvalues --    1.93938   1.94928   1.96776   1.97605   1.98092
  Beta virt. eigenvalues --    1.98511   1.99222   2.01734   2.04037   2.06666
  Beta virt. eigenvalues --    2.09882   2.13196   2.14073   2.15883   2.16516
  Beta virt. eigenvalues --    2.20076   2.23233   2.25351   2.30382   2.35514
  Beta virt. eigenvalues --    2.36305   2.37336   2.38199   2.39081   2.39835
  Beta virt. eigenvalues --    2.41921   2.44788   2.47366   2.53721   2.55722
  Beta virt. eigenvalues --    2.59995   2.61596   2.63605   2.64288   2.69699
  Beta virt. eigenvalues --    2.72279   2.73344   2.79698   2.84348   2.87139
  Beta virt. eigenvalues --    2.89122   3.00563   3.02000   3.27066   3.39362
  Beta virt. eigenvalues --    3.45603   3.55304
          Condensed to atoms (all electrons):
               1          2          3          4          5          6
     1  C    4.821047   0.477241   0.011633  -0.075827   0.012183   0.454599
     2  C    0.477241   4.781964   0.452910   0.009969  -0.074814   0.007625
     3  C    0.011633   0.452910   4.870982   0.448297   0.002478  -0.079454
     4  C   -0.075827   0.009969   0.448297   5.096122   0.480050   0.016668
     5  C    0.012183  -0.074814   0.002478   0.480050   4.799597   0.463971
     6  C    0.454599   0.007625  -0.079454   0.016668   0.463971   4.807810
     7  C   -0.000013   0.006617  -0.082166   0.242741  -0.102141   0.012298
     8  C   -0.000003   0.000284  -0.011635  -0.082001  -0.001364   0.000053
     9  C   -0.000001   0.000020  -0.000181   0.008704  -0.000040   0.000007
    10  C   -0.000000  -0.000001   0.000062   0.000075  -0.000052   0.000000
    11  C    0.000000   0.000011  -0.000527   0.018134   0.000761  -0.000003
    12  C    0.000054  -0.000356   0.002366  -0.091091  -0.004633  -0.000244
    13  O    0.000013   0.000004  -0.000643   0.008016   0.002668  -0.000318
    14  C   -0.000000  -0.000003   0.000031  -0.001129  -0.000176   0.000011
    15  H    0.382436  -0.054009   0.009570   0.000306   0.010416  -0.048349
    16  H   -0.055496   0.390108  -0.049235   0.009806  -0.000646   0.010253
    17  H    0.011431  -0.052358   0.386020  -0.050156   0.013500  -0.000799
    18  H    0.011369  -0.000716   0.015133  -0.034347   0.383616  -0.067041
    19  H   -0.050449   0.010181  -0.000265   0.008708  -0.046215   0.387800
    20  H   -0.000006  -0.000461   0.004761  -0.020405   0.000086  -0.000107
    21  H    0.000000  -0.000000  -0.000033  -0.000339   0.000004  -0.000000
    22  H   -0.000000   0.000000   0.000001   0.000038   0.000000   0.000000
    23  H    0.000000  -0.000000   0.000004  -0.000680  -0.000008  -0.000000
    24  H   -0.000000   0.000000  -0.000004   0.000068   0.000027   0.000001
    25  H    0.000000   0.000000  -0.000004   0.000269   0.000009  -0.000002
    26  H   -0.000001  -0.000001   0.000008  -0.000098   0.000054   0.000008
               7          8          9         10         11         12
     1  C   -0.000013  -0.000003  -0.000001  -0.000000   0.000000   0.000054
     2  C    0.006617   0.000284   0.000020  -0.000001   0.000011  -0.000356
     3  C   -0.082166  -0.011635  -0.000181   0.000062  -0.000527   0.002366
     4  C    0.242741  -0.082001   0.008704   0.000075   0.018134  -0.091091
     5  C   -0.102141  -0.001364  -0.000040  -0.000052   0.000761  -0.004633
     6  C    0.012298   0.000053   0.000007   0.000000  -0.000003  -0.000244
     7  C    5.361744   0.485700   0.023749  -0.069552  -0.002247   0.359804
     8  C    0.485700   4.732672   0.495748   0.006803  -0.090339   0.010056
     9  C    0.023749   0.495748   4.747015   0.467623   0.012722  -0.081462
    10  C   -0.069552   0.006803   0.467623   4.807760   0.466866   0.013939
    11  C   -0.002247  -0.090339   0.012722   0.466866   5.036507   0.303156
    12  C    0.359804   0.010056  -0.081462   0.013939   0.303156   5.036694
    13  O   -0.078024   0.002003  -0.000001   0.003746  -0.068758   0.475810
    14  C    0.007953   0.000117  -0.000079   0.001234  -0.004321  -0.087649
    15  H    0.000018   0.000001   0.000000  -0.000000   0.000000  -0.000001
    16  H   -0.000367  -0.000021  -0.000000   0.000000  -0.000000   0.000005
    17  H   -0.016110   0.001809  -0.000420  -0.000036  -0.000074   0.001336
    18  H   -0.031021  -0.000080  -0.000031  -0.000059   0.000015   0.004662
    19  H   -0.000315   0.000001  -0.000000   0.000000  -0.000000  -0.000014
    20  H   -0.053509   0.390398  -0.057487   0.013957  -0.002819   0.016757
    21  H    0.012012  -0.056115   0.382361  -0.057409   0.013563  -0.000348
    22  H   -0.000051   0.010350  -0.048075   0.381368  -0.037218   0.009179
    23  H    0.006463   0.001749   0.009657  -0.036296   0.360117  -0.049743
    24  H   -0.000782  -0.000012  -0.000034   0.000183   0.012121  -0.009664
    25  H    0.001148  -0.000178   0.000025  -0.000141   0.009200  -0.003630
    26  H   -0.000201   0.000027  -0.000001  -0.000030  -0.000456   0.003487
              13         14         15         16         17         18
     1  C    0.000013  -0.000000   0.382436  -0.055496   0.011431   0.011369
     2  C    0.000004  -0.000003  -0.054009   0.390108  -0.052358  -0.000716
     3  C   -0.000643   0.000031   0.009570  -0.049235   0.386020   0.015133
     4  C    0.008016  -0.001129   0.000306   0.009806  -0.050156  -0.034347
     5  C    0.002668  -0.000176   0.010416  -0.000646   0.013500   0.383616
     6  C   -0.000318   0.000011  -0.048349   0.010253  -0.000799  -0.067041
     7  C   -0.078024   0.007953   0.000018  -0.000367  -0.016110  -0.031021
     8  C    0.002003   0.000117   0.000001  -0.000021   0.001809  -0.000080
     9  C   -0.000001  -0.000079   0.000000  -0.000000  -0.000420  -0.000031
    10  C    0.003746   0.001234  -0.000000   0.000000  -0.000036  -0.000059
    11  C   -0.068758  -0.004321   0.000000  -0.000000  -0.000074   0.000015
    12  C    0.475810  -0.087649  -0.000001   0.000005   0.001336   0.004662
    13  O    7.570433   0.357846   0.000000   0.000001  -0.000030   0.004225
    14  C    0.357846   4.499025  -0.000000   0.000000   0.000000  -0.000122
    15  H    0.000000  -0.000000   0.750954  -0.015966  -0.000317  -0.000403
    16  H    0.000001   0.000000  -0.015966   0.753091  -0.016020   0.000071
    17  H   -0.000030   0.000000  -0.000317  -0.016020   0.764130  -0.000301
    18  H    0.004225  -0.000122  -0.000403   0.000071  -0.000301   0.784281
    19  H   -0.000009  -0.000000  -0.014943  -0.000266   0.000063  -0.015841
    20  H   -0.000060   0.000019  -0.000001   0.000009   0.001482   0.000051
    21  H    0.000004  -0.000002  -0.000000  -0.000000   0.000008   0.000001
    22  H   -0.000054  -0.000026  -0.000000   0.000000  -0.000001   0.000000
    23  H   -0.008525   0.010842  -0.000000   0.000000  -0.000000   0.000019
    24  H   -0.036053   0.377489  -0.000000   0.000000  -0.000000  -0.000036
    25  H   -0.023038   0.384134   0.000000  -0.000000   0.000004   0.000046
    26  H   -0.020199   0.390938  -0.000000  -0.000000  -0.000000  -0.000067
              19         20         21         22         23         24
     1  C   -0.050449  -0.000006   0.000000  -0.000000   0.000000  -0.000000
     2  C    0.010181  -0.000461  -0.000000   0.000000  -0.000000   0.000000
     3  C   -0.000265   0.004761  -0.000033   0.000001   0.000004  -0.000004
     4  C    0.008708  -0.020405  -0.000339   0.000038  -0.000680   0.000068
     5  C   -0.046215   0.000086   0.000004   0.000000  -0.000008   0.000027
     6  C    0.387800  -0.000107  -0.000000   0.000000  -0.000000   0.000001
     7  C   -0.000315  -0.053509   0.012012  -0.000051   0.006463  -0.000782
     8  C    0.000001   0.390398  -0.056115   0.010350   0.001749  -0.000012
     9  C   -0.000000  -0.057487   0.382361  -0.048075   0.009657  -0.000034
    10  C    0.000000   0.013957  -0.057409   0.381368  -0.036296   0.000183
    11  C   -0.000000  -0.002819   0.013563  -0.037218   0.360117   0.012121
    12  C   -0.000014   0.016757  -0.000348   0.009179  -0.049743  -0.009664
    13  O   -0.000009  -0.000060   0.000004  -0.000054  -0.008525  -0.036053
    14  C   -0.000000   0.000019  -0.000002  -0.000026   0.010842   0.377489
    15  H   -0.014943  -0.000001  -0.000000  -0.000000  -0.000000  -0.000000
    16  H   -0.000266   0.000009  -0.000000   0.000000   0.000000   0.000000
    17  H    0.000063   0.001482   0.000008  -0.000001  -0.000000  -0.000000
    18  H   -0.015841   0.000051   0.000001   0.000000   0.000019  -0.000036
    19  H    0.744891   0.000000   0.000000  -0.000000   0.000000  -0.000000
    20  H    0.000000   0.776586  -0.020929  -0.000324   0.000069  -0.000000
    21  H    0.000000  -0.020929   0.779084  -0.014963  -0.000529   0.000000
    22  H   -0.000000  -0.000324  -0.014963   0.736433  -0.015968   0.000026
    23  H    0.000000   0.000069  -0.000529  -0.015968   0.752952   0.002379
    24  H   -0.000000  -0.000000   0.000000   0.000026   0.002379   0.680799
    25  H    0.000000  -0.000002   0.000001   0.000002   0.002184  -0.047031
    26  H    0.000001   0.000000  -0.000000  -0.000000  -0.000493  -0.025429
              25         26
     1  C    0.000000  -0.000001
     2  C    0.000000  -0.000001
     3  C   -0.000004   0.000008
     4  C    0.000269  -0.000098
     5  C    0.000009   0.000054
     6  C   -0.000002   0.000008
     7  C    0.001148  -0.000201
     8  C   -0.000178   0.000027
     9  C    0.000025  -0.000001
    10  C   -0.000141  -0.000030
    11  C    0.009200  -0.000456
    12  C   -0.003630   0.003487
    13  O   -0.023038  -0.020199
    14  C    0.384134   0.390938
    15  H    0.000000  -0.000000
    16  H   -0.000000  -0.000000
    17  H    0.000004  -0.000000
    18  H    0.000046  -0.000067
    19  H    0.000000   0.000001
    20  H   -0.000002   0.000000
    21  H    0.000001  -0.000000
    22  H    0.000002  -0.000000
    23  H    0.002184  -0.000493
    24  H   -0.047031  -0.025429
    25  H    0.671397  -0.032558
    26  H   -0.032558   0.634595
          Atomic-Atomic Spin Densities.
               1          2          3          4          5          6
     1  C   -0.000000   0.000000  -0.000000   0.000000  -0.000000   0.000000
     2  C    0.000000   0.000000   0.000000  -0.000000  -0.000000  -0.000000
     3  C   -0.000000   0.000000  -0.000000   0.000000  -0.000000   0.000000
     4  C    0.000000  -0.000000   0.000000  -0.000000   0.000000  -0.000000
     5  C   -0.000000  -0.000000  -0.000000   0.000000   0.000000   0.000000
     6  C    0.000000  -0.000000   0.000000  -0.000000   0.000000  -0.000000
     7  C    0.000000  -0.000000   0.000000   0.000000  -0.000000  -0.000000
     8  C    0.000000   0.000000  -0.000000  -0.000000  -0.000000  -0.000000
     9  C    0.000000  -0.000000  -0.000000   0.000000   0.000000  -0.000000
    10  C   -0.000000  -0.000000  -0.000000  -0.000000  -0.000000   0.000000
    11  C   -0.000000   0.000000  -0.000000   0.000000   0.000000   0.000000
    12  C   -0.000000   0.000000  -0.000000  -0.000000  -0.000000   0.000000
    13  O   -0.000000   0.000000  -0.000000   0.000000   0.000000   0.000000
    14  C    0.000000  -0.000000   0.000000  -0.000000  -0.000000  -0.000000
    15  H   -0.000000   0.000000  -0.000000   0.000000  -0.000000   0.000000
    16  H    0.000000  -0.000000   0.000000  -0.000000   0.000000  -0.000000
    17  H   -0.000000   0.000000  -0.000000   0.000000  -0.000000   0.000000
    18  H   -0.000000   0.000000  -0.000000  -0.000000   0.000000   0.000000
    19  H    0.000000  -0.000000   0.000000  -0.000000   0.000000  -0.000000
    20  H   -0.000000   0.000000  -0.000000  -0.000000  -0.000000   0.000000
    21  H    0.000000   0.000000   0.000000   0.000000  -0.000000  -0.000000
    22  H   -0.000000  -0.000000  -0.000000  -0.000000   0.000000   0.000000
    23  H    0.000000   0.000000   0.000000   0.000000  -0.000000  -0.000000
    24  H   -0.000000   0.000000  -0.000000  -0.000000   0.000000   0.000000
    25  H   -0.000000   0.000000  -0.000000  -0.000000   0.000000   0.000000
    26  H    0.000000  -0.000000   0.000000  -0.000000  -0.000000  -0.000000
               7          8          9         10         11         12
     1  C    0.000000   0.000000   0.000000  -0.000000  -0.000000  -0.000000
     2  C   -0.000000   0.000000  -0.000000  -0.000000   0.000000   0.000000
     3  C    0.000000  -0.000000  -0.000000  -0.000000  -0.000000  -0.000000
     4  C    0.000000  -0.000000   0.000000  -0.000000   0.000000  -0.000000
     5  C   -0.000000  -0.000000   0.000000  -0.000000   0.000000  -0.000000
     6  C   -0.000000  -0.000000  -0.000000   0.000000   0.000000   0.000000
     7  C   -0.000000   0.000000   0.000000  -0.000000   0.000000  -0.000000
     8  C    0.000000  -0.000000   0.000000   0.000000  -0.000000   0.000000
     9  C    0.000000   0.000000  -0.000000  -0.000000   0.000000  -0.000000
    10  C   -0.000000   0.000000  -0.000000   0.000000  -0.000000   0.000000
    11  C    0.000000  -0.000000   0.000000  -0.000000   0.000000  -0.000000
    12  C   -0.000000   0.000000  -0.000000   0.000000  -0.000000   0.000000
    13  O   -0.000000  -0.000000  -0.000000   0.000000  -0.000000   0.000000
    14  C   -0.000000   0.000000  -0.000000   0.000000  -0.000000  -0.000000
    15  H   -0.000000   0.000000   0.000000   0.000000  -0.000000  -0.000000
    16  H   -0.000000  -0.000000  -0.000000   0.000000  -0.000000   0.000000
    17  H    0.000000   0.000000   0.000000  -0.000000  -0.000000  -0.000000
    18  H    0.000000  -0.000000   0.000000  -0.000000   0.000000  -0.000000
    19  H   -0.000000   0.000000  -0.000000   0.000000   0.000000   0.000000
    20  H   -0.000000  -0.000000   0.000000   0.000000  -0.000000   0.000000
    21  H    0.000000   0.000000  -0.000000   0.000000  -0.000000  -0.000000
    22  H   -0.000000  -0.000000  -0.000000   0.000000   0.000000   0.000000
    23  H    0.000000   0.000000  -0.000000  -0.000000  -0.000000   0.000000
    24  H   -0.000000  -0.000000   0.000000   0.000000   0.000000  -0.000000
    25  H    0.000000  -0.000000   0.000000  -0.000000   0.000000  -0.000000
    26  H    0.000000   0.000000  -0.000000   0.000000  -0.000000   0.000000
              13         14         15         16         17         18
     1  C   -0.000000   0.000000  -0.000000   0.000000  -0.000000  -0.000000
     2  C    0.000000  -0.000000   0.000000  -0.000000   0.000000   0.000000
     3  C   -0.000000   0.000000  -0.000000   0.000000  -0.000000  -0.000000
     4  C    0.000000  -0.000000   0.000000  -0.000000   0.000000  -0.000000
     5  C    0.000000  -0.000000  -0.000000   0.000000  -0.000000   0.000000
     6  C    0.000000  -0.000000   0.000000  -0.000000   0.000000   0.000000
     7  C   -0.000000  -0.000000  -0.000000  -0.000000   0.000000   0.000000
     8  C   -0.000000   0.000000   0.000000  -0.000000   0.000000  -0.000000
     9  C   -0.000000  -0.000000   0.000000  -0.000000   0.000000   0.000000
    10  C    0.000000   0.000000   0.000000   0.000000  -0.000000  -0.000000
    11  C   -0.000000  -0.000000  -0.000000  -0.000000  -0.000000   0.000000
    12  C    0.000000  -0.000000  -0.000000   0.000000  -0.000000  -0.000000
    13  O   -0.000000   0.000000  -0.000000   0.000000   0.000000  -0.000000
    14  C    0.000000  -0.000000   0.000000  -0.000000   0.000000   0.000000
    15  H   -0.000000   0.000000   0.000000   0.000000  -0.000000  -0.000000
    16  H    0.000000  -0.000000   0.000000  -0.000000   0.000000   0.000000
    17  H    0.000000   0.000000  -0.000000   0.000000  -0.000000  -0.000000
    18  H   -0.000000   0.000000  -0.000000   0.000000  -0.000000  -0.000000
    19  H    0.000000  -0.000000   0.000000  -0.000000   0.000000   0.000000
    20  H   -0.000000   0.000000  -0.000000   0.000000  -0.000000  -0.000000
    21  H   -0.000000  -0.000000   0.000000  -0.000000   0.000000   0.000000
    22  H    0.000000   0.000000   0.000000   0.000000  -0.000000  -0.000000
    23  H   -0.000000  -0.000000   0.000000  -0.000000   0.000000   0.000000
    24  H    0.000000  -0.000000  -0.000000   0.000000  -0.000000  -0.000000
    25  H    0.000000  -0.000000  -0.000000   0.000000  -0.000000  -0.000000
    26  H    0.000000   0.000000   0.000000  -0.000000   0.000000  -0.000000
              19         20         21         22         23         24
     1  C    0.000000  -0.000000   0.000000  -0.000000   0.000000  -0.000000
     2  C   -0.000000   0.000000   0.000000  -0.000000   0.000000   0.000000
     3  C    0.000000  -0.000000   0.000000  -0.000000   0.000000  -0.000000
     4  C   -0.000000  -0.000000   0.000000  -0.000000   0.000000  -0.000000
     5  C    0.000000  -0.000000  -0.000000   0.000000  -0.000000   0.000000
     6  C   -0.000000   0.000000  -0.000000   0.000000  -0.000000   0.000000
     7  C   -0.000000  -0.000000   0.000000  -0.000000   0.000000  -0.000000
     8  C    0.000000  -0.000000   0.000000  -0.000000   0.000000  -0.000000
     9  C   -0.000000   0.000000  -0.000000  -0.000000  -0.000000   0.000000
    10  C    0.000000   0.000000   0.000000   0.000000  -0.000000   0.000000
    11  C    0.000000  -0.000000  -0.000000   0.000000  -0.000000   0.000000
    12  C    0.000000   0.000000  -0.000000   0.000000   0.000000  -0.000000
    13  O    0.000000  -0.000000  -0.000000   0.000000  -0.000000   0.000000
    14  C   -0.000000   0.000000  -0.000000   0.000000  -0.000000  -0.000000
    15  H    0.000000  -0.000000   0.000000   0.000000   0.000000  -0.000000
    16  H   -0.000000   0.000000  -0.000000   0.000000  -0.000000   0.000000
    17  H    0.000000  -0.000000   0.000000  -0.000000   0.000000  -0.000000
    18  H    0.000000  -0.000000   0.000000  -0.000000   0.000000  -0.000000
    19  H   -0.000000   0.000000  -0.000000   0.000000  -0.000000   0.000000
    20  H    0.000000   0.000000   0.000000   0.000000  -0.000000  -0.000000
    21  H   -0.000000   0.000000  -0.000000   0.000000  -0.000000   0.000000
    22  H    0.000000   0.000000   0.000000   0.000000   0.000000  -0.000000
    23  H   -0.000000  -0.000000  -0.000000   0.000000  -0.000000   0.000000
    24  H    0.000000  -0.000000   0.000000  -0.000000   0.000000  -0.000000
    25  H    0.000000  -0.000000   0.000000  -0.000000   0.000000  -0.000000
    26  H   -0.000000   0.000000  -0.000000   0.000000  -0.000000  -0.000000
              25         26
     1  C   -0.000000   0.000000
     2  C    0.000000  -0.000000
     3  C   -0.000000   0.000000
     4  C   -0.000000  -0.000000
     5  C    0.000000  -0.000000
     6  C    0.000000  -0.000000
     7  C    0.000000   0.000000
     8  C   -0.000000   0.000000
     9  C    0.000000  -0.000000
    10  C   -0.000000   0.000000
    11  C    0.000000  -0.000000
    12  C   -0.000000   0.000000
    13  O    0.000000   0.000000
    14  C   -0.000000   0.000000
    15  H   -0.000000   0.000000
    16  H    0.000000  -0.000000
    17  H   -0.000000   0.000000
    18  H   -0.000000  -0.000000
    19  H    0.000000  -0.000000
    20  H   -0.000000   0.000000
    21  H    0.000000  -0.000000
    22  H   -0.000000   0.000000
    23  H    0.000000  -0.000000
    24  H   -0.000000  -0.000000
    25  H    0.000000  -0.000000
    26  H   -0.000000   0.000000
 Mulliken charges and spin densities:
               1          2
     1  C   -0.000209  -0.000000
     2  C    0.045786   0.000000
     3  C    0.019891  -0.000000
     4  C    0.008101  -0.000000
     5  C    0.060670   0.000000
     6  C    0.035213   0.000000
     7  C   -0.083747  -0.000000
     8  C    0.103977   0.000000
     9  C    0.040184  -0.000000
    10  C   -0.000039   0.000000
    11  C   -0.026411  -0.000000
    12  C    0.091529   0.000000
    13  O   -0.189056   0.000000
    14  C    0.063869  -0.000000
    15  H   -0.019712  -0.000000
    16  H   -0.025325  -0.000000
    17  H   -0.043160  -0.000000
    18  H   -0.053424  -0.000000
    19  H   -0.023327  -0.000000
    20  H   -0.048064  -0.000000
    21  H   -0.036371  -0.000000
    22  H   -0.020716   0.000000
    23  H   -0.034192  -0.000000
    24  H    0.045951  -0.000000
    25  H    0.038164   0.000000
    26  H    0.050417   0.000000
 Sum of Mulliken charges =  -0.00000  -0.00000
 Mulliken charges and spin densities with hydrogens summed into heavy atoms:
               1          2
     1  C   -0.019921  -0.000000
     2  C    0.020461   0.000000
     3  C   -0.023268  -0.000000
     4  C    0.008101  -0.000000
     5  C    0.007246   0.000000
     6  C    0.011886   0.000000
     7  C   -0.083747  -0.000000
     8  C    0.055913   0.000000
     9  C    0.003813  -0.000000
    10  C   -0.020755   0.000000
    11  C   -0.060603  -0.000000
    12  C    0.091529   0.000000
    13  O   -0.189056   0.000000
    14  C    0.198401   0.000000
 Electronic spatial extent (au):  <R**2>=           2934.2301
 Charge=             -0.0000 electrons
 Dipole moment (field-independent basis, Debye):
    X=              1.1748    Y=              1.3902    Z=             -0.4288  Tot=              1.8699
 Quadrupole moment (field-independent basis, Debye-Ang):
   XX=            -73.4182   YY=            -74.2632   ZZ=            -82.0154
   XY=              3.0777   XZ=             -1.0148   YZ=              0.9338
 Traceless Quadrupole moment (field-independent basis, Debye-Ang):
   XX=              3.1474   YY=              2.3024   ZZ=             -5.4498
   XY=              3.0777   XZ=             -1.0148   YZ=              0.9338
 Octapole moment (field-independent basis, Debye-Ang**2):
  XXX=              8.5281  YYY=             24.3425  ZZZ=             -3.2676  XYY=             21.1317
  XXY=             11.3668  XXZ=             -4.3169  XZZ=             -6.5522  YZZ=              8.3679
  YYZ=             -4.2570  XYZ=            -12.0166
 Hexadecapole moment (field-independent basis, Debye-Ang**3):
 XXXX=          -2515.6646 YYYY=           -950.8016 ZZZZ=           -292.3688 XXXY=            -14.5197
 XXXZ=             -3.2409 YYYX=             31.5414 YYYZ=            -21.5666 ZZZX=             -6.2865
 ZZZY=              8.7929 XXYY=           -598.9158 XXZZ=           -505.9763 YYZZ=           -219.0421
 XXYZ=             16.2080 YYXZ=             -5.6842 ZZXY=             14.8556
 N-N= 8.114882859644D+02 E-N=-2.964732715343D+03  KE= 5.735232005628D+02
                          Isotropic Fermi Contact Couplings
        Atom                 a.u.       MegaHertz       Gauss      10(-4) cm-1
     1  C(13)             -0.00000      -0.00000      -0.00000      -0.00000
[...]
    10  C    0.000000   0.000000  -0.000000   0.000000   0.000000  -0.000000
    11  C    0.000000  -0.000000   0.000000  -0.000000   0.000000   0.000000
    12  C    0.000000  -0.000000  -0.000000   0.000000  -0.000000  -0.000000
    13  O    0.000000  -0.000000  -0.000000   0.000000  -0.000000   0.000000
    14  C   -0.000000   0.000000  -0.000000   0.000000  -0.000000  -0.000000
    15  H   -0.000000  -0.000000   0.000000  -0.000000   0.000000   0.000000
    16  H   -0.000000   0.000000  -0.000000   0.000000  -0.000000   0.000000
    17  H    0.000000   0.000000   0.000000  -0.000000   0.000000   0.000000
    18  H    0.000000   0.000000   0.000000  -0.000000   0.000000  -0.000000
    19  H    0.000000   0.000000   0.000000  -0.000000  -0.000000   0.000000
    20  H    0.000000  -0.000000  -0.000000   0.000000  -0.000000  -0.000000
    21  H    0.000000  -0.000000   0.000000  -0.000000   0.000000   0.000000
    22  H   -0.000000   0.000000  -0.000000   0.000000  -0.000000  -0.000000
    23  H   -0.000000  -0.000000   0.000000  -0.000000   0.000000   0.000000
    24  H    0.000000  -0.000000   0.000000  -0.000000   0.000000  -0.000000
    25  H   -0.000000  -0.000000   0.000000  -0.000000   0.000000   0.000000
    26  H    0.000000   0.000000  -0.000000   0.000000  -0.000000  -0.000000
              25         26
     1  C   -0.000000  -0.000000
     2  C    0.000000   0.000000
     3  C    0.000000  -0.000000
     4  C    0.000000  -0.000000
     5  C   -0.000000   0.000000
     6  C    0.000000   0.000000
     7  C    0.000000   0.000000
     8  C   -0.000000   0.000000
     9  C    0.000000  -0.000000
    10  C   -0.000000   0.000000
    11  C    0.000000  -0.000000
    12  C   -0.000000   0.000000
    13  O   -0.000000  -0.000000
    14  C    0.000000   0.000000
    15  H   -0.000000  -0.000000
    16  H    0.000000   0.000000
    17  H   -0.000000  -0.000000
    18  H   -0.000000   0.000000
    19  H   -0.000000   0.000000
    20  H   -0.000000   0.000000
    21  H    0.000000  -0.000000
    22  H   -0.000000   0.000000
    23  H    0.000000  -0.000000
    24  H    0.000000  -0.000000
    25  H   -0.000000  -0.000000
    26  H   -0.000000   0.000000
 Mulliken charges and spin densities:
               1          2
     1  C    0.023212   0.000000
     2  C    0.028206  -0.000000
     3  C    0.007299   0.000000
     4  C    0.029193   0.000000
     5  C    0.034109   0.000000
     6  C    0.027298  -0.000000
     7  C   -0.010735  -0.000000
     8  C    0.015878   0.000000
     9  C    0.031561  -0.000000
    10  C    0.027430   0.000000
    11  C   -0.020891  -0.000000
    12  C    0.087032   0.000000
    13  O   -0.234658  -0.000000
    14  C    0.064037   0.000000
    15  H   -0.024743  -0.000000
    16  H   -0.023196  -0.000000
    17  H   -0.030692  -0.000000
    18  H   -0.036835  -0.000000
    19  H   -0.023961   0.000000
    20  H   -0.030244  -0.000000
    21  H   -0.026911   0.000000
    22  H   -0.023880   0.000000
    23  H   -0.023913   0.000000
    24  H    0.042913  -0.000000
    25  H    0.043707  -0.000000
    26  H    0.048783  -0.000000
 Sum of Mulliken charges =  -0.00000   0.00000
 Mulliken charges and spin densities with hydrogens summed into heavy atoms:
               1          2
     1  C   -0.001531   0.000000
     2  C    0.005010  -0.000000
     3  C   -0.023393   0.000000
     4  C    0.029193   0.000000
     5  C   -0.002725   0.000000
     6  C    0.003337  -0.000000
     7  C   -0.010735  -0.000000
     8  C   -0.014366   0.000000
     9  C    0.004650  -0.000000
    10  C    0.003550   0.000000
    11  C   -0.044804  -0.000000
    12  C    0.087032   0.000000
    13  O   -0.234658  -0.000000
    14  C    0.199439   0.000000
 Electronic spatial extent (au):  <R**2>=           2963.4678
 Charge=             -0.0000 electrons
 Dipole moment (field-independent basis, Debye):
    X=              1.1062    Y=              1.1928    Z=             -0.2021  Tot=              1.6393
 Quadrupole moment (field-independent basis, Debye-Ang):
   XX=            -72.8862   YY=            -72.5544   ZZ=            -84.6154
   XY=              3.5611   XZ=             -0.1998   YZ=              1.5444
 Traceless Quadrupole moment (field-independent basis, Debye-Ang):
   XX=              3.7991   YY=              4.1309   ZZ=             -7.9301
   XY=              3.5611   XZ=             -0.1998   YZ=              1.5444
 Octapole moment (field-independent basis, Debye-Ang**2):
  XXX=              6.0007  YYY=             21.9146  ZZZ=             -3.2108  XYY=             15.9921
  XXY=             11.8749  XXZ=             -4.4725  XZZ=             -1.3497  YZZ=              7.8773
  YYZ=             -1.8528  XYZ=            -11.5277
 Hexadecapole moment (field-independent basis, Debye-Ang**3):
 XXXX=          -2555.4453 YYYY=          -1015.6983 ZZZZ=           -218.9777 XXXY=              6.5690
 XXXZ=              8.8223 YYYX=             30.3148 YYYZ=            -11.4224 ZZZX=             -4.1291
 ZZZY=              3.5291 XXYY=           -603.4118 XXZZ=           -521.2283 YYZZ=           -219.4051
 XXYZ=             17.2523 YYXZ=             -0.9339 ZZXY=             13.4140
 N-N= 8.100887137218D+02 E-N=-2.961751513176D+03  KE= 5.732031509409D+02
                          Isotropic Fermi Contact Couplings
        Atom                 a.u.       MegaHertz       Gauss      10(-4) cm-1
     1  C(13)             -0.00000      -0.00000      -0.00000      -0.00000
     2  C(13)             -0.00000      -0.00000      -0.00000      -0.00000
     3  C(13)             -0.00000      -0.00000      -0.00000      -0.00000
     4  C(13)              0.00000       0.00000       0.00000       0.00000
     5  C(13)             -0.00000      -0.00000      -0.00000      -0.00000
     6  C(13)              0.00000       0.00000       0.00000       0.00000
     7  C(13)              0.00000       0.00000       0.00000       0.00000
     8  C(13)              0.00000       0.00000       0.00000       0.00000
     9  C(13)             -0.00000      -0.00000      -0.00000      -0.00000
    10  C(13)             -0.00000      -0.00000      -0.00000      -0.00000
    11  C(13)             -0.00000      -0.00000      -0.00000      -0.00000
    12  C(13)              0.00000       0.00000       0.00000       0.00000
    13  O(17)              0.00000      -0.00000      -0.00000      -0.00000
    14  C(13)              0.00000       0.00000       0.00000       0.00000
    15  H(1)               0.00000       0.00000       0.00000       0.00000
    16  H(1)              -0.00000      -0.00000      -0.00000      -0.00000
    17  H(1)              -0.00000      -0.00000      -0.00000      -0.00000
    18  H(1)               0.00000       0.00000       0.00000       0.00000
    19  H(1)               0.00000       0.00000       0.00000       0.00000
    20  H(1)              -0.00000      -0.00000      -0.00000      -0.00000
    21  H(1)               0.00000       0.00000       0.00000       0.00000
    22  H(1)               0.00000       0.00000       0.00000       0.00000
    23  H(1)              -0.00000      -0.00000      -0.00000      -0.00000
    24  H(1)              -0.00000      -0.00000      -0.00000      -0.00000
    25  H(1)               0.00000       0.00000       0.00000       0.00000
    26  H(1)              -0.00000      -0.00000      -0.00000      -0.00000
 --------------------------------------------------------
       Center         ----  Spin Dipole Couplings  ----
                      3XX-RR        3YY-RR        3ZZ-RR
 --------------------------------------------------------
     1   Atom       -0.000000      0.000000      0.000000
     2   Atom       -0.000000      0.000000      0.000000
     3   Atom        0.000000     -0.000000      0.000000
     4   Atom        0.000000      0.000000     -0.000000
     5   Atom        0.000000     -0.000000      0.000000
     6   Atom       -0.000000      0.000000      0.000000
     7   Atom       -0.000000      0.000000      0.000000
     8   Atom       -0.000000      0.000000     -0.000000
     9   Atom        0.000000     -0.000000     -0.000000
    10   Atom        0.000000     -0.000000      0.000000
    11   Atom        0.000000     -0.000000     -0.000000
    12   Atom        0.000000      0.000000     -0.000000
    13   Atom       -0.000000      0.000000      0.000000
    14   Atom       -0.000000      0.000000      0.000000
    15   Atom       -0.000000      0.000000      0.000000
    16   Atom        0.000000     -0.000000      0.000000
    17   Atom       -0.000000      0.000000      0.000000
    18   Atom       -0.000000     -0.000000      0.000000
    19   Atom       -0.000000      0.000000     -0.000000
    20   Atom       -0.000000      0.000000      0.000000
    21   Atom       -0.000000      0.000000     -0.000000
    22   Atom        0.000000      0.000000     -0.000000
    23   Atom        0.000000      0.000000     -0.000000
    24   Atom       -0.000000     -0.000000      0.000000
    25   Atom       -0.000000     -0.000000      0.000000
    26   Atom        0.000000     -0.000000      0.000000
 --------------------------------------------------------
                        XY            XZ            YZ
 --------------------------------------------------------
     1   Atom       -0.000000     -0.000000     -0.000000
     2   Atom        0.000000     -0.000000     -0.000000
     3   Atom        0.000000      0.000000     -0.000000
     4   Atom        0.000000      0.000000      0.000000
     5   Atom       -0.000000     -0.000000     -0.000000
     6   Atom        0.000000     -0.000000     -0.000000
     7   Atom        0.000000     -0.000000     -0.000000
     8   Atom        0.000000     -0.000000     -0.000000
     9   Atom       -0.000000      0.000000      0.000000
    10   Atom        0.000000     -0.000000      0.000000
    11   Atom        0.000000     -0.000000      0.000000
    12   Atom        0.000000      0.000000     -0.000000
    13   Atom       -0.000000     -0.000000     -0.000000
    14   Atom       -0.000000      0.000000      0.000000
    15   Atom        0.000000      0.000000     -0.000000
    16   Atom       -0.000000     -0.000000     -0.000000
    17   Atom       -0.000000     -0.000000     -0.000000
    18   Atom       -0.000000     -0.000000     -0.000000
    19   Atom       -0.000000      0.000000      0.000000
    20   Atom        0.000000     -0.000000      0.000000
    21   Atom       -0.000000      0.000000     -0.000000
    22   Atom        0.000000     -0.000000     -0.000000
    23   Atom        0.000000     -0.000000     -0.000000
    24   Atom       -0.000000      0.000000      0.000000
    25   Atom       -0.000000     -0.000000      0.000000
    26   Atom       -0.000000      0.000000     -0.000000
 --------------------------------------------------------


 ---------------------------------------------------------------------------------
              Anisotropic Spin Dipole Couplings in Principal Axis System
 ---------------------------------------------------------------------------------

       Atom             a.u.   MegaHertz   Gauss  10(-4) cm-1        Axes

              Baa    -0.0000    -0.000    -0.000    -0.000  0.9403  0.1994  0.2760
     1 C(13)  Bbb     0.0000     0.000     0.000     0.000 -0.3365  0.6681  0.6636
              Bcc     0.0000     0.000     0.000     0.000  0.0520  0.7168 -0.6953
 
              Baa    -0.0000    -0.000    -0.000    -0.000  0.4760  0.5244  0.7060
     2 C(13)  Bbb    -0.0000    -0.000    -0.000    -0.000  0.8537 -0.4684 -0.2276
              Bcc     0.0000     0.000     0.000     0.000  0.2114  0.7111 -0.6706
 
              Baa    -0.0000    -0.000    -0.000    -0.000 -0.4063  0.8893  0.2098
     3 C(13)  Bbb    -0.0000    -0.000    -0.000    -0.000 -0.5788 -0.4281  0.6940
              Bcc     0.0000     0.000     0.000     0.000  0.7070  0.1606  0.6887
 
              Baa    -0.0000    -0.000    -0.000    -0.000 -0.1517 -0.3528  0.9233
     4 C(13)  Bbb     0.0000     0.000     0.000     0.000 -0.5174  0.8243  0.2300
              Bcc     0.0000     0.000     0.000     0.000  0.8422  0.4428  0.3076
 
              Baa    -0.0000    -0.000    -0.000    -0.000  0.5085  0.6979  0.5043
     5 C(13)  Bbb     0.0000     0.000     0.000     0.000 -0.2983  0.6922 -0.6572
              Bcc     0.0000     0.000     0.000     0.000  0.8077 -0.1838 -0.5602
 
              Baa    -0.0000    -0.000    -0.000    -0.000  0.9888 -0.1021  0.1090
     6 C(13)  Bbb    -0.0000    -0.000    -0.000    -0.000 -0.0400  0.5222  0.8519
              Bcc     0.0000     0.000     0.000     0.000  0.1438  0.8467 -0.5122
 
              Baa    -0.0000    -0.000    -0.000    -0.000  0.9932 -0.0669  0.0949
     7 C(13)  Bbb     0.0000     0.000     0.000     0.000 -0.0142  0.7411  0.6712
              Bcc     0.0000     0.000     0.000     0.000 -0.1152 -0.6680  0.7352
 
              Baa    -0.0000    -0.000    -0.000    -0.000  0.8501 -0.3930  0.3505
     8 C(13)  Bbb    -0.0000    -0.000    -0.000    -0.000 -0.2345  0.3134  0.9202
              Bcc     0.0000     0.000     0.000     0.000  0.4715  0.8645 -0.1743
 
              Baa    -0.0000    -0.000    -0.000    -0.000  0.4822  0.8446 -0.2326
     9 C(13)  Bbb    -0.0000    -0.000    -0.000    -0.000  0.0613  0.2324  0.9707
              Bcc     0.0000     0.000     0.000     0.000  0.8739 -0.4823  0.0603
 
              Baa    -0.0000    -0.000    -0.000    -0.000 -0.1463  0.9831 -0.1100
    10 C(13)  Bbb     0.0000     0.000     0.000     0.000 -0.0190  0.1083  0.9939
              Bcc     0.0000     0.000     0.000     0.000  0.9891  0.1475  0.0029
 
              Baa    -0.0000    -0.000    -0.000    -0.000 -0.2097  0.9694 -0.1277
    11 C(13)  Bbb    -0.0000    -0.000    -0.000    -0.000 -0.0207  0.1262  0.9918
              Bcc     0.0000     0.000     0.000     0.000  0.9775  0.2106 -0.0064
 
              Baa    -0.0000    -0.000    -0.000    -0.000 -0.0717  0.0918  0.9932
    12 C(13)  Bbb     0.0000     0.000     0.000     0.000  0.9320 -0.3486  0.0995
              Bcc     0.0000     0.000     0.000     0.000  0.3553  0.9328 -0.0606
 
              Baa    -0.0000     0.000     0.000     0.000  0.8965  0.4407  0.0459
    13 O(17)  Bbb     0.0000    -0.000    -0.000    -0.000 -0.0321 -0.0389  0.9987
              Bcc     0.0000    -0.000    -0.000    -0.000 -0.4420  0.8968  0.0207
 
              Baa    -0.0000    -0.000    -0.000    -0.000  0.8161  0.5714 -0.0866
    14 C(13)  Bbb     0.0000     0.000     0.000     0.000 -0.1429  0.3448  0.9277
              Bcc     0.0000     0.000     0.000     0.000 -0.5599  0.7448 -0.3631
 
              Baa    -0.0000    -0.000    -0.000    -0.000  0.8046 -0.4758 -0.3554
    15 H(1)   Bbb     0.0000     0.000     0.000     0.000  0.1155  0.7124 -0.6922
              Bcc     0.0000     0.000     0.000     0.000  0.5825  0.5158  0.6281
 
              Baa    -0.0000    -0.000    -0.000    -0.000  0.4447  0.7822  0.4363
    16 H(1)   Bbb     0.0000     0.000     0.000     0.000  0.8670 -0.2538 -0.4287
              Bcc     0.0000     0.000     0.000     0.000  0.2246 -0.5690  0.7911
 
              Baa    -0.0000    -0.000    -0.000    -0.000  0.3151  0.6529  0.6888
    17 H(1)   Bbb    -0.0000    -0.000    -0.000    -0.000  0.9460 -0.1574 -0.2835
              Bcc     0.0000     0.000     0.000     0.000 -0.0767  0.7409 -0.6672
 
              Baa    -0.0000    -0.000    -0.000    -0.000  0.5951  0.6300  0.4990
    18 H(1)   Bbb     0.0000     0.000     0.000     0.000  0.7995 -0.4013 -0.4469
              Bcc     0.0000     0.000     0.000     0.000  0.0813 -0.6649  0.7425
 
              Baa    -0.0000    -0.000    -0.000    -0.000  0.8216  0.2800 -0.4966
    19 H(1)   Bbb    -0.0000    -0.000    -0.000    -0.000  0.5683 -0.4715  0.6743
              Bcc     0.0000     0.000     0.000     0.000  0.0454  0.8362  0.5465
 
              Baa    -0.0000    -0.000    -0.000    -0.000  0.7751 -0.6252  0.0912
    20 H(1)   Bbb     0.0000     0.000     0.000     0.000  0.0584  0.2146  0.9749
              Bcc     0.0000     0.000     0.000     0.000  0.6291  0.7503 -0.2029
 
              Baa    -0.0000    -0.000    -0.000    -0.000 -0.5056 -0.0214  0.8625
    21 H(1)   Bbb    -0.0000    -0.000    -0.000    -0.000  0.8101  0.3322  0.4831
              Bcc     0.0000     0.000     0.000     0.000 -0.2968  0.9430 -0.1507
 
              Baa    -0.0000    -0.000    -0.000    -0.000  0.0490  0.1423  0.9886
    22 H(1)   Bbb     0.0000     0.000     0.000     0.000  0.9831 -0.1818 -0.0226
              Bcc     0.0000     0.000     0.000     0.000  0.1765  0.9730 -0.1488
 
              Baa    -0.0000    -0.000    -0.000    -0.000  0.6302 -0.4511  0.6320
    23 H(1)   Bbb    -0.0000    -0.000    -0.000    -0.000 -0.3760  0.5348  0.7567
              Bcc     0.0000     0.000     0.000     0.000  0.6793  0.7145 -0.1675
 
              Baa    -0.0000    -0.000    -0.000    -0.000  0.7654  0.4899 -0.4172
    24 H(1)   Bbb    -0.0000    -0.000    -0.000    -0.000 -0.5162  0.8546  0.0565
              Bcc     0.0000     0.000     0.000     0.000  0.3843  0.1721  0.9070
 
              Baa    -0.0000    -0.000    -0.000    -0.000  0.8273  0.5557  0.0819
    25 H(1)   Bbb    -0.0000    -0.000    -0.000    -0.000 -0.5390  0.8264 -0.1626
              Bcc     0.0000     0.000     0.000     0.000 -0.1580  0.0903  0.9833
 
              Baa    -0.0000    -0.000    -0.000    -0.000  0.4074  0.9130 -0.0230
    26 H(1)   Bbb    -0.0000    -0.000    -0.000    -0.000 -0.2945  0.1552  0.9430
              Bcc     0.0000     0.000     0.000     0.000  0.8645 -0.3773  0.3321
 

 ---------------------------------------------------------------------------------

 No NMR shielding tensors so no spin-rotation constants.
 Leave Link  601 at Fri Jul 24 15:48:08 2020, MaxMem=  4026531840 cpu:               2.0 elap:               0.3
 (Enter /opt/ohpc/pub/libs/gaussian/g16-A.03/sandybridge/g16/l9999.exe)

 Test job not archived.
 1\1\GINC-SKYLAKE033\FOpt\ULC-wPBE\CC-pVDZ\C13H12O1\RDU230\24-Jul-2020\
 0\\#P uLC-wPBE/cc-pVDZ iop(3/107=0095400000, 3/108=0095400000) opt\\H1
 2 C13 O1\\0,1\C,-3.8213567455,0.0614169886,-0.0086327727\C,-3.23254617
 14,-0.9130744241,-0.8273181904\C,-1.8427507487,-1.0942474438,-0.818356
 1177\C,-1.0096236097,-0.3066449606,0.0067797031\C,-1.6167609361,0.6754
 831023,0.8205791166\C,-3.0061649373,0.8532901162,0.8146815829\C,0.4585
 919217,-0.5590093497,0.0314601658\C,0.941871154,-1.8806110951,0.082107
 9684\C,2.3131906441,-2.1749822663,0.0879598129\C,3.2370890857,-1.12589
 69473,0.0394235105\C,2.7935267459,0.2046494709,-0.0139622267\C,1.41640
 50254,0.4944674839,-0.0165099728\O,0.91231197,1.7680746197,-0.08072659
 36\C,1.8375738273,2.8439655486,-0.1897555618\H,-4.911452489,0.20600743
 1,-0.0141204918\H,-3.8584051622,-1.5345353851,-1.4844630049\H,-1.38653
 73982,-1.8473773841,-1.4776920474\H,-0.9882739566,1.2989544703,1.46935
 32811\H,-3.4576035811,1.6183686593,1.463403802\H,0.2084596652,-2.69822
 60752,0.1397056206\H,2.6530725235,-3.2186771732,0.1375833229\H,4.31707
 08458,-1.3326945486,0.0454148692\H,3.5303150168,1.0164292993,-0.057076
 7418\H,2.5061491125,2.9084814546,0.6972177703\H,2.4619864296,2.7597056
 895,-1.1064350156\H,1.2249387682,3.7614807191,-0.2499997889\\Version=E
 M64L-G16RevA.03\State=1-A\HF=-577.2393517\S2=0.\S2-1=0.\S2A=0.\RMSD=6.
 217e-09\RMSF=5.592e-06\Dipole=0.429396,0.4799265,-0.0353611\Quadrupole
 =2.7569152,2.8650331,-5.6219483,2.6395759,0.1069827,1.9363892\PG=C01 [
 X(C13H12O1)]\\@


 MUD THROWN IS GROUND LOST -- FROM A TEA BAG
 Job cpu time:       0 days  2 hours  3 minutes 32.1 seconds.
 Elapsed time:       0 days  0 hours 15 minutes 36.0 seconds.
 File lengths (MBytes):  RWF=    136 Int=      0 D2E=      0 Chk=     12 Scr=      8
 Normal termination of Gaussian 16 at Fri Jul 24 15:48:08 2020.
