 Entering Gaussian System, Link 0=g16
 Input=mols_66_5_12_c-c-cF-cOC_opt_0.gjf
 Output=mols_66_5_12_c-c-cF-cOC_opt_0.log
 Initial command:
 /opt/ohpc/pub/libs/gaussian/g16-A.03/sandybridge/g16/l1.exe "/mnt/gpfs2_4m/scratch/rdu230/ondemand/projects/dihedral_energies/7trial/wtuning/mols_66_5_12_c-c-cF-cOC/Gau-452546.inp" -scrdir="/mnt/gpfs2_4m/scratch/rdu230/ondemand/projects/dihedral_energies/7trial/wtuning/mols_66_5_12_c-c-cF-cOC/"
 Entering Link 1 = /opt/ohpc/pub/libs/gaussian/g16-A.03/sandybridge/g16/l1.exe PID=    452547.
  
 Copyright (c) 1988,1990,1992,1993,1995,1998,2003,2009,2016,
            Gaussian, Inc.  All Rights Reserved.
  
 This is part of the Gaussian(R) 16 program.  It is based on
 the Gaussian(R) 09 system (copyright 2009, Gaussian, Inc.),
 the Gaussian(R) 03 system (copyright 2003, Gaussian, Inc.),
 the Gaussian(R) 98 system (copyright 1998, Gaussian, Inc.),
 the Gaussian(R) 94 system (copyright 1995, Gaussian, Inc.),
 the Gaussian 92(TM) system (copyright 1992, Gaussian, Inc.),
 the Gaussian 90(TM) system (copyright 1990, Gaussian, Inc.),
 the Gaussian 88(TM) system (copyright 1988, Gaussian, Inc.),
 the Gaussian 86(TM) system (copyright 1986, Carnegie Mellon
 University), and the Gaussian 82(TM) system (copyright 1983,
 Carnegie Mellon University). Gaussian is a federally registered
 trademark of Gaussian, Inc.
  
 This software contains proprietary and confidential information,
 including trade secrets, belonging to Gaussian, Inc.
  
 This software is provided under written license and may be
 used, copied, transmitted, or stored only in accord with that
 written license.
  
 The following legend is applicable only to US Government
 contracts under FAR:
  
                    RESTRICTED RIGHTS LEGEND
  
 Use, reproduction and disclosure by the US Government is
 subject to restrictions as set forth in subparagraphs (a)
 and (c) of the Commercial Computer Software - Restricted
 Rights clause in FAR 52.227-19.
  
 Gaussian, Inc.
 340 Quinnipiac St., Bldg. 40, Wallingford CT 06492
  
  
 ---------------------------------------------------------------
 Warning -- This program may not be used in any manner that
 competes with the business of Gaussian, Inc. or will provide
 assistance to any competitor of Gaussian, Inc.  The licensee
 of this program is prohibited from giving any competitor of
 Gaussian, Inc. access to this program.  By using this program,
 the user acknowledges that Gaussian, Inc. is engaged in the
 business of creating and licensing software in the field of
 computational chemistry and represents and warrants to the
 licensee that it is not a competitor of Gaussian, Inc. and that
 it will not use this program in any manner prohibited above.
 ---------------------------------------------------------------
  

 Cite this work as:
 Gaussian 16, Revision A.03,
 M. J. Frisch, G. W. Trucks, H. B. Schlegel, G. E. Scuseria, 
 M. A. Robb, J. R. Cheeseman, G. Scalmani, V. Barone, 
 G. A. Petersson, H. Nakatsuji, X. Li, M. Caricato, A. V. Marenich, 
 J. Bloino, B. G. Janesko, R. Gomperts, B. Mennucci, H. P. Hratchian, 
 J. V. Ortiz, A. F. Izmaylov, J. L. Sonnenberg, D. Williams-Young, 
 F. Ding, F. Lipparini, F. Egidi, J. Goings, B. Peng, A. Petrone, 
 T. Henderson, D. Ranasinghe, V. G. Zakrzewski, J. Gao, N. Rega, 
 G. Zheng, W. Liang, M. Hada, M. Ehara, K. Toyota, R. Fukuda, 
 J. Hasegawa, M. Ishida, T. Nakajima, Y. Honda, O. Kitao, H. Nakai, 
 T. Vreven, K. Throssell, J. A. Montgomery, Jr., J. E. Peralta, 
 F. Ogliaro, M. J. Bearpark, J. J. Heyd, E. N. Brothers, K. N. Kudin, 
 V. N. Staroverov, T. A. Keith, R. Kobayashi, J. Normand, 
 K. Raghavachari, A. P. Rendell, J. C. Burant, S. S. Iyengar, 
 J. Tomasi, M. Cossi, J. M. Millam, M. Klene, C. Adamo, R. Cammi, 
 J. W. Ochterski, R. L. Martin, K. Morokuma, O. Farkas, 
 J. B. Foresman, and D. J. Fox, Gaussian, Inc., Wallingford CT, 2016.
 
 ******************************************
 Gaussian 16:  EM64L-G16RevA.03 25-Dec-2016
                24-Jul-2020 
 ******************************************
 %mem=30GB
 %nproc=8
 Will use up to    8 processors via shared memory.
 ---------------------------------------------------------------
 #P uLC-wPBE/cc-pVDZ iop(3/107=0224600000, 3/108=0224600000) opt
 ---------------------------------------------------------------
 1/18=20,19=15,26=3,38=1/1,3;
 2/9=110,12=2,17=6,18=5,40=1/2;
 3/5=16,11=2,25=1,30=1,71=1,74=-41,107=224600000,108=224600000,116=2/1,2,3;
 4//1;
 5/5=2,38=5/2;
 6/7=2,8=2,9=2,10=2,28=1/1;
 7//1,2,3,16;
 1/18=20,19=15,26=3/3(2);
 2/9=110/2;
 99//99;
 2/9=110/2;
 3/5=16,11=2,25=1,30=1,71=1,74=-41,107=224600000,108=224600000,116=2/1,2,3;
 4/5=5,16=3,69=1/1;
 5/5=2,38=5/2;
 7//1,2,3,16;
 1/18=20,19=15,26=3/3(-5);
 2/9=110/2;
 6/7=2,8=2,9=2,10=2,19=2,28=1/1;
 99/9=1/99;
 Leave Link    1 at Fri Jul 24 11:30:40 2020, MaxMem=  4026531840 cpu:               1.9 elap:               0.3
 (Enter /opt/ohpc/pub/libs/gaussian/g16-A.03/sandybridge/g16/l101.exe)
 -------------
 H47 C65 O5 F5
 -------------
 Symbolic Z-matrix:
 Charge =  0 Multiplicity = 1
 C                     20.80644   0.93174   0.92811 
 C                     19.97884   0.6649    2.0193 
 C                     18.56349   0.53003   1.91827 
 F                     17.80904   0.29002   2.94962 
 C                     18.01384   0.71535   0.61878 
 C                     18.86009   0.89487  -0.52063 
 C                     20.24776   1.03445  -0.34755 
 C                     16.58312   0.58081   0.44161 
 C                     15.89715  -0.71438   0.76488 
 C                     14.53711  -0.781     0.63209 
 C                     13.76502   0.19209   0.1584 
 C                     14.38536   1.48106  -0.19242 
 C                     15.80685   1.61092  -0.03354 
 O                     16.40536   2.78802  -0.3808 
 C                     15.59098   3.9156   -0.562 
 C                     12.25422   0.02449  -0.039 
 C                     11.66127   0.29497  -1.2963 
 C                     10.23029   0.21651  -1.39873 
 F                     9.70855   0.46962  -2.63043 
 C                     9.45196  -0.23992  -0.35706 
 C                     10.09795  -0.51368   0.94099 
 C                     11.44489  -0.37678   1.04438 
 C                     8.02864  -0.27604  -0.43681 
 C                     7.2928    0.85561  -0.71787 
 C                     5.8896    0.78764  -0.78807 
 C                     5.1371   -0.35988  -0.63865 
 C                     5.91352  -1.51224  -0.36026 
 C                     7.33332  -1.53944  -0.22447 
 O                     8.06471  -2.64595  -0.04231 
 C                     7.39783  -3.90251   0.0241 
 C                     3.70788  -0.3857   -0.62047 
 C                     2.95044  -1.32598  -1.43612 
 C                     1.63952  -1.34015  -1.45136 
 F                     0.96691  -2.25812  -2.27288 
 C                     0.89583  -0.45329  -0.65348 
 C                     1.59038   0.43597   0.17731 
 C                     2.94553   0.49392   0.18617 
 C                    -0.62703  -0.48734  -0.70682 
 C                    -1.34368   0.38696  -1.49666 
 C                    -2.73537   0.43097  -1.47248 
 C                    -3.41734  -0.37092  -0.65214 
 C                    -2.69978  -1.31489   0.1755 
 C                    -1.35997  -1.32261   0.20769 
 O                    -0.6039   -2.21188   1.0022 
 C                    -1.31881  -3.16481   1.77242 
 C                    -4.94165  -0.34955  -0.60244 
 C                    -5.56159   0.83365  -0.23744 
 C                    -6.9975    0.89369  -0.08265 
 F                    -7.48745   2.09319   0.27682 
 C                    -7.79073  -0.1713   -0.37181 
 C                    -7.11987  -1.40414  -0.73675 
 C                    -5.72444  -1.43356  -0.81831 
 C                    -9.17863  -0.1487   -0.27931 
 C                    -9.9333    0.69967  -1.07837 
 C                    -11.305    0.85452  -1.04096 
 C                    -12.10752   0.02522  -0.09385 
 C                    -11.31269  -0.85861   0.73199 
 C                    -9.9089   -0.97363   0.61218 
 O                    -9.1915   -1.77126   1.44723 
 C                    -9.83679  -2.34237   2.61874 
 C                    -13.55526   0.19668  -0.01215 
 C                    -14.38603   0.11694  -1.13445 
 C                    -15.69444   0.25307  -1.03116 
 F                    -16.43255   0.2312   -2.19161 
 C                    -16.39131   0.37256   0.22288 
 C                    -15.5922   0.42551   1.28622 
 C                    -14.1231   0.32209   1.20525 
 C                    -17.80123   0.47345   0.28494 
 C                    -18.66375  -0.52164  -0.25906 
 C                    -19.99971  -0.45449  -0.11651 
 C                    -20.67654   0.62393   0.39685 
 C                    -19.8463   1.69301   0.97915 
 C                    -18.43141   1.63298   0.8903 
 O                    -17.65896   2.64762   1.36688 
 C                    -18.20903   3.82204   1.8264 
 H                     21.86083   1.04083   1.07132 
 H                     20.38546   0.53089   3.08182 
 H                     18.43528   0.95013  -1.47303 
 H                     20.9261   1.21153  -1.16398 
 H                     16.50999  -1.46742   1.18002 
 H                     14.08619  -1.74073   0.89438 
 H                     13.77776   2.28641  -0.59438 
 H                     15.03765   3.86906  -1.51119 
 H                     14.96492   4.10138   0.32666 
 H                     16.30538   4.78463  -0.58236 
 H                     12.23378   0.62462  -2.17592 
 H                     9.49747  -0.81984   1.8036 
 H                     11.97417  -0.58563   2.00222 
 H                     7.71341   1.77911  -0.91353 
 H                     5.31729   1.76621  -1.0478 
 H                     5.37181  -2.44894  -0.1419 
 H                     8.21211  -4.64575   0.19085 
 H                     6.73638  -4.02962   0.87541 
 H                     6.89545  -4.12134  -0.94263 
 H                     3.56814  -2.01634  -2.11345 
 H                     0.96224   1.11176   0.77161 
 H                     3.46605   1.12935   0.86446 
 H                    -0.73341   1.11772  -2.1347 
 H                    -3.27713   1.20119  -2.10066 
 H                    -3.3604   -1.94019   0.79749 
 H                    -0.5933   -3.69434   2.32696 
 H                    -1.93289  -2.62385   2.53825 
 H                    -1.87019  -3.79074   1.21019 
 H                    -4.96549   1.73468   0.07007 
 H                    -7.66431  -2.24096  -1.03774 
 H                    -5.26866  -2.33621  -1.16951 
 H                    -9.39644   1.38269  -1.84479 
 H                    -11.88798   1.53579  -1.6192 
 H                    -11.89839  -1.46031   1.40669 
 H                    -10.57013  -3.10544   2.34098 
 H                    -10.27573  -1.5036    3.1769 
 H                    -9.03201  -2.87366   3.1641 
 H                    -13.93214  -0.00758  -2.10279 
 H                    -16.05265   0.53077   2.28003 
 H                    -13.6178   0.36518   2.11003 
 H                    -18.19974  -1.40179  -0.61965 
 H                    -20.61699  -1.24293  -0.53146 
 H                    -21.73949   0.73521   0.48348 
 H                    -20.39526   2.55996   1.34272 
 H                    -18.81247   3.61039   2.6676 
 H                    -18.81448   4.34258   1.01861 
 H                    -17.49126   4.53573   2.07252 
 
 ITRead=  0  0  0  0  0  0  0  0  0  0  0  0  0  0  0  0  0  0  0  0
 ITRead=  0  0  0  0  0  0  0  0  0  0  0  0  0  0  0  0  0  0  0  0
 ITRead=  0  0  0  0  0  0  0  0  0  0  0  0  0  0  0  0  0  0  0  0
 ITRead=  0  0  0  0  0  0  0  0  0  0  0  0  0  0  0  0  0  0  0  0
 ITRead=  0  0  0  0  0  0  0  0  0  0  0  0  0  0  0  0  0  0  0  0
 ITRead=  0  0  0  0  0  0  0  0  0  0  0  0  0  0  0  0  0  0  0  0
 ITRead=  0  0
 MicOpt= -1 -1 -1 -1 -1 -1 -1 -1 -1 -1 -1 -1 -1 -1 -1 -1 -1 -1 -1 -1
 MicOpt= -1 -1 -1 -1 -1 -1 -1 -1 -1 -1 -1 -1 -1 -1 -1 -1 -1 -1 -1 -1
 MicOpt= -1 -1 -1 -1 -1 -1 -1 -1 -1 -1 -1 -1 -1 -1 -1 -1 -1 -1 -1 -1
 MicOpt= -1 -1 -1 -1 -1 -1 -1 -1 -1 -1 -1 -1 -1 -1 -1 -1 -1 -1 -1 -1
 MicOpt= -1 -1 -1 -1 -1 -1 -1 -1 -1 -1 -1 -1 -1 -1 -1 -1 -1 -1 -1 -1
 MicOpt= -1 -1 -1 -1 -1 -1 -1 -1 -1 -1 -1 -1 -1 -1 -1 -1 -1 -1 -1 -1
 MicOpt= -1 -1
 NAtoms=    122 NQM=      122 NQMF=       0 NMMI=      0 NMMIF=      0
                NMic=       0 NMicF=      0.
                    Isotopes and Nuclear Properties:
 (Nuclear quadrupole moments (NQMom) in fm**2, nuclear magnetic moments (NMagM)
  in nuclear magnetons)

  Atom         1           2           3           4           5           6           7           8           9          10
 IAtWgt=          12          12          12          19          12          12          12          12          12          12
 AtmWgt=  12.0000000  12.0000000  12.0000000  18.9984033  12.0000000  12.0000000  12.0000000  12.0000000  12.0000000  12.0000000
 NucSpn=           0           0           0           1           0           0           0           0           0           0
 AtZEff=  -0.0000000  -0.0000000  -0.0000000  -0.0000000  -0.0000000  -0.0000000  -0.0000000  -0.0000000  -0.0000000  -0.0000000
 NQMom=    0.0000000   0.0000000   0.0000000   0.0000000   0.0000000   0.0000000   0.0000000   0.0000000   0.0000000   0.0000000
 NMagM=    0.0000000   0.0000000   0.0000000   2.6288670   0.0000000   0.0000000   0.0000000   0.0000000   0.0000000   0.0000000
 AtZNuc=   6.0000000   6.0000000   6.0000000   9.0000000   6.0000000   6.0000000   6.0000000   6.0000000   6.0000000   6.0000000

  Atom        11          12          13          14          15          16          17          18          19          20
 IAtWgt=          12          12          12          16          12          12          12          12          19          12
 AtmWgt=  12.0000000  12.0000000  12.0000000  15.9949146  12.0000000  12.0000000  12.0000000  12.0000000  18.9984033  12.0000000
 NucSpn=           0           0           0           0           0           0           0           0           1           0
 AtZEff=  -0.0000000  -0.0000000  -0.0000000  -0.0000000  -0.0000000  -0.0000000  -0.0000000  -0.0000000  -0.0000000  -0.0000000
 NQMom=    0.0000000   0.0000000   0.0000000   0.0000000   0.0000000   0.0000000   0.0000000   0.0000000   0.0000000   0.0000000
 NMagM=    0.0000000   0.0000000   0.0000000   0.0000000   0.0000000   0.0000000   0.0000000   0.0000000   2.6288670   0.0000000
 AtZNuc=   6.0000000   6.0000000   6.0000000   8.0000000   6.0000000   6.0000000   6.0000000   6.0000000   9.0000000   6.0000000

  Atom        21          22          23          24          25          26          27          28          29          30
 IAtWgt=          12          12          12          12          12          12          12          12          16          12
 AtmWgt=  12.0000000  12.0000000  12.0000000  12.0000000  12.0000000  12.0000000  12.0000000  12.0000000  15.9949146  12.0000000
 NucSpn=           0           0           0           0           0           0           0           0           0           0
 AtZEff=  -0.0000000  -0.0000000  -0.0000000  -0.0000000  -0.0000000  -0.0000000  -0.0000000  -0.0000000  -0.0000000  -0.0000000
 NQMom=    0.0000000   0.0000000   0.0000000   0.0000000   0.0000000   0.0000000   0.0000000   0.0000000   0.0000000   0.0000000
 NMagM=    0.0000000   0.0000000   0.0000000   0.0000000   0.0000000   0.0000000   0.0000000   0.0000000   0.0000000   0.0000000
 AtZNuc=   6.0000000   6.0000000   6.0000000   6.0000000   6.0000000   6.0000000   6.0000000   6.0000000   8.0000000   6.0000000

  Atom        31          32          33          34          35          36          37          38          39          40
 IAtWgt=          12          12          12          19          12          12          12          12          12          12
 AtmWgt=  12.0000000  12.0000000  12.0000000  18.9984033  12.0000000  12.0000000  12.0000000  12.0000000  12.0000000  12.0000000
 NucSpn=           0           0           0           1           0           0           0           0           0           0
 AtZEff=  -0.0000000  -0.0000000  -0.0000000  -0.0000000  -0.0000000  -0.0000000  -0.0000000  -0.0000000  -0.0000000  -0.0000000
 NQMom=    0.0000000   0.0000000   0.0000000   0.0000000   0.0000000   0.0000000   0.0000000   0.0000000   0.0000000   0.0000000
 NMagM=    0.0000000   0.0000000   0.0000000   2.6288670   0.0000000   0.0000000   0.0000000   0.0000000   0.0000000   0.0000000
 AtZNuc=   6.0000000   6.0000000   6.0000000   9.0000000   6.0000000   6.0000000   6.0000000   6.0000000   6.0000000   6.0000000

  Atom        41          42          43          44          45          46          47          48          49          50
 IAtWgt=          12          12          12          16          12          12          12          12          19          12
 AtmWgt=  12.0000000  12.0000000  12.0000000  15.9949146  12.0000000  12.0000000  12.0000000  12.0000000  18.9984033  12.0000000
 NucSpn=           0           0           0           0           0           0           0           0           1           0
 AtZEff=  -0.0000000  -0.0000000  -0.0000000  -0.0000000  -0.0000000  -0.0000000  -0.0000000  -0.0000000  -0.0000000  -0.0000000
 NQMom=    0.0000000   0.0000000   0.0000000   0.0000000   0.0000000   0.0000000   0.0000000   0.0000000   0.0000000   0.0000000
 NMagM=    0.0000000   0.0000000   0.0000000   0.0000000   0.0000000   0.0000000   0.0000000   0.0000000   2.6288670   0.0000000
 AtZNuc=   6.0000000   6.0000000   6.0000000   8.0000000   6.0000000   6.0000000   6.0000000   6.0000000   9.0000000   6.0000000

  Atom        51          52          53          54          55          56          57          58          59          60
 IAtWgt=          12          12          12          12          12          12          12          12          16          12
 AtmWgt=  12.0000000  12.0000000  12.0000000  12.0000000  12.0000000  12.0000000  12.0000000  12.0000000  15.9949146  12.0000000
 NucSpn=           0           0           0           0           0           0           0           0           0           0
 AtZEff=  -0.0000000  -0.0000000  -0.0000000  -0.0000000  -0.0000000  -0.0000000  -0.0000000  -0.0000000  -0.0000000  -0.0000000
 NQMom=    0.0000000   0.0000000   0.0000000   0.0000000   0.0000000   0.0000000   0.0000000   0.0000000   0.0000000   0.0000000
 NMagM=    0.0000000   0.0000000   0.0000000   0.0000000   0.0000000   0.0000000   0.0000000   0.0000000   0.0000000   0.0000000
 AtZNuc=   6.0000000   6.0000000   6.0000000   6.0000000   6.0000000   6.0000000   6.0000000   6.0000000   8.0000000   6.0000000

  Atom        61          62          63          64          65          66          67          68          69          70
 IAtWgt=          12          12          12          19          12          12          12          12          12          12
 AtmWgt=  12.0000000  12.0000000  12.0000000  18.9984033  12.0000000  12.0000000  12.0000000  12.0000000  12.0000000  12.0000000
 NucSpn=           0           0           0           1           0           0           0           0           0           0
 AtZEff=  -0.0000000  -0.0000000  -0.0000000  -0.0000000  -0.0000000  -0.0000000  -0.0000000  -0.0000000  -0.0000000  -0.0000000
 NQMom=    0.0000000   0.0000000   0.0000000   0.0000000   0.0000000   0.0000000   0.0000000   0.0000000   0.0000000   0.0000000
 NMagM=    0.0000000   0.0000000   0.0000000   2.6288670   0.0000000   0.0000000   0.0000000   0.0000000   0.0000000   0.0000000
 AtZNuc=   6.0000000   6.0000000   6.0000000   9.0000000   6.0000000   6.0000000   6.0000000   6.0000000   6.0000000   6.0000000

  Atom        71          72          73          74          75          76          77          78          79          80
 IAtWgt=          12          12          12          16          12           1           1           1           1           1
 AtmWgt=  12.0000000  12.0000000  12.0000000  15.9949146  12.0000000   1.0078250   1.0078250   1.0078250   1.0078250   1.0078250
 NucSpn=           0           0           0           0           0           1           1           1           1           1
 AtZEff=  -0.0000000  -0.0000000  -0.0000000  -0.0000000  -0.0000000  -0.0000000  -0.0000000  -0.0000000  -0.0000000  -0.0000000
 NQMom=    0.0000000   0.0000000   0.0000000   0.0000000   0.0000000   0.0000000   0.0000000   0.0000000   0.0000000   0.0000000
 NMagM=    0.0000000   0.0000000   0.0000000   0.0000000   0.0000000   2.7928460   2.7928460   2.7928460   2.7928460   2.7928460
 AtZNuc=   6.0000000   6.0000000   6.0000000   8.0000000   6.0000000   1.0000000   1.0000000   1.0000000   1.0000000   1.0000000

  Atom        81          82          83          84          85          86          87          88          89          90
 IAtWgt=           1           1           1           1           1           1           1           1           1           1
 AtmWgt=   1.0078250   1.0078250   1.0078250   1.0078250   1.0078250   1.0078250   1.0078250   1.0078250   1.0078250   1.0078250
 NucSpn=           1           1           1           1           1           1           1           1           1           1
 AtZEff=  -0.0000000  -0.0000000  -0.0000000  -0.0000000  -0.0000000  -0.0000000  -0.0000000  -0.0000000  -0.0000000  -0.0000000
 NQMom=    0.0000000   0.0000000   0.0000000   0.0000000   0.0000000   0.0000000   0.0000000   0.0000000   0.0000000   0.0000000
 NMagM=    2.7928460   2.7928460   2.7928460   2.7928460   2.7928460   2.7928460   2.7928460   2.7928460   2.7928460   2.7928460
 AtZNuc=   1.0000000   1.0000000   1.0000000   1.0000000   1.0000000   1.0000000   1.0000000   1.0000000   1.0000000   1.0000000

  Atom        91          92          93          94          95          96          97          98          99         100
 IAtWgt=           1           1           1           1           1           1           1           1           1           1
 AtmWgt=   1.0078250   1.0078250   1.0078250   1.0078250   1.0078250   1.0078250   1.0078250   1.0078250   1.0078250   1.0078250
 NucSpn=           1           1           1           1           1           1           1           1           1           1
 AtZEff=  -0.0000000  -0.0000000  -0.0000000  -0.0000000  -0.0000000  -0.0000000  -0.0000000  -0.0000000  -0.0000000  -0.0000000
 NQMom=    0.0000000   0.0000000   0.0000000   0.0000000   0.0000000   0.0000000   0.0000000   0.0000000   0.0000000   0.0000000
 NMagM=    2.7928460   2.7928460   2.7928460   2.7928460   2.7928460   2.7928460   2.7928460   2.7928460   2.7928460   2.7928460
 AtZNuc=   1.0000000   1.0000000   1.0000000   1.0000000   1.0000000   1.0000000   1.0000000   1.0000000   1.0000000   1.0000000

  Atom       101         102         103         104         105         106         107         108         109         110
 IAtWgt=           1           1           1           1           1           1           1           1           1           1
 AtmWgt=   1.0078250   1.0078250   1.0078250   1.0078250   1.0078250   1.0078250   1.0078250   1.0078250   1.0078250   1.0078250
 NucSpn=           1           1           1           1           1           1           1           1           1           1
 AtZEff=  -0.0000000  -0.0000000  -0.0000000  -0.0000000  -0.0000000  -0.0000000  -0.0000000  -0.0000000  -0.0000000  -0.0000000
 NQMom=    0.0000000   0.0000000   0.0000000   0.0000000   0.0000000   0.0000000   0.0000000   0.0000000   0.0000000   0.0000000
 NMagM=    2.7928460   2.7928460   2.7928460   2.7928460   2.7928460   2.7928460   2.7928460   2.7928460   2.7928460   2.7928460
 AtZNuc=   1.0000000   1.0000000   1.0000000   1.0000000   1.0000000   1.0000000   1.0000000   1.0000000   1.0000000   1.0000000

  Atom       111         112         113         114         115         116         117         118         119         120
 IAtWgt=           1           1           1           1           1           1           1           1           1           1
 AtmWgt=   1.0078250   1.0078250   1.0078250   1.0078250   1.0078250   1.0078250   1.0078250   1.0078250   1.0078250   1.0078250
 NucSpn=           1           1           1           1           1           1           1           1           1           1
 AtZEff=  -0.0000000  -0.0000000  -0.0000000  -0.0000000  -0.0000000  -0.0000000  -0.0000000  -0.0000000  -0.0000000  -0.0000000
 NQMom=    0.0000000   0.0000000   0.0000000   0.0000000   0.0000000   0.0000000   0.0000000   0.0000000   0.0000000   0.0000000
 NMagM=    2.7928460   2.7928460   2.7928460   2.7928460   2.7928460   2.7928460   2.7928460   2.7928460   2.7928460   2.7928460
 AtZNuc=   1.0000000   1.0000000   1.0000000   1.0000000   1.0000000   1.0000000   1.0000000   1.0000000   1.0000000   1.0000000

  Atom       121         122
 IAtWgt=           1           1
 AtmWgt=   1.0078250   1.0078250
 NucSpn=           1           1
 AtZEff=  -0.0000000  -0.0000000
 NQMom=    0.0000000   0.0000000
 NMagM=    2.7928460   2.7928460
 AtZNuc=   1.0000000   1.0000000
 Leave Link  101 at Fri Jul 24 11:30:40 2020, MaxMem=  4026531840 cpu:               3.1 elap:               0.4
 (Enter /opt/ohpc/pub/libs/gaussian/g16-A.03/sandybridge/g16/l103.exe)

 GradGradGradGradGradGradGradGradGradGradGradGradGradGradGradGradGradGrad
 Berny optimization.
 Initialization pass.
                           ----------------------------
                           !    Initial Parameters    !
                           ! (Angstroms and Degrees)  !
 --------------------------                            --------------------------
 ! Name  Definition              Value          Derivative Info.                !
 --------------------------------------------------------------------------------
 ! R1    R(1,2)                  1.3953         estimate D2E/DX2                !
 ! R2    R(1,7)                  1.3964         estimate D2E/DX2                !
 ! R3    R(1,76)                 1.0697         estimate D2E/DX2                !
 ! R4    R(2,3)                  1.4253         estimate D2E/DX2                !
 ! R5    R(2,77)                 1.1455         estimate D2E/DX2                !
 ! R6    R(3,4)                  1.3002         estimate D2E/DX2                !
 ! R7    R(3,5)                  1.4231         estimate D2E/DX2                !
 ! R8    R(5,6)                  1.4306         estimate D2E/DX2                !
 ! R9    R(5,8)                  1.4479         estimate D2E/DX2                !
 ! R10   R(6,7)                  1.4054         estimate D2E/DX2                !
 ! R11   R(6,78)                 1.0443         estimate D2E/DX2                !
 ! R12   R(7,79)                 1.0761         estimate D2E/DX2                !
 ! R13   R(8,9)                  1.5009         estimate D2E/DX2                !
 ! R14   R(8,13)                 1.3746         estimate D2E/DX2                !
 ! R15   R(9,10)                 1.3681         estimate D2E/DX2                !
 ! R16   R(9,80)                 1.0559         estimate D2E/DX2                !
 ! R17   R(10,11)                1.3294         estimate D2E/DX2                !
 ! R18   R(10,81)                1.0923         estimate D2E/DX2                !
 ! R19   R(11,12)                1.4729         estimate D2E/DX2                !
 ! R20   R(11,16)                1.5328         estimate D2E/DX2                !
 ! R21   R(12,13)                1.4362         estimate D2E/DX2                !
 ! R22   R(12,82)                1.086          estimate D2E/DX2                !
 ! R23   R(13,14)                1.3654         estimate D2E/DX2                !
 ! R24   R(14,15)                1.4027         estimate D2E/DX2                !
 ! R25   R(15,83)                1.0997         estimate D2E/DX2                !
 ! R26   R(15,84)                1.1028         estimate D2E/DX2                !
 ! R27   R(15,85)                1.1252         estimate D2E/DX2                !
 ! R28   R(16,17)                1.4162         estimate D2E/DX2                !
 ! R29   R(16,22)                1.4106         estimate D2E/DX2                !
 ! R30   R(17,18)                1.4368         estimate D2E/DX2                !
 ! R31   R(17,86)                1.1001         estimate D2E/DX2                !
 ! R32   R(18,19)                1.3614         estimate D2E/DX2                !
 ! R33   R(18,20)                1.3781         estimate D2E/DX2                !
 ! R34   R(20,21)                1.4755         estimate D2E/DX2                !
 ! R35   R(20,23)                1.426          estimate D2E/DX2                !
 ! R36   R(21,22)                1.3578         estimate D2E/DX2                !
 ! R37   R(21,87)                1.0947         estimate D2E/DX2                !
 ! R38   R(22,88)                1.1141         estimate D2E/DX2                !
 ! R39   R(23,24)                1.3788         estimate D2E/DX2                !
 ! R40   R(23,28)                1.4576         estimate D2E/DX2                !
 ! R41   R(24,25)                1.4066         estimate D2E/DX2                !
 ! R42   R(24,89)                1.0335         estimate D2E/DX2                !
 ! R43   R(25,26)                1.3804         estimate D2E/DX2                !
 ! R44   R(25,90)                1.163          estimate D2E/DX2                !
 ! R45   R(26,27)                1.4171         estimate D2E/DX2                !
 ! R46   R(26,31)                1.4296         estimate D2E/DX2                !
 ! R47   R(27,28)                1.4265         estimate D2E/DX2                !
 ! R48   R(27,91)                1.1039         estimate D2E/DX2                !
 ! R49   R(28,29)                1.3388         estimate D2E/DX2                !
 ! R50   R(29,30)                1.4241         estimate D2E/DX2                !
 ! R51   R(30,92)                1.115          estimate D2E/DX2                !
 ! R52   R(30,93)                1.0855         estimate D2E/DX2                !
 ! R53   R(30,94)                1.1112         estimate D2E/DX2                !
 ! R54   R(31,32)                1.4571         estimate D2E/DX2                !
 ! R55   R(31,37)                1.4162         estimate D2E/DX2                !
 ! R56   R(32,33)                1.3111         estimate D2E/DX2                !
 ! R57   R(32,95)                1.1476         estimate D2E/DX2                !
 ! R58   R(33,34)                1.4036         estimate D2E/DX2                !
 ! R59   R(33,35)                1.4058         estimate D2E/DX2                !
 ! R60   R(35,36)                1.4012         estimate D2E/DX2                !
 ! R61   R(35,38)                1.5242         estimate D2E/DX2                !
 ! R62   R(36,37)                1.3564         estimate D2E/DX2                !
 ! R63   R(36,96)                1.0975         estimate D2E/DX2                !
 ! R64   R(37,97)                1.0653         estimate D2E/DX2                !
 ! R65   R(38,39)                1.3791         estimate D2E/DX2                !
 ! R66   R(38,43)                1.4392         estimate D2E/DX2                !
 ! R67   R(39,40)                1.3926         estimate D2E/DX2                !
 ! R68   R(39,98)                1.1461         estimate D2E/DX2                !
 ! R69   R(40,41)                1.3346         estimate D2E/DX2                !
 ! R70   R(40,99)                1.132          estimate D2E/DX2                !
 ! R71   R(41,42)                1.446          estimate D2E/DX2                !
 ! R72   R(41,46)                1.5253         estimate D2E/DX2                !
 ! R73   R(42,43)                1.3402         estimate D2E/DX2                !
 ! R74   R(42,100)               1.102          estimate D2E/DX2                !
 ! R75   R(43,44)                1.412          estimate D2E/DX2                !
 ! R76   R(44,45)                1.4186         estimate D2E/DX2                !
 ! R77   R(45,101)               1.0556         estimate D2E/DX2                !
 ! R78   R(45,102)               1.1208         estimate D2E/DX2                !
 ! R79   R(45,103)               1.0059         estimate D2E/DX2                !
 ! R80   R(46,47)                1.3847         estimate D2E/DX2                !
 ! R81   R(46,52)                1.3544         estimate D2E/DX2                !
 ! R82   R(47,48)                1.4455         estimate D2E/DX2                !
 ! R83   R(47,104)               1.1233         estimate D2E/DX2                !
 ! R84   R(48,49)                1.3446         estimate D2E/DX2                !
 ! R85   R(48,50)                1.3591         estimate D2E/DX2                !
 ! R86   R(50,51)                1.4502         estimate D2E/DX2                !
 ! R87   R(50,53)                1.3912         estimate D2E/DX2                !
 ! R88   R(51,52)                1.3981         estimate D2E/DX2                !
 ! R89   R(51,105)               1.0427         estimate D2E/DX2                !
 ! R90   R(52,106)               1.0704         estimate D2E/DX2                !
 ! R91   R(53,54)                1.3884         estimate D2E/DX2                !
 ! R92   R(53,58)                1.4172         estimate D2E/DX2                !
 ! R93   R(54,55)                1.3809         estimate D2E/DX2                !
 ! R94   R(54,107)               1.1585         estimate D2E/DX2                !
 ! R95   R(55,56)                1.4929         estimate D2E/DX2                !
 ! R96   R(55,108)               1.0669         estimate D2E/DX2                !
 ! R97   R(56,57)                1.4474         estimate D2E/DX2                !
 ! R98   R(56,61)                1.4601         estimate D2E/DX2                !
 ! R99   R(57,58)                1.4136         estimate D2E/DX2                !
 ! R100  R(57,109)               1.0772         estimate D2E/DX2                !
 ! R101  R(58,59)                1.3595         estimate D2E/DX2                !
 ! R102  R(59,60)                1.4543         estimate D2E/DX2                !
 ! R103  R(60,110)               1.0942         estimate D2E/DX2                !
 ! R104  R(60,111)               1.099          estimate D2E/DX2                !
 ! R105  R(60,112)               1.1079         estimate D2E/DX2                !
 ! R106  R(61,62)                1.3986         estimate D2E/DX2                !
 ! R107  R(61,67)                1.3492         estimate D2E/DX2                !
 ! R108  R(62,63)                1.3195         estimate D2E/DX2                !
 ! R109  R(62,113)               1.0767         estimate D2E/DX2                !
 ! R110  R(63,64)                1.3755         estimate D2E/DX2                !
 ! R111  R(63,65)                1.4396         estimate D2E/DX2                !
 ! R112  R(65,66)                1.3312         estimate D2E/DX2                !
 ! R113  R(65,68)                1.4149         estimate D2E/DX2                !
 ! R114  R(66,67)                1.475          estimate D2E/DX2                !
 ! R115  R(66,114)               1.1003         estimate D2E/DX2                !
 ! R116  R(67,115)               1.0372         estimate D2E/DX2                !
 ! R117  R(68,69)                1.4248         estimate D2E/DX2                !
 ! R118  R(68,73)                1.4519         estimate D2E/DX2                !
 ! R119  R(69,70)                1.3452         estimate D2E/DX2                !
 ! R120  R(69,116)               1.0583         estimate D2E/DX2                !
 ! R121  R(70,71)                1.3728         estimate D2E/DX2                !
 ! R122  R(70,117)               1.0839         estimate D2E/DX2                !
 ! R123  R(71,72)                1.4735         estimate D2E/DX2                !
 ! R124  R(71,118)               1.0723         estimate D2E/DX2                !
 ! R125  R(72,73)                1.4189         estimate D2E/DX2                !
 ! R126  R(72,119)               1.0886         estimate D2E/DX2                !
 ! R127  R(73,74)                1.3614         estimate D2E/DX2                !
 ! R128  R(74,75)                1.3759         estimate D2E/DX2                !
 ! R129  R(75,120)               1.0567         estimate D2E/DX2                !
 ! R130  R(75,121)               1.1358         estimate D2E/DX2                !
 ! R131  R(75,122)               1.0417         estimate D2E/DX2                !
 ! A1    A(2,1,7)              119.4185         estimate D2E/DX2                !
 ! A2    A(2,1,76)             119.9656         estimate D2E/DX2                !
 ! A3    A(7,1,76)             120.6093         estimate D2E/DX2                !
 ! A4    A(1,2,3)              123.4797         estimate D2E/DX2                !
 ! A5    A(1,2,77)             122.4943         estimate D2E/DX2                !
 ! A6    A(3,2,77)             114.0257         estimate D2E/DX2                !
 ! A7    A(2,3,4)              122.509          estimate D2E/DX2                !
 ! A8    A(2,3,5)              115.845          estimate D2E/DX2                !
 ! A9    A(4,3,5)              121.6189         estimate D2E/DX2                !
 ! A10   A(3,5,6)              121.008          estimate D2E/DX2                !
 ! A11   A(3,5,8)              118.7697         estimate D2E/DX2                !
 ! A12   A(6,5,8)              119.9149         estimate D2E/DX2                !
 ! A13   A(5,6,7)              119.8978         estimate D2E/DX2                !
 ! A14   A(5,6,78)             119.4966         estimate D2E/DX2                !
 ! A15   A(7,6,78)             120.5791         estimate D2E/DX2                !
 ! A16   A(1,7,6)              120.0165         estimate D2E/DX2                !
 ! A17   A(1,7,79)             116.9345         estimate D2E/DX2                !
 ! A18   A(6,7,79)             123.0463         estimate D2E/DX2                !
 ! A19   A(5,8,9)              120.3616         estimate D2E/DX2                !
 ! A20   A(5,8,13)             122.052          estimate D2E/DX2                !
 ! A21   A(9,8,13)             117.5837         estimate D2E/DX2                !
 ! A22   A(8,9,10)             118.3894         estimate D2E/DX2                !
 ! A23   A(8,9,80)             115.7759         estimate D2E/DX2                !
 ! A24   A(10,9,80)            125.4771         estimate D2E/DX2                !
 ! A25   A(9,10,11)            125.1886         estimate D2E/DX2                !
 ! A26   A(9,10,81)            115.4571         estimate D2E/DX2                !
 ! A27   A(11,10,81)           119.2692         estimate D2E/DX2                !
 ! A28   A(10,11,12)           118.7399         estimate D2E/DX2                !
 ! A29   A(10,11,16)           122.5657         estimate D2E/DX2                !
 ! A30   A(12,11,16)           118.6944         estimate D2E/DX2                !
 ! A31   A(11,12,13)           118.0102         estimate D2E/DX2                !
 ! A32   A(11,12,82)           120.1004         estimate D2E/DX2                !
 ! A33   A(13,12,82)           121.8471         estimate D2E/DX2                !
 ! A34   A(8,13,12)            121.9665         estimate D2E/DX2                !
 ! A35   A(8,13,14)            119.1045         estimate D2E/DX2                !
 ! A36   A(12,13,14)           118.924          estimate D2E/DX2                !
 ! A37   A(13,14,15)           118.1229         estimate D2E/DX2                !
 ! A38   A(14,15,83)           111.6925         estimate D2E/DX2                !
 ! A39   A(14,15,84)           111.1571         estimate D2E/DX2                !
 ! A40   A(14,15,85)           104.7492         estimate D2E/DX2                !
 ! A41   A(83,15,84)           114.6462         estimate D2E/DX2                !
 ! A42   A(83,15,85)           109.6666         estimate D2E/DX2                !
 ! A43   A(84,15,85)           104.1769         estimate D2E/DX2                !
 ! A44   A(11,16,17)           120.406          estimate D2E/DX2                !
 ! A45   A(11,16,22)           119.8487         estimate D2E/DX2                !
 ! A46   A(17,16,22)           119.7341         estimate D2E/DX2                !
 ! A47   A(16,17,18)           118.0258         estimate D2E/DX2                !
 ! A48   A(16,17,86)           123.3139         estimate D2E/DX2                !
 ! A49   A(18,17,86)           118.5343         estimate D2E/DX2                !
 ! A50   A(17,18,19)           115.8521         estimate D2E/DX2                !
 ! A51   A(17,18,20)           121.7824         estimate D2E/DX2                !
 ! A52   A(19,18,20)           121.937          estimate D2E/DX2                !
 ! A53   A(18,20,21)           118.6288         estimate D2E/DX2                !
 ! A54   A(18,20,23)           121.9937         estimate D2E/DX2                !
 ! A55   A(21,20,23)           118.7823         estimate D2E/DX2                !
 ! A56   A(20,21,22)           118.8538         estimate D2E/DX2                !
 ! A57   A(20,21,87)           120.3273         estimate D2E/DX2                !
 ! A58   A(22,21,87)           120.8188         estimate D2E/DX2                !
 ! A59   A(16,22,21)           122.64           estimate D2E/DX2                !
 ! A60   A(16,22,88)           116.1721         estimate D2E/DX2                !
 ! A61   A(21,22,88)           121.1867         estimate D2E/DX2                !
 ! A62   A(20,23,24)           121.5528         estimate D2E/DX2                !
 ! A63   A(20,23,28)           119.3356         estimate D2E/DX2                !
 ! A64   A(24,23,28)           119.1106         estimate D2E/DX2                !
 ! A65   A(23,24,25)           120.1924         estimate D2E/DX2                !
 ! A66   A(23,24,89)           123.6976         estimate D2E/DX2                !
 ! A67   A(25,24,89)           116.0873         estimate D2E/DX2                !
 ! A68   A(24,25,26)           125.352          estimate D2E/DX2                !
 ! A69   A(24,25,90)           117.4772         estimate D2E/DX2                !
 ! A70   A(26,25,90)           117.09           estimate D2E/DX2                !
 ! A71   A(25,26,27)           113.4902         estimate D2E/DX2                !
 ! A72   A(25,26,31)           124.1533         estimate D2E/DX2                !
 ! A73   A(27,26,31)           122.0432         estimate D2E/DX2                !
 ! A74   A(26,27,28)           125.4151         estimate D2E/DX2                !
 ! A75   A(26,27,91)           117.3876         estimate D2E/DX2                !
 ! A76   A(28,27,91)           116.9629         estimate D2E/DX2                !
 ! A77   A(23,28,27)           116.3831         estimate D2E/DX2                !
 ! A78   A(23,28,29)           118.3962         estimate D2E/DX2                !
 ! A79   A(27,28,29)           124.9189         estimate D2E/DX2                !
 ! A80   A(28,29,30)           118.6701         estimate D2E/DX2                !
 ! A81   A(29,30,92)           104.664          estimate D2E/DX2                !
 ! A82   A(29,30,93)           115.1652         estimate D2E/DX2                !
 ! A83   A(29,30,94)           110.1757         estimate D2E/DX2                !
 ! A84   A(92,30,93)           104.4566         estimate D2E/DX2                !
 ! A85   A(92,30,94)           109.2073         estimate D2E/DX2                !
 ! A86   A(93,30,94)           112.5636         estimate D2E/DX2                !
 ! A87   A(26,31,32)           121.6173         estimate D2E/DX2                !
 ! A88   A(26,31,37)           122.2902         estimate D2E/DX2                !
 ! A89   A(32,31,37)           116.0925         estimate D2E/DX2                !
 ! A90   A(31,32,33)           122.2249         estimate D2E/DX2                !
 ! A91   A(31,32,95)           116.027          estimate D2E/DX2                !
 ! A92   A(33,32,95)           121.6574         estimate D2E/DX2                !
 ! A93   A(32,33,34)           119.5398         estimate D2E/DX2                !
 ! A94   A(32,33,35)           121.0341         estimate D2E/DX2                !
 ! A95   A(34,33,35)           119.4257         estimate D2E/DX2                !
 ! A96   A(33,35,36)           118.3372         estimate D2E/DX2                !
 ! A97   A(33,35,38)           119.6446         estimate D2E/DX2                !
 ! A98   A(36,35,38)           122.0173         estimate D2E/DX2                !
 ! A99   A(35,36,37)           121.749          estimate D2E/DX2                !
 ! A100  A(35,36,96)           115.3503         estimate D2E/DX2                !
 ! A101  A(37,36,96)           122.8185         estimate D2E/DX2                !
 ! A102  A(31,37,36)           120.5015         estimate D2E/DX2                !
 ! A103  A(31,37,97)           118.0431         estimate D2E/DX2                !
 ! A104  A(36,37,97)           121.1855         estimate D2E/DX2                !
 ! A105  A(35,38,39)           121.6748         estimate D2E/DX2                !
 ! A106  A(35,38,43)           119.9719         estimate D2E/DX2                !
 ! A107  A(39,38,43)           117.8546         estimate D2E/DX2                !
 ! A108  A(38,39,40)           121.9662         estimate D2E/DX2                !
 ! A109  A(38,39,98)           116.5106         estimate D2E/DX2                !
 ! A110  A(40,39,98)           121.4427         estimate D2E/DX2                !
 ! A111  A(39,40,41)           120.1561         estimate D2E/DX2                !
 ! A112  A(39,40,99)           119.3508         estimate D2E/DX2                !
 ! A113  A(41,40,99)           120.3574         estimate D2E/DX2                !
 ! A114  A(40,41,42)           119.3726         estimate D2E/DX2                !
 ! A115  A(40,41,46)           121.4865         estimate D2E/DX2                !
 ! A116  A(42,41,46)           119.1054         estimate D2E/DX2                !
 ! A117  A(41,42,43)           120.9033         estimate D2E/DX2                !
 ! A118  A(41,42,100)          113.3287         estimate D2E/DX2                !
 ! A119  A(43,42,100)          125.6262         estimate D2E/DX2                !
 ! A120  A(38,43,42)           119.375          estimate D2E/DX2                !
 ! A121  A(38,43,44)           116.7679         estimate D2E/DX2                !
 ! A122  A(42,43,44)           123.5353         estimate D2E/DX2                !
 ! A123  A(43,44,45)           117.3047         estimate D2E/DX2                !
 ! A124  A(44,45,101)          106.0115         estimate D2E/DX2                !
 ! A125  A(44,45,102)          108.8369         estimate D2E/DX2                !
 ! A126  A(44,45,103)          113.0011         estimate D2E/DX2                !
 ! A127  A(101,45,102)         105.0541         estimate D2E/DX2                !
 ! A128  A(101,45,103)         110.99           estimate D2E/DX2                !
 ! A129  A(102,45,103)         112.4519         estimate D2E/DX2                !
 ! A130  A(41,46,47)           117.9026         estimate D2E/DX2                !
 ! A131  A(41,46,52)           124.1379         estimate D2E/DX2                !
 ! A132  A(47,46,52)           117.8481         estimate D2E/DX2                !
 ! A133  A(46,47,48)           120.5602         estimate D2E/DX2                !
 ! A134  A(46,47,104)          121.3302         estimate D2E/DX2                !
 ! A135  A(48,47,104)          117.6805         estimate D2E/DX2                !
 ! A136  A(47,48,49)           115.3174         estimate D2E/DX2                !
 ! A137  A(47,48,50)           121.6327         estimate D2E/DX2                !
 ! A138  A(49,48,50)           122.9052         estimate D2E/DX2                !
 ! A139  A(48,50,51)           116.7247         estimate D2E/DX2                !
 ! A140  A(48,50,53)           123.7392         estimate D2E/DX2                !
 ! A141  A(51,50,53)           119.476          estimate D2E/DX2                !
 ! A142  A(50,51,52)           119.6222         estimate D2E/DX2                !
 ! A143  A(50,51,105)          120.8864         estimate D2E/DX2                !
 ! A144  A(52,51,105)          119.1697         estimate D2E/DX2                !
 ! A145  A(46,52,51)           123.415          estimate D2E/DX2                !
 ! A146  A(46,52,106)          118.7575         estimate D2E/DX2                !
 ! A147  A(51,52,106)          117.5066         estimate D2E/DX2                !
 ! A148  A(50,53,54)           120.926          estimate D2E/DX2                !
 ! A149  A(50,53,58)           123.1227         estimate D2E/DX2                !
 ! A150  A(54,53,58)           115.9509         estimate D2E/DX2                !
 ! A151  A(53,54,55)           126.3588         estimate D2E/DX2                !
 ! A152  A(53,54,107)          119.2812         estimate D2E/DX2                !
 ! A153  A(55,54,107)          114.3382         estimate D2E/DX2                !
 ! A154  A(54,55,56)           119.2656         estimate D2E/DX2                !
 ! A155  A(54,55,108)          126.8464         estimate D2E/DX2                !
 ! A156  A(56,55,108)          113.8788         estimate D2E/DX2                !
 ! A157  A(55,56,57)           113.9526         estimate D2E/DX2                !
 ! A158  A(55,56,61)           120.2153         estimate D2E/DX2                !
 ! A159  A(57,56,61)           125.7511         estimate D2E/DX2                !
 ! A160  A(56,57,58)           123.1392         estimate D2E/DX2                !
 ! A161  A(56,57,109)          113.5711         estimate D2E/DX2                !
 ! A162  A(58,57,109)          123.203          estimate D2E/DX2                !
 ! A163  A(53,58,57)           121.1753         estimate D2E/DX2                !
 ! A164  A(53,58,59)           117.1279         estimate D2E/DX2                !
 ! A165  A(57,58,59)           121.3139         estimate D2E/DX2                !
 ! A166  A(58,59,60)           119.41           estimate D2E/DX2                !
 ! A167  A(59,60,110)          111.5158         estimate D2E/DX2                !
 ! A168  A(59,60,111)          106.656          estimate D2E/DX2                !
 ! A169  A(59,60,112)          105.2207         estimate D2E/DX2                !
 ! A170  A(110,60,111)         113.1735         estimate D2E/DX2                !
 ! A171  A(110,60,112)         106.1045         estimate D2E/DX2                !
 ! A172  A(111,60,112)         113.9628         estimate D2E/DX2                !
 ! A173  A(56,61,62)           122.5038         estimate D2E/DX2                !
 ! A174  A(56,61,67)           118.6015         estimate D2E/DX2                !
 ! A175  A(62,61,67)           118.6442         estimate D2E/DX2                !
 ! A176  A(61,62,63)           121.3525         estimate D2E/DX2                !
 ! A177  A(61,62,113)          118.548          estimate D2E/DX2                !
 ! A178  A(63,62,113)          120.0232         estimate D2E/DX2                !
 ! A179  A(62,63,64)           117.6727         estimate D2E/DX2                !
 ! A180  A(62,63,65)           123.8306         estimate D2E/DX2                !
 ! A181  A(64,63,65)           118.4552         estimate D2E/DX2                !
 ! A182  A(63,65,66)           114.1125         estimate D2E/DX2                !
 ! A183  A(63,65,68)           121.7688         estimate D2E/DX2                !
 ! A184  A(66,65,68)           124.0778         estimate D2E/DX2                !
 ! A185  A(65,66,67)           123.4543         estimate D2E/DX2                !
 ! A186  A(65,66,114)          118.2976         estimate D2E/DX2                !
 ! A187  A(67,66,114)          118.2351         estimate D2E/DX2                !
 ! A188  A(61,67,66)           118.3767         estimate D2E/DX2                !
 ! A189  A(61,67,115)          125.87           estimate D2E/DX2                !
 ! A190  A(66,67,115)          115.7491         estimate D2E/DX2                !
 ! A191  A(65,68,69)           122.4586         estimate D2E/DX2                !
 ! A192  A(65,68,73)           120.5134         estimate D2E/DX2                !
 ! A193  A(69,68,73)           117.0131         estimate D2E/DX2                !
 ! A194  A(68,69,70)           121.7273         estimate D2E/DX2                !
 ! A195  A(68,69,116)          116.4558         estimate D2E/DX2                !
 ! A196  A(70,69,116)          120.8668         estimate D2E/DX2                !
 ! A197  A(69,70,71)           124.6427         estimate D2E/DX2                !
 ! A198  A(69,70,117)          119.2553         estimate D2E/DX2                !
 ! A199  A(71,70,117)          115.7092         estimate D2E/DX2                !
 ! A200  A(70,71,72)           116.0993         estimate D2E/DX2                !
 ! A201  A(70,71,118)          126.9031         estimate D2E/DX2                !
 ! A202  A(72,71,118)          116.8288         estimate D2E/DX2                !
 ! A203  A(71,72,73)           120.4231         estimate D2E/DX2                !
 ! A204  A(71,72,119)          115.1905         estimate D2E/DX2                !
 ! A205  A(73,72,119)          123.8781         estimate D2E/DX2                !
 ! A206  A(68,73,72)           119.5173         estimate D2E/DX2                !
 ! A207  A(68,73,74)           119.6635         estimate D2E/DX2                !
 ! A208  A(72,73,74)           120.8191         estimate D2E/DX2                !
 ! A209  A(73,74,75)           121.7533         estimate D2E/DX2                !
 ! A210  A(74,75,120)          108.8587         estimate D2E/DX2                !
 ! A211  A(74,75,121)          111.5173         estimate D2E/DX2                !
 ! A212  A(74,75,122)          112.8453         estimate D2E/DX2                !
 ! A213  A(120,75,121)         110.7049         estimate D2E/DX2                !
 ! A214  A(120,75,122)         110.0374         estimate D2E/DX2                !
 ! A215  A(121,75,122)         102.7878         estimate D2E/DX2                !
 ! D1    D(7,1,2,3)             -2.127          estimate D2E/DX2                !
 ! D2    D(7,1,2,77)           177.6474         estimate D2E/DX2                !
 ! D3    D(76,1,2,3)           178.8031         estimate D2E/DX2                !
 ! D4    D(76,1,2,77)           -1.4225         estimate D2E/DX2                !
 ! D5    D(2,1,7,6)              1.2171         estimate D2E/DX2                !
 ! D6    D(2,1,7,79)          -178.2027         estimate D2E/DX2                !
 ! D7    D(76,1,7,6)          -179.7191         estimate D2E/DX2                !
 ! D8    D(76,1,7,79)            0.8611         estimate D2E/DX2                !
 ! D9    D(1,2,3,4)           -179.5273         estimate D2E/DX2                !
 ! D10   D(1,2,3,5)             -1.3942         estimate D2E/DX2                !
 ! D11   D(77,2,3,4)             0.6811         estimate D2E/DX2                !
 ! D12   D(77,2,3,5)           178.8141         estimate D2E/DX2                !
 ! D13   D(2,3,5,6)              5.8276         estimate D2E/DX2                !
 ! D14   D(2,3,5,8)            179.4548         estimate D2E/DX2                !
 ! D15   D(4,3,5,6)           -176.0213         estimate D2E/DX2                !
 ! D16   D(4,3,5,8)             -2.394          estimate D2E/DX2                !
 ! D17   D(3,5,6,7)             -6.8731         estimate D2E/DX2                !
 ! D18   D(3,5,6,78)           174.9883         estimate D2E/DX2                !
 ! D19   D(8,5,6,7)            179.572          estimate D2E/DX2                !
 ! D20   D(8,5,6,78)             1.4334         estimate D2E/DX2                !
 ! D21   D(3,5,8,9)            -60.2066         estimate D2E/DX2                !
 ! D22   D(3,5,8,13)           120.3988         estimate D2E/DX2                !
 ! D23   D(6,5,8,9)            113.492          estimate D2E/DX2                !
 ! D24   D(6,5,8,13)           -65.9026         estimate D2E/DX2                !
 ! D25   D(5,6,7,1)              3.1698         estimate D2E/DX2                !
 ! D26   D(5,6,7,79)          -177.4473         estimate D2E/DX2                !
 ! D27   D(78,6,7,1)          -178.7121         estimate D2E/DX2                !
 ! D28   D(78,6,7,79)            0.6709         estimate D2E/DX2                !
 ! D29   D(5,8,9,10)           177.4978         estimate D2E/DX2                !
 ! D30   D(5,8,9,80)             3.9837         estimate D2E/DX2                !
 ! D31   D(13,8,9,10)           -3.0812         estimate D2E/DX2                !
 ! D32   D(13,8,9,80)         -176.5953         estimate D2E/DX2                !
 ! D33   D(5,8,13,12)         -179.1878         estimate D2E/DX2                !
 ! D34   D(5,8,13,14)            1.6304         estimate D2E/DX2                !
 ! D35   D(9,8,13,12)            1.4016         estimate D2E/DX2                !
 ! D36   D(9,8,13,14)         -177.7802         estimate D2E/DX2                !
 ! D37   D(8,9,10,11)            4.2924         estimate D2E/DX2                !
 ! D38   D(8,9,10,81)         -179.1024         estimate D2E/DX2                !
 ! D39   D(80,9,10,11)         177.1169         estimate D2E/DX2                !
 ! D40   D(80,9,10,81)          -6.2779         estimate D2E/DX2                !
 ! D41   D(9,10,11,12)          -3.4711         estimate D2E/DX2                !
 ! D42   D(9,10,11,16)         176.4384         estimate D2E/DX2                !
 ! D43   D(81,10,11,12)       -179.9572         estimate D2E/DX2                !
 ! D44   D(81,10,11,16)         -0.0477         estimate D2E/DX2                !
 ! D45   D(10,11,12,13)          1.4566         estimate D2E/DX2                !
 ! D46   D(10,11,12,82)        179.1364         estimate D2E/DX2                !
 ! D47   D(16,11,12,13)       -178.4564         estimate D2E/DX2                !
 ! D48   D(16,11,12,82)         -0.7766         estimate D2E/DX2                !
 ! D49   D(10,11,16,17)       -125.9646         estimate D2E/DX2                !
 ! D50   D(10,11,16,22)         55.2583         estimate D2E/DX2                !
 ! D51   D(12,11,16,17)         53.945          estimate D2E/DX2                !
 ! D52   D(12,11,16,22)       -124.8322         estimate D2E/DX2                !
 ! D53   D(11,12,13,8)          -0.5988         estimate D2E/DX2                !
 ! D54   D(11,12,13,14)        178.5844         estimate D2E/DX2                !
 ! D55   D(82,12,13,8)        -178.2357         estimate D2E/DX2                !
 ! D56   D(82,12,13,14)          0.9475         estimate D2E/DX2                !
 ! D57   D(8,13,14,15)        -165.3963         estimate D2E/DX2                !
 ! D58   D(12,13,14,15)         15.3967         estimate D2E/DX2                !
 ! D59   D(13,14,15,83)        -75.025          estimate D2E/DX2                !
 ! D60   D(13,14,15,84)         54.4089         estimate D2E/DX2                !
 ! D61   D(13,14,15,85)        166.3376         estimate D2E/DX2                !
 ! D62   D(11,16,17,18)       -175.5059         estimate D2E/DX2                !
 ! D63   D(11,16,17,86)          0.3488         estimate D2E/DX2                !
 ! D64   D(22,16,17,18)          3.2727         estimate D2E/DX2                !
 ! D65   D(22,16,17,86)        179.1274         estimate D2E/DX2                !
 ! D66   D(11,16,22,21)        178.4862         estimate D2E/DX2                !
 ! D67   D(11,16,22,88)         -1.9098         estimate D2E/DX2                !
 ! D68   D(17,16,22,21)         -0.2992         estimate D2E/DX2                !
 ! D69   D(17,16,22,88)        179.3048         estimate D2E/DX2                !
 ! D70   D(16,17,18,19)       -179.2682         estimate D2E/DX2                !
 ! D71   D(16,17,18,20)         -6.6455         estimate D2E/DX2                !
 ! D72   D(86,17,18,19)          4.6746         estimate D2E/DX2                !
 ! D73   D(86,17,18,20)        177.2973         estimate D2E/DX2                !
 ! D74   D(17,18,20,21)          6.7351         estimate D2E/DX2                !
 ! D75   D(17,18,20,23)        177.7781         estimate D2E/DX2                !
 ! D76   D(19,18,20,21)        178.9093         estimate D2E/DX2                !
 ! D77   D(19,18,20,23)        -10.0478         estimate D2E/DX2                !
 ! D78   D(18,20,21,22)         -3.5372         estimate D2E/DX2                !
 ! D79   D(18,20,21,87)        176.3505         estimate D2E/DX2                !
 ! D80   D(23,20,21,22)       -174.8722         estimate D2E/DX2                !
 ! D81   D(23,20,21,87)          5.0156         estimate D2E/DX2                !
 ! D82   D(18,20,23,24)        -56.2282         estimate D2E/DX2                !
 ! D83   D(18,20,23,28)        123.4014         estimate D2E/DX2                !
 ! D84   D(21,20,23,24)        114.8015         estimate D2E/DX2                !
 ! D85   D(21,20,23,28)        -65.5689         estimate D2E/DX2                !
 ! D86   D(20,21,22,16)          0.3501         estimate D2E/DX2                !
 ! D87   D(20,21,22,88)       -179.2345         estimate D2E/DX2                !
 ! D88   D(87,21,22,16)       -179.5371         estimate D2E/DX2                !
 ! D89   D(87,21,22,88)          0.8783         estimate D2E/DX2                !
 ! D90   D(20,23,24,25)       -179.9223         estimate D2E/DX2                !
 ! D91   D(20,23,24,89)          1.8835         estimate D2E/DX2                !
 ! D92   D(28,23,24,25)          0.4473         estimate D2E/DX2                !
 ! D93   D(28,23,24,89)       -177.7469         estimate D2E/DX2                !
 ! D94   D(20,23,28,27)       -178.0924         estimate D2E/DX2                !
 ! D95   D(20,23,28,29)         -4.0878         estimate D2E/DX2                !
 ! D96   D(24,23,28,27)          1.5463         estimate D2E/DX2                !
 ! D97   D(24,23,28,29)        175.551          estimate D2E/DX2                !
 ! D98   D(23,24,25,26)         -2.2588         estimate D2E/DX2                !
 ! D99   D(23,24,25,90)       -178.8853         estimate D2E/DX2                !
 ! D100  D(89,24,25,26)        176.0684         estimate D2E/DX2                !
 ! D101  D(89,24,25,90)         -0.558          estimate D2E/DX2                !
 ! D102  D(24,25,26,27)          1.7014         estimate D2E/DX2                !
 ! D103  D(24,25,26,31)        175.3707         estimate D2E/DX2                !
 ! D104  D(90,25,26,27)        178.3396         estimate D2E/DX2                !
 ! D105  D(90,25,26,31)         -7.9911         estimate D2E/DX2                !
 ! D106  D(25,26,27,28)          0.5711         estimate D2E/DX2                !
 ! D107  D(25,26,27,91)        174.8198         estimate D2E/DX2                !
 ! D108  D(31,26,27,28)       -173.249          estimate D2E/DX2                !
 ! D109  D(31,26,27,91)          0.9997         estimate D2E/DX2                !
 ! D110  D(25,26,31,32)        131.2812         estimate D2E/DX2                !
 ! D111  D(25,26,31,37)        -48.7627         estimate D2E/DX2                !
 ! D112  D(27,26,31,32)        -55.5708         estimate D2E/DX2                !
 ! D113  D(27,26,31,37)        124.3853         estimate D2E/DX2                !
 ! D114  D(26,27,28,23)         -2.1394         estimate D2E/DX2                !
 ! D115  D(26,27,28,29)       -175.7057         estimate D2E/DX2                !
 ! D116  D(91,27,28,23)       -176.4101         estimate D2E/DX2                !
 ! D117  D(91,27,28,29)         10.0237         estimate D2E/DX2                !
 ! D118  D(23,28,29,30)       -173.4398         estimate D2E/DX2                !
 ! D119  D(27,28,29,30)          0.0077         estimate D2E/DX2                !
 ! D120  D(28,29,30,92)       -179.2578         estimate D2E/DX2                !
 ! D121  D(28,29,30,93)        -65.1751         estimate D2E/DX2                !
 ! D122  D(28,29,30,94)         63.4553         estimate D2E/DX2                !
 ! D123  D(26,31,32,33)       -178.4419         estimate D2E/DX2                !
 ! D124  D(26,31,32,95)         -1.8527         estimate D2E/DX2                !
 ! D125  D(37,31,32,33)          1.5994         estimate D2E/DX2                !
 ! D126  D(37,31,32,95)        178.1886         estimate D2E/DX2                !
 ! D127  D(26,31,37,36)       -179.8628         estimate D2E/DX2                !
 ! D128  D(26,31,37,97)         -5.7594         estimate D2E/DX2                !
 ! D129  D(32,31,37,36)          0.0955         estimate D2E/DX2                !
 ! D130  D(32,31,37,97)        174.199          estimate D2E/DX2                !
 ! D131  D(31,32,33,34)        179.0997         estimate D2E/DX2                !
 ! D132  D(31,32,33,35)         -1.1466         estimate D2E/DX2                !
 ! D133  D(95,32,33,34)          2.7007         estimate D2E/DX2                !
 ! D134  D(95,32,33,35)       -177.5457         estimate D2E/DX2                !
 ! D135  D(32,33,35,36)         -0.9675         estimate D2E/DX2                !
 ! D136  D(32,33,35,38)        179.3645         estimate D2E/DX2                !
 ! D137  D(34,33,35,36)        178.7864         estimate D2E/DX2                !
 ! D138  D(34,33,35,38)         -0.8816         estimate D2E/DX2                !
 ! D139  D(33,35,36,37)          2.6813         estimate D2E/DX2                !
 ! D140  D(33,35,36,96)        179.473          estimate D2E/DX2                !
 ! D141  D(38,35,36,37)       -177.659          estimate D2E/DX2                !
 ! D142  D(38,35,36,96)         -0.8674         estimate D2E/DX2                !
 ! D143  D(33,35,38,39)        -96.9953         estimate D2E/DX2                !
 ! D144  D(33,35,38,43)         91.2813         estimate D2E/DX2                !
 ! D145  D(36,35,38,39)         83.3493         estimate D2E/DX2                !
 ! D146  D(36,35,38,43)        -88.374          estimate D2E/DX2                !
 ! D147  D(35,36,37,31)         -2.2083         estimate D2E/DX2                !
 ! D148  D(35,36,37,97)       -176.1243         estimate D2E/DX2                !
 ! D149  D(96,36,37,31)       -178.758          estimate D2E/DX2                !
 ! D150  D(96,36,37,97)          7.3261         estimate D2E/DX2                !
 ! D151  D(35,38,39,40)       -174.9411         estimate D2E/DX2                !
 ! D152  D(35,38,39,98)          1.84           estimate D2E/DX2                !
 ! D153  D(43,38,39,40)         -3.0494         estimate D2E/DX2                !
 ! D154  D(43,38,39,98)        173.7317         estimate D2E/DX2                !
 ! D155  D(35,38,43,42)        178.1323         estimate D2E/DX2                !
 ! D156  D(35,38,43,44)         -8.1506         estimate D2E/DX2                !
 ! D157  D(39,38,43,42)          6.0971         estimate D2E/DX2                !
 ! D158  D(39,38,43,44)        179.8142         estimate D2E/DX2                !
 ! D159  D(38,39,40,41)          1.1827         estimate D2E/DX2                !
 ! D160  D(38,39,40,99)        176.9628         estimate D2E/DX2                !
 ! D161  D(98,39,40,41)       -175.4408         estimate D2E/DX2                !
 ! D162  D(98,39,40,99)          0.3392         estimate D2E/DX2                !
 ! D163  D(39,40,41,42)         -2.0895         estimate D2E/DX2                !
 ! D164  D(39,40,41,46)       -179.9014         estimate D2E/DX2                !
 ! D165  D(99,40,41,42)       -177.8267         estimate D2E/DX2                !
 ! D166  D(99,40,41,46)          4.3614         estimate D2E/DX2                !
 ! D167  D(40,41,42,43)          5.3003         estimate D2E/DX2                !
 ! D168  D(40,41,42,100)      -178.7931         estimate D2E/DX2                !
 ! D169  D(46,41,42,43)       -176.8353         estimate D2E/DX2                !
 ! D170  D(46,41,42,100)        -0.9287         estimate D2E/DX2                !
 ! D171  D(40,41,46,47)        -60.8549         estimate D2E/DX2                !
 ! D172  D(40,41,46,52)        123.0721         estimate D2E/DX2                !
 ! D173  D(42,41,46,47)        121.3276         estimate D2E/DX2                !
 ! D174  D(42,41,46,52)        -54.7455         estimate D2E/DX2                !
 ! D175  D(41,42,43,38)         -7.2225         estimate D2E/DX2                !
 ! D176  D(41,42,43,44)        179.5093         estimate D2E/DX2                !
 ! D177  D(100,42,43,38)       177.4029         estimate D2E/DX2                !
 ! D178  D(100,42,43,44)         4.1347         estimate D2E/DX2                !
 ! D179  D(38,43,44,45)       -171.6448         estimate D2E/DX2                !
 ! D180  D(42,43,44,45)          1.7856         estimate D2E/DX2                !
 ! D181  D(43,44,45,101)      -177.1254         estimate D2E/DX2                !
 ! D182  D(43,44,45,102)       -64.5809         estimate D2E/DX2                !
 ! D183  D(43,44,45,103)        61.0942         estimate D2E/DX2                !
 ! D184  D(41,46,47,48)       -175.7461         estimate D2E/DX2                !
 ! D185  D(41,46,47,104)        -3.4387         estimate D2E/DX2                !
 ! D186  D(52,46,47,48)          0.5783         estimate D2E/DX2                !
 ! D187  D(52,46,47,104)       172.8856         estimate D2E/DX2                !
 ! D188  D(41,46,52,51)        178.3759         estimate D2E/DX2                !
 ! D189  D(41,46,52,106)        -8.2991         estimate D2E/DX2                !
 ! D190  D(47,46,52,51)          2.3009         estimate D2E/DX2                !
 ! D191  D(47,46,52,106)       175.6259         estimate D2E/DX2                !
 ! D192  D(46,47,48,49)        179.8683         estimate D2E/DX2                !
 ! D193  D(46,47,48,50)         -4.3838         estimate D2E/DX2                !
 ! D194  D(104,47,48,49)         7.287          estimate D2E/DX2                !
 ! D195  D(104,47,48,50)      -176.9652         estimate D2E/DX2                !
 ! D196  D(47,48,50,51)          4.9447         estimate D2E/DX2                !
 ! D197  D(47,48,50,53)       -177.8969         estimate D2E/DX2                !
 ! D198  D(49,48,50,51)       -179.6342         estimate D2E/DX2                !
 ! D199  D(49,48,50,53)         -2.4758         estimate D2E/DX2                !
 ! D200  D(48,50,51,52)         -2.1134         estimate D2E/DX2                !
 ! D201  D(48,50,51,105)      -175.5467         estimate D2E/DX2                !
 ! D202  D(53,50,51,52)       -179.3991         estimate D2E/DX2                !
 ! D203  D(53,50,51,105)         7.1676         estimate D2E/DX2                !
 ! D204  D(48,50,53,54)         62.9359         estimate D2E/DX2                !
 ! D205  D(48,50,53,58)       -117.3107         estimate D2E/DX2                !
 ! D206  D(51,50,53,54)       -119.9796         estimate D2E/DX2                !
 ! D207  D(51,50,53,58)         59.7738         estimate D2E/DX2                !
 ! D208  D(50,51,52,46)         -1.5908         estimate D2E/DX2                !
 ! D209  D(50,51,52,106)      -174.9936         estimate D2E/DX2                !
 ! D210  D(105,51,52,46)       171.9557         estimate D2E/DX2                !
 ! D211  D(105,51,52,106)       -1.4471         estimate D2E/DX2                !
 ! D212  D(50,53,54,55)       -177.0906         estimate D2E/DX2                !
 ! D213  D(50,53,54,107)         1.1077         estimate D2E/DX2                !
 ! D214  D(58,53,54,55)          3.1391         estimate D2E/DX2                !
 ! D215  D(58,53,54,107)      -178.6626         estimate D2E/DX2                !
 ! D216  D(50,53,58,57)        176.0291         estimate D2E/DX2                !
 ! D217  D(50,53,58,59)          3.042          estimate D2E/DX2                !
 ! D218  D(54,53,58,57)         -4.2061         estimate D2E/DX2                !
 ! D219  D(54,53,58,59)       -177.1933         estimate D2E/DX2                !
 ! D220  D(53,54,55,56)         -1.8713         estimate D2E/DX2                !
 ! D221  D(53,54,55,108)       176.9571         estimate D2E/DX2                !
 ! D222  D(107,54,55,56)       179.8534         estimate D2E/DX2                !
 ! D223  D(107,54,55,108)       -1.3182         estimate D2E/DX2                !
 ! D224  D(54,55,56,57)          1.4839         estimate D2E/DX2                !
 ! D225  D(54,55,56,61)        178.3973         estimate D2E/DX2                !
 ! D226  D(108,55,56,57)      -177.4909         estimate D2E/DX2                !
 ! D227  D(108,55,56,61)        -0.5775         estimate D2E/DX2                !
 ! D228  D(55,56,57,58)         -2.7737         estimate D2E/DX2                !
 ! D229  D(55,56,57,109)      -179.4828         estimate D2E/DX2                !
 ! D230  D(61,56,57,58)       -179.4869         estimate D2E/DX2                !
 ! D231  D(61,56,57,109)         3.804          estimate D2E/DX2                !
 ! D232  D(55,56,61,62)         53.9851         estimate D2E/DX2                !
 ! D233  D(55,56,61,67)       -131.8464         estimate D2E/DX2                !
 ! D234  D(57,56,61,62)       -129.4911         estimate D2E/DX2                !
 ! D235  D(57,56,61,67)         44.6774         estimate D2E/DX2                !
 ! D236  D(56,57,58,53)          4.3353         estimate D2E/DX2                !
 ! D237  D(56,57,58,59)        177.0282         estimate D2E/DX2                !
 ! D238  D(109,57,58,53)      -179.2699         estimate D2E/DX2                !
 ! D239  D(109,57,58,59)        -6.577          estimate D2E/DX2                !
 ! D240  D(53,58,59,60)        162.6498         estimate D2E/DX2                !
 ! D241  D(57,58,59,60)        -10.327          estimate D2E/DX2                !
 ! D242  D(58,59,60,110)        69.7476         estimate D2E/DX2                !
 ! D243  D(58,59,60,111)       -54.271          estimate D2E/DX2                !
 ! D244  D(58,59,60,112)      -175.653          estimate D2E/DX2                !
 ! D245  D(56,61,62,63)        178.8348         estimate D2E/DX2                !
 ! D246  D(56,61,62,113)        -4.3432         estimate D2E/DX2                !
 ! D247  D(67,61,62,63)          4.6687         estimate D2E/DX2                !
 ! D248  D(67,61,62,113)      -178.5093         estimate D2E/DX2                !
 ! D249  D(56,61,67,66)       -176.9114         estimate D2E/DX2                !
 ! D250  D(56,61,67,115)         3.8687         estimate D2E/DX2                !
 ! D251  D(62,61,67,66)         -2.5145         estimate D2E/DX2                !
 ! D252  D(62,61,67,115)       178.2656         estimate D2E/DX2                !
 ! D253  D(61,62,63,64)        176.6662         estimate D2E/DX2                !
 ! D254  D(61,62,63,65)         -5.7156         estimate D2E/DX2                !
 ! D255  D(113,62,63,64)        -0.1095         estimate D2E/DX2                !
 ! D256  D(113,62,63,65)       177.5087         estimate D2E/DX2                !
 ! D257  D(62,63,65,66)          4.3156         estimate D2E/DX2                !
 ! D258  D(62,63,65,68)       -177.9218         estimate D2E/DX2                !
 ! D259  D(64,63,65,66)       -178.0836         estimate D2E/DX2                !
 ! D260  D(64,63,65,68)         -0.321          estimate D2E/DX2                !
 ! D261  D(63,65,66,67)         -2.1425         estimate D2E/DX2                !
 ! D262  D(63,65,66,114)       179.1893         estimate D2E/DX2                !
 ! D263  D(68,65,66,67)       -179.8459         estimate D2E/DX2                !
 ! D264  D(68,65,66,114)         1.4859         estimate D2E/DX2                !
 ! D265  D(63,65,68,69)         58.0064         estimate D2E/DX2                !
 ! D266  D(63,65,68,73)       -120.5461         estimate D2E/DX2                !
 ! D267  D(66,65,68,69)       -124.4592         estimate D2E/DX2                !
 ! D268  D(66,65,68,73)         56.9883         estimate D2E/DX2                !
 ! D269  D(65,66,67,61)          1.5126         estimate D2E/DX2                !
 ! D270  D(65,66,67,115)      -179.1892         estimate D2E/DX2                !
 ! D271  D(114,66,67,61)      -179.8184         estimate D2E/DX2                !
 ! D272  D(114,66,67,115)       -0.5202         estimate D2E/DX2                !
 ! D273  D(65,68,69,70)        175.635          estimate D2E/DX2                !
 ! D274  D(65,68,69,116)         6.7021         estimate D2E/DX2                !
 ! D275  D(73,68,69,70)         -5.7648         estimate D2E/DX2                !
 ! D276  D(73,68,69,116)      -174.6976         estimate D2E/DX2                !
 ! D277  D(65,68,73,72)       -178.0248         estimate D2E/DX2                !
 ! D278  D(65,68,73,74)          1.8911         estimate D2E/DX2                !
 ! D279  D(69,68,73,72)          3.3461         estimate D2E/DX2                !
 ! D280  D(69,68,73,74)       -176.738          estimate D2E/DX2                !
 ! D281  D(68,69,70,71)          8.6036         estimate D2E/DX2                !
 ! D282  D(68,69,70,117)      -178.9123         estimate D2E/DX2                !
 ! D283  D(116,69,70,71)       177.054          estimate D2E/DX2                !
 ! D284  D(116,69,70,117)      -10.4618         estimate D2E/DX2                !
 ! D285  D(69,70,71,72)         -8.0467         estimate D2E/DX2                !
 ! D286  D(69,70,71,118)       176.8549         estimate D2E/DX2                !
 ! D287  D(117,70,71,72)       179.2296         estimate D2E/DX2                !
 ! D288  D(117,70,71,118)        4.1312         estimate D2E/DX2                !
 ! D289  D(70,71,72,73)          5.3326         estimate D2E/DX2                !
 ! D290  D(70,71,72,119)       177.4658         estimate D2E/DX2                !
 ! D291  D(118,71,72,73)      -179.0587         estimate D2E/DX2                !
 ! D292  D(118,71,72,119)       -6.9256         estimate D2E/DX2                !
 ! D293  D(71,72,73,68)         -3.3428         estimate D2E/DX2                !
 ! D294  D(71,72,73,74)        176.7423         estimate D2E/DX2                !
 ! D295  D(119,72,73,68)      -174.7633         estimate D2E/DX2                !
 ! D296  D(119,72,73,74)         5.3218         estimate D2E/DX2                !
 ! D297  D(68,73,74,75)        173.4169         estimate D2E/DX2                !
 ! D298  D(72,73,74,75)         -6.6683         estimate D2E/DX2                !
 ! D299  D(73,74,75,120)        63.0467         estimate D2E/DX2                !
 ! D300  D(73,74,75,121)       -59.3833         estimate D2E/DX2                !
 ! D301  D(73,74,75,122)      -174.4879         estimate D2E/DX2                !
 --------------------------------------------------------------------------------
 Trust Radius=3.00D-01 FncErr=1.00D-07 GrdErr=1.00D-06 EigMax=2.50D+02 EigMin=1.00D-04
 Number of steps in this run=    657 maximum allowed number of steps=    732.
 GradGradGradGradGradGradGradGradGradGradGradGradGradGradGradGradGradGrad

 Leave Link  103 at Fri Jul 24 11:30:41 2020, MaxMem=  4026531840 cpu:               0.2 elap:               0.0
 (Enter /opt/ohpc/pub/libs/gaussian/g16-A.03/sandybridge/g16/l202.exe)
 Stoichiometry    C65H47F5O5
 Framework group  C1[X(C65H47F5O5)]
 Deg. of freedom   360
 Full point group                 C1      NOp   1
 Largest Abelian subgroup         C1      NOp   1
 Largest concise Abelian subgroup C1      NOp   1
                         Standard orientation:                         
 ---------------------------------------------------------------------
 Center     Atomic      Atomic             Coordinates (Angstroms)
 Number     Number       Type             X           Y           Z
[...]
  Beta virt. eigenvalues --    1.80855   1.81049   1.81084   1.81329   1.81573
  Beta virt. eigenvalues --    1.81754   1.81945   1.82083   1.82227   1.82712
  Beta virt. eigenvalues --    1.82805   1.83214   1.83483   1.83596   1.84181
  Beta virt. eigenvalues --    1.84297   1.84586   1.84769   1.85118   1.85389
  Beta virt. eigenvalues --    1.85557   1.86014   1.86539   1.86640   1.86821
  Beta virt. eigenvalues --    1.87189   1.87380   1.87777   1.88050   1.88302
  Beta virt. eigenvalues --    1.88702   1.89127   1.89356   1.89451   1.89904
  Beta virt. eigenvalues --    1.90033   1.90369   1.90796   1.90951   1.90997
  Beta virt. eigenvalues --    1.91085   1.91298   1.91509   1.91989   1.92198
  Beta virt. eigenvalues --    1.92425   1.92547   1.92619   1.92879   1.93341
  Beta virt. eigenvalues --    1.93407   1.93684   1.93755   1.94093   1.94304
  Beta virt. eigenvalues --    1.94361   1.94557   1.94758   1.94869   1.95023
  Beta virt. eigenvalues --    1.95274   1.95557   1.95732   1.96075   1.96138
  Beta virt. eigenvalues --    1.96258   1.96396   1.96611   1.96778   1.97280
  Beta virt. eigenvalues --    1.97500   1.97846   1.98170   1.98400   1.98811
  Beta virt. eigenvalues --    1.99175   1.99901   2.00377   2.00680   2.01150
  Beta virt. eigenvalues --    2.01432   2.01655   2.01955   2.02617   2.02831
  Beta virt. eigenvalues --    2.03170   2.03554   2.03915   2.04018   2.04597
  Beta virt. eigenvalues --    2.05215   2.05938   2.06231   2.06622   2.06960
  Beta virt. eigenvalues --    2.07127   2.07593   2.07813   2.07840   2.08020
  Beta virt. eigenvalues --    2.08192   2.08545   2.09185   2.09263   2.09535
  Beta virt. eigenvalues --    2.09625   2.09846   2.09981   2.09990   2.10791
  Beta virt. eigenvalues --    2.10980   2.11282   2.12164   2.12386   2.13387
  Beta virt. eigenvalues --    2.13932   2.14028   2.14285   2.14879   2.14944
  Beta virt. eigenvalues --    2.15433   2.16270   2.17022   2.17639   2.17753
  Beta virt. eigenvalues --    2.18736   2.19091   2.19265   2.20241   2.20466
  Beta virt. eigenvalues --    2.21614   2.22058   2.22577   2.22678   2.23167
  Beta virt. eigenvalues --    2.23422   2.23694   2.24104   2.24632   2.24957
  Beta virt. eigenvalues --    2.25136   2.25506   2.25718   2.25802   2.26419
  Beta virt. eigenvalues --    2.26515   2.26646   2.27121   2.28470   2.28949
  Beta virt. eigenvalues --    2.29685   2.29984   2.30191   2.30887   2.31217
  Beta virt. eigenvalues --    2.31508   2.32014   2.32496   2.32852   2.33003
  Beta virt. eigenvalues --    2.33531   2.33850   2.35257   2.35655   2.35956
  Beta virt. eigenvalues --    2.36117   2.36459   2.37045   2.37707   2.38501
  Beta virt. eigenvalues --    2.39028   2.39559   2.41427   2.41755   2.41858
  Beta virt. eigenvalues --    2.41923   2.42067   2.42172   2.42453   2.42515
  Beta virt. eigenvalues --    2.42658   2.43699   2.44155   2.44224   2.44414
  Beta virt. eigenvalues --    2.45484   2.46068   2.46371   2.46616   2.46987
  Beta virt. eigenvalues --    2.47059   2.47139   2.47346   2.48001   2.48769
  Beta virt. eigenvalues --    2.49866   2.49915   2.50073   2.50191   2.50635
  Beta virt. eigenvalues --    2.52039   2.52184   2.52730   2.53124   2.53338
  Beta virt. eigenvalues --    2.53606   2.53638   2.54069   2.54320   2.54658
  Beta virt. eigenvalues --    2.55911   2.57228   2.58117   2.58926   2.59210
  Beta virt. eigenvalues --    2.59336   2.59548   2.60725   2.63553   2.64859
  Beta virt. eigenvalues --    2.65373   2.66170   2.66509   2.66517   2.66816
  Beta virt. eigenvalues --    2.67484   2.67821   2.69094   2.70150   2.71056
  Beta virt. eigenvalues --    2.71411   2.71755   2.72088   2.72828   2.73409
  Beta virt. eigenvalues --    2.73828   2.74262   2.74371   2.75214   2.75822
  Beta virt. eigenvalues --    2.76333   2.77394   2.77818   2.78592   2.79598
  Beta virt. eigenvalues --    2.79876   2.79946   2.80767   2.80827   2.81980
  Beta virt. eigenvalues --    2.82069   2.82708   2.82784   2.82899   2.84150
  Beta virt. eigenvalues --    2.85329   2.85577   2.86997   2.87795   2.88225
  Beta virt. eigenvalues --    2.91155   2.91491   2.91575   2.91707   2.91853
  Beta virt. eigenvalues --    2.95428   2.96131   2.96856   2.97574   3.04470
  Beta virt. eigenvalues --    3.04533   3.04580   3.04700   3.05100   3.07938
  Beta virt. eigenvalues --    3.08418   3.08426   3.08497   3.08993   3.24317
  Beta virt. eigenvalues --    3.25273   3.26027   3.26975   3.31113   3.36831
  Beta virt. eigenvalues --    3.37106   3.37479   3.38408   3.41086   3.42430
  Beta virt. eigenvalues --    3.42543   3.42763   3.42825   3.45891   3.58712
  Beta virt. eigenvalues --    3.59321   3.60059   3.60374   3.60747   3.60751
  Beta virt. eigenvalues --    3.60837   3.60890   3.61183   3.63029   3.64070
  Beta virt. eigenvalues --    3.64239   3.64777   3.65349   3.65643   3.78504
  Beta virt. eigenvalues --    3.78545   3.78617   3.78644   3.79142   4.00316
  Beta virt. eigenvalues --    4.00403   4.00474   4.00583   4.01075   4.21714
  Beta virt. eigenvalues --    4.21734   4.21916   4.21944   4.22229
          Condensed to atoms (all electrons):
          Atomic-Atomic Spin Densities.
 Mulliken charges and spin densities:
               1          2
     1  C    0.028003   0.000000
     2  C    0.011408  -0.000000
     3  C    0.089823  -0.000000
     4  F   -0.129241   0.000000
     5  C   -0.037310   0.000000
     6  C    0.045319  -0.000000
     7  C    0.023387   0.000000
     8  C   -0.011302   0.000000
     9  C    0.049694  -0.000000
    10  C    0.003998   0.000000
    11  C    0.018179  -0.000000
    12  C   -0.034624   0.000000
    13  C    0.107603  -0.000000
    14  O   -0.240221   0.000000
    15  C    0.063126  -0.000000
    16  C    0.022295  -0.000000
    17  C    0.001822   0.000000
    18  C    0.094880  -0.000000
    19  F   -0.128635   0.000000
    20  C   -0.028368   0.000000
    21  C    0.053446  -0.000000
    22  C    0.011596  -0.000000
    23  C   -0.014089   0.000000
    24  C    0.048775   0.000000
    25  C    0.004138  -0.000000
    26  C    0.016084   0.000000
    27  C   -0.033327  -0.000000
    28  C    0.108808   0.000000
    29  O   -0.240873  -0.000000
    30  C    0.063051   0.000000
    31  C    0.022409   0.000000
    32  C    0.000534  -0.000000
    33  C    0.122217   0.000000
    34  F   -0.124120   0.000000
    35  C   -0.037947   0.000000
    36  C    0.031570  -0.000000
    37  C    0.012322   0.000000
    38  C   -0.019552  -0.000000
    39  C    0.038361   0.000000
    40  C    0.004830   0.000000
    41  C    0.018782   0.000000
    42  C   -0.035201  -0.000000
    43  C    0.120807  -0.000000
    44  O   -0.235089  -0.000000
    45  C    0.063959  -0.000000
    46  C    0.021224  -0.000000
    47  C    0.004518  -0.000000
    48  C    0.095301   0.000000
    49  F   -0.127843   0.000000
    50  C   -0.028476  -0.000000
    51  C    0.053707  -0.000000
    52  C    0.009469   0.000000
    53  C   -0.014556  -0.000000
    54  C    0.049132  -0.000000
    55  C    0.005465   0.000000
    56  C    0.016158   0.000000
    57  C   -0.033429   0.000000
    58  C    0.107943  -0.000000
    59  O   -0.241509  -0.000000
    60  C    0.063444   0.000000
    61  C    0.019972  -0.000000
    62  C    0.004545   0.000000
    63  C    0.098656  -0.000000
    64  F   -0.127613   0.000000
    65  C   -0.029716   0.000000
    66  C    0.056262  -0.000000
    67  C    0.009065   0.000000
    68  C   -0.025097   0.000000
    69  C    0.038331  -0.000000
    70  C    0.022339   0.000000
    71  C    0.024955  -0.000000
    72  C   -0.033459   0.000000
    73  C    0.099880   0.000000
    74  O   -0.239791   0.000000
    75  C    0.060716   0.000000
    76  H   -0.010240  -0.000000
    77  H   -0.003057   0.000000
    78  H   -0.020988  -0.000000
    79  H   -0.015611   0.000000
    80  H   -0.022676   0.000000
    81  H   -0.026314  -0.000000
    82  H   -0.020137  -0.000000
    83  H    0.043294   0.000000
    84  H    0.048258   0.000000
    85  H    0.051388   0.000000
    86  H   -0.012840  -0.000000
    87  H   -0.020977  -0.000000
    88  H   -0.022083   0.000000
    89  H   -0.022991   0.000000
    90  H   -0.025932  -0.000000
    91  H   -0.019895  -0.000000
    92  H    0.051648  -0.000000
    93  H    0.046346  -0.000000
    94  H    0.045229   0.000000
    95  H   -0.012162   0.000000
    96  H   -0.019019   0.000000
    97  H   -0.021625   0.000000
    98  H   -0.025097   0.000000
    99  H   -0.024913  -0.000000
   100  H   -0.020076   0.000000
   101  H    0.050355   0.000000
   102  H    0.045666   0.000000
   103  H    0.044160   0.000000
   104  H   -0.010375   0.000000
   105  H   -0.021559   0.000000
   106  H   -0.024791   0.000000
   107  H   -0.021572  -0.000000
   108  H   -0.024394   0.000000
   109  H   -0.020749   0.000000
   110  H    0.046743  -0.000000
   111  H    0.044674  -0.000000
   112  H    0.050157   0.000000
   113  H   -0.010092  -0.000000
   114  H   -0.022067   0.000000
   115  H   -0.025911   0.000000
   116  H   -0.022389  -0.000000
   117  H   -0.019065   0.000000
   118  H   -0.015851  -0.000000
   119  H   -0.014355  -0.000000
   120  H    0.043098  -0.000000
   121  H    0.045730   0.000000
   122  H    0.052134  -0.000000
 Sum of Mulliken charges =  -0.00000   0.00000
 Mulliken charges and spin densities with hydrogens summed into heavy atoms:
               1          2
     1  C    0.017763   0.000000
     2  C    0.008351  -0.000000
     3  C    0.089823  -0.000000
     4  F   -0.129241   0.000000
     5  C   -0.037310   0.000000
     6  C    0.024331  -0.000000
     7  C    0.007777   0.000000
     8  C   -0.011302   0.000000
     9  C    0.027018  -0.000000
    10  C   -0.022317   0.000000
    11  C    0.018179  -0.000000
    12  C   -0.054761   0.000000
    13  C    0.107603  -0.000000
    14  O   -0.240221   0.000000
    15  C    0.206066   0.000000
    16  C    0.022295  -0.000000
    17  C   -0.011018   0.000000
    18  C    0.094880  -0.000000
    19  F   -0.128635   0.000000
    20  C   -0.028368   0.000000
    21  C    0.032468  -0.000000
    22  C   -0.010487  -0.000000
    23  C   -0.014089   0.000000
    24  C    0.025784   0.000000
    25  C   -0.021794  -0.000000
    26  C    0.016084   0.000000
    27  C   -0.053222  -0.000000
    28  C    0.108808   0.000000
    29  O   -0.240873  -0.000000
    30  C    0.206275  -0.000000
    31  C    0.022409   0.000000
    32  C   -0.011628  -0.000000
    33  C    0.122217   0.000000
    34  F   -0.124120   0.000000
    35  C   -0.037947   0.000000
    36  C    0.012551  -0.000000
    37  C   -0.009303   0.000000
    38  C   -0.019552  -0.000000
    39  C    0.013264   0.000000
    40  C   -0.020082   0.000000
    41  C    0.018782   0.000000
    42  C   -0.055277   0.000000
    43  C    0.120807  -0.000000
    44  O   -0.235089  -0.000000
    45  C    0.204140  -0.000000
    46  C    0.021224  -0.000000
    47  C   -0.005856  -0.000000
    48  C    0.095301   0.000000
    49  F   -0.127843   0.000000
    50  C   -0.028476  -0.000000
    51  C    0.032147  -0.000000
    52  C   -0.015322   0.000000
    53  C   -0.014556  -0.000000
    54  C    0.027560  -0.000000
    55  C   -0.018928   0.000000
    56  C    0.016158   0.000000
    57  C   -0.054178   0.000000
    58  C    0.107943  -0.000000
    59  O   -0.241509  -0.000000
    60  C    0.205018   0.000000
    61  C    0.019972  -0.000000
    62  C   -0.005547   0.000000
    63  C    0.098656  -0.000000
    64  F   -0.127613   0.000000
    65  C   -0.029716   0.000000
    66  C    0.034196  -0.000000
    67  C   -0.016846   0.000000
    68  C   -0.025097   0.000000
    69  C    0.015942  -0.000000
    70  C    0.003274   0.000000
    71  C    0.009104  -0.000000
    72  C   -0.047813   0.000000
    73  C    0.099880   0.000000
    74  O   -0.239791   0.000000
    75  C    0.201678  -0.000000
 Electronic spatial extent (au):  <R**2>=         298190.5354
 Charge=             -0.0000 electrons
 Dipole moment (field-independent basis, Debye):
    X=             -1.9719    Y=             -2.9619    Z=              2.2599  Tot=              4.2152
 Quadrupole moment (field-independent basis, Debye-Ang):
   XX=           -356.7199   YY=           -381.2998   ZZ=           -423.9635
   XY=             39.0782   XZ=            -44.5179   YZ=              2.3197
 Traceless Quadrupole moment (field-independent basis, Debye-Ang):
   XX=             30.6079   YY=              6.0279   ZZ=            -36.6358
   XY=             39.0782   XZ=            -44.5179   YZ=              2.3197
 Octapole moment (field-independent basis, Debye-Ang**2):
  XXX=           -968.0706  YYY=            -65.6089  ZZZ=             21.8303  XYY=            176.2406
  XXY=            186.1576  XXZ=            540.3374  XZZ=           -187.5154  YZZ=              2.2073
  YYZ=             11.3577  XYZ=            -68.3789
 Hexadecapole moment (field-independent basis, Debye-Ang**3):
 XXXX=        -340353.4449 YYYY=          -5051.7197 ZZZZ=          -2393.2362 XXXY=           6589.9204
 XXXZ=         -16669.9643 YYYX=            574.3068 YYYZ=             -6.9410 ZZZX=           -418.4883
 ZZZY=             36.6963 XXYY=         -63458.7096 XXZZ=         -64453.4041 YYZZ=          -1335.8631
 XXYZ=            464.0815 YYXZ=           -278.7781 ZZXY=           -112.7799
 N-N= 9.147496395447D+03 E-N=-2.617815996965D+04  KE= 3.355774493812D+03
 Leave Link  601 at Fri Jul 24 17:06:57 2020, MaxMem=  4026531840 cpu:              10.3 elap:               1.4
 (Enter /opt/ohpc/pub/libs/gaussian/g16-A.03/sandybridge/g16/l9999.exe)

 Test job not archived.
 1\1\GINC-SKYLAKE034\FOpt\ULC-wPBE\CC-pVDZ\C65H47F5O5\RDU230\24-Jul-202
 0\0\\#P uLC-wPBE/cc-pVDZ iop(3/107=0224600000, 3/108=0224600000) opt\\
 H47 C65 O5 F5\\0,1\C,21.0493551288,0.3246392623,-0.0818604477\C,20.357
 2811609,0.0452618458,1.0978030146\C,18.9645731066,0.0413715151,1.07969
 30095\F,18.3167079597,-0.2326660805,2.2389730669\C,18.2157275759,0.308
 2260678,-0.0754865105\C,18.9431093157,0.5899140978,-1.245726344\C,20.3
 390271819,0.5959844679,-1.2558500755\C,16.7265897352,0.2653528203,-0.0
 550654085\C,16.0491192318,-0.8349752367,0.4841350583\C,14.6548703737,-
 0.9076150687,0.5054426992\C,13.8885977401,0.1415758847,-0.0182902643\C
 ,14.5504145204,1.2583737003,-0.5583041362\C,15.9489434494,1.3267834651
 ,-0.5792473523\O,16.643707077,2.3923153038,-1.0761829716\C,15.90410010
 98,3.4984552414,-1.5672935136\C,12.4008204199,0.0835537293,-0.00635091
 93\C,11.6549754139,0.5336331725,-1.1058409967\C,10.2655435472,0.471864
 3596,-1.0747850136\F,9.5933788549,0.9112006634,-2.1677960524\C,9.54369
 24353,-0.0281322748,0.0178849122\C,10.3087571165,-0.4772868729,1.10883
 69221\C,11.7017346678,-0.4224808246,1.1036610516\C,8.0548663916,-0.050
 696585,0.0194694745\C,7.3208035795,1.0904853414,-0.3270456022\C,5.9246
 433871,1.1027532269,-0.3207645094\C,5.213463845,-0.0514391519,0.031902
 3691\C,5.9321461163,-1.2098396926,0.3754318331\C,7.3324773725,-1.21721
 7847,0.3716919958\O,8.0801946112,-2.312228129,0.6984539024\C,7.3974812
 374,-3.5178450361,1.0022177729\C,3.724301083,-0.0605662167,0.045679869
 8\C,3.0092135052,-1.1691857132,-0.4357420692\C,1.6190838029,-1.1626715
 423,-0.4150458334\F,0.9710989977,-2.2341062575,-0.9250272027\C,0.87116
 41192,-0.085269439,0.0780410405\C,1.6007257356,1.0177462216,0.54953069
 47\C,2.9964640748,1.0365130059,0.536357148\C,-0.6164203273,-0.08262080
 71,0.0601415609\C,-1.3177767348,0.9415764634,-0.5841160422\C,-2.714803
 4402,0.9789149949,-0.6027460514\C,-3.4510255295,-0.0282058396,0.034382
 7342\C,-2.7609702066,-1.0607707615,0.6955126197\C,-1.3615804573,-1.089
 8737937,0.718002972\O,-0.6299521626,-2.032098446,1.3757732076\C,-1.326
 3642843,-3.0977187243,1.9997271715\C,-4.9401208182,-0.0161640716,0.019
 5047863\C,-5.6457848198,1.1850614749,0.1822112657\C,-7.0367105437,1.18
 10345736,0.1616131963\F,-7.6704994768,2.3673646502,0.3331643781\C,-7.7
 987365497,0.0176743804,-0.0154618565\C,-7.0738029616,-1.1764805885,-0.
 1740327547\C,-5.6798320971,-1.1982466929,-0.1606835574\C,-9.2863509684
 ,0.0643541443,-0.0603704599\C,-9.9488305714,0.9828079319,-0.8843678321
 \C,-11.3418566116,1.0397085753,-0.9585745663\C,-12.1227186714,0.167917
 8727,-0.1888244548\C,-11.4765650015,-0.7563983413,0.6505851769\C,-10.0
 790539573,-0.8137492138,0.7185494366\O,-9.3996099348,-1.6932185945,1.5
 130607584\C,-10.1552724656,-2.554887779,2.3484226212\C,-13.60998966,0.
 211379164,-0.2491835515\C,-14.2690224734,0.3806305201,-1.4756179975\C,
 -15.6591819138,0.4189720262,-1.5166994396\F,-16.2473779554,0.575133455
 7,-2.7281442862\C,-16.4644404974,0.2974783655,-0.3758809863\C,-15.7856
 466239,0.1349190553,0.8443137843\C,-14.3938014268,0.0881384374,0.91157
 0742\C,-17.9514453081,0.3142428814,-0.4693091687\C,-18.6167324087,-0.5
 171036207,-1.3798466402\C,-20.011169673,-0.5310808392,-1.4800849914\C,
 -20.7620921043,0.308116451,-0.6585056213\C,-20.1281387661,1.1556752163
 ,0.2565514554\C,-18.7295861717,1.1635995958,0.3554950394\O,-18.0356287
 528,1.9650211325,1.2174746577\C,-18.7740057571,2.8712108968,2.02016656
 72\H,22.1465265177,0.3289914222,-0.0813761437\H,20.8737830135,-0.16930
 86485,2.0405639029\H,18.3876543973,0.8068752075,-2.1650425747\H,20.875
 7161184,0.8136915466,-2.1873685048\H,16.6384863681,-1.6655452326,0.890
 0819931\H,14.161004748,-1.7998018366,0.9084208798\H,13.9522528898,2.09
 31141403,-0.938056439\H,15.2640688391,3.2177402554,-2.4290176496\H,15.
 2700304913,3.9515016442,-0.7779973997\H,16.6518870597,4.2375767564,-1.
 8985266676\H,12.1402698377,0.9108943508,-2.01366459\H,9.7851767731,-0.
 8716328452,1.9867025427\H,12.2592731184,-0.7555594409,1.9875063032\H,7
 .8663048402,1.9968465725,-0.6146887679\H,5.3857170441,2.0103111871,-0.
 6178004374\H,5.3774208746,-2.1057395792,0.6728050504\H,8.1819878459,-4
 .2666066382,1.1999632541\H,6.7579661743,-3.4150479854,1.9029586795\H,6
 .7731223866,-3.8609592436,0.1520687373\H,3.5213299392,-2.0376498264,-0
 .8665155743\H,1.047712493,1.8741142634,0.956396152\H,3.5312485964,1.90
 43394669,0.9409965972\H,-0.7452446945,1.7187142713,-1.106865957\H,-3.2
 332742853,1.7779762065,-1.1460390733\H,-3.3379471636,-1.8254457624,1.2
 258351821\H,-0.551964466,-3.7522706087,2.432095826\H,-1.9907940383,-2.
 7369871318,2.8117404775\H,-1.9270759645,-3.6776796947,1.2695645721\H,-
 5.1277925387,2.1358891584,0.3534493208\H,-7.6295641584,-2.109088697,-0
 .3214983218\H,-5.1532422056,-2.1471310751,-0.3210768567\H,-9.348394272
 5,1.6770392845,-1.4838190297\H,-11.8239098534,1.7857228102,-1.60170119
 35\H,-12.0862091631,-1.4532086452,1.2349156642\H,-10.7980477159,-3.241
 9722597,1.7604935885\H,-10.7891389913,-1.9857916278,3.0588832533\H,-9.
 4185599378,-3.1469421591,2.9159175735\H,-13.7148043709,0.4640817776,-2
 .4177585314\H,-16.3766448332,0.051527359,1.7631618924\H,-13.9036430586
 ,-0.0196601866,1.8870627709\H,-18.0176549012,-1.1719601709,-2.02375796
 86\H,-20.504173035,-1.1961579856,-2.1991215324\H,-21.8577440124,0.3125
 555122,-0.7224965788\H,-20.7335923994,1.8116726559,0.8904561573\H,-19.
 4635676143,2.34413766,2.7115344076\H,-19.3567324298,3.5854262972,1.403
 0456791\H,-18.0279531597,3.428688905,2.6101148481\\Version=EM64L-G16Re
 vA.03\State=1-A\HF=-3377.8644106\S2=0.\S2-1=0.\S2A=0.\RMSD=5.310e-09\R
 MSF=1.640e-06\Dipole=-0.7773057,-0.6194595,1.3275311\Quadrupole=22.804
 7744,-0.9514228,-21.8533516,10.3738803,-42.8194475,-11.9200825\PG=C01 
 [X(C65H47F5O5)]\\@


 MY DESCRIPTION OF EXPERIENCE IS NOT WHAT HAPPENS
 TO A MAN.  EXPERIENCE IS WHAT A MAN DOES WITH WHAT
 HAPPENS TO HIM.
                         - CHUCK KNOX, SEATTLE SEAHAWKS, 1985
 Job cpu time:       1 days 20 hours 11 minutes 41.1 seconds.
 Elapsed time:       0 days  5 hours 36 minutes 14.9 seconds.
 File lengths (MBytes):  RWF=   1856 Int=      0 D2E=      0 Chk=    168 Scr=      8
 Normal termination of Gaussian 16 at Fri Jul 24 17:06:57 2020.
