 Entering Gaussian System, Link 0=g16
 Input=mols_66_3_15_c-c-cOC-cOC_opt_0.gjf
 Output=mols_66_3_15_c-c-cOC-cOC_opt_0.log
 Initial command:
 /opt/ohpc/pub/libs/gaussian/g16-A.03/sandybridge/g16/l1.exe "/mnt/gpfs2_4m/scratch/rdu230/ondemand/projects/dihedral_energies/7trial/wtuning/mols_66_3_15_c-c-cOC-cOC/Gau-166132.inp" -scrdir="/mnt/gpfs2_4m/scratch/rdu230/ondemand/projects/dihedral_energies/7trial/wtuning/mols_66_3_15_c-c-cOC-cOC/"
 Entering Link 1 = /opt/ohpc/pub/libs/gaussian/g16-A.03/sandybridge/g16/l1.exe PID=    166133.
  
 Copyright (c) 1988,1990,1992,1993,1995,1998,2003,2009,2016,
            Gaussian, Inc.  All Rights Reserved.
  
 This is part of the Gaussian(R) 16 program.  It is based on
 the Gaussian(R) 09 system (copyright 2009, Gaussian, Inc.),
 the Gaussian(R) 03 system (copyright 2003, Gaussian, Inc.),
 the Gaussian(R) 98 system (copyright 1998, Gaussian, Inc.),
 the Gaussian(R) 94 system (copyright 1995, Gaussian, Inc.),
 the Gaussian 92(TM) system (copyright 1992, Gaussian, Inc.),
 the Gaussian 90(TM) system (copyright 1990, Gaussian, Inc.),
 the Gaussian 88(TM) system (copyright 1988, Gaussian, Inc.),
 the Gaussian 86(TM) system (copyright 1986, Carnegie Mellon
 University), and the Gaussian 82(TM) system (copyright 1983,
 Carnegie Mellon University). Gaussian is a federally registered
 trademark of Gaussian, Inc.
  
 This software contains proprietary and confidential information,
 including trade secrets, belonging to Gaussian, Inc.
  
 This software is provided under written license and may be
 used, copied, transmitted, or stored only in accord with that
 written license.
  
 The following legend is applicable only to US Government
 contracts under FAR:
  
                    RESTRICTED RIGHTS LEGEND
  
 Use, reproduction and disclosure by the US Government is
 subject to restrictions as set forth in subparagraphs (a)
 and (c) of the Commercial Computer Software - Restricted
 Rights clause in FAR 52.227-19.
  
 Gaussian, Inc.
 340 Quinnipiac St., Bldg. 40, Wallingford CT 06492
  
  
 ---------------------------------------------------------------
 Warning -- This program may not be used in any manner that
 competes with the business of Gaussian, Inc. or will provide
 assistance to any competitor of Gaussian, Inc.  The licensee
 of this program is prohibited from giving any competitor of
 Gaussian, Inc. access to this program.  By using this program,
 the user acknowledges that Gaussian, Inc. is engaged in the
 business of creating and licensing software in the field of
 computational chemistry and represents and warrants to the
 licensee that it is not a competitor of Gaussian, Inc. and that
 it will not use this program in any manner prohibited above.
 ---------------------------------------------------------------
  

 Cite this work as:
 Gaussian 16, Revision A.03,
 M. J. Frisch, G. W. Trucks, H. B. Schlegel, G. E. Scuseria, 
 M. A. Robb, J. R. Cheeseman, G. Scalmani, V. Barone, 
 G. A. Petersson, H. Nakatsuji, X. Li, M. Caricato, A. V. Marenich, 
 J. Bloino, B. G. Janesko, R. Gomperts, B. Mennucci, H. P. Hratchian, 
 J. V. Ortiz, A. F. Izmaylov, J. L. Sonnenberg, D. Williams-Young, 
 F. Ding, F. Lipparini, F. Egidi, J. Goings, B. Peng, A. Petrone, 
 T. Henderson, D. Ranasinghe, V. G. Zakrzewski, J. Gao, N. Rega, 
 G. Zheng, W. Liang, M. Hada, M. Ehara, K. Toyota, R. Fukuda, 
 J. Hasegawa, M. Ishida, T. Nakajima, Y. Honda, O. Kitao, H. Nakai, 
 T. Vreven, K. Throssell, J. A. Montgomery, Jr., J. E. Peralta, 
 F. Ogliaro, M. J. Bearpark, J. J. Heyd, E. N. Brothers, K. N. Kudin, 
 V. N. Staroverov, T. A. Keith, R. Kobayashi, J. Normand, 
 K. Raghavachari, A. P. Rendell, J. C. Burant, S. S. Iyengar, 
 J. Tomasi, M. Cossi, J. M. Millam, M. Klene, C. Adamo, R. Cammi, 
 J. W. Ochterski, R. L. Martin, K. Morokuma, O. Farkas, 
 J. B. Foresman, and D. J. Fox, Gaussian, Inc., Wallingford CT, 2016.
 
 ******************************************
 Gaussian 16:  EM64L-G16RevA.03 25-Dec-2016
                25-Jul-2020 
 ******************************************
 %mem=30GB
 %nproc=8
 Will use up to    8 processors via shared memory.
 ---------------------------------------------------------------
 #P uLC-wPBE/cc-pVDZ iop(3/107=0141700000, 3/108=0141700000) opt
 ---------------------------------------------------------------
 1/18=20,19=15,26=3,38=1/1,3;
 2/9=110,12=2,17=6,18=5,40=1/2;
 3/5=16,11=2,25=1,30=1,71=1,74=-41,107=141700000,108=141700000,116=2/1,2,3;
 4//1;
 5/5=2,38=5/2;
 6/7=2,8=2,9=2,10=2,28=1/1;
 7//1,2,3,16;
 1/18=20,19=15,26=3/3(2);
 2/9=110/2;
 99//99;
 2/9=110/2;
 3/5=16,11=2,25=1,30=1,71=1,74=-41,107=141700000,108=141700000,116=2/1,2,3;
 4/5=5,16=3,69=1/1;
 5/5=2,38=5/2;
 7//1,2,3,16;
 1/18=20,19=15,26=3/3(-5);
 2/9=110/2;
 6/7=2,8=2,9=2,10=2,19=2,28=1/1;
 99/9=1/99;
 Leave Link    1 at Sat Jul 25 14:02:09 2020, MaxMem=  4026531840 cpu:               1.1 elap:               0.2
 (Enter /opt/ohpc/pub/libs/gaussian/g16-A.03/sandybridge/g16/l101.exe)
 ----------
 H38 C42 O6
 ----------
 Symbolic Z-matrix:
 Charge =  0 Multiplicity = 1
 C                    -12.18897  -0.37578   0.52736 
 C                    -11.46828  -1.10322  -0.51317 
 C                    -10.15921  -1.10731  -0.6396 
 O                    -9.43697  -1.80919  -1.6 
 C                    -10.13183  -2.35264  -2.68229 
 C                    -9.37605  -0.30841   0.29168 
 C                    -10.06284   0.4238    1.23511 
 C                    -11.37702   0.391     1.4203 
 C                    -7.86526  -0.18808   0.12515 
 C                    -7.12329  -1.34421   0.48447 
 C                    -5.74453  -1.29854   0.52712 
 C                    -5.05022  -0.10452   0.11586 
 C                    -5.77268   1.01265  -0.29096 
 C                    -7.22253   0.99508  -0.28333 
 O                    -8.03844   2.05094  -0.62838 
 C                    -7.40261   3.09254  -1.3104 
 C                    -3.59397  -0.11433   0.02323 
 C                    -2.83601  -0.38556   1.23822 
 C                    -1.45823  -0.25787   1.23943 
 O                    -0.6117   -0.56307   2.32639 
 C                    -1.31675  -0.6454    3.60127 
 C                    -0.76861   0.01168   0.04878 
 C                    -1.49403   0.29161  -1.08668 
 C                    -2.86974   0.20995  -1.08074 
 C                     0.73584   0.15914  -0.03824 
 C                     1.51768  -1.06101   0.0314 
 C                     2.89169  -1.09882   0.02107 
 C                     3.53294   0.15584  -0.15718 
 C                     2.83974   1.30473  -0.22313 
 C                     1.41488   1.28269  -0.2001 
 O                     0.62432   2.42562  -0.30969 
 C                     1.2466    3.71269   0.00106 
 C                     5.06911   0.14038  -0.16403 
 C                     5.79787  -0.30518   0.87353 
 C                     7.25449  -0.24408   0.90242 
 O                     8.01963  -0.7106    1.93911 
 C                     7.46424  -1.64142   2.80456 
 C                     7.87671   0.26166  -0.28444 
 C                     7.1031    0.75318  -1.32889 
 C                     5.69487   0.64619  -1.27645 
 C                     9.34685   0.35206  -0.31576 
 C                     10.04523   1.38238   0.25752 
 C                     11.43567   1.42028   0.26648 
 C                     12.1802   0.44712  -0.42358 
 C                     11.47102  -0.54624  -1.02598 
 C                     10.08293  -0.70986  -1.01269 
 O                     9.34484  -1.72706  -1.55875 
 C                     10.15448  -2.8153   -2.09823 
 H                    -13.27828  -0.41638   0.58463 
 H                    -12.10949  -1.76167  -1.17112 
 H                    -10.79235  -1.68975  -3.18323 
 H                    -10.75752  -3.23534  -2.31757 
 H                    -9.43046  -2.77671  -3.34134 
 H                    -9.46581   1.07791   1.96496 
 H                    -11.88466   0.92535   2.21009 
 H                    -7.61258  -2.28046   0.88945 
 H                    -5.16515  -2.23068   0.76487 
 H                    -5.26058   1.86249  -0.63528 
 H                    -8.21058   3.81686  -1.54044 
 H                    -6.69763   3.65709  -0.61227 
 H                    -6.82226   2.80602  -2.19873 
 H                    -3.3878   -0.55498   2.15791 
 H                    -0.56034  -0.82549   4.35184 
 H                    -1.92845   0.21007   3.85305 
 H                    -1.89994  -1.63614   3.58867 
 H                    -0.93533   0.51677  -2.0596 
 H                    -3.4404    0.43987  -2.08962 
 H                     0.94141  -2.04884   0.21876 
 H                     3.39415  -1.99346   0.08587 
 H                     3.34166   2.27471  -0.43632 
 H                     1.83271   3.61796   1.01979 
 H                     2.00398   4.029    -0.7259 
 H                     0.51792   4.4915    0.13972 
 H                     5.25403  -0.58433   1.80822 
 H                     6.99972  -2.51639   2.25426 
 H                     8.18677  -2.04478   3.38978 
 H                     6.65161  -1.22879   3.4367 
 H                     7.62623   1.12625  -2.24665 
 H                     5.20575   1.02634  -2.12562 
 H                     9.44525   2.15725   0.87495 
 H                     11.90133   2.33278   0.70961 
 H                     13.26762   0.52011  -0.46949 
 H                     12.11844  -1.27258  -1.52766 
 H                     10.73225  -3.23176  -1.39217 
 H                     10.71023  -2.48931  -2.94304 
 H                     9.41408  -3.57032  -2.44612 
 
 ITRead=  0  0  0  0  0  0  0  0  0  0  0  0  0  0  0  0  0  0  0  0
 ITRead=  0  0  0  0  0  0  0  0  0  0  0  0  0  0  0  0  0  0  0  0
 ITRead=  0  0  0  0  0  0  0  0  0  0  0  0  0  0  0  0  0  0  0  0
 ITRead=  0  0  0  0  0  0  0  0  0  0  0  0  0  0  0  0  0  0  0  0
 ITRead=  0  0  0  0  0  0
 MicOpt= -1 -1 -1 -1 -1 -1 -1 -1 -1 -1 -1 -1 -1 -1 -1 -1 -1 -1 -1 -1
 MicOpt= -1 -1 -1 -1 -1 -1 -1 -1 -1 -1 -1 -1 -1 -1 -1 -1 -1 -1 -1 -1
 MicOpt= -1 -1 -1 -1 -1 -1 -1 -1 -1 -1 -1 -1 -1 -1 -1 -1 -1 -1 -1 -1
 MicOpt= -1 -1 -1 -1 -1 -1 -1 -1 -1 -1 -1 -1 -1 -1 -1 -1 -1 -1 -1 -1
 MicOpt= -1 -1 -1 -1 -1 -1
 NAtoms=     86 NQM=       86 NQMF=       0 NMMI=      0 NMMIF=      0
                NMic=       0 NMicF=      0.
                    Isotopes and Nuclear Properties:
 (Nuclear quadrupole moments (NQMom) in fm**2, nuclear magnetic moments (NMagM)
  in nuclear magnetons)

  Atom         1           2           3           4           5           6           7           8           9          10
 IAtWgt=          12          12          12          16          12          12          12          12          12          12
 AtmWgt=  12.0000000  12.0000000  12.0000000  15.9949146  12.0000000  12.0000000  12.0000000  12.0000000  12.0000000  12.0000000
 NucSpn=           0           0           0           0           0           0           0           0           0           0
 AtZEff=  -0.0000000  -0.0000000  -0.0000000  -0.0000000  -0.0000000  -0.0000000  -0.0000000  -0.0000000  -0.0000000  -0.0000000
 NQMom=    0.0000000   0.0000000   0.0000000   0.0000000   0.0000000   0.0000000   0.0000000   0.0000000   0.0000000   0.0000000
 NMagM=    0.0000000   0.0000000   0.0000000   0.0000000   0.0000000   0.0000000   0.0000000   0.0000000   0.0000000   0.0000000
 AtZNuc=   6.0000000   6.0000000   6.0000000   8.0000000   6.0000000   6.0000000   6.0000000   6.0000000   6.0000000   6.0000000

  Atom        11          12          13          14          15          16          17          18          19          20
 IAtWgt=          12          12          12          12          16          12          12          12          12          16
 AtmWgt=  12.0000000  12.0000000  12.0000000  12.0000000  15.9949146  12.0000000  12.0000000  12.0000000  12.0000000  15.9949146
 NucSpn=           0           0           0           0           0           0           0           0           0           0
 AtZEff=  -0.0000000  -0.0000000  -0.0000000  -0.0000000  -0.0000000  -0.0000000  -0.0000000  -0.0000000  -0.0000000  -0.0000000
 NQMom=    0.0000000   0.0000000   0.0000000   0.0000000   0.0000000   0.0000000   0.0000000   0.0000000   0.0000000   0.0000000
 NMagM=    0.0000000   0.0000000   0.0000000   0.0000000   0.0000000   0.0000000   0.0000000   0.0000000   0.0000000   0.0000000
 AtZNuc=   6.0000000   6.0000000   6.0000000   6.0000000   8.0000000   6.0000000   6.0000000   6.0000000   6.0000000   8.0000000

  Atom        21          22          23          24          25          26          27          28          29          30
 IAtWgt=          12          12          12          12          12          12          12          12          12          12
 AtmWgt=  12.0000000  12.0000000  12.0000000  12.0000000  12.0000000  12.0000000  12.0000000  12.0000000  12.0000000  12.0000000
 NucSpn=           0           0           0           0           0           0           0           0           0           0
 AtZEff=  -0.0000000  -0.0000000  -0.0000000  -0.0000000  -0.0000000  -0.0000000  -0.0000000  -0.0000000  -0.0000000  -0.0000000
 NQMom=    0.0000000   0.0000000   0.0000000   0.0000000   0.0000000   0.0000000   0.0000000   0.0000000   0.0000000   0.0000000
 NMagM=    0.0000000   0.0000000   0.0000000   0.0000000   0.0000000   0.0000000   0.0000000   0.0000000   0.0000000   0.0000000
 AtZNuc=   6.0000000   6.0000000   6.0000000   6.0000000   6.0000000   6.0000000   6.0000000   6.0000000   6.0000000   6.0000000

  Atom        31          32          33          34          35          36          37          38          39          40
 IAtWgt=          16          12          12          12          12          16          12          12          12          12
 AtmWgt=  15.9949146  12.0000000  12.0000000  12.0000000  12.0000000  15.9949146  12.0000000  12.0000000  12.0000000  12.0000000
 NucSpn=           0           0           0           0           0           0           0           0           0           0
 AtZEff=  -0.0000000  -0.0000000  -0.0000000  -0.0000000  -0.0000000  -0.0000000  -0.0000000  -0.0000000  -0.0000000  -0.0000000
 NQMom=    0.0000000   0.0000000   0.0000000   0.0000000   0.0000000   0.0000000   0.0000000   0.0000000   0.0000000   0.0000000
 NMagM=    0.0000000   0.0000000   0.0000000   0.0000000   0.0000000   0.0000000   0.0000000   0.0000000   0.0000000   0.0000000
 AtZNuc=   8.0000000   6.0000000   6.0000000   6.0000000   6.0000000   8.0000000   6.0000000   6.0000000   6.0000000   6.0000000

  Atom        41          42          43          44          45          46          47          48          49          50
 IAtWgt=          12          12          12          12          12          12          16          12           1           1
 AtmWgt=  12.0000000  12.0000000  12.0000000  12.0000000  12.0000000  12.0000000  15.9949146  12.0000000   1.0078250   1.0078250
 NucSpn=           0           0           0           0           0           0           0           0           1           1
 AtZEff=  -0.0000000  -0.0000000  -0.0000000  -0.0000000  -0.0000000  -0.0000000  -0.0000000  -0.0000000  -0.0000000  -0.0000000
 NQMom=    0.0000000   0.0000000   0.0000000   0.0000000   0.0000000   0.0000000   0.0000000   0.0000000   0.0000000   0.0000000
 NMagM=    0.0000000   0.0000000   0.0000000   0.0000000   0.0000000   0.0000000   0.0000000   0.0000000   2.7928460   2.7928460
 AtZNuc=   6.0000000   6.0000000   6.0000000   6.0000000   6.0000000   6.0000000   8.0000000   6.0000000   1.0000000   1.0000000

  Atom        51          52          53          54          55          56          57          58          59          60
 IAtWgt=           1           1           1           1           1           1           1           1           1           1
 AtmWgt=   1.0078250   1.0078250   1.0078250   1.0078250   1.0078250   1.0078250   1.0078250   1.0078250   1.0078250   1.0078250
 NucSpn=           1           1           1           1           1           1           1           1           1           1
 AtZEff=  -0.0000000  -0.0000000  -0.0000000  -0.0000000  -0.0000000  -0.0000000  -0.0000000  -0.0000000  -0.0000000  -0.0000000
 NQMom=    0.0000000   0.0000000   0.0000000   0.0000000   0.0000000   0.0000000   0.0000000   0.0000000   0.0000000   0.0000000
 NMagM=    2.7928460   2.7928460   2.7928460   2.7928460   2.7928460   2.7928460   2.7928460   2.7928460   2.7928460   2.7928460
 AtZNuc=   1.0000000   1.0000000   1.0000000   1.0000000   1.0000000   1.0000000   1.0000000   1.0000000   1.0000000   1.0000000

  Atom        61          62          63          64          65          66          67          68          69          70
 IAtWgt=           1           1           1           1           1           1           1           1           1           1
 AtmWgt=   1.0078250   1.0078250   1.0078250   1.0078250   1.0078250   1.0078250   1.0078250   1.0078250   1.0078250   1.0078250
 NucSpn=           1           1           1           1           1           1           1           1           1           1
 AtZEff=  -0.0000000  -0.0000000  -0.0000000  -0.0000000  -0.0000000  -0.0000000  -0.0000000  -0.0000000  -0.0000000  -0.0000000
 NQMom=    0.0000000   0.0000000   0.0000000   0.0000000   0.0000000   0.0000000   0.0000000   0.0000000   0.0000000   0.0000000
 NMagM=    2.7928460   2.7928460   2.7928460   2.7928460   2.7928460   2.7928460   2.7928460   2.7928460   2.7928460   2.7928460
 AtZNuc=   1.0000000   1.0000000   1.0000000   1.0000000   1.0000000   1.0000000   1.0000000   1.0000000   1.0000000   1.0000000

  Atom        71          72          73          74          75          76          77          78          79          80
 IAtWgt=           1           1           1           1           1           1           1           1           1           1
 AtmWgt=   1.0078250   1.0078250   1.0078250   1.0078250   1.0078250   1.0078250   1.0078250   1.0078250   1.0078250   1.0078250
 NucSpn=           1           1           1           1           1           1           1           1           1           1
 AtZEff=  -0.0000000  -0.0000000  -0.0000000  -0.0000000  -0.0000000  -0.0000000  -0.0000000  -0.0000000  -0.0000000  -0.0000000
 NQMom=    0.0000000   0.0000000   0.0000000   0.0000000   0.0000000   0.0000000   0.0000000   0.0000000   0.0000000   0.0000000
 NMagM=    2.7928460   2.7928460   2.7928460   2.7928460   2.7928460   2.7928460   2.7928460   2.7928460   2.7928460   2.7928460
 AtZNuc=   1.0000000   1.0000000   1.0000000   1.0000000   1.0000000   1.0000000   1.0000000   1.0000000   1.0000000   1.0000000

  Atom        81          82          83          84          85          86
 IAtWgt=           1           1           1           1           1           1
 AtmWgt=   1.0078250   1.0078250   1.0078250   1.0078250   1.0078250   1.0078250
 NucSpn=           1           1           1           1           1           1
 AtZEff=  -0.0000000  -0.0000000  -0.0000000  -0.0000000  -0.0000000  -0.0000000
 NQMom=    0.0000000   0.0000000   0.0000000   0.0000000   0.0000000   0.0000000
 NMagM=    2.7928460   2.7928460   2.7928460   2.7928460   2.7928460   2.7928460
 AtZNuc=   1.0000000   1.0000000   1.0000000   1.0000000   1.0000000   1.0000000
 Leave Link  101 at Sat Jul 25 14:02:09 2020, MaxMem=  4026531840 cpu:               3.0 elap:               0.4
 (Enter /opt/ohpc/pub/libs/gaussian/g16-A.03/sandybridge/g16/l103.exe)

 GradGradGradGradGradGradGradGradGradGradGradGradGradGradGradGradGradGrad
 Berny optimization.
 Initialization pass.
                           ----------------------------
                           !    Initial Parameters    !
                           ! (Angstroms and Degrees)  !
 --------------------------                            --------------------------
 ! Name  Definition              Value          Derivative Info.                !
 --------------------------------------------------------------------------------
 ! R1    R(1,2)                  1.4599         estimate D2E/DX2                !
 ! R2    R(1,8)                  1.4299         estimate D2E/DX2                !
 ! R3    R(1,49)                 1.0916         estimate D2E/DX2                !
 ! R4    R(2,3)                  1.3152         estimate D2E/DX2                !
 ! R5    R(2,50)                 1.1303         estimate D2E/DX2                !
 ! R6    R(3,4)                  1.3916         estimate D2E/DX2                !
 ! R7    R(3,6)                  1.4556         estimate D2E/DX2                !
 ! R8    R(4,5)                  1.3963         estimate D2E/DX2                !
 ! R9    R(5,51)                 1.0614         estimate D2E/DX2                !
 ! R10   R(5,52)                 1.1418         estimate D2E/DX2                !
 ! R11   R(5,53)                 1.0517         estimate D2E/DX2                !
 ! R12   R(6,7)                  1.3776         estimate D2E/DX2                !
 ! R13   R(6,9)                  1.5247         estimate D2E/DX2                !
 ! R14   R(7,8)                  1.3276         estimate D2E/DX2                !
 ! R15   R(7,54)                 1.1476         estimate D2E/DX2                !
 ! R16   R(8,55)                 1.0803         estimate D2E/DX2                !
 ! R17   R(9,10)                 1.42           estimate D2E/DX2                !
 ! R18   R(9,14)                 1.4071         estimate D2E/DX2                !
 ! R19   R(10,11)                1.3802         estimate D2E/DX2                !
 ! R20   R(10,56)                1.1314         estimate D2E/DX2                !
 ! R21   R(11,12)                1.4411         estimate D2E/DX2                !
 ! R22   R(11,57)                1.123          estimate D2E/DX2                !
 ! R23   R(12,13)                1.3912         estimate D2E/DX2                !
 ! R24   R(12,17)                1.4592         estimate D2E/DX2                !
 ! R25   R(13,14)                1.45           estimate D2E/DX2                !
 ! R26   R(13,58)                1.0503         estimate D2E/DX2                !
 ! R27   R(14,15)                1.3783         estimate D2E/DX2                !
 ! R28   R(15,16)                1.398          estimate D2E/DX2                !
 ! R29   R(16,59)                1.1092         estimate D2E/DX2                !
 ! R30   R(16,60)                1.1415         estimate D2E/DX2                !
 ! R31   R(16,61)                1.0991         estimate D2E/DX2                !
 ! R32   R(17,18)                1.4575         estimate D2E/DX2                !
 ! R33   R(17,24)                1.3596         estimate D2E/DX2                !
 ! R34   R(18,19)                1.3837         estimate D2E/DX2                !
 ! R35   R(18,62)                1.0858         estimate D2E/DX2                !
 ! R36   R(19,20)                1.4111         estimate D2E/DX2                !
 ! R37   R(19,22)                1.4021         estimate D2E/DX2                !
 ! R38   R(20,21)                1.4592         estimate D2E/DX2                !
 ! R39   R(21,63)                1.0807         estimate D2E/DX2                !
 ! R40   R(21,64)                1.0814         estimate D2E/DX2                !
 ! R41   R(21,65)                1.1497         estimate D2E/DX2                !
 ! R42   R(22,23)                1.3762         estimate D2E/DX2                !
 ! R43   R(22,25)                1.5142         estimate D2E/DX2                !
 ! R44   R(23,24)                1.3781         estimate D2E/DX2                !
 ! R45   R(23,66)                1.1443         estimate D2E/DX2                !
 ! R46   R(24,67)                1.1817         estimate D2E/DX2                !
 ! R47   R(25,26)                1.4508         estimate D2E/DX2                !
 ! R48   R(25,30)                1.3227         estimate D2E/DX2                !
 ! R49   R(26,27)                1.3746         estimate D2E/DX2                !
 ! R50   R(26,68)                1.1589         estimate D2E/DX2                !
 ! R51   R(27,28)                1.4203         estimate D2E/DX2                !
 ! R52   R(27,69)                1.0281         estimate D2E/DX2                !
 ! R53   R(28,29)                1.3434         estimate D2E/DX2                !
 ! R54   R(28,33)                1.5363         estimate D2E/DX2                !
 ! R55   R(29,30)                1.4252         estimate D2E/DX2                !
 ! R56   R(29,70)                1.1128         estimate D2E/DX2                !
 ! R57   R(30,31)                1.394          estimate D2E/DX2                !
 ! R58   R(31,32)                1.463          estimate D2E/DX2                !
 ! R59   R(32,71)                1.1791         estimate D2E/DX2                !
 ! R60   R(32,72)                1.0964         estimate D2E/DX2                !
 ! R61   R(32,73)                1.0755         estimate D2E/DX2                !
 ! R62   R(33,34)                1.3439         estimate D2E/DX2                !
 ! R63   R(33,40)                1.3729         estimate D2E/DX2                !
 ! R64   R(34,35)                1.4582         estimate D2E/DX2                !
 ! R65   R(34,74)                1.1168         estimate D2E/DX2                !
 ! R66   R(35,36)                1.3703         estimate D2E/DX2                !
 ! R67   R(35,38)                1.4323         estimate D2E/DX2                !
 ! R68   R(36,37)                1.387          estimate D2E/DX2                !
 ! R69   R(37,75)                1.1332         estimate D2E/DX2                !
 ! R70   R(37,76)                1.0135         estimate D2E/DX2                !
 ! R71   R(37,77)                1.1091         estimate D2E/DX2                !
 ! R72   R(38,39)                1.3896         estimate D2E/DX2                !
 ! R73   R(38,41)                1.4733         estimate D2E/DX2                !
 ! R74   R(39,40)                1.4133         estimate D2E/DX2                !
 ! R75   R(39,78)                1.1203         estimate D2E/DX2                !
 ! R76   R(40,79)                1.0511         estimate D2E/DX2                !
 ! R77   R(41,42)                1.3704         estimate D2E/DX2                !
 ! R78   R(41,46)                1.468          estimate D2E/DX2                !
 ! R79   R(42,43)                1.391          estimate D2E/DX2                !
 ! R80   R(42,80)                1.1583         estimate D2E/DX2                !
 ! R81   R(43,44)                1.4062         estimate D2E/DX2                !
 ! R82   R(43,81)                1.1162         estimate D2E/DX2                !
 ! R83   R(44,45)                1.3611         estimate D2E/DX2                !
 ! R84   R(44,82)                1.0908         estimate D2E/DX2                !
 ! R85   R(45,46)                1.3978         estimate D2E/DX2                !
 ! R86   R(45,83)                1.0947         estimate D2E/DX2                !
 ! R87   R(46,47)                1.3703         estimate D2E/DX2                !
 ! R88   R(47,48)                1.4597         estimate D2E/DX2                !
 ! R89   R(48,84)                1.0029         estimate D2E/DX2                !
 ! R90   R(48,85)                1.0625         estimate D2E/DX2                !
 ! R91   R(48,86)                1.1132         estimate D2E/DX2                !
 ! A1    A(2,1,8)              115.5937         estimate D2E/DX2                !
 ! A2    A(2,1,49)             120.764          estimate D2E/DX2                !
 ! A3    A(8,1,49)             123.6315         estimate D2E/DX2                !
 ! A4    A(1,2,3)              124.1558         estimate D2E/DX2                !
 ! A5    A(1,2,50)             115.1579         estimate D2E/DX2                !
 ! A6    A(3,2,50)             120.4561         estimate D2E/DX2                !
 ! A7    A(2,3,4)              125.7675         estimate D2E/DX2                !
 ! A8    A(2,3,6)              118.1845         estimate D2E/DX2                !
 ! A9    A(4,3,6)              116.0471         estimate D2E/DX2                !
 ! A10   A(3,4,5)              118.2273         estimate D2E/DX2                !
 ! A11   A(4,5,51)             115.6219         estimate D2E/DX2                !
 ! A12   A(4,5,52)             109.0268         estimate D2E/DX2                !
 ! A13   A(4,5,53)             108.107          estimate D2E/DX2                !
 ! A14   A(51,5,52)            107.0113         estimate D2E/DX2                !
 ! A15   A(51,5,53)            111.7817         estimate D2E/DX2                !
 ! A16   A(52,5,53)            104.7083         estimate D2E/DX2                !
 ! A17   A(3,6,7)              117.4918         estimate D2E/DX2                !
 ! A18   A(3,6,9)              120.4347         estimate D2E/DX2                !
 ! A19   A(7,6,9)              121.7911         estimate D2E/DX2                !
 ! A20   A(6,7,8)              125.1624         estimate D2E/DX2                !
 ! A21   A(6,7,54)             118.6281         estimate D2E/DX2                !
 ! A22   A(8,7,54)             116.1269         estimate D2E/DX2                !
 ! A23   A(1,8,7)              119.2257         estimate D2E/DX2                !
 ! A24   A(1,8,55)             117.0633         estimate D2E/DX2                !
 ! A25   A(7,8,55)             123.707          estimate D2E/DX2                !
 ! A26   A(6,9,10)             115.2054         estimate D2E/DX2                !
 ! A27   A(6,9,14)             123.4147         estimate D2E/DX2                !
 ! A28   A(10,9,14)            121.2934         estimate D2E/DX2                !
 ! A29   A(9,10,11)            120.1899         estimate D2E/DX2                !
 ! A30   A(9,10,56)            122.5741         estimate D2E/DX2                !
 ! A31   A(11,10,56)           116.6383         estimate D2E/DX2                !
 ! A32   A(10,11,12)           119.9925         estimate D2E/DX2                !
 ! A33   A(10,11,57)           119.6354         estimate D2E/DX2                !
 ! A34   A(12,11,57)           119.9715         estimate D2E/DX2                !
 ! A35   A(11,12,13)           119.9054         estimate D2E/DX2                !
 ! A36   A(11,12,17)           119.5608         estimate D2E/DX2                !
 ! A37   A(13,12,17)           120.336          estimate D2E/DX2                !
 ! A38   A(12,13,14)           120.5296         estimate D2E/DX2                !
 ! A39   A(12,13,58)           119.5005         estimate D2E/DX2                !
 ! A40   A(14,13,58)           119.9397         estimate D2E/DX2                !
 ! A41   A(9,14,13)            117.9347         estimate D2E/DX2                !
 ! A42   A(9,14,15)            116.5158         estimate D2E/DX2                !
 ! A43   A(13,14,15)           125.5442         estimate D2E/DX2                !
 ! A44   A(14,15,16)           115.0669         estimate D2E/DX2                !
 ! A45   A(15,16,59)           104.857          estimate D2E/DX2                !
 ! A46   A(15,16,60)           110.5492         estimate D2E/DX2                !
 ! A47   A(15,16,61)           116.1182         estimate D2E/DX2                !
 ! A48   A(59,16,60)           104.6988         estimate D2E/DX2                !
 ! A49   A(59,16,61)           112.7818         estimate D2E/DX2                !
 ! A50   A(60,16,61)           107.2849         estimate D2E/DX2                !
 ! A51   A(12,17,18)           117.8603         estimate D2E/DX2                !
 ! A52   A(12,17,24)           125.5599         estimate D2E/DX2                !
 ! A53   A(18,17,24)           116.376          estimate D2E/DX2                !
 ! A54   A(17,18,19)           120.0914         estimate D2E/DX2                !
 ! A55   A(17,18,62)           118.0886         estimate D2E/DX2                !
 ! A56   A(19,18,62)           121.31           estimate D2E/DX2                !
 ! A57   A(18,19,20)           125.3137         estimate D2E/DX2                !
 ! A58   A(18,19,22)           120.4477         estimate D2E/DX2                !
 ! A59   A(20,19,22)           113.6181         estimate D2E/DX2                !
 ! A60   A(19,20,21)           113.2872         estimate D2E/DX2                !
 ! A61   A(20,21,63)           106.1417         estimate D2E/DX2                !
 ! A62   A(20,21,64)           115.6017         estimate D2E/DX2                !
 ! A63   A(20,21,65)           106.5066         estimate D2E/DX2                !
 ! A64   A(63,21,64)           111.4718         estimate D2E/DX2                !
 ! A65   A(63,21,65)           102.6527         estimate D2E/DX2                !
 ! A66   A(64,21,65)           113.411          estimate D2E/DX2                !
 ! A67   A(19,22,23)           118.7173         estimate D2E/DX2                !
 ! A68   A(19,22,25)           123.7949         estimate D2E/DX2                !
 ! A69   A(23,22,25)           117.1628         estimate D2E/DX2                !
 ! A70   A(22,23,24)           120.7031         estimate D2E/DX2                !
 ! A71   A(22,23,66)           118.9579         estimate D2E/DX2                !
 ! A72   A(24,23,66)           120.1794         estimate D2E/DX2                !
 ! A73   A(17,24,23)           123.3249         estimate D2E/DX2                !
 ! A74   A(17,24,67)           118.844          estimate D2E/DX2                !
 ! A75   A(23,24,67)           117.8305         estimate D2E/DX2                !
 ! A76   A(22,25,26)           116.7933         estimate D2E/DX2                !
 ! A77   A(22,25,30)           126.8569         estimate D2E/DX2                !
 ! A78   A(26,25,30)           116.3329         estimate D2E/DX2                !
 ! A79   A(25,26,27)           124.1556         estimate D2E/DX2                !
 ! A80   A(25,26,68)           117.172          estimate D2E/DX2                !
 ! A81   A(27,26,68)           118.3485         estimate D2E/DX2                !
 ! A82   A(26,27,28)           115.3386         estimate D2E/DX2                !
 ! A83   A(26,27,69)           120.7955         estimate D2E/DX2                !
 ! A84   A(28,27,69)           123.7765         estimate D2E/DX2                !
 ! A85   A(27,28,29)           121.9151         estimate D2E/DX2                !
 ! A86   A(27,28,33)           116.3049         estimate D2E/DX2                !
 ! A87   A(29,28,33)           121.624          estimate D2E/DX2                !
 ! A88   A(28,29,30)           120.1221         estimate D2E/DX2                !
 ! A89   A(28,29,70)           121.4747         estimate D2E/DX2                !
 ! A90   A(30,29,70)           117.8733         estimate D2E/DX2                !
 ! A91   A(25,30,29)           121.8932         estimate D2E/DX2                !
 ! A92   A(25,30,31)           114.5132         estimate D2E/DX2                !
 ! A93   A(29,30,31)           123.5746         estimate D2E/DX2                !
 ! A94   A(30,31,32)           117.6051         estimate D2E/DX2                !
 ! A95   A(31,32,71)           108.9207         estimate D2E/DX2                !
 ! A96   A(31,32,72)           114.0032         estimate D2E/DX2                !
 ! A97   A(31,32,73)           112.1013         estimate D2E/DX2                !
 ! A98   A(71,32,72)           104.6352         estimate D2E/DX2                !
 ! A99   A(71,32,73)           106.4735         estimate D2E/DX2                !
 ! A100  A(72,32,73)           110.1563         estimate D2E/DX2                !
 ! A101  A(28,33,34)           122.8283         estimate D2E/DX2                !
 ! A102  A(28,33,40)           117.1075         estimate D2E/DX2                !
 ! A103  A(34,33,40)           120.0359         estimate D2E/DX2                !
 ! A104  A(33,34,35)           122.8933         estimate D2E/DX2                !
 ! A105  A(33,34,74)           117.7061         estimate D2E/DX2                !
 ! A106  A(35,34,74)           118.7062         estimate D2E/DX2                !
 ! A107  A(34,35,36)           123.9507         estimate D2E/DX2                !
 ! A108  A(34,35,38)           115.6155         estimate D2E/DX2                !
 ! A109  A(36,35,38)           120.2996         estimate D2E/DX2                !
 ! A110  A(35,36,37)           118.485          estimate D2E/DX2                !
 ! A111  A(36,37,75)           112.2889         estimate D2E/DX2                !
 ! A112  A(36,37,76)           109.9926         estimate D2E/DX2                !
 ! A113  A(36,37,77)           113.5356         estimate D2E/DX2                !
 ! A114  A(75,37,76)           105.3868         estimate D2E/DX2                !
 ! A115  A(75,37,77)           105.2891         estimate D2E/DX2                !
 ! A116  A(76,37,77)           109.9549         estimate D2E/DX2                !
 ! A117  A(35,38,39)           120.3887         estimate D2E/DX2                !
 ! A118  A(35,38,41)           118.2148         estimate D2E/DX2                !
 ! A119  A(39,38,41)           121.1888         estimate D2E/DX2                !
 ! A120  A(38,39,40)           120.0049         estimate D2E/DX2                !
 ! A121  A(38,39,78)           118.2657         estimate D2E/DX2                !
 ! A122  A(40,39,78)           121.3915         estimate D2E/DX2                !
 ! A123  A(33,40,39)           120.8048         estimate D2E/DX2                !
 ! A124  A(33,40,79)           125.1518         estimate D2E/DX2                !
 ! A125  A(39,40,79)           113.9742         estimate D2E/DX2                !
 ! A126  A(38,41,42)           123.0782         estimate D2E/DX2                !
 ! A127  A(38,41,46)           117.7778         estimate D2E/DX2                !
 ! A128  A(42,41,46)           119.139          estimate D2E/DX2                !
 ! A129  A(41,42,43)           122.1811         estimate D2E/DX2                !
 ! A130  A(41,42,80)           117.5163         estimate D2E/DX2                !
 ! A131  A(43,42,80)           119.7438         estimate D2E/DX2                !
 ! A132  A(42,43,44)           120.4788         estimate D2E/DX2                !
 ! A133  A(42,43,81)           116.2223         estimate D2E/DX2                !
 ! A134  A(44,43,81)           122.6619         estimate D2E/DX2                !
 ! A135  A(43,44,45)           116.5113         estimate D2E/DX2                !
 ! A136  A(43,44,82)           120.1413         estimate D2E/DX2                !
 ! A137  A(45,44,82)           123.3404         estimate D2E/DX2                !
 ! A138  A(44,45,46)           126.7734         estimate D2E/DX2                !
 ! A139  A(44,45,83)           112.2666         estimate D2E/DX2                !
 ! A140  A(46,45,83)           120.9308         estimate D2E/DX2                !
 ! A141  A(41,46,45)           114.6938         estimate D2E/DX2                !
 ! A142  A(41,46,47)           117.1343         estimate D2E/DX2                !
 ! A143  A(45,46,47)           128.1715         estimate D2E/DX2                !
 ! A144  A(46,47,48)           113.6993         estimate D2E/DX2                !
 ! A145  A(47,48,84)           111.6496         estimate D2E/DX2                !
 ! A146  A(47,48,85)           110.8081         estimate D2E/DX2                !
 ! A147  A(47,48,86)           104.609          estimate D2E/DX2                !
 ! A148  A(84,48,85)           112.6981         estimate D2E/DX2                !
 ! A149  A(84,48,86)           108.7558         estimate D2E/DX2                !
 ! A150  A(85,48,86)           107.9089         estimate D2E/DX2                !
 ! D1    D(8,1,2,3)              1.5567         estimate D2E/DX2                !
 ! D2    D(8,1,2,50)           176.0481         estimate D2E/DX2                !
 ! D3    D(49,1,2,3)          -179.5993         estimate D2E/DX2                !
 ! D4    D(49,1,2,50)           -5.1079         estimate D2E/DX2                !
 ! D5    D(2,1,8,7)              1.7251         estimate D2E/DX2                !
 ! D6    D(2,1,8,55)          -178.9771         estimate D2E/DX2                !
 ! D7    D(49,1,8,7)          -177.0818         estimate D2E/DX2                !
 ! D8    D(49,1,8,55)            2.2159         estimate D2E/DX2                !
 ! D9    D(1,2,3,4)            178.6037         estimate D2E/DX2                !
 ! D10   D(1,2,3,6)             -1.7601         estimate D2E/DX2                !
 ! D11   D(50,2,3,4)             4.3888         estimate D2E/DX2                !
 ! D12   D(50,2,3,6)          -175.975          estimate D2E/DX2                !
 ! D13   D(2,3,4,5)             13.1795         estimate D2E/DX2                !
 ! D14   D(6,3,4,5)           -166.4636         estimate D2E/DX2                !
 ! D15   D(2,3,6,7)             -1.1737         estimate D2E/DX2                !
 ! D16   D(2,3,6,9)           -175.1784         estimate D2E/DX2                !
 ! D17   D(4,3,6,7)            178.4977         estimate D2E/DX2                !
 ! D18   D(4,3,6,9)              4.493          estimate D2E/DX2                !
 ! D19   D(3,4,5,51)            49.422          estimate D2E/DX2                !
 ! D20   D(3,4,5,52)           -71.1489         estimate D2E/DX2                !
 ! D21   D(3,4,5,53)           175.5648         estimate D2E/DX2                !
 ! D22   D(3,6,7,8)              4.7138         estimate D2E/DX2                !
 ! D23   D(3,6,7,54)          -178.7268         estimate D2E/DX2                !
 ! D24   D(9,6,7,8)            178.6319         estimate D2E/DX2                !
 ! D25   D(9,6,7,54)            -4.8087         estimate D2E/DX2                !
 ! D26   D(3,6,9,10)           -73.6534         estimate D2E/DX2                !
 ! D27   D(3,6,9,14)           109.6968         estimate D2E/DX2                !
 ! D28   D(7,6,9,10)           112.6046         estimate D2E/DX2                !
 ! D29   D(7,6,9,14)           -64.0452         estimate D2E/DX2                !
 ! D30   D(6,7,8,1)             -4.9637         estimate D2E/DX2                !
 ! D31   D(6,7,8,55)           175.7881         estimate D2E/DX2                !
 ! D32   D(54,7,8,1)           178.3999         estimate D2E/DX2                !
 ! D33   D(54,7,8,55)           -0.8484         estimate D2E/DX2                !
 ! D34   D(6,9,10,11)         -172.264          estimate D2E/DX2                !
 ! D35   D(6,9,10,56)           -1.4289         estimate D2E/DX2                !
 ! D36   D(14,9,10,11)           4.4636         estimate D2E/DX2                !
 ! D37   D(14,9,10,56)         175.2986         estimate D2E/DX2                !
 ! D38   D(6,9,14,13)          174.74           estimate D2E/DX2                !
 ! D39   D(6,9,14,15)           -4.4705         estimate D2E/DX2                !
 ! D40   D(10,9,14,13)          -1.7124         estimate D2E/DX2                !
 ! D41   D(10,9,14,15)         179.0771         estimate D2E/DX2                !
 ! D42   D(9,10,11,12)          -4.3773         estimate D2E/DX2                !
 ! D43   D(9,10,11,57)        -177.1109         estimate D2E/DX2                !
 ! D44   D(56,10,11,12)       -175.7411         estimate D2E/DX2                !
 ! D45   D(56,10,11,57)         11.5254         estimate D2E/DX2                !
 ! D46   D(10,11,12,13)          1.6568         estimate D2E/DX2                !
 ! D47   D(10,11,12,17)       -173.2521         estimate D2E/DX2                !
 ! D48   D(57,11,12,13)        174.3658         estimate D2E/DX2                !
 ! D49   D(57,11,12,17)         -0.5431         estimate D2E/DX2                !
 ! D50   D(11,12,13,14)          1.068          estimate D2E/DX2                !
 ! D51   D(11,12,13,58)       -176.9321         estimate D2E/DX2                !
 ! D52   D(17,12,13,14)        175.937          estimate D2E/DX2                !
 ! D53   D(17,12,13,58)         -2.0631         estimate D2E/DX2                !
 ! D54   D(11,12,17,18)        -61.0636         estimate D2E/DX2                !
 ! D55   D(11,12,17,24)        124.3305         estimate D2E/DX2                !
 ! D56   D(13,12,17,18)        124.0498         estimate D2E/DX2                !
 ! D57   D(13,12,17,24)        -50.5561         estimate D2E/DX2                !
 ! D58   D(12,13,14,9)          -1.0199         estimate D2E/DX2                !
 ! D59   D(12,13,14,15)        178.1119         estimate D2E/DX2                !
 ! D60   D(58,13,14,9)         176.9714         estimate D2E/DX2                !
 ! D61   D(58,13,14,15)         -3.8968         estimate D2E/DX2                !
 ! D62   D(9,14,15,16)        -166.0859         estimate D2E/DX2                !
 ! D63   D(13,14,15,16)         14.7713         estimate D2E/DX2                !
 ! D64   D(14,15,16,59)        177.5676         estimate D2E/DX2                !
 ! D65   D(14,15,16,60)        -70.1115         estimate D2E/DX2                !
 ! D66   D(14,15,16,61)         52.3813         estimate D2E/DX2                !
 ! D67   D(12,17,18,19)       -172.6907         estimate D2E/DX2                !
 ! D68   D(12,17,18,62)         -0.7743         estimate D2E/DX2                !
 ! D69   D(24,17,18,19)          2.4125         estimate D2E/DX2                !
 ! D70   D(24,17,18,62)        174.3289         estimate D2E/DX2                !
 ! D71   D(12,17,24,23)        174.4681         estimate D2E/DX2                !
 ! D72   D(12,17,24,67)         -5.245          estimate D2E/DX2                !
 ! D73   D(18,17,24,23)         -0.2091         estimate D2E/DX2                !
 ! D74   D(18,17,24,67)       -179.9222         estimate D2E/DX2                !
 ! D75   D(17,18,19,20)       -176.2664         estimate D2E/DX2                !
 ! D76   D(17,18,19,22)         -5.8897         estimate D2E/DX2                !
 ! D77   D(62,18,19,20)         12.0825         estimate D2E/DX2                !
 ! D78   D(62,18,19,22)       -177.5408         estimate D2E/DX2                !
 ! D79   D(18,19,20,21)        -17.6878         estimate D2E/DX2                !
 ! D80   D(22,19,20,21)        171.3619         estimate D2E/DX2                !
 ! D81   D(18,19,22,23)          7.0646         estimate D2E/DX2                !
 ! D82   D(18,19,22,25)       -179.6774         estimate D2E/DX2                !
 ! D83   D(20,19,22,23)        178.5025         estimate D2E/DX2                !
 ! D84   D(20,19,22,25)         -8.2395         estimate D2E/DX2                !
 ! D85   D(19,20,21,63)       -176.8448         estimate D2E/DX2                !
 ! D86   D(19,20,21,64)        -52.7038         estimate D2E/DX2                !
 ! D87   D(19,20,21,65)         74.2744         estimate D2E/DX2                !
 ! D88   D(19,22,23,24)         -4.8521         estimate D2E/DX2                !
 ! D89   D(19,22,23,66)        179.7313         estimate D2E/DX2                !
 ! D90   D(25,22,23,24)       -178.5566         estimate D2E/DX2                !
 ! D91   D(25,22,23,66)          6.0268         estimate D2E/DX2                !
 ! D92   D(19,22,25,26)         75.3097         estimate D2E/DX2                !
 ! D93   D(19,22,25,30)       -106.2505         estimate D2E/DX2                !
 ! D94   D(23,22,25,26)       -111.3355         estimate D2E/DX2                !
 ! D95   D(23,22,25,30)         67.1042         estimate D2E/DX2                !
 ! D96   D(22,23,24,17)          1.5009         estimate D2E/DX2                !
 ! D97   D(22,23,24,67)       -178.7833         estimate D2E/DX2                !
 ! D98   D(66,23,24,17)        176.8615         estimate D2E/DX2                !
 ! D99   D(66,23,24,67)         -3.4227         estimate D2E/DX2                !
 ! D100  D(22,25,26,27)       -177.2994         estimate D2E/DX2                !
 ! D101  D(22,25,26,68)         -3.9585         estimate D2E/DX2                !
 ! D102  D(30,25,26,27)          4.0935         estimate D2E/DX2                !
 ! D103  D(30,25,26,68)        177.4344         estimate D2E/DX2                !
 ! D104  D(22,25,30,29)        177.8501         estimate D2E/DX2                !
 ! D105  D(22,25,30,31)         -0.6172         estimate D2E/DX2                !
 ! D106  D(26,25,30,29)         -3.7039         estimate D2E/DX2                !
 ! D107  D(26,25,30,31)        177.8288         estimate D2E/DX2                !
 ! D108  D(25,26,27,28)         -4.1588         estimate D2E/DX2                !
 ! D109  D(25,26,27,69)        179.153          estimate D2E/DX2                !
 ! D110  D(68,26,27,28)       -177.427          estimate D2E/DX2                !
 ! D111  D(68,26,27,69)          5.8848         estimate D2E/DX2                !
 ! D112  D(26,27,28,29)          4.1282         estimate D2E/DX2                !
 ! D113  D(26,27,28,33)        179.6555         estimate D2E/DX2                !
 ! D114  D(69,27,28,29)       -179.2945         estimate D2E/DX2                !
 ! D115  D(69,27,28,33)         -3.7672         estimate D2E/DX2                !
 ! D116  D(27,28,29,30)         -4.0375         estimate D2E/DX2                !
 ! D117  D(27,28,29,70)       -175.5093         estimate D2E/DX2                !
 ! D118  D(33,28,29,30)       -179.3283         estimate D2E/DX2                !
 ! D119  D(33,28,29,70)          9.1999         estimate D2E/DX2                !
 ! D120  D(27,28,33,34)        -59.2467         estimate D2E/DX2                !
 ! D121  D(27,28,33,40)        122.6932         estimate D2E/DX2                !
 ! D122  D(29,28,33,34)        116.2947         estimate D2E/DX2                !
 ! D123  D(29,28,33,40)        -61.7653         estimate D2E/DX2                !
 ! D124  D(28,29,30,25)          3.9141         estimate D2E/DX2                !
 ! D125  D(28,29,30,31)       -177.7597         estimate D2E/DX2                !
 ! D126  D(70,29,30,25)        175.6882         estimate D2E/DX2                !
 ! D127  D(70,29,30,31)         -5.9856         estimate D2E/DX2                !
 ! D128  D(25,30,31,32)        157.9613         estimate D2E/DX2                !
 ! D129  D(29,30,31,32)        -20.4767         estimate D2E/DX2                !
 ! D130  D(30,31,32,71)        -47.5366         estimate D2E/DX2                !
 ! D131  D(30,31,32,72)         68.8879         estimate D2E/DX2                !
 ! D132  D(30,31,32,73)       -165.1008         estimate D2E/DX2                !
 ! D133  D(28,33,34,35)       -176.0876         estimate D2E/DX2                !
 ! D134  D(28,33,34,74)         -5.7723         estimate D2E/DX2                !
 ! D135  D(40,33,34,35)          1.9176         estimate D2E/DX2                !
 ! D136  D(40,33,34,74)        172.2329         estimate D2E/DX2                !
 ! D137  D(28,33,40,39)        175.7171         estimate D2E/DX2                !
 ! D138  D(28,33,40,79)         -1.0698         estimate D2E/DX2                !
 ! D139  D(34,33,40,39)         -2.3999         estimate D2E/DX2                !
 ! D140  D(34,33,40,79)       -179.1868         estimate D2E/DX2                !
 ! D141  D(33,34,35,36)       -178.9398         estimate D2E/DX2                !
 ! D142  D(33,34,35,38)         -3.1533         estimate D2E/DX2                !
 ! D143  D(74,34,35,36)         10.8368         estimate D2E/DX2                !
 ! D144  D(74,34,35,38)       -173.3766         estimate D2E/DX2                !
 ! D145  D(34,35,36,37)         20.6844         estimate D2E/DX2                !
 ! D146  D(38,35,36,37)       -154.9147         estimate D2E/DX2                !
 ! D147  D(34,35,38,39)          4.9878         estimate D2E/DX2                !
 ! D148  D(34,35,38,41)        179.814          estimate D2E/DX2                !
 ! D149  D(36,35,38,39)       -179.06           estimate D2E/DX2                !
 ! D150  D(36,35,38,41)         -4.2339         estimate D2E/DX2                !
 ! D151  D(35,36,37,75)         50.7755         estimate D2E/DX2                !
 ! D152  D(35,36,37,76)        167.7942         estimate D2E/DX2                !
 ! D153  D(35,36,37,77)        -68.524          estimate D2E/DX2                !
 ! D154  D(35,38,39,40)         -5.7047         estimate D2E/DX2                !
 ! D155  D(35,38,39,78)       -179.1238         estimate D2E/DX2                !
 ! D156  D(41,38,39,40)        179.6252         estimate D2E/DX2                !
 ! D157  D(41,38,39,78)          6.206          estimate D2E/DX2                !
 ! D158  D(35,38,41,42)        -80.8175         estimate D2E/DX2                !
 ! D159  D(35,38,41,46)        100.0045         estimate D2E/DX2                !
 ! D160  D(39,38,41,42)         93.9653         estimate D2E/DX2                !
 ! D161  D(39,38,41,46)        -85.2127         estimate D2E/DX2                !
 ! D162  D(38,39,40,33)          4.329          estimate D2E/DX2                !
 ! D163  D(38,39,40,79)       -178.5459         estimate D2E/DX2                !
 ! D164  D(78,39,40,33)        177.538          estimate D2E/DX2                !
 ! D165  D(78,39,40,79)         -5.3369         estimate D2E/DX2                !
 ! D166  D(38,41,42,43)        177.2036         estimate D2E/DX2                !
 ! D167  D(38,41,42,80)          5.8053         estimate D2E/DX2                !
 ! D168  D(46,41,42,43)         -3.6291         estimate D2E/DX2                !
 ! D169  D(46,41,42,80)       -175.0274         estimate D2E/DX2                !
 ! D170  D(38,41,46,45)        178.777          estimate D2E/DX2                !
 ! D171  D(38,41,46,47)         -1.4457         estimate D2E/DX2                !
 ! D172  D(42,41,46,45)         -0.4345         estimate D2E/DX2                !
 ! D173  D(42,41,46,47)        179.3429         estimate D2E/DX2                !
 ! D174  D(41,42,43,44)          5.6172         estimate D2E/DX2                !
 ! D175  D(41,42,43,81)        176.7086         estimate D2E/DX2                !
 ! D176  D(80,42,43,44)        176.8296         estimate D2E/DX2                !
 ! D177  D(80,42,43,81)        -12.079          estimate D2E/DX2                !
 ! D178  D(42,43,44,45)         -3.2187         estimate D2E/DX2                !
 ! D179  D(42,43,44,82)        175.8542         estimate D2E/DX2                !
 ! D180  D(81,43,44,45)       -173.7205         estimate D2E/DX2                !
 ! D181  D(81,43,44,82)          5.3524         estimate D2E/DX2                !
 ! D182  D(43,44,45,46)         -1.0357         estimate D2E/DX2                !
 ! D183  D(43,44,45,83)       -179.0684         estimate D2E/DX2                !
 ! D184  D(82,44,45,46)        179.924          estimate D2E/DX2                !
 ! D185  D(82,44,45,83)          1.8913         estimate D2E/DX2                !
 ! D186  D(44,45,46,41)          2.823          estimate D2E/DX2                !
 ! D187  D(44,45,46,47)       -176.9249         estimate D2E/DX2                !
 ! D188  D(83,45,46,41)       -179.2995         estimate D2E/DX2                !
 ! D189  D(83,45,46,47)          0.9526         estimate D2E/DX2                !
 ! D190  D(41,46,47,48)       -173.4028         estimate D2E/DX2                !
 ! D191  D(45,46,47,48)          6.3399         estimate D2E/DX2                !
 ! D192  D(46,47,48,84)         59.5826         estimate D2E/DX2                !
 ! D193  D(46,47,48,85)        -66.9282         estimate D2E/DX2                !
 ! D194  D(46,47,48,86)        177.0314         estimate D2E/DX2                !
 --------------------------------------------------------------------------------
 Trust Radius=3.00D-01 FncErr=1.00D-07 GrdErr=1.00D-06 EigMax=2.50D+02 EigMin=1.00D-04
 Number of steps in this run=    445 maximum allowed number of steps=    516.
 GradGradGradGradGradGradGradGradGradGradGradGradGradGradGradGradGradGrad

 Leave Link  103 at Sat Jul 25 14:02:09 2020, MaxMem=  4026531840 cpu:               0.1 elap:               0.0
 (Enter /opt/ohpc/pub/libs/gaussian/g16-A.03/sandybridge/g16/l202.exe)
 Stoichiometry    C42H38O6
 Framework group  C1[X(C42H38O6)]
 Deg. of freedom   252
 Full point group                 C1      NOp   1
 Largest Abelian subgroup         C1      NOp   1
 Largest concise Abelian subgroup C1      NOp   1
                         Standard orientation:                         
 ---------------------------------------------------------------------
 Center     Atomic      Atomic             Coordinates (Angstroms)
 Number     Number       Type             X           Y           Z
 ---------------------------------------------------------------------
      1          6           0      -12.184085   -0.385098    0.518715
      2          6           0      -11.462393   -1.101998   -0.528405
      3          6           0      -10.153259   -1.103930   -0.654267
      4          8           0       -9.430068   -1.796041   -1.621020
      5          6           0      -10.124036   -2.329587   -2.708797
      6          6           0       -9.371109   -0.313441    0.285001
      7          6           0      -10.058859    0.409192    1.235094
      8          6           0      -11.373101    0.373666    1.419354
      9          6           0       -7.860327   -0.190420    0.120344
     10          6           0       -7.117687   -1.349413    0.468896
     11          6           0       -5.738980   -1.303155    0.512624
     12          6           0       -5.045345   -0.104744    0.113166
     13          6           0       -5.768436    1.015758   -0.283257
     14          6           0       -7.218271    0.997068   -0.276472
     15          8           0       -8.034787    2.055599   -0.611759
     16          6           0       -7.399401    3.104150   -1.283451
     17          6           0       -3.589051   -0.112607    0.021120
     18          6           0       -2.831447   -0.394941    1.233805
     19          6           0       -1.453760   -0.266271    1.236880
     20          8           0       -0.607511   -0.581277    2.321254
     21          6           0       -1.313085   -0.676338    3.594966
     22          6           0       -0.763789    0.015190    0.049196
     23          6           0       -1.488895    0.305472   -1.083864
     24          6           0       -2.864548    0.222773   -1.079347
     25          6           0        0.740592    0.164567   -0.035704
     26          6           0        1.523284   -1.055632    0.022591
     27          6           0        2.897323   -1.092343    0.012541
     28          6           0        3.537745    0.164428   -0.153371
     29          6           0        2.843744    1.313396   -0.208615
     30          6           0        1.418891    1.290111   -0.186465
     31          8           0        0.627548    2.433466   -0.285447
     32          6           0        1.248751    3.717944    0.037925
     33          6           0        5.073928    0.150148   -0.159648
     34          6           0        5.802534   -0.304824    0.873929
     35          6           0        7.259098   -0.242949    0.904075
     36          8           0        8.024101   -0.718843    1.936597
     37          6           0        7.468989   -1.658318    2.792825
     38          6           0        7.881496    0.274601   -0.277586
     39          6           0        7.108013    0.775560   -1.317630
     40          6           0        5.699828    0.667060   -1.266880
     41          6           0        9.351590    0.366361   -0.307354
     42          6           0       10.048948    1.391640    0.276117
     43          6           0       11.439365    1.430456    0.286085
     44          6           0       12.184917    0.464506   -0.412937
     45          6           0       11.476733   -0.523547   -1.025165
     46          6           0       10.088753   -0.688283   -1.014093
     47          8           0        9.351658   -1.700732   -1.570231
     48          6           0       10.162336   -2.783167   -2.119747
     49          1           0      -13.273394   -0.427035    0.575090
     50          1           0      -12.102820   -1.754575   -1.192944
     51          1           0      -10.784802   -1.662401   -3.203658
     52          1           0      -10.749248   -3.216197   -2.352847
     53          1           0       -9.422051   -2.746806   -3.371557
     54          1           0       -9.462641    1.056699    1.971460
     55          1           0      -11.881490    0.900041    2.213992
     56          1           0       -7.606477   -2.289855    0.864649
     57          1           0       -5.159023   -2.237118    0.741686
     58          1           0       -5.256790    1.869233   -0.619171
     59          1           0       -8.207799    3.830059   -1.506912
     60          1           0       -6.695152    3.662492   -0.579614
     61          1           0       -6.818436    2.826583   -2.174223
     62          1           0       -3.383532   -0.573577    2.151567
     63          1           0       -0.556891   -0.863080    4.344126
     64          1           0       -1.925525    0.176232    3.854657
     65          1           0       -1.895541   -1.667330    3.572581
     66          1           0       -0.929912    0.540363   -2.054316
     67          1           0       -3.434906    0.461946   -2.086248
     68          1           0        0.947650   -2.045625    0.200198
     69          1           0        3.400409   -1.987205    0.068986
     70          1           0        3.345058    2.285744   -0.412260
     71          1           0        1.834454    3.613862    1.055971
     72          1           0        2.006228    4.041761   -0.685614
     73          1           0        0.519433    4.494859    0.183705
     74          1           0        5.258474   -0.593320    1.805639
     75          1           0        7.005365   -2.528307    2.233933
     76          1           0        8.191550   -2.066751    3.374485
     77          1           0        6.655778   -1.252360    3.428508
     78          1           0        7.631289    1.157797   -2.231521
     79          1           0        5.210827    1.054984   -2.112583
     80          1           0        9.448129    2.160116    0.900672
     81          1           0       11.904155    2.339003    0.738166
     82          1           0       13.272297    0.538714   -0.457633
     83          1           0       12.124907   -1.244569   -1.533491
     84          1           0       10.740080   -3.205964   -1.417449
     85          1           0       10.718233   -2.448679   -2.961139
     86          1           0        9.422641   -3.535349   -2.475209
 ---------------------------------------------------------------------
 Rotational constants (GHZ):           0.2254809           0.0140592           0.0139933
 Leave Link  202 at Sat Jul 25 14:02:10 2020, MaxMem=  4026531840 cpu:               0.1 elap:               0.0
 (Enter /opt/ohpc/pub/libs/gaussian/g16-A.03/sandybridge/g16/l301.exe)
 Standard basis: CC-pVDZ (5D, 7F)
 Ernie: Thresh=  0.10000D-02 Tol=  0.10000D-05 Strict=F.
 Ernie:  96 primitive shells out of 1246 were deleted.
 There are   910 symmetry adapted cartesian basis functions of A   symmetry.
 There are   862 symmetry adapted basis functions of A   symmetry.
   862 basis functions,  1850 primitive gaussians,   910 cartesian basis functions
   169 alpha electrons      169 beta electrons
       nuclear repulsion energy      5172.1820614801 Hartrees.
 IExCor=32609 DFT=T Ex+Corr=LC-wPBE ExCW=0 ScaHFX=  1.000000
 ScaDFX=  1.000000  0.000000  1.000000  1.000000 ScalE2=  1.000000  1.000000
 IRadAn=      5 IRanWt=     -1 IRanGd=            0 ICorTp=0 IEmpDi=  4
 HFx  wShort=  0.000000 wLong=  0.141700 cFull=  0.000000 cShort=  0.000000 cLong=  1.000000
 DFx  wShort=  0.000000 wLong=  0.141700 cFull=  0.000000 cShort=  0.000000 cLong=  1.000000
 NAtoms=   86 NActive=   86 NUniq=   86 SFac= 1.00D+00 NAtFMM=   60 NAOKFM=T Big=T
 Integral buffers will be    131072 words long.
 Raffenetti 2 integral format.
 Two-electron integral symmetry is turned on.
 Leave Link  301 at Sat Jul 25 14:02:10 2020, MaxMem=  4026531840 cpu:               0.4 elap:               0.1
 (Enter /opt/ohpc/pub/libs/gaussian/g16-A.03/sandybridge/g16/l302.exe)
 NPDir=0 NMtPBC=     1 NCelOv=     1 NCel=       1 NClECP=     1 NCelD=      1
         NCelK=      1 NCelE2=     1 NClLst=     1 CellRange=     0.0.
 One-electron integrals computed using PRISM.
 One-electron integral symmetry used in STVInt
 NBasis=   862 RedAO= T EigKep=  2.68D-04  NBF=   862
 NBsUse=   862 1.00D-06 EigRej= -1.00D+00 NBFU=   862
 Precomputing XC quadrature grid using
 IXCGrd= 4 IRadAn=           5 IRanWt=          -1 IRanGd=           0 AccXCQ= 0.00D+00.
 Generated NRdTot=       0 NPtTot=           0 NUsed=           0 NTot=          32
 NSgBfM=   754   741   745   750   754 MxSgAt=    86 MxSgA2=    86.
 Leave Link  302 at Sat Jul 25 14:02:12 2020, MaxMem=  4026531840 cpu:              22.9 elap:               2.9
 (Enter /opt/ohpc/pub/libs/gaussian/g16-A.03/sandybridge/g16/l303.exe)
 DipDrv:  MaxL=1.
 Leave Link  303 at Sat Jul 25 14:02:13 2020, MaxMem=  4026531840 cpu:               1.4 elap:               0.2
 (Enter /opt/ohpc/pub/libs/gaussian/g16-A.03/sandybridge/g16/l401.exe)
 ExpMin= 1.22D-01 ExpMax= 1.17D+04 ExpMxC= 4.01D+02 IAcc=3 IRadAn=         5 AccDes= 0.00D+00
 Harris functional with IExCor=32609 and IRadAn=       5 diagonalized for initial guess.
 HarFok:  IExCor=32609 AccDes= 0.00D+00 IRadAn=         5 IDoV= 1 UseB2=F ITyADJ=14
 ICtDFT=  3500011 ScaDFX=  1.000000  1.000000  1.000000  1.000000
 FoFCou: FMM=F IPFlag=           0 FMFlag=      100000 FMFlg1=        2001
         NFxFlg=           0 DoJE=T BraDBF=F KetDBF=T FulRan=T
         wScrn=  0.000000 ICntrl=       500 IOpCl=  0 I1Cent=   200000004 NGrid=           0
         NMat0=    1 NMatS0=      1 NMatT0=    0 NMatD0=    1 NMtDS0=    0 NMtDT0=    0
 Petite list used in FoFCou.
 Harris En= -2072.97655229631    
 JPrj=0 DoOrth=F DoCkMO=F.
 Initial guess <Sx>= 0.0000 <Sy>= 0.0000 <Sz>= 0.0000 <S**2>=-0.0000 S=-0.0000
 Leave Link  401 at Sat Jul 25 14:02:25 2020, MaxMem=  4026531840 cpu:              94.4 elap:              11.9
 (Enter /opt/ohpc/pub/libs/gaussian/g16-A.03/sandybridge/g16/l502.exe)
 Integral symmetry usage will be decided dynamically.
 UHF open shell SCF:
 Using DIIS extrapolation, IDIIS=  1040.
 NGot=  4026531840 LenX=  4024858798 LenY=  4024029788
 Requested convergence on RMS density matrix=1.00D-08 within 128 cycles.
 Requested convergence on MAX density matrix=1.00D-06.
 Requested convergence on             energy=1.00D-06.
 No special actions if energy rises.
 Fock matrices will be formed incrementally for  20 cycles.
 Integral accuracy reduced to 1.0D-05 until final iterations.

 Cycle   1  Pass 0  IDiag  1:
 FoFJK:  IHMeth= 1 ICntrl=       0 DoSepK=T KAlg= 0 I1Cent=           0 FoldK=F
 IRaf=         1 NMat=       1 IRICut=       1 DoRegI=T DoRafI=F ISym2E= 0 IDoP0=0 IntGTp=1.
 FoFCou: FMM=T IPFlag=           0 FMFlag=      100000 FMFlg1=        2001
         NFxFlg=           0 DoJE=T BraDBF=F KetDBF=F FulRan=T
         wScrn=  0.000000 ICntrl=       500 IOpCl=  0 I1Cent=           0 NGrid=           0
         NMat0=    1 NMatS0=      1 NMatT0=    0 NMatD0=    1 NMtDS0=    0 NMtDT0=    0
 Symmetry not used in FoFCou.
 FMM levels:  10  Number of levels for PrismC:   9
 E= -2071.83097672951    
 DIIS: error= 1.88D-02 at cycle   1 NSaved=   1.
 NSaved= 1 IEnMin= 1 EnMin= -2071.83097672951     IErMin= 1 ErrMin= 1.88D-02
 ErrMax= 1.88D-02  0.00D+00 EMaxC= 1.00D-01 BMatC= 2.59D+00 BMatP= 2.59D+00
 IDIUse=3 WtCom= 8.12D-01 WtEn= 1.88D-01
 Coeff-Com:  0.100D+01
 Coeff-En:   0.100D+01
 Coeff:      0.100D+01
 Gap=     0.277 Goal=   None    Shift=    0.000
 Gap=     0.277 Goal=   None    Shift=    0.000
 GapD=    0.277 DampG=1.000 DampE=0.500 DampFc=0.5000 IDamp=-1.
 Damping current iteration by 5.00D-01
 RMSDP=2.11D-03 MaxDP=9.76D-02              OVMax= 1.66D-01

 Cycle   2  Pass 0  IDiag  1:
 RMSU=  1.04D-03    CP:  9.85D-01
 E= -2072.21329161500     Delta-E=       -0.382314885482 Rises=F Damp=T
 DIIS: error= 3.82D-03 at cycle   2 NSaved=   2.
 NSaved= 2 IEnMin= 2 EnMin= -2072.21329161500     IErMin= 2 ErrMin= 3.82D-03
 ErrMax= 3.82D-03  0.00D+00 EMaxC= 1.00D-01 BMatC= 1.20D-01 BMatP= 2.59D+00
 IDIUse=3 WtCom= 9.62D-01 WtEn= 3.82D-02
 Coeff-Com: -0.205D-01 0.102D+01
 Coeff-En:   0.000D+00 0.100D+01
 Coeff:     -0.197D-01 0.102D+01
 Gap=     0.269 Goal=   None    Shift=    0.000
 Gap=     0.269 Goal=   None    Shift=    0.000
 RMSDP=5.83D-04 MaxDP=3.29D-02 DE=-3.82D-01 OVMax= 1.21D-01

 Cycle   3  Pass 0  IDiag  1:
 RMSU=  5.37D-04    CP:  9.80D-01  1.21D+00
 E= -2072.57463664206     Delta-E=       -0.361345027065 Rises=F Damp=F
 DIIS: error= 3.39D-03 at cycle   3 NSaved=   3.
 NSaved= 3 IEnMin= 3 EnMin= -2072.57463664206     IErMin= 3 ErrMin= 3.39D-03
 ErrMax= 3.39D-03  0.00D+00 EMaxC= 1.00D-01 BMatC= 9.84D-02 BMatP= 1.20D-01
 IDIUse=3 WtCom= 9.66D-01 WtEn= 3.39D-02
 Coeff-Com: -0.398D-01 0.501D+00 0.539D+00
 Coeff-En:   0.000D+00 0.000D+00 0.100D+01
 Coeff:     -0.385D-01 0.484D+00 0.555D+00
 Gap=     0.264 Goal=   None    Shift=    0.000
 Gap=     0.264 Goal=   None    Shift=    0.000
 RMSDP=2.65D-04 MaxDP=2.30D-02 DE=-3.61D-01 OVMax= 4.48D-02

 Cycle   4  Pass 0  IDiag  1:
 RMSU=  1.85D-04    CP:  9.81D-01  1.21D+00  6.50D-01
 E= -2072.59551236186     Delta-E=       -0.020875719797 Rises=F Damp=F
 DIIS: error= 1.52D-03 at cycle   4 NSaved=   4.
 NSaved= 4 IEnMin= 4 EnMin= -2072.59551236186     IErMin= 4 ErrMin= 1.52D-03
 ErrMax= 1.52D-03  0.00D+00 EMaxC= 1.00D-01 BMatC= 1.65D-02 BMatP= 9.84D-02
 IDIUse=3 WtCom= 9.85D-01 WtEn= 1.52D-02
 Coeff-Com: -0.120D-01 0.126D+00 0.311D+00 0.575D+00
 Coeff-En:   0.000D+00 0.000D+00 0.142D+00 0.858D+00
 Coeff:     -0.118D-01 0.124D+00 0.308D+00 0.580D+00
 Gap=     0.258 Goal=   None    Shift=    0.000
 Gap=     0.258 Goal=   None    Shift=    0.000
 RMSDP=9.76D-05 MaxDP=5.55D-03 DE=-2.09D-02 OVMax= 1.35D-02

 Cycle   5  Pass 0  IDiag  1:
 RMSU=  5.22D-05    CP:  9.81D-01  1.22D+00  7.50D-01  6.67D-01
 E= -2072.59941173529     Delta-E=       -0.003899373436 Rises=F Damp=F
 DIIS: error= 3.55D-04 at cycle   5 NSaved=   5.
 NSaved= 5 IEnMin= 5 EnMin= -2072.59941173529     IErMin= 5 ErrMin= 3.55D-04
 ErrMax= 3.55D-04  0.00D+00 EMaxC= 1.00D-01 BMatC= 1.37D-03 BMatP= 1.65D-02
 IDIUse=3 WtCom= 9.96D-01 WtEn= 3.55D-03
 Coeff-Com: -0.173D-02 0.282D-01 0.125D+00 0.315D+00 0.533D+00
 Coeff-En:   0.000D+00 0.000D+00 0.000D+00 0.000D+00 0.100D+01
 Coeff:     -0.173D-02 0.281D-01 0.125D+00 0.314D+00 0.534D+00
 Gap=     0.258 Goal=   None    Shift=    0.000
 Gap=     0.258 Goal=   None    Shift=    0.000
 RMSDP=2.95D-05 MaxDP=2.00D-03 DE=-3.90D-03 OVMax= 3.22D-03

 Cycle   6  Pass 0  IDiag  1:
 RMSU=  2.44D-05    CP:  9.81D-01  1.22D+00  7.50D-01  7.05D-01  7.15D-01
 E= -2072.59970397938     Delta-E=       -0.000292244089 Rises=F Damp=F
 DIIS: error= 1.14D-04 at cycle   6 NSaved=   6.
 NSaved= 6 IEnMin= 6 EnMin= -2072.59970397938     IErMin= 6 ErrMin= 1.14D-04
 ErrMax= 1.14D-04  0.00D+00 EMaxC= 1.00D-01 BMatC= 1.26D-04 BMatP= 1.37D-03
 IDIUse=3 WtCom= 9.99D-01 WtEn= 1.14D-03
 Coeff-Com:  0.150D-02-0.364D-02 0.209D-01 0.786D-01 0.267D+00 0.635D+00
 Coeff-En:   0.000D+00 0.000D+00 0.000D+00 0.000D+00 0.461D-01 0.954D+00
 Coeff:      0.150D-02-0.364D-02 0.208D-01 0.785D-01 0.267D+00 0.636D+00
 Gap=     0.258 Goal=   None    Shift=    0.000
 Gap=     0.258 Goal=   None    Shift=    0.000
 RMSDP=2.06D-05 MaxDP=5.82D-04 DE=-2.92D-04 OVMax= 1.19D-03

 Cycle   7  Pass 0  IDiag  1:
 RMSU=  1.93D-05    CP:  9.81D-01  1.22D+00  7.54D-01  7.17D-01  8.35D-01
                    CP:  1.02D+00
 E= -2072.59973340482     Delta-E=       -0.000029425436 Rises=F Damp=F
 DIIS: error= 9.08D-05 at cycle   7 NSaved=   7.
 NSaved= 7 IEnMin= 7 EnMin= -2072.59973340482     IErMin= 7 ErrMin= 9.08D-05
 ErrMax= 9.08D-05  0.00D+00 EMaxC= 1.00D-01 BMatC= 1.72D-05 BMatP= 1.26D-04
 IDIUse=1 WtCom= 1.00D+00 WtEn= 0.00D+00
 Coeff-Com:  0.110D-02-0.368D-02 0.477D-02 0.243D-01 0.111D+00 0.343D+00
 Coeff-Com:  0.520D+00
 Coeff:      0.110D-02-0.368D-02 0.477D-02 0.243D-01 0.111D+00 0.343D+00
 Coeff:      0.520D+00
 Gap=     0.258 Goal=   None    Shift=    0.000
 Gap=     0.258 Goal=   None    Shift=    0.000
 RMSDP=1.75D-05 MaxDP=4.64D-04 DE=-2.94D-05 OVMax= 3.33D-04

 Cycle   8  Pass 0  IDiag  1:
 RMSU=  1.41D-05    CP:  9.81D-01  1.22D+00  7.56D-01  7.26D-01  8.87D-01
                    CP:  1.32D+00  1.33D+00
 E= -2072.59972979381     Delta-E=        0.000003611010 Rises=F Damp=F
 DIIS: error= 1.35D-04 at cycle   8 NSaved=   8.
 NSaved= 8 IEnMin= 7 EnMin= -2072.59973340482     IErMin= 7 ErrMin= 9.08D-05
 ErrMax= 1.35D-04  0.00D+00 EMaxC= 1.00D-01 BMatC= 1.25D-05 BMatP= 1.72D-05
 IDIUse=1 WtCom= 1.00D+00 WtEn= 0.00D+00
 Coeff-Com:  0.100D-02-0.331D-02 0.426D-02 0.214D-01 0.981D-01 0.304D+00
 Coeff-Com:  0.463D+00 0.111D+00
 Coeff:      0.100D-02-0.331D-02 0.426D-02 0.214D-01 0.981D-01 0.304D+00
 Coeff:      0.463D+00 0.111D+00
 Gap=     0.258 Goal=   None    Shift=    0.000
 Gap=     0.258 Goal=   None    Shift=    0.000
 RMSDP=4.77D-06 MaxDP=1.46D-04 DE= 3.61D-06 OVMax= 2.73D-05

 Initial convergence to 1.0D-05 achieved.  Increase integral accuracy.
 Cycle   9  Pass 1  IDiag  1:
 E= -2072.59905070366     Delta-E=        0.000679090145 Rises=F Damp=F
 DIIS: error= 3.07D-04 at cycle   1 NSaved=   1.
 NSaved= 1 IEnMin= 1 EnMin= -2072.59905070366     IErMin= 1 ErrMin= 3.07D-04
 ErrMax= 3.07D-04  0.00D+00 EMaxC= 1.00D-01 BMatC= 2.94D-04 BMatP= 2.94D-04
 IDIUse=3 WtCom= 9.97D-01 WtEn= 3.07D-03
 Coeff-Com:  0.100D+01
 Coeff-En:   0.100D+01
 Coeff:      0.100D+01
 Gap=     0.258 Goal=   None    Shift=    0.000
 Gap=     0.258 Goal=   None    Shift=    0.000
 RMSDP=4.77D-06 MaxDP=1.46D-04 DE= 6.79D-04 OVMax= 1.00D-03

 Cycle  10  Pass 1  IDiag  1:
 RMSU=  2.55D-04    CP:  9.99D-01
 E= -2072.59911457209     Delta-E=       -0.000063868430 Rises=F Damp=F
 DIIS: error= 1.34D-05 at cycle   2 NSaved=   2.
 NSaved= 2 IEnMin= 2 EnMin= -2072.59911457209     IErMin= 2 ErrMin= 1.34D-05
 ErrMax= 1.34D-05  0.00D+00 EMaxC= 1.00D-01 BMatC= 1.46D-06 BMatP= 2.94D-04
 IDIUse=1 WtCom= 1.00D+00 WtEn= 0.00D+00
 Coeff-Com: -0.293D-01 0.103D+01
 Coeff:     -0.293D-01 0.103D+01
 Gap=     0.258 Goal=   None    Shift=    0.000
 Gap=     0.258 Goal=   None    Shift=    0.000
 RMSDP=1.31D-05 MaxDP=4.93D-04 DE=-6.39D-05 OVMax= 2.51D-04

 Cycle  11  Pass 1  IDiag  1:
 RMSU=  3.49D-06    CP:  9.99D-01  1.05D+00
 E= -2072.59911433773     Delta-E=        0.000000234359 Rises=F Damp=F
 DIIS: error= 1.63D-05 at cycle   3 NSaved=   3.
 NSaved= 3 IEnMin= 2 EnMin= -2072.59911457209     IErMin= 2 ErrMin= 1.34D-05
 ErrMax= 1.63D-05  0.00D+00 EMaxC= 1.00D-01 BMatC= 2.96D-06 BMatP= 1.46D-06
 IDIUse=1 WtCom= 1.00D+00 WtEn= 0.00D+00
 Coeff-Com: -0.220D-01 0.635D+00 0.387D+00
 Coeff:     -0.220D-01 0.635D+00 0.387D+00
 Gap=     0.258 Goal=   None    Shift=    0.000
 Gap=     0.258 Goal=   None    Shift=    0.000
 RMSDP=1.10D-06 MaxDP=7.32D-05 DE= 2.34D-07 OVMax= 1.57D-04

 Cycle  12  Pass 1  IDiag  1:
 RMSU=  1.01D-06    CP:  9.99D-01  1.05D+00  8.88D-01
 E= -2072.59911502702     Delta-E=       -0.000000689291 Rises=F Damp=F
 DIIS: error= 2.29D-06 at cycle   4 NSaved=   4.
 NSaved= 4 IEnMin= 4 EnMin= -2072.59911502702     IErMin= 4 ErrMin= 2.29D-06
 ErrMax= 2.29D-06  0.00D+00 EMaxC= 1.00D-01 BMatC= 4.38D-08 BMatP= 1.46D-06
 IDIUse=1 WtCom= 1.00D+00 WtEn= 0.00D+00
 Coeff-Com: -0.619D-02 0.165D+00 0.141D+00 0.700D+00
 Coeff:     -0.619D-02 0.165D+00 0.141D+00 0.700D+00
 Gap=     0.258 Goal=   None    Shift=    0.000
 Gap=     0.258 Goal=   None    Shift=    0.000
 RMSDP=3.04D-07 MaxDP=1.65D-05 DE=-6.89D-07 OVMax= 2.68D-05

 Cycle  13  Pass 1  IDiag  1:
 RMSU=  1.81D-07    CP:  9.99D-01  1.05D+00  9.33D-01  9.57D-01
 E= -2072.59911503440     Delta-E=       -0.000000007375 Rises=F Damp=F
 DIIS: error= 1.17D-06 at cycle   5 NSaved=   5.
 NSaved= 5 IEnMin= 5 EnMin= -2072.59911503440     IErMin= 5 ErrMin= 1.17D-06
 ErrMax= 1.17D-06  0.00D+00 EMaxC= 1.00D-01 BMatC= 1.89D-08 BMatP= 4.38D-08
 IDIUse=1 WtCom= 1.00D+00 WtEn= 0.00D+00
 Coeff-Com:  0.842D-03-0.324D-01 0.356D-02 0.427D+00 0.601D+00
 Coeff:      0.842D-03-0.324D-01 0.356D-02 0.427D+00 0.601D+00
 Gap=     0.258 Goal=   None    Shift=    0.000
 Gap=     0.258 Goal=   None    Shift=    0.000
 RMSDP=1.36D-07 MaxDP=6.96D-06 DE=-7.38D-09 OVMax= 1.57D-05

 Cycle  14  Pass 1  IDiag  1:
 RMSU=  6.76D-08    CP:  9.99D-01  1.05D+00  9.47D-01  1.01D+00  7.28D-01
 E= -2072.59911503910     Delta-E=       -0.000000004698 Rises=F Damp=F
 DIIS: error= 3.09D-07 at cycle   6 NSaved=   6.
 NSaved= 6 IEnMin= 6 EnMin= -2072.59911503910     IErMin= 6 ErrMin= 3.09D-07
 ErrMax= 3.09D-07  0.00D+00 EMaxC= 1.00D-01 BMatC= 5.48D-10 BMatP= 1.89D-08
 IDIUse=1 WtCom= 1.00D+00 WtEn= 0.00D+00
 Coeff-Com:  0.520D-03-0.178D-01-0.372D-02 0.143D+00 0.256D+00 0.622D+00
 Coeff:      0.520D-03-0.178D-01-0.372D-02 0.143D+00 0.256D+00 0.622D+00
 Gap=     0.258 Goal=   None    Shift=    0.000
 Gap=     0.258 Goal=   None    Shift=    0.000
 RMSDP=2.29D-08 MaxDP=1.43D-06 DE=-4.70D-09 OVMax= 4.00D-06

 Cycle  15  Pass 1  IDiag  1:
 RMSU=  1.98D-08    CP:  9.99D-01  1.05D+00  9.48D-01  1.01D+00  7.81D-01
                    CP:  1.03D+00
 E= -2072.59911503939     Delta-E=       -0.000000000293 Rises=F Damp=F
 DIIS: error= 1.27D-07 at cycle   7 NSaved=   7.
 NSaved= 7 IEnMin= 7 EnMin= -2072.59911503939     IErMin= 7 ErrMin= 1.27D-07
 ErrMax= 1.27D-07  0.00D+00 EMaxC= 1.00D-01 BMatC= 1.55D-10 BMatP= 5.48D-10
 IDIUse=1 WtCom= 1.00D+00 WtEn= 0.00D+00
 Coeff-Com:  0.569D-04-0.921D-03-0.357D-02-0.425D-01-0.161D-01 0.347D+00
 Coeff-Com:  0.716D+00
 Coeff:      0.569D-04-0.921D-03-0.357D-02-0.425D-01-0.161D-01 0.347D+00
 Coeff:      0.716D+00
 Gap=     0.258 Goal=   None    Shift=    0.000
 Gap=     0.258 Goal=   None    Shift=    0.000
 RMSDP=1.35D-08 MaxDP=7.59D-07 DE=-2.93D-10 OVMax= 2.35D-06

 Cycle  16  Pass 1  IDiag  1:
 RMSU=  8.94D-09    CP:  9.99D-01  1.05D+00  9.48D-01  1.01D+00  7.97D-01
                    CP:  1.17D+00  9.04D-01
 E= -2072.59911503925     Delta-E=        0.000000000142 Rises=F Damp=F
 DIIS: error= 6.15D-08 at cycle   8 NSaved=   8.
 NSaved= 8 IEnMin= 7 EnMin= -2072.59911503939     IErMin= 8 ErrMin= 6.15D-08
 ErrMax= 6.15D-08  0.00D+00 EMaxC= 1.00D-01 BMatC= 1.55D-11 BMatP= 1.55D-10
 IDIUse=1 WtCom= 1.00D+00 WtEn= 0.00D+00
 Coeff-Com: -0.624D-04 0.260D-02-0.118D-02-0.450D-01-0.473D-01 0.672D-01
 Coeff-Com:  0.314D+00 0.710D+00
 Coeff:     -0.624D-04 0.260D-02-0.118D-02-0.450D-01-0.473D-01 0.672D-01
 Coeff:      0.314D+00 0.710D+00
 Gap=     0.258 Goal=   None    Shift=    0.000
 Gap=     0.258 Goal=   None    Shift=    0.000
 RMSDP=5.05D-09 MaxDP=3.17D-07 DE= 1.42D-10 OVMax= 1.09D-06

 SCF Done:  E(ULC-wPBE) =  -2072.59911504     A.U. after   16 cycles
            NFock= 16  Conv=0.51D-08     -V/T= 2.0064
 <Sx>= 0.0000 <Sy>= 0.0000 <Sz>= 0.0000 <S**2>=-0.0000 S=-0.0000
 <L.S>= 0.000000000000E+00
 KE= 2.059463934828D+03 PE=-1.517190940517D+04 EE= 5.867664293822D+03
 Annihilation of the first spin contaminant:
 S**2 before annihilation    -0.0000,   after    -0.0000
 Leave Link  502 at Sat Jul 25 14:13:22 2020, MaxMem=  4026531840 cpu:            5168.6 elap:             657.1
 (Enter /opt/ohpc/pub/libs/gaussian/g16-A.03/sandybridge/g16/l601.exe)
 Copying SCF densities to generalized density rwf, IOpCl= 1 IROHF=0.

 **********************************************************************

            Population analysis using the SCF density.

 **********************************************************************

 Orbital symmetries:
 Alpha Orbitals:
       Occupied  (A) (A) (A) (A) (A) (A) (A) (A) (A) (A) (A) (A)
[...]
 
              Baa    -0.0000    -0.000    -0.000    -0.000  0.8731  0.3018 -0.3828
    27 C(13)  Bbb    -0.0000    -0.000    -0.000    -0.000 -0.4302  0.8463 -0.3141
              Bcc     0.0000     0.000     0.000     0.000  0.2292  0.4389  0.8688
 
              Baa    -0.0000    -0.000    -0.000    -0.000 -0.3154 -0.6354  0.7048
    28 C(13)  Bbb     0.0000     0.000     0.000     0.000  0.5603  0.4748  0.6787
              Bcc     0.0000     0.000     0.000     0.000  0.7659 -0.6090 -0.2063
 
              Baa    -0.0000    -0.000    -0.000    -0.000  0.7449 -0.6543  0.1301
    29 C(13)  Bbb    -0.0000    -0.000    -0.000    -0.000 -0.3909 -0.2700  0.8800
              Bcc     0.0000     0.000     0.000     0.000  0.5407  0.7064  0.4569
 
              Baa    -0.0000    -0.000    -0.000    -0.000 -0.0325 -0.2515  0.9673
    30 C(13)  Bbb     0.0000     0.000     0.000     0.000  0.5310  0.8156  0.2299
              Bcc     0.0000     0.000     0.000     0.000  0.8467 -0.5211 -0.1070
 
              Baa    -0.0000     0.000     0.000     0.000  0.4323 -0.0212  0.9015
    31 O(17)  Bbb    -0.0000     0.000     0.000     0.000  0.8082  0.4524 -0.3770
              Bcc     0.0000    -0.000    -0.000    -0.000 -0.3998  0.8916  0.2127
 
              Baa    -0.0000    -0.000    -0.000    -0.000  0.8597  0.0281 -0.5100
    32 C(13)  Bbb     0.0000     0.000     0.000     0.000  0.4787 -0.3923  0.7854
              Bcc     0.0000     0.000     0.000     0.000  0.1780  0.9194  0.3507
 
              Baa    -0.0000    -0.000    -0.000    -0.000  0.7060  0.2648 -0.6568
    33 C(13)  Bbb    -0.0000    -0.000    -0.000    -0.000  0.4991  0.4719  0.7268
              Bcc     0.0000     0.000     0.000     0.000 -0.5024  0.8409 -0.2009
 
              Baa    -0.0000    -0.000    -0.000    -0.000 -0.0574  0.4949  0.8671
    34 C(13)  Bbb    -0.0000    -0.000    -0.000    -0.000  0.2530  0.8474 -0.4669
              Bcc     0.0000     0.000     0.000     0.000  0.9658 -0.1925  0.1738
 
              Baa    -0.0000    -0.000    -0.000    -0.000  0.9239  0.1721 -0.3418
    35 C(13)  Bbb    -0.0000    -0.000    -0.000    -0.000  0.2586  0.3775  0.8892
              Bcc     0.0000     0.000     0.000     0.000 -0.2820  0.9099 -0.3043
 
              Baa    -0.0000     0.000     0.000     0.000  0.9936  0.0071  0.1130
    36 O(17)  Bbb     0.0000    -0.000    -0.000    -0.000 -0.1115  0.2339  0.9658
              Bcc     0.0000    -0.000    -0.000    -0.000  0.0196  0.9722 -0.2332
 
              Baa    -0.0000    -0.000    -0.000    -0.000  0.5004  0.4709  0.7265
    37 C(13)  Bbb     0.0000     0.000     0.000     0.000 -0.2176  0.8806 -0.4209
              Bcc     0.0000     0.000     0.000     0.000  0.8380 -0.0525 -0.5431
 
              Baa    -0.0000    -0.000    -0.000    -0.000  0.9567 -0.0869  0.2778
    38 C(13)  Bbb     0.0000     0.000     0.000     0.000  0.0258  0.9759  0.2167
              Bcc     0.0000     0.000     0.000     0.000 -0.2900 -0.2002  0.9359
 
              Baa    -0.0000    -0.000    -0.000    -0.000 -0.4287  0.7296 -0.5328
    39 C(13)  Bbb    -0.0000    -0.000    -0.000    -0.000 -0.1965  0.5004  0.8432
              Bcc     0.0000     0.000     0.000     0.000  0.8818  0.4662 -0.0712
 
              Baa    -0.0000    -0.000    -0.000    -0.000 -0.1446  0.9516 -0.2712
    40 C(13)  Bbb    -0.0000    -0.000    -0.000    -0.000  0.9895  0.1412 -0.0320
              Bcc     0.0000     0.000     0.000     0.000 -0.0078  0.2730  0.9620
 
              Baa    -0.0000    -0.000    -0.000    -0.000  0.9587 -0.1246  0.2556
    41 C(13)  Bbb     0.0000     0.000     0.000     0.000 -0.2714 -0.1333  0.9532
              Bcc     0.0000     0.000     0.000     0.000  0.0847  0.9832  0.1616
 
              Baa    -0.0000    -0.000    -0.000    -0.000 -0.3008 -0.3495  0.8873
    42 C(13)  Bbb     0.0000     0.000     0.000     0.000  0.9353  0.0735  0.3460
              Bcc     0.0000     0.000     0.000     0.000 -0.1862  0.9340  0.3048
 
              Baa    -0.0000    -0.000    -0.000    -0.000 -0.1158  0.9703  0.2122
    43 C(13)  Bbb    -0.0000    -0.000    -0.000    -0.000  0.0835 -0.2034  0.9755
              Bcc     0.0000     0.000     0.000     0.000  0.9897  0.1307 -0.0575
 
              Baa    -0.0000    -0.000    -0.000    -0.000  0.8954 -0.1614  0.4150
    44 C(13)  Bbb     0.0000     0.000     0.000     0.000 -0.4414 -0.4448  0.7793
              Bcc     0.0000     0.000     0.000     0.000 -0.0588  0.8810  0.4695
 
              Baa    -0.0000    -0.000    -0.000    -0.000  0.9103  0.1168 -0.3972
    45 C(13)  Bbb     0.0000     0.000     0.000     0.000 -0.1558  0.9855 -0.0673
              Bcc     0.0000     0.000     0.000     0.000  0.3836  0.1231  0.9153
 
              Baa    -0.0000    -0.000    -0.000    -0.000  0.1478 -0.2745  0.9502
    46 C(13)  Bbb     0.0000     0.000     0.000     0.000 -0.3300  0.8920  0.3090
              Bcc     0.0000     0.000     0.000     0.000  0.9323  0.3592 -0.0413
 
              Baa    -0.0000     0.000     0.000     0.000 -0.6212  0.7822 -0.0473
    47 O(17)  Bbb    -0.0000     0.000     0.000     0.000  0.3867  0.3585  0.8497
              Bcc     0.0000    -0.000    -0.000    -0.000  0.6816  0.5096 -0.5252
 
              Baa    -0.0000    -0.000    -0.000    -0.000 -0.1394  0.9128  0.3839
    48 C(13)  Bbb    -0.0000    -0.000    -0.000    -0.000  0.0468 -0.3812  0.9233
              Bcc     0.0000     0.000     0.000     0.000  0.9891  0.1467  0.0105
 
              Baa    -0.0000    -0.000    -0.000    -0.000  0.0742  0.9970  0.0242
    49 H(1)   Bbb    -0.0000    -0.000    -0.000    -0.000  0.0573 -0.0284  0.9980
              Bcc     0.0000     0.000     0.000     0.000  0.9956 -0.0726 -0.0592
 
              Baa    -0.0000    -0.000    -0.000    -0.000  0.1077  0.8650 -0.4901
    50 H(1)   Bbb     0.0000     0.000     0.000     0.000 -0.4321  0.4847  0.7605
              Bcc     0.0000     0.000     0.000     0.000  0.8954  0.1298  0.4260
 
              Baa    -0.0000    -0.000    -0.000    -0.000  0.7753 -0.5582  0.2953
    51 H(1)   Bbb     0.0000     0.000     0.000     0.000 -0.4022 -0.0759  0.9124
              Bcc     0.0000     0.000     0.000     0.000  0.4869  0.8262  0.2834
 
              Baa    -0.0000    -0.000    -0.000    -0.000  0.0196  0.9998 -0.0071
    52 H(1)   Bbb     0.0000     0.000     0.000     0.000  0.3859 -0.0010  0.9225
              Bcc     0.0000     0.000     0.000     0.000  0.9223 -0.0208 -0.3858
 
              Baa    -0.0000    -0.000    -0.000    -0.000  0.8168 -0.5390 -0.2058
    53 H(1)   Bbb     0.0000     0.000     0.000     0.000  0.5730  0.7167  0.3975
              Bcc     0.0000     0.000     0.000     0.000 -0.0668 -0.4426  0.8942
 
              Baa    -0.0000    -0.000    -0.000    -0.000 -0.0579  0.5465  0.8354
    54 H(1)   Bbb     0.0000     0.000     0.000     0.000  0.9606  0.2585 -0.1025
              Bcc     0.0000     0.000     0.000     0.000 -0.2719  0.7965 -0.5400
 
              Baa    -0.0000    -0.000    -0.000    -0.000 -0.4298  0.4851  0.7615
    55 H(1)   Bbb     0.0000     0.000     0.000     0.000 -0.0312  0.8349 -0.5495
              Bcc     0.0000     0.000     0.000     0.000  0.9024  0.2600  0.3437
 
              Baa    -0.0000    -0.000    -0.000    -0.000 -0.0477 -0.3034  0.9517
    56 H(1)   Bbb     0.0000     0.000     0.000     0.000 -0.0889  0.9503  0.2984
              Bcc     0.0000     0.000     0.000     0.000  0.9949  0.0704  0.0723
 
              Baa    -0.0000    -0.000    -0.000    -0.000  0.0099 -0.1730  0.9849
    57 H(1)   Bbb    -0.0000    -0.000    -0.000    -0.000  0.9052  0.4200  0.0647
              Bcc     0.0000     0.000     0.000     0.000 -0.4249  0.8909  0.1608
 
              Baa    -0.0000    -0.000    -0.000    -0.000 -0.0068 -0.2759  0.9612
    58 H(1)   Bbb    -0.0000    -0.000    -0.000    -0.000  0.9748 -0.2161 -0.0551
              Bcc     0.0000     0.000     0.000     0.000  0.2229  0.9366  0.2704
 
              Baa    -0.0000    -0.000    -0.000    -0.000 -0.6718  0.6956  0.2545
    59 H(1)   Bbb     0.0000     0.000     0.000     0.000 -0.0496 -0.3851  0.9216
              Bcc     0.0000     0.000     0.000     0.000  0.7391  0.6065  0.2932
 
              Baa    -0.0000    -0.000    -0.000    -0.000  0.4628 -0.0761  0.8832
    60 H(1)   Bbb     0.0000     0.000     0.000     0.000  0.0919  0.9951  0.0376
              Bcc     0.0000     0.000     0.000     0.000  0.8817 -0.0637 -0.4675
 
              Baa    -0.0000    -0.000    -0.000    -0.000 -0.5470 -0.1982  0.8133
    61 H(1)   Bbb     0.0000     0.000     0.000     0.000  0.2267  0.9002  0.3718
              Bcc     0.0000     0.000     0.000     0.000  0.8058 -0.3878  0.4475
 
              Baa    -0.0000    -0.000    -0.000    -0.000 -0.0097  0.8998 -0.4362
    62 H(1)   Bbb    -0.0000    -0.000    -0.000    -0.000  0.7285  0.3052  0.6133
              Bcc     0.0000     0.000     0.000     0.000  0.6850 -0.3118 -0.6584
 
              Baa    -0.0000    -0.000    -0.000    -0.000 -0.3041 -0.2973  0.9051
    63 H(1)   Bbb    -0.0000    -0.000    -0.000    -0.000  0.2546  0.8901  0.3780
              Bcc     0.0000     0.000     0.000     0.000  0.9180 -0.3454  0.1950
 
              Baa    -0.0000    -0.000    -0.000    -0.000 -0.1983  0.7795 -0.5942
    64 H(1)   Bbb    -0.0000    -0.000    -0.000    -0.000  0.9614  0.2725  0.0366
              Bcc     0.0000     0.000     0.000     0.000 -0.1905  0.5640  0.8035
 
              Baa    -0.0000    -0.000    -0.000    -0.000  0.9307  0.2853 -0.2289
    65 H(1)   Bbb    -0.0000    -0.000    -0.000    -0.000 -0.3414  0.9021 -0.2638
              Bcc     0.0000     0.000     0.000     0.000  0.1313  0.3237  0.9370
 
              Baa    -0.0000    -0.000    -0.000    -0.000 -0.6182  0.7660 -0.1762
    66 H(1)   Bbb    -0.0000    -0.000    -0.000    -0.000  0.3746  0.4842  0.7907
              Bcc     0.0000     0.000     0.000     0.000  0.6910  0.4227 -0.5863
 
              Baa    -0.0000    -0.000    -0.000    -0.000 -0.0790  0.5692  0.8184
    67 H(1)   Bbb    -0.0000    -0.000    -0.000    -0.000  0.8448  0.4740 -0.2481
              Bcc     0.0000     0.000     0.000     0.000 -0.5292  0.6718 -0.5183
 
              Baa    -0.0000    -0.000    -0.000    -0.000  0.9007 -0.4025 -0.1636
    68 H(1)   Bbb     0.0000     0.000     0.000     0.000 -0.1622 -0.6609  0.7327
              Bcc     0.0000     0.000     0.000     0.000  0.4030  0.6334  0.6606
 
              Baa    -0.0000    -0.000    -0.000    -0.000 -0.0545 -0.5115  0.8576
    69 H(1)   Bbb     0.0000     0.000     0.000     0.000  0.9513  0.2345  0.2003
              Bcc     0.0000     0.000     0.000     0.000 -0.3035  0.8267  0.4738
 
              Baa    -0.0000    -0.000    -0.000    -0.000  0.2694 -0.5558  0.7865
    70 H(1)   Bbb    -0.0000    -0.000    -0.000    -0.000  0.8301 -0.2800 -0.4822
              Bcc     0.0000     0.000     0.000     0.000  0.4883  0.7827  0.3859
 
              Baa    -0.0000    -0.000    -0.000    -0.000 -0.6594 -0.2739  0.7001
    71 H(1)   Bbb     0.0000     0.000     0.000     0.000  0.7467 -0.1303  0.6523
              Bcc     0.0000     0.000     0.000     0.000 -0.0874  0.9529  0.2904
 
              Baa    -0.0000    -0.000    -0.000    -0.000 -0.2050 -0.6688  0.7146
    72 H(1)   Bbb     0.0000     0.000     0.000     0.000  0.6032  0.4886  0.6304
              Bcc     0.0000     0.000     0.000     0.000  0.7708 -0.5603 -0.3032
 
              Baa    -0.0000    -0.000    -0.000    -0.000 -0.3251  0.9266 -0.1891
    73 H(1)   Bbb     0.0000     0.000     0.000     0.000  0.7889  0.3760  0.4861
              Bcc     0.0000     0.000     0.000     0.000 -0.5215 -0.0089  0.8532
 
              Baa    -0.0000    -0.000    -0.000    -0.000  0.8906  0.4539  0.0267
    74 H(1)   Bbb    -0.0000    -0.000    -0.000    -0.000 -0.2260  0.3911  0.8922
              Bcc     0.0000     0.000     0.000     0.000 -0.3945  0.8006 -0.4509
 
              Baa    -0.0000    -0.000    -0.000    -0.000  0.4430  0.6286  0.6393
    75 H(1)   Bbb     0.0000     0.000     0.000     0.000 -0.4065 -0.4947  0.7681
              Bcc     0.0000     0.000     0.000     0.000  0.7991 -0.6001  0.0364
 
              Baa    -0.0000    -0.000    -0.000    -0.000  0.6730  0.5709  0.4703
    76 H(1)   Bbb    -0.0000    -0.000    -0.000    -0.000 -0.3514 -0.3127  0.8825
              Bcc     0.0000     0.000     0.000     0.000 -0.6508  0.7591  0.0098
 
              Baa    -0.0000    -0.000    -0.000    -0.000  0.4308  0.1066  0.8961
    77 H(1)   Bbb    -0.0000    -0.000    -0.000    -0.000  0.1831  0.9620 -0.2024
              Bcc     0.0000     0.000     0.000     0.000  0.8837 -0.2513 -0.3949
 
              Baa    -0.0000    -0.000    -0.000    -0.000  0.0583  0.9788 -0.1964
    78 H(1)   Bbb    -0.0000    -0.000    -0.000    -0.000  0.9982 -0.0597 -0.0016
              Bcc     0.0000     0.000     0.000     0.000  0.0133  0.1959  0.9805
 
              Baa    -0.0000    -0.000    -0.000    -0.000 -0.6240  0.7657 -0.1557
    79 H(1)   Bbb     0.0000     0.000     0.000     0.000  0.1330  0.3005  0.9445
              Bcc     0.0000     0.000     0.000     0.000  0.7700  0.5687 -0.2894
 
              Baa    -0.0000    -0.000    -0.000    -0.000 -0.6354 -0.3446  0.6910
    80 H(1)   Bbb     0.0000     0.000     0.000     0.000  0.7648 -0.4045  0.5015
              Bcc     0.0000     0.000     0.000     0.000  0.1068  0.8471  0.5206
 
              Baa    -0.0000    -0.000    -0.000    -0.000  0.9874  0.0346  0.1545
    81 H(1)   Bbb     0.0000     0.000     0.000     0.000 -0.1352  0.6918  0.7093
              Bcc     0.0000     0.000     0.000     0.000  0.0824  0.7213 -0.6878
 
              Baa    -0.0000    -0.000    -0.000    -0.000  0.5219  0.8257  0.2138
    82 H(1)   Bbb    -0.0000    -0.000    -0.000    -0.000  0.4596 -0.4834  0.7451
              Bcc     0.0000     0.000     0.000     0.000  0.7186 -0.2906 -0.6318
 
              Baa    -0.0000    -0.000    -0.000    -0.000 -0.1297 -0.4281  0.8944
    83 H(1)   Bbb     0.0000     0.000     0.000     0.000  0.5089  0.7454  0.4306
              Bcc     0.0000     0.000     0.000     0.000  0.8510 -0.5110 -0.1212
 
              Baa    -0.0000    -0.000    -0.000    -0.000  0.3182 -0.5955  0.7376
    84 H(1)   Bbb     0.0000     0.000     0.000     0.000  0.1230  0.7974  0.5907
              Bcc     0.0000     0.000     0.000     0.000  0.9400  0.0973 -0.3270
 
              Baa    -0.0000    -0.000    -0.000    -0.000  0.2904  0.0686  0.9544
    85 H(1)   Bbb     0.0000     0.000     0.000     0.000 -0.5073  0.8568  0.0927
              Bcc     0.0000     0.000     0.000     0.000  0.8114  0.5111 -0.2837
 
              Baa    -0.0000    -0.000    -0.000    -0.000  0.8274 -0.3802 -0.4134
    86 H(1)   Bbb    -0.0000    -0.000    -0.000    -0.000  0.4646  0.8768  0.1235
              Bcc     0.0000     0.000     0.000     0.000  0.3156 -0.2943  0.9021
 

 ---------------------------------------------------------------------------------

 No NMR shielding tensors so no spin-rotation constants.
 Leave Link  601 at Sat Jul 25 19:08:44 2020, MaxMem=  4026531840 cpu:               9.6 elap:               1.3
 (Enter /opt/ohpc/pub/libs/gaussian/g16-A.03/sandybridge/g16/l9999.exe)

 Test job not archived.
 1\1\GINC-SKYLAKE040\FOpt\ULC-wPBE\CC-pVDZ\C42H38O6\RDU230\25-Jul-2020\
 0\\#P uLC-wPBE/cc-pVDZ iop(3/107=0141700000, 3/108=0141700000) opt\\H3
 8 C42 O6\\0,1\C,-12.2671613514,-0.0644587683,0.2032149544\C,-11.574882
 0669,-1.1644180905,-0.3232079751\C,-10.1694901444,-1.1543526686,-0.375
 7423642\O,-9.422055287,-2.1864705962,-0.8806966334\C,-10.1156699054,-3
 .3097759294,-1.4057299886\C,-9.4403367816,-0.0321854422,0.1027254718\C
 ,-10.166561493,1.0551614368,0.6169964426\C,-11.5666882857,1.0492866068
 ,0.6754012501\C,-7.9485849702,-0.0151547906,0.0804690615\C,-7.20190269
 76,-1.0413902571,0.6817077209\C,-5.8029010309,-1.0305952088,0.70174893
 63\C,-5.0930072255,0.0242560316,0.1011420344\C,-5.8247741702,1.0601762
 952,-0.5150715253\C,-7.2289923491,1.0474736071,-0.5287466085\O,-7.9863
 450556,2.0310264165,-1.1097838586\C,-7.3049606637,3.0915253049,-1.7658
 423285\C,-3.6050704996,0.0580110445,0.1072705946\C,-2.8897068582,-0.36
 13347689,1.2478676784\C,-1.4858927789,-0.3416931343,1.2718474328\O,-0.
 7456721414,-0.7231615253,2.3607323336\C,-1.4457886105,-1.1407094072,3.
 5247650328\C,-0.7488197621,0.1042751584,0.1416249274\C,-1.4798957409,0
 .5238104982,-0.9821813101\C,-2.8784473095,0.50257444,-1.0115499673\C,0
 .7417940972,0.1071065537,0.1367550564\C,1.4716404075,-1.0480409142,0.4
 629361106\C,2.8701056717,-1.0777186524,0.4371193825\C,3.5978719806,0.0
 722699925,0.0831957205\C,2.8837796001,1.2440986279,-0.2414928281\C,1.4
 800310453,1.2685499299,-0.2176500163\O,0.7410222573,2.3858118383,-0.50
 86825729\C,1.4424240982,3.5787601614,-0.8317719467\C,5.0857513688,0.06
 66467538,0.0466460759\C,5.8180491379,-0.6320088622,1.0284534246\C,7.22
 22224381,-0.6467026125,1.0124336864\O,7.9801138887,-1.3060853166,1.944
 8434558\C,7.2992540363,-2.0439364902,2.9505071254\C,7.9412275747,0.044
 9795686,0.0011279873\C,7.1939908212,0.7279280214,-0.9722233312\C,5.795
 0409332,0.7491132621,-0.9576147514\C,9.4329680114,0.0663597177,-0.0164
 184578\C,10.1615990117,0.4904140323,1.1076360949\C,11.5617974186,0.547
 0615732,1.1042925518\C,12.2599277226,0.1649839102,-0.0449222484\C,11.5
 652087366,-0.2702162805,-1.1825743209\C,10.1597578219,-0.3213272856,-1
 .1745728806\O,9.4100370977,-0.7405137213,-2.242798626\C,10.1011935125,
 -1.1743645421,-3.4058429942\H,-13.3656073091,-0.0884045451,0.239648171
 4\H,-12.1386206354,-2.0290658139,-0.6938799822\H,-10.777918429,-3.0279
 236614,-2.2533468206\H,-10.7246975665,-3.8229080681,-0.6293088308\H,-9
 .3356939061,-4.0018882684,-1.7698347816\H,-9.6070501355,1.9266207898,0
 .9818286489\H,-12.1043875164,1.9130726592,1.0893723174\H,-7.7441678651
 ,-1.8775614699,1.1423027199\H,-5.2572317199,-1.8655202849,1.1620931228
 \H,-5.2759291564,1.8975414421,-0.9624967174\H,-8.0935045974,3.74550592
 51,-2.1786209686\H,-6.6748628481,3.6791543424,-1.0627208641\H,-6.66560
 26582,2.7207805656,-2.5965062602\H,-3.4524395657,-0.6756141309,2.13506
 41198\H,-0.669062933,-1.3912343818,4.2689673171\H,-2.0929145219,-0.332
 8362269,3.9305912429\H,-2.0716720036,-2.0398240391,3.333494536\H,-0.92
 48283802,0.8663867792,-1.8651905383\H,-3.4095153573,0.8037109948,-1.92
 48222808\H,0.9156091008,-1.9549846467,0.733941734\H,3.4001738641,-2.01
 31017687,0.6626574399\H,3.4475237838,2.1528972695,-0.484047418\H,2.091
 4510928,3.9168489683,0.0052348766\H,2.0666201238,3.4599613183,-1.74445
 60403\H,0.6665534117,4.3419863884,-1.0199542194\H,5.2697062836,-1.1445
 653998,1.827957969\H,6.6580707015,-2.8413508281,2.5154777064\H,8.08810
 96046,-2.5088444939,3.5681177644\H,6.6711005791,-1.3891998267,3.593510
 202\H,7.7357663204,1.2535184482,-1.7694815134\H,5.2488717513,1.2759410
 006,-1.7519217739\H,9.6039332841,0.7847898319,2.0064985459\H,12.101371
 2832,0.8894063641,1.9977575265\H,13.3583919254,0.2016092952,-0.0676002
 182\H,12.1270941521,-0.570965609,-2.0751285216\H,10.7624440902,-2.0429
 493765,-3.1942386212\H,10.710767152,-0.3600441895,-3.8556693571\H,9.31
 96290897,-1.4803108712,-4.1238302429\\Version=EM64L-G16RevA.03\State=1
 -A\HF=-2072.7378289\S2=0.\S2-1=0.\S2A=0.\RMSD=8.723e-09\RMSF=2.297e-06
 \Dipole=-0.0002756,-0.1826155,-0.1979346\Quadrupole=-0.7872501,0.97371
 13,-0.1864612,1.5570666,-1.4399514,-7.2078344\PG=C01 [X(C42H38O6)]\\@


 IF MATHEMATICALLY YOU END UP WITH THE INCORRECT ANSWER,
 TRY MULTIPLYING BY THE PAGE NUMBER.
 Job cpu time:       1 days 16 hours 11 minutes  3.7 seconds.
 Elapsed time:       0 days  5 hours  6 minutes 31.9 seconds.
 File lengths (MBytes):  RWF=    868 Int=      0 D2E=      0 Chk=     80 Scr=      8
 Normal termination of Gaussian 16 at Sat Jul 25 19:08:45 2020.
