 Entering Gaussian System, Link 0=g16
 Input=mols_65_3_10_c-cF-CF_opt_0.gjf
 Output=mols_65_3_10_c-cF-CF_opt_0.log
 Initial command:
 /opt/ohpc/pub/libs/gaussian/g16-A.03/sandybridge/g16/l1.exe "/mnt/gpfs2_4m/scratch/rdu230/ondemand/projects/dihedral_energies/7trial/wtuning/mols_65_3_10_c-cF-CF/Gau-107415.inp" -scrdir="/mnt/gpfs2_4m/scratch/rdu230/ondemand/projects/dihedral_energies/7trial/wtuning/mols_65_3_10_c-cF-CF/"
 Entering Link 1 = /opt/ohpc/pub/libs/gaussian/g16-A.03/sandybridge/g16/l1.exe PID=    107416.
  
 Copyright (c) 1988,1990,1992,1993,1995,1998,2003,2009,2016,
            Gaussian, Inc.  All Rights Reserved.
  
 This is part of the Gaussian(R) 16 program.  It is based on
 the Gaussian(R) 09 system (copyright 2009, Gaussian, Inc.),
 the Gaussian(R) 03 system (copyright 2003, Gaussian, Inc.),
 the Gaussian(R) 98 system (copyright 1998, Gaussian, Inc.),
 the Gaussian(R) 94 system (copyright 1995, Gaussian, Inc.),
 the Gaussian 92(TM) system (copyright 1992, Gaussian, Inc.),
 the Gaussian 90(TM) system (copyright 1990, Gaussian, Inc.),
 the Gaussian 88(TM) system (copyright 1988, Gaussian, Inc.),
 the Gaussian 86(TM) system (copyright 1986, Carnegie Mellon
 University), and the Gaussian 82(TM) system (copyright 1983,
 Carnegie Mellon University). Gaussian is a federally registered
 trademark of Gaussian, Inc.
  
 This software contains proprietary and confidential information,
 including trade secrets, belonging to Gaussian, Inc.
  
 This software is provided under written license and may be
 used, copied, transmitted, or stored only in accord with that
 written license.
  
 The following legend is applicable only to US Government
 contracts under FAR:
  
                    RESTRICTED RIGHTS LEGEND
  
 Use, reproduction and disclosure by the US Government is
 subject to restrictions as set forth in subparagraphs (a)
 and (c) of the Commercial Computer Software - Restricted
 Rights clause in FAR 52.227-19.
  
 Gaussian, Inc.
 340 Quinnipiac St., Bldg. 40, Wallingford CT 06492
  
  
 ---------------------------------------------------------------
 Warning -- This program may not be used in any manner that
 competes with the business of Gaussian, Inc. or will provide
 assistance to any competitor of Gaussian, Inc.  The licensee
 of this program is prohibited from giving any competitor of
 Gaussian, Inc. access to this program.  By using this program,
 the user acknowledges that Gaussian, Inc. is engaged in the
 business of creating and licensing software in the field of
 computational chemistry and represents and warrants to the
 licensee that it is not a competitor of Gaussian, Inc. and that
 it will not use this program in any manner prohibited above.
 ---------------------------------------------------------------
  

 Cite this work as:
 Gaussian 16, Revision A.03,
 M. J. Frisch, G. W. Trucks, H. B. Schlegel, G. E. Scuseria, 
 M. A. Robb, J. R. Cheeseman, G. Scalmani, V. Barone, 
 G. A. Petersson, H. Nakatsuji, X. Li, M. Caricato, A. V. Marenich, 
 J. Bloino, B. G. Janesko, R. Gomperts, B. Mennucci, H. P. Hratchian, 
 J. V. Ortiz, A. F. Izmaylov, J. L. Sonnenberg, D. Williams-Young, 
 F. Ding, F. Lipparini, F. Egidi, J. Goings, B. Peng, A. Petrone, 
 T. Henderson, D. Ranasinghe, V. G. Zakrzewski, J. Gao, N. Rega, 
 G. Zheng, W. Liang, M. Hada, M. Ehara, K. Toyota, R. Fukuda, 
 J. Hasegawa, M. Ishida, T. Nakajima, Y. Honda, O. Kitao, H. Nakai, 
 T. Vreven, K. Throssell, J. A. Montgomery, Jr., J. E. Peralta, 
 F. Ogliaro, M. J. Bearpark, J. J. Heyd, E. N. Brothers, K. N. Kudin, 
 V. N. Staroverov, T. A. Keith, R. Kobayashi, J. Normand, 
 K. Raghavachari, A. P. Rendell, J. C. Burant, S. S. Iyengar, 
 J. Tomasi, M. Cossi, J. M. Millam, M. Klene, C. Adamo, R. Cammi, 
 J. W. Ochterski, R. L. Martin, K. Morokuma, O. Farkas, 
 J. B. Foresman, and D. J. Fox, Gaussian, Inc., Wallingford CT, 2016.
 
 ******************************************
 Gaussian 16:  EM64L-G16RevA.03 25-Dec-2016
                25-Jul-2020 
 ******************************************
 %mem=30GB
 %nproc=8
 Will use up to    8 processors via shared memory.
 ---------------------------------------------------------------
 #P uLC-wPBE/cc-pVDZ iop(3/107=0356000000, 3/108=0356000000) opt
 ---------------------------------------------------------------
 1/18=20,19=15,26=3,38=1/1,3;
 2/9=110,12=2,17=6,18=5,40=1/2;
 3/5=16,11=2,25=1,30=1,71=1,74=-41,107=356000000,108=356000000,116=2/1,2,3;
 4//1;
 5/5=2,38=5/2;
 6/7=2,8=2,9=2,10=2,28=1/1;
 7//1,2,3,16;
 1/18=20,19=15,26=3/3(2);
 2/9=110/2;
 99//99;
 2/9=110/2;
 3/5=16,11=2,25=1,30=1,71=1,74=-41,107=356000000,108=356000000,116=2/1,2,3;
 4/5=5,16=3,69=1/1;
 5/5=2,38=5/2;
 7//1,2,3,16;
 1/18=20,19=15,26=3/3(-5);
 2/9=110/2;
 6/7=2,8=2,9=2,10=2,19=2,28=1/1;
 99/9=1/99;
 Leave Link    1 at Sat Jul 25 06:18:52 2020, MaxMem=  4026531840 cpu:               1.4 elap:               0.2
 (Enter /opt/ohpc/pub/libs/gaussian/g16-A.03/sandybridge/g16/l101.exe)
 -------------
 H14 C30 S3 F6
 -------------
 Symbolic Z-matrix:
 Charge =  0 Multiplicity = 1
 C                     10.72451   2.5544   -0.65556 
 C                     10.6218   1.40182  -1.42458 
 C                     9.43233   0.6436   -1.28824 
 C                     8.41812   0.93862  -0.3774 
 C                     8.58509   2.08      0.42456 
 F                     7.72752   2.48716   1.36597 
 C                     9.7794    2.9269    0.26256 
 C                     7.34741   0.07616  -0.19277 
 C                     7.21106  -1.30408  -0.05244 
 F                     8.35648  -2.04406   0.00164 
 C                     5.93201  -1.86471   0.00983 
 C                     5.0025   -0.81022   0.00938 
 S                     5.74038   0.7156   -0.20078 
 C                     3.56491  -0.97082   0.04393 
 C                     2.87789  -1.94575  -0.74306 
 C                     1.47749  -2.17367  -0.6236 
 C                     0.75257  -1.27847   0.20409 
 C                     1.36347  -0.37027   1.02602 
 F                     0.72251   0.45841   1.85575 
 C                     2.71584  -0.18737   0.90645 
 C                    -0.71873  -1.53603   0.27648 
 C                    -1.49488  -2.68584   0.41316 
 F                    -0.91315  -3.9025    0.49268 
 C                    -2.85309  -2.42026   0.38994 
 C                    -3.15842  -1.13671   0.24446 
 S                    -1.768    -0.19766   0.0775 
 C                    -4.49069  -0.53002   0.15269 
 C                    -4.83584   0.62959   0.89633 
 C                    -6.18675   1.16983   0.79673 
 C                    -7.10749   0.60016   0.01798 
 C                    -6.78424  -0.52086  -0.72306 
 F                    -7.7399   -1.15886  -1.46963 
 C                    -5.57821  -1.13658  -0.62959 
 C                    -8.49666   1.12417  -0.09535 
 C                    -9.68172   0.53341   0.06601 
 F                    -9.84424  -0.73214   0.26765 
 C                    -10.86034   1.41852  -0.16954 
 C                    -10.44871   2.70362  -0.45674 
 S                    -8.65963   2.85949  -0.47354 
 H                     11.56204   3.25711  -0.75974 
 H                     11.31178   1.15634  -2.15592 
 H                     9.40773  -0.2457   -1.89556 
 H                     9.79948   3.85551   0.89464 
 H                     5.77149  -2.87757   0.1351 
 H                     3.40182  -2.59728  -1.37546 
 H                     0.97829  -2.8739   -1.22831 
 H                     3.21908   0.51343   1.52921 
 H                    -3.60852  -3.2276    0.45981 
 H                    -4.08133   1.09462   1.4873 
 H                    -6.36088   2.06122   1.39338 
 H                    -5.27889  -2.03613  -1.22673 
 H                    -11.89645   1.12396  -0.07477 
 H                    -11.0319   3.58389  -0.55935 
 
 ITRead=  0  0  0  0  0  0  0  0  0  0  0  0  0  0  0  0  0  0  0  0
 ITRead=  0  0  0  0  0  0  0  0  0  0  0  0  0  0  0  0  0  0  0  0
 ITRead=  0  0  0  0  0  0  0  0  0  0  0  0  0
 MicOpt= -1 -1 -1 -1 -1 -1 -1 -1 -1 -1 -1 -1 -1 -1 -1 -1 -1 -1 -1 -1
 MicOpt= -1 -1 -1 -1 -1 -1 -1 -1 -1 -1 -1 -1 -1 -1 -1 -1 -1 -1 -1 -1
 MicOpt= -1 -1 -1 -1 -1 -1 -1 -1 -1 -1 -1 -1 -1
 NAtoms=     53 NQM=       53 NQMF=       0 NMMI=      0 NMMIF=      0
                NMic=       0 NMicF=      0.
                    Isotopes and Nuclear Properties:
 (Nuclear quadrupole moments (NQMom) in fm**2, nuclear magnetic moments (NMagM)
  in nuclear magnetons)

  Atom         1           2           3           4           5           6           7           8           9          10
 IAtWgt=          12          12          12          12          12          19          12          12          12          19
 AtmWgt=  12.0000000  12.0000000  12.0000000  12.0000000  12.0000000  18.9984033  12.0000000  12.0000000  12.0000000  18.9984033
 NucSpn=           0           0           0           0           0           1           0           0           0           1
 AtZEff=  -0.0000000  -0.0000000  -0.0000000  -0.0000000  -0.0000000  -0.0000000  -0.0000000  -0.0000000  -0.0000000  -0.0000000
 NQMom=    0.0000000   0.0000000   0.0000000   0.0000000   0.0000000   0.0000000   0.0000000   0.0000000   0.0000000   0.0000000
 NMagM=    0.0000000   0.0000000   0.0000000   0.0000000   0.0000000   2.6288670   0.0000000   0.0000000   0.0000000   2.6288670
 AtZNuc=   6.0000000   6.0000000   6.0000000   6.0000000   6.0000000   9.0000000   6.0000000   6.0000000   6.0000000   9.0000000

  Atom        11          12          13          14          15          16          17          18          19          20
 IAtWgt=          12          12          32          12          12          12          12          12          19          12
 AtmWgt=  12.0000000  12.0000000  31.9720718  12.0000000  12.0000000  12.0000000  12.0000000  12.0000000  18.9984033  12.0000000
 NucSpn=           0           0           0           0           0           0           0           0           1           0
 AtZEff=  -0.0000000  -0.0000000  -0.0000000  -0.0000000  -0.0000000  -0.0000000  -0.0000000  -0.0000000  -0.0000000  -0.0000000
 NQMom=    0.0000000   0.0000000   0.0000000   0.0000000   0.0000000   0.0000000   0.0000000   0.0000000   0.0000000   0.0000000
 NMagM=    0.0000000   0.0000000   0.0000000   0.0000000   0.0000000   0.0000000   0.0000000   0.0000000   2.6288670   0.0000000
 AtZNuc=   6.0000000   6.0000000  16.0000000   6.0000000   6.0000000   6.0000000   6.0000000   6.0000000   9.0000000   6.0000000

  Atom        21          22          23          24          25          26          27          28          29          30
 IAtWgt=          12          12          19          12          12          32          12          12          12          12
 AtmWgt=  12.0000000  12.0000000  18.9984033  12.0000000  12.0000000  31.9720718  12.0000000  12.0000000  12.0000000  12.0000000
 NucSpn=           0           0           1           0           0           0           0           0           0           0
 AtZEff=  -0.0000000  -0.0000000  -0.0000000  -0.0000000  -0.0000000  -0.0000000  -0.0000000  -0.0000000  -0.0000000  -0.0000000
 NQMom=    0.0000000   0.0000000   0.0000000   0.0000000   0.0000000   0.0000000   0.0000000   0.0000000   0.0000000   0.0000000
 NMagM=    0.0000000   0.0000000   2.6288670   0.0000000   0.0000000   0.0000000   0.0000000   0.0000000   0.0000000   0.0000000
 AtZNuc=   6.0000000   6.0000000   9.0000000   6.0000000   6.0000000  16.0000000   6.0000000   6.0000000   6.0000000   6.0000000

  Atom        31          32          33          34          35          36          37          38          39          40
 IAtWgt=          12          19          12          12          12          19          12          12          32           1
 AtmWgt=  12.0000000  18.9984033  12.0000000  12.0000000  12.0000000  18.9984033  12.0000000  12.0000000  31.9720718   1.0078250
 NucSpn=           0           1           0           0           0           1           0           0           0           1
 AtZEff=  -0.0000000  -0.0000000  -0.0000000  -0.0000000  -0.0000000  -0.0000000  -0.0000000  -0.0000000  -0.0000000  -0.0000000
 NQMom=    0.0000000   0.0000000   0.0000000   0.0000000   0.0000000   0.0000000   0.0000000   0.0000000   0.0000000   0.0000000
 NMagM=    0.0000000   2.6288670   0.0000000   0.0000000   0.0000000   2.6288670   0.0000000   0.0000000   0.0000000   2.7928460
 AtZNuc=   6.0000000   9.0000000   6.0000000   6.0000000   6.0000000   9.0000000   6.0000000   6.0000000  16.0000000   1.0000000

  Atom        41          42          43          44          45          46          47          48          49          50
 IAtWgt=           1           1           1           1           1           1           1           1           1           1
 AtmWgt=   1.0078250   1.0078250   1.0078250   1.0078250   1.0078250   1.0078250   1.0078250   1.0078250   1.0078250   1.0078250
 NucSpn=           1           1           1           1           1           1           1           1           1           1
 AtZEff=  -0.0000000  -0.0000000  -0.0000000  -0.0000000  -0.0000000  -0.0000000  -0.0000000  -0.0000000  -0.0000000  -0.0000000
 NQMom=    0.0000000   0.0000000   0.0000000   0.0000000   0.0000000   0.0000000   0.0000000   0.0000000   0.0000000   0.0000000
 NMagM=    2.7928460   2.7928460   2.7928460   2.7928460   2.7928460   2.7928460   2.7928460   2.7928460   2.7928460   2.7928460
 AtZNuc=   1.0000000   1.0000000   1.0000000   1.0000000   1.0000000   1.0000000   1.0000000   1.0000000   1.0000000   1.0000000

  Atom        51          52          53
 IAtWgt=           1           1           1
 AtmWgt=   1.0078250   1.0078250   1.0078250
 NucSpn=           1           1           1
 AtZEff=  -0.0000000  -0.0000000  -0.0000000
 NQMom=    0.0000000   0.0000000   0.0000000
 NMagM=    2.7928460   2.7928460   2.7928460
 AtZNuc=   1.0000000   1.0000000   1.0000000
 Leave Link  101 at Sat Jul 25 06:18:53 2020, MaxMem=  4026531840 cpu:               3.2 elap:               0.4
 (Enter /opt/ohpc/pub/libs/gaussian/g16-A.03/sandybridge/g16/l103.exe)

 GradGradGradGradGradGradGradGradGradGradGradGradGradGradGradGradGradGrad
 Berny optimization.
 Initialization pass.
                           ----------------------------
                           !    Initial Parameters    !
                           ! (Angstroms and Degrees)  !
 --------------------------                            --------------------------
 ! Name  Definition              Value          Derivative Info.                !
 --------------------------------------------------------------------------------
 ! R1    R(1,2)                  1.3894         estimate D2E/DX2                !
 ! R2    R(1,7)                  1.3693         estimate D2E/DX2                !
 ! R3    R(1,40)                 1.0982         estimate D2E/DX2                !
 ! R4    R(2,3)                  1.4171         estimate D2E/DX2                !
 ! R5    R(2,41)                 1.035          estimate D2E/DX2                !
 ! R6    R(3,4)                  1.3947         estimate D2E/DX2                !
 ! R7    R(3,42)                 1.0772         estimate D2E/DX2                !
 ! R8    R(4,5)                  1.4049         estimate D2E/DX2                !
 ! R9    R(4,8)                  1.3872         estimate D2E/DX2                !
 ! R10   R(5,6)                  1.337          estimate D2E/DX2                !
 ! R11   R(5,7)                  1.473          estimate D2E/DX2                !
 ! R12   R(7,43)                 1.1235         estimate D2E/DX2                !
 ! R13   R(8,9)                  1.394          estimate D2E/DX2                !
 ! R14   R(8,13)                 1.7296         estimate D2E/DX2                !
 ! R15   R(9,10)                 1.3647         estimate D2E/DX2                !
 ! R16   R(9,11)                 1.3979         estimate D2E/DX2                !
 ! R17   R(11,12)                1.4057         estimate D2E/DX2                !
 ! R18   R(11,44)                1.0331         estimate D2E/DX2                !
 ! R19   R(12,13)                1.7079         estimate D2E/DX2                !
 ! R20   R(12,14)                1.4469         estimate D2E/DX2                !
 ! R21   R(14,15)                1.4289         estimate D2E/DX2                !
 ! R22   R(14,20)                1.4418         estimate D2E/DX2                !
 ! R23   R(15,16)                1.4238         estimate D2E/DX2                !
 ! R24   R(15,45)                1.0483         estimate D2E/DX2                !
 ! R25   R(16,17)                1.4184         estimate D2E/DX2                !
 ! R26   R(16,46)                1.0513         estimate D2E/DX2                !
 ! R27   R(17,18)                1.3688         estimate D2E/DX2                !
 ! R28   R(17,21)                1.4954         estimate D2E/DX2                !
 ! R29   R(18,19)                1.3364         estimate D2E/DX2                !
 ! R30   R(18,20)                1.3699         estimate D2E/DX2                !
 ! R31   R(20,47)                1.0641         estimate D2E/DX2                !
 ! R32   R(21,22)                1.394          estimate D2E/DX2                !
 ! R33   R(21,26)                1.7122         estimate D2E/DX2                !
 ! R34   R(22,23)                1.3509         estimate D2E/DX2                !
 ! R35   R(22,24)                1.3841         estimate D2E/DX2                !
 ! R36   R(24,25)                1.3274         estimate D2E/DX2                !
 ! R37   R(24,48)                1.1079         estimate D2E/DX2                !
 ! R38   R(25,26)                1.6861         estimate D2E/DX2                !
 ! R39   R(25,27)                1.4668         estimate D2E/DX2                !
 ! R40   R(27,28)                1.4201         estimate D2E/DX2                !
 ! R41   R(27,33)                1.4706         estimate D2E/DX2                !
 ! R42   R(28,29)                1.4583         estimate D2E/DX2                !
 ! R43   R(28,49)                1.0653         estimate D2E/DX2                !
 ! R44   R(29,30)                1.3337         estimate D2E/DX2                !
 ! R45   R(29,50)                1.0867         estimate D2E/DX2                !
 ! R46   R(30,31)                1.3821         estimate D2E/DX2                !
 ! R47   R(30,34)                1.489          estimate D2E/DX2                !
 ! R48   R(31,32)                1.3703         estimate D2E/DX2                !
 ! R49   R(31,33)                1.3573         estimate D2E/DX2                !
 ! R50   R(33,51)                1.1204         estimate D2E/DX2                !
 ! R51   R(34,35)                1.3339         estimate D2E/DX2                !
 ! R52   R(34,39)                1.7835         estimate D2E/DX2                !
 ! R53   R(35,36)                1.2918         estimate D2E/DX2                !
 ! R54   R(35,37)                1.4927         estimate D2E/DX2                !
 ! R55   R(37,38)                1.3796         estimate D2E/DX2                !
 ! R56   R(37,52)                1.0813         estimate D2E/DX2                !
 ! R57   R(38,39)                1.7959         estimate D2E/DX2                !
 ! R58   R(38,53)                1.0609         estimate D2E/DX2                !
 ! A1    A(2,1,7)              123.0779         estimate D2E/DX2                !
 ! A2    A(2,1,40)             122.3218         estimate D2E/DX2                !
 ! A3    A(7,1,40)             114.5767         estimate D2E/DX2                !
 ! A4    A(1,2,3)              116.9133         estimate D2E/DX2                !
 ! A5    A(1,2,41)             122.587          estimate D2E/DX2                !
 ! A6    A(3,2,41)             120.0422         estimate D2E/DX2                !
 ! A7    A(2,3,4)              124.0557         estimate D2E/DX2                !
 ! A8    A(2,3,42)             113.9943         estimate D2E/DX2                !
 ! A9    A(4,3,42)             121.7503         estimate D2E/DX2                !
 ! A10   A(3,4,5)              117.2711         estimate D2E/DX2                !
 ! A11   A(3,4,8)              121.1094         estimate D2E/DX2                !
 ! A12   A(5,4,8)              121.3902         estimate D2E/DX2                !
 ! A13   A(4,5,6)              124.9685         estimate D2E/DX2                !
 ! A14   A(4,5,7)              120.0446         estimate D2E/DX2                !
 ! A15   A(6,5,7)              114.9865         estimate D2E/DX2                !
 ! A16   A(1,7,5)              118.4861         estimate D2E/DX2                !
 ! A17   A(1,7,43)             126.1392         estimate D2E/DX2                !
 ! A18   A(5,7,43)             115.3295         estimate D2E/DX2                !
 ! A19   A(4,8,9)              134.7863         estimate D2E/DX2                !
 ! A20   A(4,8,13)             119.1222         estimate D2E/DX2                !
 ! A21   A(9,8,13)             105.9998         estimate D2E/DX2                !
 ! A22   A(8,9,10)             117.3064         estimate D2E/DX2                !
 ! A23   A(8,9,11)             119.41           estimate D2E/DX2                !
 ! A24   A(10,9,11)            123.2791         estimate D2E/DX2                !
 ! A25   A(9,11,12)            107.7078         estimate D2E/DX2                !
 ! A26   A(9,11,44)            122.7343         estimate D2E/DX2                !
 ! A27   A(12,11,44)           129.2532         estimate D2E/DX2                !
 ! A28   A(11,12,13)           112.6161         estimate D2E/DX2                !
 ! A29   A(11,12,14)           125.0092         estimate D2E/DX2                !
 ! A30   A(13,12,14)           122.0969         estimate D2E/DX2                !
 ! A31   A(8,13,12)             94.0461         estimate D2E/DX2                !
 ! A32   A(12,14,15)           122.7017         estimate D2E/DX2                !
 ! A33   A(12,14,20)           122.6209         estimate D2E/DX2                !
 ! A34   A(15,14,20)           114.6509         estimate D2E/DX2                !
 ! A35   A(14,15,16)           122.4041         estimate D2E/DX2                !
 ! A36   A(14,15,45)           121.0643         estimate D2E/DX2                !
 ! A37   A(16,15,45)           116.2753         estimate D2E/DX2                !
 ! A38   A(15,16,17)           116.7812         estimate D2E/DX2                !
 ! A39   A(15,16,46)           121.6947         estimate D2E/DX2                !
 ! A40   A(17,16,46)           120.8861         estimate D2E/DX2                !
 ! A41   A(16,17,18)           122.7548         estimate D2E/DX2                !
 ! A42   A(16,17,21)           114.9846         estimate D2E/DX2                !
 ! A43   A(18,17,21)           121.6221         estimate D2E/DX2                !
 ! A44   A(17,18,19)           124.7628         estimate D2E/DX2                !
 ! A45   A(17,18,20)           118.4745         estimate D2E/DX2                !
 ! A46   A(19,18,20)           116.4157         estimate D2E/DX2                !
 ! A47   A(14,20,18)           124.1277         estimate D2E/DX2                !
 ! A48   A(14,20,47)           115.4362         estimate D2E/DX2                !
 ! A49   A(18,20,47)           120.2476         estimate D2E/DX2                !
 ! A50   A(17,21,22)           133.9968         estimate D2E/DX2                !
 ! A51   A(17,21,26)           117.5593         estimate D2E/DX2                !
 ! A52   A(22,21,26)           108.3564         estimate D2E/DX2                !
 ! A53   A(21,22,23)           120.5893         estimate D2E/DX2                !
 ! A54   A(21,22,24)           112.7339         estimate D2E/DX2                !
 ! A55   A(23,22,24)           126.6083         estimate D2E/DX2                !
 ! A56   A(22,24,25)           114.3997         estimate D2E/DX2                !
 ! A57   A(22,24,48)           121.8856         estimate D2E/DX2                !
 ! A58   A(25,24,48)           123.6936         estimate D2E/DX2                !
 ! A59   A(24,25,26)           111.0827         estimate D2E/DX2                !
 ! A60   A(24,25,27)           128.0071         estimate D2E/DX2                !
 ! A61   A(26,25,27)           120.8276         estimate D2E/DX2                !
 ! A62   A(21,26,25)            93.3541         estimate D2E/DX2                !
 ! A63   A(25,27,28)           121.7172         estimate D2E/DX2                !
 ! A64   A(25,27,33)           122.3022         estimate D2E/DX2                !
 ! A65   A(28,27,33)           115.8243         estimate D2E/DX2                !
 ! A66   A(27,28,29)           119.4633         estimate D2E/DX2                !
 ! A67   A(27,28,49)           118.347          estimate D2E/DX2                !
 ! A68   A(29,28,49)           122.1594         estimate D2E/DX2                !
 ! A69   A(28,29,30)           121.4097         estimate D2E/DX2                !
 ! A70   A(28,29,50)           114.508          estimate D2E/DX2                !
 ! A71   A(30,29,50)           124.0794         estimate D2E/DX2                !
 ! A72   A(29,30,31)           119.8705         estimate D2E/DX2                !
 ! A73   A(29,30,34)           122.5607         estimate D2E/DX2                !
 ! A74   A(31,30,34)           117.5688         estimate D2E/DX2                !
 ! A75   A(30,31,32)           120.4397         estimate D2E/DX2                !
 ! A76   A(30,31,33)           122.6026         estimate D2E/DX2                !
 ! A77   A(32,31,33)           116.4865         estimate D2E/DX2                !
 ! A78   A(27,33,31)           120.4386         estimate D2E/DX2                !
 ! A79   A(27,33,51)           114.652          estimate D2E/DX2                !
 ! A80   A(31,33,51)           124.3927         estimate D2E/DX2                !
 ! A81   A(30,34,35)           131.5862         estimate D2E/DX2                !
 ! A82   A(30,34,39)           116.3461         estimate D2E/DX2                !
 ! A83   A(35,34,39)           112.0476         estimate D2E/DX2                !
 ! A84   A(34,35,36)           124.3698         estimate D2E/DX2                !
 ! A85   A(34,35,37)           114.8202         estimate D2E/DX2                !
 ! A86   A(36,35,37)           120.4129         estimate D2E/DX2                !
 ! A87   A(35,37,38)           110.4629         estimate D2E/DX2                !
 ! A88   A(35,37,52)           125.5364         estimate D2E/DX2                !
 ! A89   A(38,37,52)           123.9091         estimate D2E/DX2                !
 ! A90   A(37,38,39)           112.3346         estimate D2E/DX2                !
 ! A91   A(37,38,53)           128.9759         estimate D2E/DX2                !
 ! A92   A(39,38,53)           118.3398         estimate D2E/DX2                !
 ! A93   A(34,39,38)            90.2637         estimate D2E/DX2                !
 ! D1    D(7,1,2,3)              4.0321         estimate D2E/DX2                !
 ! D2    D(7,1,2,41)           176.2639         estimate D2E/DX2                !
 ! D3    D(40,1,2,3)          -174.104          estimate D2E/DX2                !
 ! D4    D(40,1,2,41)           -1.8722         estimate D2E/DX2                !
 ! D5    D(2,1,7,5)             -1.2112         estimate D2E/DX2                !
 ! D6    D(2,1,7,43)          -178.6422         estimate D2E/DX2                !
 ! D7    D(40,1,7,5)           177.0569         estimate D2E/DX2                !
 ! D8    D(40,1,7,43)           -0.3741         estimate D2E/DX2                !
 ! D9    D(1,2,3,4)             -4.3262         estimate D2E/DX2                !
 ! D10   D(1,2,3,42)          -179.257          estimate D2E/DX2                !
 ! D11   D(41,2,3,4)          -176.7663         estimate D2E/DX2                !
 ! D12   D(41,2,3,42)            8.3028         estimate D2E/DX2                !
 ! D13   D(2,3,4,5)              1.6419         estimate D2E/DX2                !
 ! D14   D(2,3,4,8)           -172.9293         estimate D2E/DX2                !
 ! D15   D(42,3,4,5)           176.1947         estimate D2E/DX2                !
 ! D16   D(42,3,4,8)             1.6235         estimate D2E/DX2                !
 ! D17   D(3,4,5,6)           -178.366          estimate D2E/DX2                !
 ! D18   D(3,4,5,7)              1.3961         estimate D2E/DX2                !
 ! D19   D(8,4,5,6)             -3.811          estimate D2E/DX2                !
 ! D20   D(8,4,5,7)            175.9511         estimate D2E/DX2                !
 ! D21   D(3,4,8,9)             44.0779         estimate D2E/DX2                !
 ! D22   D(3,4,8,13)          -131.886          estimate D2E/DX2                !
 ! D23   D(5,4,8,9)           -130.2687         estimate D2E/DX2                !
 ! D24   D(5,4,8,13)            53.7674         estimate D2E/DX2                !
 ! D25   D(4,5,7,1)             -1.6428         estimate D2E/DX2                !
 ! D26   D(4,5,7,43)           176.0619         estimate D2E/DX2                !
 ! D27   D(6,5,7,1)            178.1421         estimate D2E/DX2                !
 ! D28   D(6,5,7,43)            -4.1531         estimate D2E/DX2                !
 ! D29   D(4,8,9,10)             4.6275         estimate D2E/DX2                !
 ! D30   D(4,8,9,11)          -174.6249         estimate D2E/DX2                !
 ! D31   D(13,8,9,10)         -179.0399         estimate D2E/DX2                !
 ! D32   D(13,8,9,11)            1.7077         estimate D2E/DX2                !
 ! D33   D(4,8,13,12)          178.1919         estimate D2E/DX2                !
 ! D34   D(9,8,13,12)            1.1708         estimate D2E/DX2                !
 ! D35   D(8,9,11,12)           -4.3593         estimate D2E/DX2                !
 ! D36   D(8,9,11,44)         -178.5549         estimate D2E/DX2                !
 ! D37   D(10,9,11,12)         176.4354         estimate D2E/DX2                !
 ! D38   D(10,9,11,44)           2.2397         estimate D2E/DX2                !
 ! D39   D(9,11,12,13)           4.967          estimate D2E/DX2                !
 ! D40   D(9,11,12,14)         178.9972         estimate D2E/DX2                !
 ! D41   D(44,11,12,13)        178.6597         estimate D2E/DX2                !
 ! D42   D(44,11,12,14)         -7.3101         estimate D2E/DX2                !
 ! D43   D(11,12,13,8)          -3.7118         estimate D2E/DX2                !
 ! D44   D(14,12,13,8)        -177.9405         estimate D2E/DX2                !
 ! D45   D(11,12,14,15)        -43.0491         estimate D2E/DX2                !
 ! D46   D(11,12,14,20)        134.976          estimate D2E/DX2                !
 ! D47   D(13,12,14,15)        130.4435         estimate D2E/DX2                !
 ! D48   D(13,12,14,20)        -51.5313         estimate D2E/DX2                !
 ! D49   D(12,14,15,16)        174.6953         estimate D2E/DX2                !
 ! D50   D(12,14,15,45)          0.7296         estimate D2E/DX2                !
 ! D51   D(20,14,15,16)         -3.4746         estimate D2E/DX2                !
 ! D52   D(20,14,15,45)       -177.4404         estimate D2E/DX2                !
 ! D53   D(12,14,20,18)       -175.7268         estimate D2E/DX2                !
 ! D54   D(12,14,20,47)         -0.7217         estimate D2E/DX2                !
 ! D55   D(15,14,20,18)          2.4448         estimate D2E/DX2                !
 ! D56   D(15,14,20,47)        177.4499         estimate D2E/DX2                !
 ! D57   D(14,15,16,17)          7.24           estimate D2E/DX2                !
 ! D58   D(14,15,16,46)        178.1569         estimate D2E/DX2                !
 ! D59   D(45,15,16,17)       -178.5236         estimate D2E/DX2                !
 ! D60   D(45,15,16,46)         -7.6066         estimate D2E/DX2                !
 ! D61   D(15,16,17,18)        -10.3467         estimate D2E/DX2                !
 ! D62   D(15,16,17,21)        178.6879         estimate D2E/DX2                !
 ! D63   D(46,16,17,18)        178.6581         estimate D2E/DX2                !
 ! D64   D(46,16,17,21)          7.6927         estimate D2E/DX2                !
 ! D65   D(16,17,18,19)       -177.5354         estimate D2E/DX2                !
 ! D66   D(16,17,18,20)          9.4866         estimate D2E/DX2                !
 ! D67   D(21,17,18,19)         -7.1578         estimate D2E/DX2                !
 ! D68   D(21,17,18,20)        179.8642         estimate D2E/DX2                !
 ! D69   D(16,17,21,22)         43.6015         estimate D2E/DX2                !
 ! D70   D(16,17,21,26)       -132.5371         estimate D2E/DX2                !
 ! D71   D(18,17,21,22)       -127.4766         estimate D2E/DX2                !
 ! D72   D(18,17,21,26)         56.3848         estimate D2E/DX2                !
 ! D73   D(17,18,20,14)         -5.3946         estimate D2E/DX2                !
 ! D74   D(17,18,20,47)        179.8277         estimate D2E/DX2                !
 ! D75   D(19,18,20,14)       -178.9559         estimate D2E/DX2                !
 ! D76   D(19,18,20,47)          6.2664         estimate D2E/DX2                !
 ! D77   D(17,21,22,23)         -0.9773         estimate D2E/DX2                !
 ! D78   D(17,21,22,24)       -178.1621         estimate D2E/DX2                !
 ! D79   D(26,21,22,23)        175.4163         estimate D2E/DX2                !
 ! D80   D(26,21,22,24)         -1.7685         estimate D2E/DX2                !
 ! D81   D(17,21,26,25)        179.4629         estimate D2E/DX2                !
 ! D82   D(22,21,26,25)          2.3887         estimate D2E/DX2                !
 ! D83   D(21,22,24,25)         -0.0347         estimate D2E/DX2                !
 ! D84   D(21,22,24,48)        178.3512         estimate D2E/DX2                !
 ! D85   D(23,22,24,25)       -177.0155         estimate D2E/DX2                !
 ! D86   D(23,22,24,48)          1.3704         estimate D2E/DX2                !
 ! D87   D(22,24,25,26)          1.8801         estimate D2E/DX2                !
 ! D88   D(22,24,25,27)        178.5561         estimate D2E/DX2                !
 ! D89   D(48,24,25,26)       -176.4727         estimate D2E/DX2                !
 ! D90   D(48,24,25,27)          0.2033         estimate D2E/DX2                !
 ! D91   D(24,25,26,21)         -2.4844         estimate D2E/DX2                !
 ! D92   D(27,25,26,21)       -179.4346         estimate D2E/DX2                !
 ! D93   D(24,25,27,28)        133.8551         estimate D2E/DX2                !
 ! D94   D(24,25,27,33)        -41.4106         estimate D2E/DX2                !
 ! D95   D(26,25,27,28)        -49.7571         estimate D2E/DX2                !
 ! D96   D(26,25,27,33)        134.9773         estimate D2E/DX2                !
 ! D97   D(25,27,28,29)       -178.2711         estimate D2E/DX2                !
 ! D98   D(25,27,28,49)          3.6893         estimate D2E/DX2                !
 ! D99   D(33,27,28,29)         -2.7161         estimate D2E/DX2                !
 ! D100  D(33,27,28,49)        179.2443         estimate D2E/DX2                !
 ! D101  D(25,27,33,31)       -177.9063         estimate D2E/DX2                !
 ! D102  D(25,27,33,51)         -5.797          estimate D2E/DX2                !
 ! D103  D(28,27,33,31)          6.5673         estimate D2E/DX2                !
 ! D104  D(28,27,33,51)        178.6766         estimate D2E/DX2                !
 ! D105  D(27,28,29,30)         -0.1849         estimate D2E/DX2                !
 ! D106  D(27,28,29,50)       -179.5938         estimate D2E/DX2                !
 ! D107  D(49,28,29,30)        177.777          estimate D2E/DX2                !
 ! D108  D(49,28,29,50)         -1.6319         estimate D2E/DX2                !
 ! D109  D(28,29,30,31)         -0.4803         estimate D2E/DX2                !
 ! D110  D(28,29,30,34)        179.5475         estimate D2E/DX2                !
 ! D111  D(50,29,30,31)        178.8702         estimate D2E/DX2                !
 ! D112  D(50,29,30,34)         -1.1019         estimate D2E/DX2                !
 ! D113  D(29,30,31,32)        176.3958         estimate D2E/DX2                !
 ! D114  D(29,30,31,33)          4.5518         estimate D2E/DX2                !
 ! D115  D(34,30,31,32)         -3.6307         estimate D2E/DX2                !
 ! D116  D(34,30,31,33)       -175.4747         estimate D2E/DX2                !
 ! D117  D(29,30,34,35)       -126.4601         estimate D2E/DX2                !
 ! D118  D(29,30,34,39)         51.7546         estimate D2E/DX2                !
 ! D119  D(31,30,34,35)         53.5672         estimate D2E/DX2                !
 ! D120  D(31,30,34,39)       -128.2181         estimate D2E/DX2                !
 ! D121  D(30,31,33,27)         -7.7049         estimate D2E/DX2                !
 ! D122  D(30,31,33,51)       -179.0082         estimate D2E/DX2                !
 ! D123  D(32,31,33,27)       -179.8505         estimate D2E/DX2                !
 ! D124  D(32,31,33,51)          8.8462         estimate D2E/DX2                !
 ! D125  D(30,34,35,36)         -6.009          estimate D2E/DX2                !
 ! D126  D(30,34,35,37)       -178.7743         estimate D2E/DX2                !
 ! D127  D(39,34,35,36)        175.7171         estimate D2E/DX2                !
 ! D128  D(39,34,35,37)          2.9518         estimate D2E/DX2                !
 ! D129  D(30,34,39,38)        179.4282         estimate D2E/DX2                !
 ! D130  D(35,34,39,38)         -2.0124         estimate D2E/DX2                !
 ! D131  D(34,35,37,38)         -2.5378         estimate D2E/DX2                !
 ! D132  D(34,35,37,52)       -179.1589         estimate D2E/DX2                !
 ! D133  D(36,35,37,38)       -175.615          estimate D2E/DX2                !
 ! D134  D(36,35,37,52)          7.7639         estimate D2E/DX2                !
 ! D135  D(35,37,38,39)          0.9022         estimate D2E/DX2                !
 ! D136  D(35,37,38,53)       -172.0962         estimate D2E/DX2                !
 ! D137  D(52,37,38,39)        177.5893         estimate D2E/DX2                !
 ! D138  D(52,37,38,53)          4.5908         estimate D2E/DX2                !
 ! D139  D(37,38,39,34)          0.5353         estimate D2E/DX2                !
 ! D140  D(53,38,39,34)        174.3545         estimate D2E/DX2                !
 --------------------------------------------------------------------------------
 Trust Radius=3.00D-01 FncErr=1.00D-07 GrdErr=1.00D-06 EigMax=2.50D+02 EigMin=1.00D-04
 Number of steps in this run=    301 maximum allowed number of steps=    318.
 GradGradGradGradGradGradGradGradGradGradGradGradGradGradGradGradGradGrad

 Leave Link  103 at Sat Jul 25 06:18:53 2020, MaxMem=  4026531840 cpu:               0.1 elap:               0.0
 (Enter /opt/ohpc/pub/libs/gaussian/g16-A.03/sandybridge/g16/l202.exe)
 Stoichiometry    C30H14F6S3
 Framework group  C1[X(C30H14F6S3)]
 Deg. of freedom   153
 Full point group                 C1      NOp   1
 Largest Abelian subgroup         C1      NOp   1
 Largest concise Abelian subgroup C1      NOp   1
                         Standard orientation:                         
 ---------------------------------------------------------------------
 Center     Atomic      Atomic             Coordinates (Angstroms)
 Number     Number       Type             X           Y           Z
 ---------------------------------------------------------------------
      1          6           0      -10.719407   -2.548393   -0.672962
      2          6           0      -10.616112   -1.393729   -1.438766
      3          6           0       -9.426494   -0.636213   -1.299922
      4          6           0       -8.412676   -0.934017   -0.389540
      5          6           0       -8.580243   -2.077553    0.409215
      6          9           0       -7.723110   -2.487542    1.349801
      7          6           0       -9.774721   -2.923685    0.244463
      8          6           0       -7.341809   -0.072357   -0.202153
      9          6           0       -7.205134    1.307457   -0.057974
     10          9           0       -8.350370    2.047597   -0.002259
     11          6           0       -5.925953    1.867565    0.006293
     12          6           0       -4.996729    0.812830    0.003265
     13         16           0       -5.734942   -0.712212   -0.211364
     14          6           0       -3.559109    0.972942    0.038760
     15          6           0       -2.871544    1.949848   -0.745297
     16          6           0       -1.471128    2.177064   -0.624714
     17          6           0       -0.746738    1.279381    0.200752
     18          6           0       -1.358176    0.369086    1.019961
     19          9           0       -0.717726   -0.462045    1.847629
     20          6           0       -2.710552    0.186882    0.899411
     21          6           0        0.724609    1.536343    0.274372
     22          6           0        1.501018    2.685560    0.414497
     23          9           0        0.919593    3.902162    0.497165
     24          6           0        2.859167    2.419677    0.391019
     25          6           0        3.164200    1.136457    0.242106
     26         16           0        1.773586    0.198248    0.072070
     27          6           0        4.496335    0.529661    0.149133
     28          6           0        4.840910   -0.632088    0.889697
     29          6           0        6.191708   -1.172423    0.789091
     30          6           0        7.112876   -0.600858    0.012231
     31          6           0        6.790188    0.522291   -0.725829
     32          9           0        7.746287    1.162086   -1.470301
     33          6           0        5.584295    1.138079   -0.631085
     34          6           0        8.501945   -1.124931   -0.102055
     35          6           0        9.687110   -0.534931    0.061358
     36          9           0        9.849900    0.730011    0.266541
     37          6           0       10.865577   -1.419716   -0.176224
     38          6           0       10.453695   -2.703904   -0.467109
     39         16           0        8.664585   -2.859240   -0.484964
     40          1           0      -11.557088   -3.250586   -0.779373
     41          1           0      -11.305776   -1.146053   -2.169670
     42          1           0       -9.401438    0.254756   -1.904778
     43          1           0       -9.795275   -3.854022    0.873974
     44          1           0       -5.765206    2.880033    0.134407
     45          1           0       -3.395072    2.603263   -1.376080
     46          1           0       -0.971521    2.878815   -1.227321
     47          1           0       -3.214199   -0.515494    1.520065
     48          1           0        3.614787    3.226624    0.463380
     49          1           0        4.086072   -1.098540    1.479117
     50          1           0        6.365392   -2.065498    1.383341
     51          1           0        5.285434    2.039350   -1.225852
     52          1           0       11.901732   -1.125694   -0.080276
     53          1           0       11.036687   -3.584045   -0.571937
 ---------------------------------------------------------------------
 Rotational constants (GHZ):           0.2465200           0.0188951           0.0179284
 Leave Link  202 at Sat Jul 25 06:18:53 2020, MaxMem=  4026531840 cpu:               0.1 elap:               0.0
 (Enter /opt/ohpc/pub/libs/gaussian/g16-A.03/sandybridge/g16/l301.exe)
 Standard basis: CC-pVDZ (5D, 7F)
 Ernie: Thresh=  0.10000D-02 Tol=  0.10000D-05 Strict=F.
 Ernie:  102 primitive shells out of 1012 were deleted.
 There are   667 symmetry adapted cartesian basis functions of A   symmetry.
 There are   628 symmetry adapted basis functions of A   symmetry.
   628 basis functions,  1499 primitive gaussians,   667 cartesian basis functions
   148 alpha electrons      148 beta electrons
       nuclear repulsion energy      4227.2966796574 Hartrees.
 IExCor=32609 DFT=T Ex+Corr=LC-wPBE ExCW=0 ScaHFX=  1.000000
 ScaDFX=  1.000000  0.000000  1.000000  1.000000 ScalE2=  1.000000  1.000000
 IRadAn=      5 IRanWt=     -1 IRanGd=            0 ICorTp=0 IEmpDi=  4
 HFx  wShort=  0.000000 wLong=  0.356000 cFull=  0.000000 cShort=  0.000000 cLong=  1.000000
 DFx  wShort=  0.000000 wLong=  0.356000 cFull=  0.000000 cShort=  0.000000 cLong=  1.000000
 NAtoms=   53 NActive=   53 NUniq=   53 SFac= 1.00D+00 NAtFMM=   60 NAOKFM=F Big=F
 Integral buffers will be    131072 words long.
 Raffenetti 2 integral format.
 Two-electron integral symmetry is turned on.
 Leave Link  301 at Sat Jul 25 06:18:53 2020, MaxMem=  4026531840 cpu:               0.5 elap:               0.1
 (Enter /opt/ohpc/pub/libs/gaussian/g16-A.03/sandybridge/g16/l302.exe)
 NPDir=0 NMtPBC=     1 NCelOv=     1 NCel=       1 NClECP=     1 NCelD=      1
         NCelK=      1 NCelE2=     1 NClLst=     1 CellRange=     0.0.
 One-electron integrals computed using PRISM.
 One-electron integral symmetry used in STVInt
 NBasis=   628 RedAO= T EigKep=  3.26D-04  NBF=   628
 NBsUse=   628 1.00D-06 EigRej= -1.00D+00 NBFU=   628
 Precomputing XC quadrature grid using
 IXCGrd= 4 IRadAn=           5 IRanWt=          -1 IRanGd=           0 AccXCQ= 0.00D+00.
 Generated NRdTot=       0 NPtTot=           0 NUsed=           0 NTot=          32
 NSgBfM=   569   569   569   569   569 MxSgAt=    53 MxSgA2=    53.
 Leave Link  302 at Sat Jul 25 06:18:55 2020, MaxMem=  4026531840 cpu:              13.7 elap:               1.8
 (Enter /opt/ohpc/pub/libs/gaussian/g16-A.03/sandybridge/g16/l303.exe)
 DipDrv:  MaxL=1.
 Leave Link  303 at Sat Jul 25 06:18:55 2020, MaxMem=  4026531840 cpu:               1.0 elap:               0.2
 (Enter /opt/ohpc/pub/libs/gaussian/g16-A.03/sandybridge/g16/l401.exe)
 ExpMin= 1.22D-01 ExpMax= 1.11D+05 ExpMxC= 1.07D+03 IAcc=3 IRadAn=         5 AccDes= 0.00D+00
 Harris functional with IExCor=32609 and IRadAn=       5 diagonalized for initial guess.
 HarFok:  IExCor=32609 AccDes= 0.00D+00 IRadAn=         5 IDoV= 1 UseB2=F ITyADJ=14
 ICtDFT=  3500011 ScaDFX=  1.000000  1.000000  1.000000  1.000000
 FoFCou: FMM=F IPFlag=           0 FMFlag=      100000 FMFlg1=           0
         NFxFlg=           0 DoJE=T BraDBF=F KetDBF=T FulRan=T
         wScrn=  0.000000 ICntrl=       500 IOpCl=  0 I1Cent=   200000004 NGrid=           0
         NMat0=    1 NMatS0=      1 NMatT0=    0 NMatD0=    1 NMtDS0=    0 NMtDT0=    0
 Petite list used in FoFCou.
 Harris En= -2943.26563848947    
 JPrj=0 DoOrth=F DoCkMO=F.
 Initial guess <Sx>= 0.0000 <Sy>= 0.0000 <Sz>= 0.0000 <S**2>= 0.0000 S= 0.0000
 Leave Link  401 at Sat Jul 25 06:19:02 2020, MaxMem=  4026531840 cpu:              61.2 elap:               7.7
 (Enter /opt/ohpc/pub/libs/gaussian/g16-A.03/sandybridge/g16/l502.exe)
 Integral symmetry usage will be decided dynamically.
 UHF open shell SCF:
 Using DIIS extrapolation, IDIIS=  1040.
 NGot=  4026531840 LenX=  4025630105 LenY=  4025184549
 Requested convergence on RMS density matrix=1.00D-08 within 128 cycles.
 Requested convergence on MAX density matrix=1.00D-06.
 Requested convergence on             energy=1.00D-06.
 No special actions if energy rises.
 Fock matrices will be formed incrementally for  20 cycles.
 Integral accuracy reduced to 1.0D-05 until final iterations.

 Cycle   1  Pass 0  IDiag  1:
 FoFJK:  IHMeth= 1 ICntrl=       0 DoSepK=T KAlg= 0 I1Cent=           0 FoldK=F
 IRaf=         1 NMat=       1 IRICut=       1 DoRegI=T DoRafI=F ISym2E= 0 IDoP0=0 IntGTp=1.
 FoFCou: FMM=F IPFlag=           0 FMFlag=      100000 FMFlg1=           0
         NFxFlg=           0 DoJE=T BraDBF=F KetDBF=F FulRan=T
         wScrn=  0.000000 ICntrl=       500 IOpCl=  0 I1Cent=           0 NGrid=           0
         NMat0=    1 NMatS0=      1 NMatT0=    0 NMatD0=    1 NMtDS0=    0 NMtDT0=    0
 Symmetry not used in FoFCou.
 E= -2942.89973753143    
 DIIS: error= 1.46D-02 at cycle   1 NSaved=   1.
 NSaved= 1 IEnMin= 1 EnMin= -2942.89973753143     IErMin= 1 ErrMin= 1.46D-02
 ErrMax= 1.46D-02  0.00D+00 EMaxC= 1.00D-01 BMatC= 2.56D+00 BMatP= 2.56D+00
 IDIUse=3 WtCom= 8.54D-01 WtEn= 1.46D-01
 Coeff-Com:  0.100D+01
 Coeff-En:   0.100D+01
 Coeff:      0.100D+01
 Gap=     0.397 Goal=   None    Shift=    0.000
 Gap=     0.397 Goal=   None    Shift=    0.000
 GapD=    0.397 DampG=1.000 DampE=0.500 DampFc=0.5000 IDamp=-1.
 Damping current iteration by 5.00D-01
 RMSDP=2.70D-03 MaxDP=1.45D-01              OVMax= 1.80D-01

 Cycle   2  Pass 0  IDiag  1:
 RMSU=  1.34D-03    CP:  9.90D-01
 E= -2943.27571389772     Delta-E=       -0.375976366293 Rises=F Damp=T
 DIIS: error= 4.72D-03 at cycle   2 NSaved=   2.
 NSaved= 2 IEnMin= 2 EnMin= -2943.27571389772     IErMin= 2 ErrMin= 4.72D-03
 ErrMax= 4.72D-03  0.00D+00 EMaxC= 1.00D-01 BMatC= 1.34D-01 BMatP= 2.56D+00
 IDIUse=3 WtCom= 9.53D-01 WtEn= 4.72D-02
 Coeff-Com: -0.856D-01 0.109D+01
 Coeff-En:   0.000D+00 0.100D+01
 Coeff:     -0.816D-01 0.108D+01
 Gap=     0.307 Goal=   None    Shift=    0.000
 Gap=     0.307 Goal=   None    Shift=    0.000
 RMSDP=8.58D-04 MaxDP=2.67D-02 DE=-3.76D-01 OVMax= 1.10D-01

 Cycle   3  Pass 0  IDiag  1:
 RMSU=  7.98D-04    CP:  9.84D-01  1.22D+00
 E= -2943.62453703453     Delta-E=       -0.348823136806 Rises=F Damp=F
 DIIS: error= 2.33D-03 at cycle   3 NSaved=   3.
 NSaved= 3 IEnMin= 3 EnMin= -2943.62453703453     IErMin= 3 ErrMin= 2.33D-03
 ErrMax= 2.33D-03  0.00D+00 EMaxC= 1.00D-01 BMatC= 3.33D-02 BMatP= 1.34D-01
 IDIUse=3 WtCom= 9.77D-01 WtEn= 2.33D-02
 Coeff-Com: -0.480D-01 0.337D+00 0.711D+00
 Coeff-En:   0.000D+00 0.000D+00 0.100D+01
 Coeff:     -0.469D-01 0.330D+00 0.717D+00
 Gap=     0.297 Goal=   None    Shift=    0.000
 Gap=     0.297 Goal=   None    Shift=    0.000
 RMSDP=2.25D-04 MaxDP=1.09D-02 DE=-3.49D-01 OVMax= 3.03D-02

 Cycle   4  Pass 0  IDiag  1:
 RMSU=  2.01D-04    CP:  9.84D-01  1.27D+00  8.98D-01
 E= -2943.63289953346     Delta-E=       -0.008362498936 Rises=F Damp=F
 DIIS: error= 9.73D-04 at cycle   4 NSaved=   4.
 NSaved= 4 IEnMin= 4 EnMin= -2943.63289953346     IErMin= 4 ErrMin= 9.73D-04
 ErrMax= 9.73D-04  0.00D+00 EMaxC= 1.00D-01 BMatC= 7.23D-03 BMatP= 3.33D-02
 IDIUse=3 WtCom= 9.90D-01 WtEn= 9.73D-03
 Coeff-Com: -0.223D-02 0.653D-02 0.300D+00 0.696D+00
 Coeff-En:   0.000D+00 0.000D+00 0.000D+00 0.100D+01
 Coeff:     -0.220D-02 0.647D-02 0.297D+00 0.698D+00
 Gap=     0.298 Goal=   None    Shift=    0.000
 Gap=     0.298 Goal=   None    Shift=    0.000
 RMSDP=9.45D-05 MaxDP=5.12D-03 DE=-8.36D-03 OVMax= 1.18D-02

 Cycle   5  Pass 0  IDiag  1:
 RMSU=  7.08D-05    CP:  9.84D-01  1.27D+00  9.70D-01  8.84D-01
 E= -2943.63513041346     Delta-E=       -0.002230880000 Rises=F Damp=F
 DIIS: error= 2.68D-04 at cycle   5 NSaved=   5.
 NSaved= 5 IEnMin= 5 EnMin= -2943.63513041346     IErMin= 5 ErrMin= 2.68D-04
 ErrMax= 2.68D-04  0.00D+00 EMaxC= 1.00D-01 BMatC= 7.47D-04 BMatP= 7.23D-03
 IDIUse=3 WtCom= 9.97D-01 WtEn= 2.68D-03
 Coeff-Com:  0.758D-02-0.402D-01 0.280D-01 0.238D+00 0.766D+00
 Coeff-En:   0.000D+00 0.000D+00 0.000D+00 0.000D+00 0.100D+01
 Coeff:      0.756D-02-0.401D-01 0.279D-01 0.238D+00 0.767D+00
 Gap=     0.300 Goal=   None    Shift=    0.000
 Gap=     0.300 Goal=   None    Shift=    0.000
 RMSDP=4.23D-05 MaxDP=2.24D-03 DE=-2.23D-03 OVMax= 5.03D-03

 Cycle   6  Pass 0  IDiag  1:
 RMSU=  3.19D-05    CP:  9.84D-01  1.27D+00  9.94D-01  9.83D-01  1.07D+00
 E= -2943.63548219498     Delta-E=       -0.000351781514 Rises=F Damp=F
 DIIS: error= 1.50D-04 at cycle   6 NSaved=   6.
 NSaved= 6 IEnMin= 6 EnMin= -2943.63548219498     IErMin= 6 ErrMin= 1.50D-04
 ErrMax= 1.50D-04  0.00D+00 EMaxC= 1.00D-01 BMatC= 1.78D-04 BMatP= 7.47D-04
 IDIUse=3 WtCom= 9.99D-01 WtEn= 1.50D-03
 Coeff-Com:  0.489D-02-0.207D-01-0.447D-01-0.379D-01 0.305D+00 0.794D+00
 Coeff-En:   0.000D+00 0.000D+00 0.000D+00 0.000D+00 0.000D+00 0.100D+01
 Coeff:      0.488D-02-0.206D-01-0.446D-01-0.378D-01 0.304D+00 0.794D+00
 Gap=     0.301 Goal=   None    Shift=    0.000
 Gap=     0.301 Goal=   None    Shift=    0.000
 RMSDP=2.41D-05 MaxDP=1.42D-03 DE=-3.52D-04 OVMax= 3.65D-03

 Cycle   7  Pass 0  IDiag  1:
 RMSU=  1.39D-05    CP:  9.84D-01  1.27D+00  1.00D+00  1.03D+00  1.29D+00
                    CP:  1.07D+00
 E= -2943.63559455170     Delta-E=       -0.000112356721 Rises=F Damp=F
 DIIS: error= 9.45D-05 at cycle   7 NSaved=   7.
 NSaved= 7 IEnMin= 7 EnMin= -2943.63559455170     IErMin= 7 ErrMin= 9.45D-05
 ErrMax= 9.45D-05  0.00D+00 EMaxC= 1.00D-01 BMatC= 3.24D-05 BMatP= 1.78D-04
 IDIUse=1 WtCom= 1.00D+00 WtEn= 0.00D+00
 Coeff-Com:  0.363D-03 0.787D-03-0.167D-01-0.590D-01-0.821D-01 0.259D+00
 Coeff-Com:  0.898D+00
 Coeff:      0.363D-03 0.787D-03-0.167D-01-0.590D-01-0.821D-01 0.259D+00
 Coeff:      0.898D+00
 Gap=     0.301 Goal=   None    Shift=    0.000
 Gap=     0.301 Goal=   None    Shift=    0.000
 RMSDP=1.37D-05 MaxDP=7.78D-04 DE=-1.12D-04 OVMax= 1.96D-03

 Cycle   8  Pass 0  IDiag  1:
 RMSU=  6.02D-06    CP:  9.84D-01  1.26D+00  1.01D+00  1.05D+00  1.38D+00
                    CP:  1.36D+00  1.20D+00
 E= -2943.63562040136     Delta-E=       -0.000025849658 Rises=F Damp=F
 DIIS: error= 2.32D-05 at cycle   8 NSaved=   8.
 NSaved= 8 IEnMin= 8 EnMin= -2943.63562040136     IErMin= 8 ErrMin= 2.32D-05
 ErrMax= 2.32D-05  0.00D+00 EMaxC= 1.00D-01 BMatC= 5.46D-06 BMatP= 3.24D-05
 IDIUse=1 WtCom= 1.00D+00 WtEn= 0.00D+00
 Coeff-Com: -0.595D-03 0.361D-02 0.220D-02-0.139D-01-0.853D-01-0.505D-01
 Coeff-Com:  0.317D+00 0.827D+00
 Coeff:     -0.595D-03 0.361D-02 0.220D-02-0.139D-01-0.853D-01-0.505D-01
 Coeff:      0.317D+00 0.827D+00
 Gap=     0.301 Goal=   None    Shift=    0.000
 Gap=     0.301 Goal=   None    Shift=    0.000
 RMSDP=5.39D-06 MaxDP=3.29D-04 DE=-2.58D-05 OVMax= 9.22D-04

 Initial convergence to 1.0D-05 achieved.  Increase integral accuracy.
 Cycle   9  Pass 1  IDiag  1:
 E= -2943.63509637236     Delta-E=        0.000524028994 Rises=F Damp=F
 DIIS: error= 2.34D-04 at cycle   1 NSaved=   1.
 NSaved= 1 IEnMin= 1 EnMin= -2943.63509637236     IErMin= 1 ErrMin= 2.34D-04
 ErrMax= 2.34D-04  0.00D+00 EMaxC= 1.00D-01 BMatC= 4.19D-05 BMatP= 4.19D-05
 IDIUse=3 WtCom= 9.98D-01 WtEn= 2.34D-03
 Coeff-Com:  0.100D+01
 Coeff-En:   0.100D+01
 Coeff:      0.100D+01
 Gap=     0.301 Goal=   None    Shift=    0.000
 Gap=     0.301 Goal=   None    Shift=    0.000
 RMSDP=5.39D-06 MaxDP=3.29D-04 DE= 5.24D-04 OVMax= 2.79D-04

 Cycle  10  Pass 1  IDiag  1:
 RMSU=  1.01D-04    CP:  1.00D+00
 E= -2943.63510454730     Delta-E=       -0.000008174939 Rises=F Damp=F
 DIIS: error= 1.00D-05 at cycle   2 NSaved=   2.
 NSaved= 2 IEnMin= 2 EnMin= -2943.63510454730     IErMin= 2 ErrMin= 1.00D-05
 ErrMax= 1.00D-05  0.00D+00 EMaxC= 1.00D-01 BMatC= 5.42D-07 BMatP= 4.19D-05
 IDIUse=1 WtCom= 1.00D+00 WtEn= 0.00D+00
 Coeff-Com: -0.143D-01 0.101D+01
 Coeff:     -0.143D-01 0.101D+01
 Gap=     0.301 Goal=   None    Shift=    0.000
 Gap=     0.301 Goal=   None    Shift=    0.000
 RMSDP=4.96D-06 MaxDP=1.72D-04 DE=-8.17D-06 OVMax= 1.67D-04

 Cycle  11  Pass 1  IDiag  1:
 RMSU=  1.84D-06    CP:  1.00D+00  1.05D+00
 E= -2943.63510464547     Delta-E=       -0.000000098168 Rises=F Damp=F
 DIIS: error= 1.08D-05 at cycle   3 NSaved=   3.
 NSaved= 3 IEnMin= 3 EnMin= -2943.63510464547     IErMin= 2 ErrMin= 1.00D-05
 ErrMax= 1.08D-05  0.00D+00 EMaxC= 1.00D-01 BMatC= 6.15D-07 BMatP= 5.42D-07
 IDIUse=1 WtCom= 1.00D+00 WtEn= 0.00D+00
 Coeff-Com: -0.196D-01 0.533D+00 0.487D+00
 Coeff:     -0.196D-01 0.533D+00 0.487D+00
 Gap=     0.301 Goal=   None    Shift=    0.000
 Gap=     0.301 Goal=   None    Shift=    0.000
 RMSDP=6.89D-07 MaxDP=5.02D-05 DE=-9.82D-08 OVMax= 7.51D-05

 Cycle  12  Pass 1  IDiag  1:
 RMSU=  6.17D-07    CP:  1.00D+00  1.05D+00  8.67D-01
 E= -2943.63510474299     Delta-E=       -0.000000097523 Rises=F Damp=F
 DIIS: error= 1.37D-06 at cycle   4 NSaved=   4.
 NSaved= 4 IEnMin= 4 EnMin= -2943.63510474299     IErMin= 4 ErrMin= 1.37D-06
 ErrMax= 1.37D-06  0.00D+00 EMaxC= 1.00D-01 BMatC= 1.37D-08 BMatP= 5.42D-07
 IDIUse=1 WtCom= 1.00D+00 WtEn= 0.00D+00
 Coeff-Com: -0.114D-02-0.566D-02 0.418D-01 0.965D+00
 Coeff:     -0.114D-02-0.566D-02 0.418D-01 0.965D+00
 Gap=     0.301 Goal=   None    Shift=    0.000
 Gap=     0.301 Goal=   None    Shift=    0.000
 RMSDP=2.98D-07 MaxDP=1.87D-05 DE=-9.75D-08 OVMax= 4.40D-05

 Cycle  13  Pass 1  IDiag  1:
 RMSU=  2.16D-07    CP:  1.00D+00  1.05D+00  9.50D-01  1.18D+00
 E= -2943.63510475589     Delta-E=       -0.000000012893 Rises=F Damp=F
 DIIS: error= 1.57D-06 at cycle   5 NSaved=   5.
 NSaved= 5 IEnMin= 5 EnMin= -2943.63510475589     IErMin= 4 ErrMin= 1.37D-06
 ErrMax= 1.57D-06  0.00D+00 EMaxC= 1.00D-01 BMatC= 6.66D-09 BMatP= 1.37D-08
 IDIUse=1 WtCom= 1.00D+00 WtEn= 0.00D+00
 Coeff-Com:  0.604D-02-0.182D+00-0.148D+00 0.461D+00 0.864D+00
 Coeff:      0.604D-02-0.182D+00-0.148D+00 0.461D+00 0.864D+00
 Gap=     0.301 Goal=   None    Shift=    0.000
 Gap=     0.301 Goal=   None    Shift=    0.000
 RMSDP=2.15D-07 MaxDP=1.41D-05 DE=-1.29D-08 OVMax= 3.42D-05

 Cycle  14  Pass 1  IDiag  1:
 RMSU=  1.28D-07    CP:  1.00D+00  1.05D+00  9.94D-01  1.37D+00  1.44D+00
 E= -2943.63510476154     Delta-E=       -0.000000005655 Rises=F Damp=F
 DIIS: error= 4.53D-07 at cycle   6 NSaved=   6.
 NSaved= 6 IEnMin= 6 EnMin= -2943.63510476154     IErMin= 6 ErrMin= 4.53D-07
 ErrMax= 4.53D-07  0.00D+00 EMaxC= 1.00D-01 BMatC= 9.11D-10 BMatP= 6.66D-09
 IDIUse=1 WtCom= 1.00D+00 WtEn= 0.00D+00
 Coeff-Com:  0.210D-02-0.570D-01-0.553D-01-0.182D-01 0.300D+00 0.829D+00
 Coeff:      0.210D-02-0.570D-01-0.553D-01-0.182D-01 0.300D+00 0.829D+00
 Gap=     0.301 Goal=   None    Shift=    0.000
 Gap=     0.301 Goal=   None    Shift=    0.000
 RMSDP=7.35D-08 MaxDP=4.22D-06 DE=-5.66D-09 OVMax= 1.15D-05

 Cycle  15  Pass 1  IDiag  1:
 RMSU=  3.33D-08    CP:  1.00D+00  1.05D+00  1.00D+00  1.40D+00  1.70D+00
                    CP:  1.16D+00
 E= -2943.63510476233     Delta-E=       -0.000000000794 Rises=F Damp=F
 DIIS: error= 2.83D-07 at cycle   7 NSaved=   7.
 NSaved= 7 IEnMin= 7 EnMin= -2943.63510476233     IErMin= 7 ErrMin= 2.83D-07
 ErrMax= 2.83D-07  0.00D+00 EMaxC= 1.00D-01 BMatC= 1.66D-10 BMatP= 9.11D-10
 IDIUse=1 WtCom= 1.00D+00 WtEn= 0.00D+00
 Coeff-Com: -0.388D-03 0.144D-01 0.817D-02-0.108D+00-0.506D-01 0.346D+00
 Coeff-Com:  0.790D+00
 Coeff:     -0.388D-03 0.144D-01 0.817D-02-0.108D+00-0.506D-01 0.346D+00
 Coeff:      0.790D+00
 Gap=     0.301 Goal=   None    Shift=    0.000
 Gap=     0.301 Goal=   None    Shift=    0.000
 RMSDP=3.00D-08 MaxDP=2.08D-06 DE=-7.94D-10 OVMax= 4.78D-06

 Cycle  16  Pass 1  IDiag  1:
 RMSU=  1.33D-08    CP:  1.00D+00  1.05D+00  1.00D+00  1.41D+00  1.79D+00
                    CP:  1.29D+00  9.66D-01
 E= -2943.63510476240     Delta-E=       -0.000000000068 Rises=F Damp=F
 DIIS: error= 7.30D-08 at cycle   8 NSaved=   8.
 NSaved= 8 IEnMin= 8 EnMin= -2943.63510476240     IErMin= 8 ErrMin= 7.30D-08
 ErrMax= 7.30D-08  0.00D+00 EMaxC= 1.00D-01 BMatC= 1.12D-11 BMatP= 1.66D-10
 IDIUse=1 WtCom= 1.00D+00 WtEn= 0.00D+00
 Coeff-Com: -0.254D-03 0.814D-02 0.604D-02-0.353D-01-0.331D-01 0.592D-01
 Coeff-Com:  0.253D+00 0.742D+00
 Coeff:     -0.254D-03 0.814D-02 0.604D-02-0.353D-01-0.331D-01 0.592D-01
 Coeff:      0.253D+00 0.742D+00
 Gap=     0.301 Goal=   None    Shift=    0.000
 Gap=     0.301 Goal=   None    Shift=    0.000
 RMSDP=5.91D-09 MaxDP=2.58D-07 DE=-6.82D-11 OVMax= 9.82D-07

 SCF Done:  E(ULC-wPBE) =  -2943.63510476     A.U. after   16 cycles
            NFock= 16  Conv=0.59D-08     -V/T= 2.0045
 <Sx>= 0.0000 <Sy>= 0.0000 <Sz>= 0.0000 <S**2>=-0.0000 S=-0.0000
 <L.S>= 0.000000000000E+00
 KE= 2.930471312429D+03 PE=-1.539019300010D+04 EE= 5.288789903256D+03
 Annihilation of the first spin contaminant:
 S**2 before annihilation    -0.0000,   after    -0.0000
 Leave Link  502 at Sat Jul 25 06:28:40 2020, MaxMem=  4026531840 cpu:            4603.8 elap:             577.2
 (Enter /opt/ohpc/pub/libs/gaussian/g16-A.03/sandybridge/g16/l601.exe)
 Copying SCF densities to generalized density rwf, IOpCl= 1 IROHF=0.

 **********************************************************************

            Population analysis using the SCF density.

 **********************************************************************

 Orbital symmetries:
 Alpha Orbitals:
       Occupied  (A) (A) (A) (A) (A) (A) (A) (A) (A) (A) (A) (A)
                 (A) (A) (A) (A) (A) (A) (A) (A) (A) (A) (A) (A)
                 (A) (A) (A) (A) (A) (A) (A) (A) (A) (A) (A) (A)
                 (A) (A) (A) (A) (A) (A) (A) (A) (A) (A) (A) (A)
                 (A) (A) (A) (A) (A) (A) (A) (A) (A) (A) (A) (A)
                 (A) (A) (A) (A) (A) (A) (A) (A) (A) (A) (A) (A)
                 (A) (A) (A) (A) (A) (A) (A) (A) (A) (A) (A) (A)
                 (A) (A) (A) (A) (A) (A) (A) (A) (A) (A) (A) (A)
                 (A) (A) (A) (A) (A) (A) (A) (A) (A) (A) (A) (A)
                 (A) (A) (A) (A) (A) (A) (A) (A) (A) (A) (A) (A)
                 (A) (A) (A) (A) (A) (A) (A) (A) (A) (A) (A) (A)
                 (A) (A) (A) (A) (A) (A) (A) (A) (A) (A) (A) (A)
                 (A) (A) (A) (A)
       Virtual   (A) (A) (A) (A) (A) (A) (A) (A) (A) (A) (A) (A)
                 (A) (A) (A) (A) (A) (A) (A) (A) (A) (A) (A) (A)
                 (A) (A) (A) (A) (A) (A) (A) (A) (A) (A) (A) (A)
                 (A) (A) (A) (A) (A) (A) (A) (A) (A) (A) (A) (A)
                 (A) (A) (A) (A) (A) (A) (A) (A) (A) (A) (A) (A)
                 (A) (A) (A) (A) (A) (A) (A) (A) (A) (A) (A) (A)
                 (A) (A) (A) (A) (A) (A) (A) (A) (A) (A) (A) (A)
                 (A) (A) (A) (A) (A) (A) (A) (A) (A) (A) (A) (A)
                 (A) (A) (A) (A) (A) (A) (A) (A) (A) (A) (A) (A)
                 (A) (A) (A) (A) (A) (A) (A) (A) (A) (A) (A) (A)
                 (A) (A) (A) (A) (A) (A) (A) (A) (A) (A) (A) (A)
                 (A) (A) (A) (A) (A) (A) (A) (A) (A) (A) (A) (A)
                 (A) (A) (A) (A) (A) (A) (A) (A) (A) (A) (A) (A)
                 (A) (A) (A) (A) (A) (A) (A) (A) (A) (A) (A) (A)
                 (A) (A) (A) (A) (A) (A) (A) (A) (A) (A) (A) (A)
                 (A) (A) (A) (A) (A) (A) (A) (A) (A) (A) (A) (A)
                 (A) (A) (A) (A) (A) (A) (A) (A) (A) (A) (A) (A)
                 (A) (A) (A) (A) (A) (A) (A) (A) (A) (A) (A) (A)
                 (A) (A) (A) (A) (A) (A) (A) (A) (A) (A) (A) (A)
                 (A) (A) (A) (A) (A) (A) (A) (A) (A) (A) (A) (A)
                 (A) (A) (A) (A) (A) (A) (A) (A) (A) (A) (A) (A)
                 (A) (A) (A) (A) (A) (A) (A) (A) (A) (A) (A) (A)
                 (A) (A) (A) (A) (A) (A) (A) (A) (A) (A) (A) (A)
                 (A) (A) (A) (A) (A) (A) (A) (A) (A) (A) (A) (A)
                 (A) (A) (A) (A) (A) (A) (A) (A) (A) (A) (A) (A)
                 (A) (A) (A) (A) (A) (A) (A) (A) (A) (A) (A) (A)
                 (A) (A) (A) (A) (A) (A) (A) (A) (A) (A) (A) (A)
                 (A) (A) (A) (A) (A) (A) (A) (A) (A) (A) (A) (A)
                 (A) (A) (A) (A) (A) (A) (A) (A) (A) (A) (A) (A)
                 (A) (A) (A) (A) (A) (A) (A) (A) (A) (A) (A) (A)
                 (A) (A) (A) (A) (A) (A) (A) (A) (A) (A) (A) (A)
                 (A) (A) (A) (A) (A) (A) (A) (A) (A) (A) (A) (A)
                 (A) (A) (A) (A) (A) (A) (A) (A) (A) (A) (A) (A)
                 (A) (A) (A) (A) (A) (A) (A) (A) (A) (A) (A) (A)
                 (A) (A) (A) (A) (A) (A) (A) (A) (A) (A) (A) (A)
                 (A) (A) (A) (A) (A) (A) (A) (A) (A) (A) (A) (A)
                 (A) (A) (A) (A) (A) (A) (A) (A) (A) (A) (A) (A)
                 (A) (A) (A) (A) (A) (A) (A) (A) (A) (A) (A) (A)
                 (A) (A) (A) (A) (A) (A) (A) (A) (A) (A) (A) (A)
                 (A) (A) (A) (A) (A) (A) (A) (A) (A) (A) (A) (A)
 Beta  Orbitals:
       Occupied  (A) (A) (A) (A) (A) (A) (A) (A) (A) (A) (A) (A)
                 (A) (A) (A) (A) (A) (A) (A) (A) (A) (A) (A) (A)
                 (A) (A) (A) (A) (A) (A) (A) (A) (A) (A) (A) (A)
                 (A) (A) (A) (A) (A) (A) (A) (A) (A) (A) (A) (A)
                 (A) (A) (A) (A) (A) (A) (A) (A) (A) (A) (A) (A)
                 (A) (A) (A) (A) (A) (A) (A) (A) (A) (A) (A) (A)
                 (A) (A) (A) (A) (A) (A) (A) (A) (A) (A) (A) (A)
                 (A) (A) (A) (A) (A) (A) (A) (A) (A) (A) (A) (A)
                 (A) (A) (A) (A) (A) (A) (A) (A) (A) (A) (A) (A)
                 (A) (A) (A) (A) (A) (A) (A) (A) (A) (A) (A) (A)
                 (A) (A) (A) (A) (A) (A) (A) (A) (A) (A) (A) (A)
                 (A) (A) (A) (A) (A) (A) (A) (A) (A) (A) (A) (A)
                 (A) (A) (A) (A)
       Virtual   (A) (A) (A) (A) (A) (A) (A) (A) (A) (A) (A) (A)
                 (A) (A) (A) (A) (A) (A) (A) (A) (A) (A) (A) (A)
                 (A) (A) (A) (A) (A) (A) (A) (A) (A) (A) (A) (A)
                 (A) (A) (A) (A) (A) (A) (A) (A) (A) (A) (A) (A)
                 (A) (A) (A) (A) (A) (A) (A) (A) (A) (A) (A) (A)
                 (A) (A) (A) (A) (A) (A) (A) (A) (A) (A) (A) (A)
                 (A) (A) (A) (A) (A) (A) (A) (A) (A) (A) (A) (A)
                 (A) (A) (A) (A) (A) (A) (A) (A) (A) (A) (A) (A)
                 (A) (A) (A) (A) (A) (A) (A) (A) (A) (A) (A) (A)
                 (A) (A) (A) (A) (A) (A) (A) (A) (A) (A) (A) (A)
                 (A) (A) (A) (A) (A) (A) (A) (A) (A) (A) (A) (A)
                 (A) (A) (A) (A) (A) (A) (A) (A) (A) (A) (A) (A)
                 (A) (A) (A) (A) (A) (A) (A) (A) (A) (A) (A) (A)
                 (A) (A) (A) (A) (A) (A) (A) (A) (A) (A) (A) (A)
                 (A) (A) (A) (A) (A) (A) (A) (A) (A) (A) (A) (A)
                 (A) (A) (A) (A) (A) (A) (A) (A) (A) (A) (A) (A)
                 (A) (A) (A) (A) (A) (A) (A) (A) (A) (A) (A) (A)
                 (A) (A) (A) (A) (A) (A) (A) (A) (A) (A) (A) (A)
                 (A) (A) (A) (A) (A) (A) (A) (A) (A) (A) (A) (A)
                 (A) (A) (A) (A) (A) (A) (A) (A) (A) (A) (A) (A)
                 (A) (A) (A) (A) (A) (A) (A) (A) (A) (A) (A) (A)
                 (A) (A) (A) (A) (A) (A) (A) (A) (A) (A) (A) (A)
                 (A) (A) (A) (A) (A) (A) (A) (A) (A) (A) (A) (A)
                 (A) (A) (A) (A) (A) (A) (A) (A) (A) (A) (A) (A)
                 (A) (A) (A) (A) (A) (A) (A) (A) (A) (A) (A) (A)
                 (A) (A) (A) (A) (A) (A) (A) (A) (A) (A) (A) (A)
                 (A) (A) (A) (A) (A) (A) (A) (A) (A) (A) (A) (A)
                 (A) (A) (A) (A) (A) (A) (A) (A) (A) (A) (A) (A)
                 (A) (A) (A) (A) (A) (A) (A) (A) (A) (A) (A) (A)
                 (A) (A) (A) (A) (A) (A) (A) (A) (A) (A) (A) (A)
                 (A) (A) (A) (A) (A) (A) (A) (A) (A) (A) (A) (A)
                 (A) (A) (A) (A) (A) (A) (A) (A) (A) (A) (A) (A)
                 (A) (A) (A) (A) (A) (A) (A) (A) (A) (A) (A) (A)
                 (A) (A) (A) (A) (A) (A) (A) (A) (A) (A) (A) (A)
                 (A) (A) (A) (A) (A) (A) (A) (A) (A) (A) (A) (A)
                 (A) (A) (A) (A) (A) (A) (A) (A) (A) (A) (A) (A)
                 (A) (A) (A) (A) (A) (A) (A) (A) (A) (A) (A) (A)
                 (A) (A) (A) (A) (A) (A) (A) (A) (A) (A) (A) (A)
                 (A) (A) (A) (A) (A) (A) (A) (A) (A) (A) (A) (A)
                 (A) (A) (A) (A) (A) (A) (A) (A) (A) (A) (A) (A)
 The electronic state is 1-A.
 Alpha  occ. eigenvalues --  -88.31201 -88.30765 -88.30421 -24.49512 -24.49470
 Alpha  occ. eigenvalues --  -24.49356 -24.49001 -24.47957 -24.47907 -10.20169
 Alpha  occ. eigenvalues --  -10.19544 -10.19179 -10.19087 -10.19081 -10.19041
 Alpha  occ. eigenvalues --  -10.15498 -10.14499 -10.14491 -10.14407 -10.14358
 Alpha  occ. eigenvalues --  -10.14315 -10.13906 -10.13902 -10.13860 -10.13274
 Alpha  occ. eigenvalues --  -10.13007 -10.12529 -10.12407 -10.12386 -10.12251
 Alpha  occ. eigenvalues --  -10.12229 -10.12005 -10.11933 -10.11809 -10.11768
 Alpha  occ. eigenvalues --  -10.11688 -10.11527 -10.11211 -10.10695  -7.91887
 Alpha  occ. eigenvalues --   -7.91561  -7.90873  -5.93550  -5.93218  -5.93032
 Alpha  occ. eigenvalues --   -5.92696  -5.92662  -5.92605  -5.92323  -5.92114
 Alpha  occ. eigenvalues --   -5.91552  -1.35565  -1.34184  -1.34051  -1.32973
 Alpha  occ. eigenvalues --   -1.31693  -1.31684  -1.05499  -1.04738  -1.02499
 Alpha  occ. eigenvalues --   -1.01197  -1.00093  -0.99793  -0.94725  -0.93309
 Alpha  occ. eigenvalues --   -0.91638  -0.89455  -0.89113  -0.88458  -0.88067
 Alpha  occ. eigenvalues --   -0.87637  -0.87399  -0.85879  -0.85073  -0.83094
 Alpha  occ. eigenvalues --   -0.78325  -0.77019  -0.76022  -0.75641  -0.75025
 Alpha  occ. eigenvalues --   -0.74482  -0.71306  -0.70945  -0.70553  -0.70207
 Alpha  occ. eigenvalues --   -0.69736  -0.69558  -0.67954  -0.67431  -0.66544
 Alpha  occ. eigenvalues --   -0.65395  -0.63851  -0.62832  -0.62771  -0.62483
 Alpha  occ. eigenvalues --   -0.62027  -0.61131  -0.60237  -0.59938  -0.59810
 Alpha  occ. eigenvalues --   -0.59588  -0.59387  -0.58833  -0.58630  -0.58130
 Alpha  occ. eigenvalues --   -0.57799  -0.57715  -0.57155  -0.57060  -0.56228
 Alpha  occ. eigenvalues --   -0.55908  -0.55734  -0.54637  -0.54047  -0.53403
 Alpha  occ. eigenvalues --   -0.52215  -0.51980  -0.51824  -0.51179  -0.50987
 Alpha  occ. eigenvalues --   -0.50186  -0.49777  -0.49732  -0.49330  -0.49096
 Alpha  occ. eigenvalues --   -0.48981  -0.48192  -0.48048  -0.47500  -0.46992
 Alpha  occ. eigenvalues --   -0.46688  -0.46328  -0.45810  -0.45729  -0.45440
 Alpha  occ. eigenvalues --   -0.44448  -0.40204  -0.39161  -0.37721  -0.36367
 Alpha  occ. eigenvalues --   -0.36130  -0.35945  -0.35901  -0.35103  -0.34789
 Alpha  occ. eigenvalues --   -0.33899  -0.32086  -0.30274
 Alpha virt. eigenvalues --   -0.00177   0.02017   0.04484   0.05274   0.05345
 Alpha virt. eigenvalues --    0.05636   0.06372   0.07769   0.08972   0.10490
 Alpha virt. eigenvalues --    0.12046   0.12419   0.14064   0.14460   0.14565
 Alpha virt. eigenvalues --    0.14904   0.15561   0.16415   0.17144   0.17175
 Alpha virt. eigenvalues --    0.18037   0.18389   0.18819   0.19366   0.19929
 Alpha virt. eigenvalues --    0.20582   0.21299   0.21437   0.21895   0.22330
 Alpha virt. eigenvalues --    0.22685   0.22849   0.23606   0.23751   0.24536
 Alpha virt. eigenvalues --    0.25167   0.25409   0.25886   0.26961   0.27503
 Alpha virt. eigenvalues --    0.28173   0.31099   0.32012   0.33224   0.33636
 Alpha virt. eigenvalues --    0.34408   0.34626   0.35914   0.36076   0.36416
 Alpha virt. eigenvalues --    0.36815   0.37251   0.37640   0.38467   0.39507
 Alpha virt. eigenvalues --    0.40577   0.40922   0.41531   0.42162   0.43417
 Alpha virt. eigenvalues --    0.44026   0.44767   0.45428   0.46891   0.48278
 Alpha virt. eigenvalues --    0.48785   0.49150   0.50025   0.50840   0.50996
 Alpha virt. eigenvalues --    0.51501   0.51781   0.52692   0.52919   0.53116
 Alpha virt. eigenvalues --    0.53326   0.53382   0.53547   0.54182   0.54429
 Alpha virt. eigenvalues --    0.54609   0.54906   0.55134   0.55379   0.55731
 Alpha virt. eigenvalues --    0.55906   0.56375   0.56457   0.56740   0.56845
 Alpha virt. eigenvalues --    0.57390   0.57540   0.57752   0.58206   0.58632
 Alpha virt. eigenvalues --    0.58830   0.59339   0.59605   0.59666   0.59991
 Alpha virt. eigenvalues --    0.60326   0.60475   0.60634   0.60822   0.61045
 Alpha virt. eigenvalues --    0.61310   0.61876   0.62072   0.62254   0.62367
 Alpha virt. eigenvalues --    0.62736   0.63147   0.63236   0.64180   0.64372
 Alpha virt. eigenvalues --    0.64613   0.64899   0.65204   0.65495   0.65933
 Alpha virt. eigenvalues --    0.66330   0.66544   0.66928   0.67168   0.67246
 Alpha virt. eigenvalues --    0.68440   0.68927   0.69107   0.69552   0.69987
 Alpha virt. eigenvalues --    0.70680   0.70793   0.71568   0.71760   0.72153
 Alpha virt. eigenvalues --    0.72970   0.73255   0.73684   0.74204   0.75023
 Alpha virt. eigenvalues --    0.75115   0.75274   0.75653   0.76276   0.76700
 Alpha virt. eigenvalues --    0.77074   0.77767   0.77862   0.78182   0.78574
 Alpha virt. eigenvalues --    0.78889   0.79324   0.79840   0.80131   0.80787
 Alpha virt. eigenvalues --    0.80928   0.81549   0.82491   0.82693   0.83149
 Alpha virt. eigenvalues --    0.83350   0.83466   0.84638   0.85128   0.85523
 Alpha virt. eigenvalues --    0.86766   0.87086   0.87853   0.88429   0.89024
 Alpha virt. eigenvalues --    0.89452   0.90001   0.91003   0.91939   0.92257
 Alpha virt. eigenvalues --    0.92551   0.93357   0.93952   0.94634   0.96193
 Alpha virt. eigenvalues --    0.96362   0.96926   0.97729   0.98018   0.98860
 Alpha virt. eigenvalues --    0.99516   1.00187   1.00696   1.01588   1.02087
 Alpha virt. eigenvalues --    1.02307   1.02928   1.03589   1.03659   1.04215
 Alpha virt. eigenvalues --    1.04414   1.05220   1.05414   1.05756   1.06375
 Alpha virt. eigenvalues --    1.07088   1.07547   1.07675   1.08341   1.08567
 Alpha virt. eigenvalues --    1.09346   1.09677   1.10736   1.10912   1.11333
 Alpha virt. eigenvalues --    1.11786   1.12187   1.12532   1.13057   1.13551
 Alpha virt. eigenvalues --    1.13689   1.14709   1.14830   1.14977   1.15502
 Alpha virt. eigenvalues --    1.15648   1.16342   1.16743   1.17423   1.18056
 Alpha virt. eigenvalues --    1.19507   1.20191   1.20545   1.21307   1.21766
 Alpha virt. eigenvalues --    1.21906   1.22821   1.23105   1.24488   1.24655
 Alpha virt. eigenvalues --    1.25197   1.26056   1.26602   1.26895   1.27124
 Alpha virt. eigenvalues --    1.28041   1.28478   1.29193   1.29899   1.31179
 Alpha virt. eigenvalues --    1.32064   1.33547   1.34011   1.34491   1.35309
 Alpha virt. eigenvalues --    1.35645   1.37308   1.38463   1.38707   1.39552
 Alpha virt. eigenvalues --    1.39938   1.40629   1.41185   1.41555   1.41847
 Alpha virt. eigenvalues --    1.42244   1.42878   1.43152   1.44353   1.44905
 Alpha virt. eigenvalues --    1.45876   1.46181   1.47009   1.47376   1.48285
 Alpha virt. eigenvalues --    1.49798   1.50550   1.51193   1.51504   1.52091
 Alpha virt. eigenvalues --    1.53393   1.54291   1.54667   1.55417   1.55892
 Alpha virt. eigenvalues --    1.56124   1.57083   1.57361   1.58121   1.58361
 Alpha virt. eigenvalues --    1.58718   1.58994   1.60091   1.60716   1.61029
 Alpha virt. eigenvalues --    1.61930   1.62028   1.62568   1.63078   1.63294
 Alpha virt. eigenvalues --    1.64361   1.64486   1.64784   1.65087   1.66297
 Alpha virt. eigenvalues --    1.67190   1.67601   1.68260   1.68721   1.69274
 Alpha virt. eigenvalues --    1.69609   1.70214   1.70496   1.70845   1.71354
 Alpha virt. eigenvalues --    1.71850   1.71998   1.73078   1.73380   1.73687
 Alpha virt. eigenvalues --    1.74061   1.74469   1.74990   1.75393   1.75545
 Alpha virt. eigenvalues --    1.76384   1.76974   1.77817   1.78414   1.78556
 Alpha virt. eigenvalues --    1.78719   1.78931   1.80192   1.81020   1.81792
 Alpha virt. eigenvalues --    1.81920   1.82875   1.83393   1.83451   1.84191
 Alpha virt. eigenvalues --    1.84284   1.84869   1.85969   1.86568   1.87505
 Alpha virt. eigenvalues --    1.87750   1.88064   1.88609   1.88932   1.89556
 Alpha virt. eigenvalues --    1.91239   1.91421   1.91851   1.92062   1.92284
 Alpha virt. eigenvalues --    1.92406   1.93272   1.94148   1.94467   1.95055
 Alpha virt. eigenvalues --    1.95924   1.96488   1.97101   1.97817   1.98103
 Alpha virt. eigenvalues --    1.98172   1.98626   1.99600   2.00910   2.01265
 Alpha virt. eigenvalues --    2.01583   2.02880   2.03691   2.04670   2.05766
 Alpha virt. eigenvalues --    2.05830   2.06196   2.08001   2.08146   2.08739
 Alpha virt. eigenvalues --    2.09110   2.10737   2.11605   2.12129   2.12449
 Alpha virt. eigenvalues --    2.12836   2.13570   2.14448   2.15311   2.16190
 Alpha virt. eigenvalues --    2.17166   2.18783   2.20727   2.21284   2.22073
 Alpha virt. eigenvalues --    2.22702   2.24009   2.25741   2.28465   2.28802
 Alpha virt. eigenvalues --    2.30945   2.31324   2.32215   2.32826   2.34100
 Alpha virt. eigenvalues --    2.34938   2.35358   2.35984   2.36439   2.37986
 Alpha virt. eigenvalues --    2.38775   2.39457   2.41335   2.44853   2.48025
 Alpha virt. eigenvalues --    2.48428   2.49442   2.51034   2.52345   2.52819
 Alpha virt. eigenvalues --    2.53400   2.55373   2.56989   2.57755   2.58135
 Alpha virt. eigenvalues --    2.59018   2.59925   2.60100   2.60324   2.61567
 Alpha virt. eigenvalues --    2.63158   2.65079   2.66686   2.68669   2.68868
 Alpha virt. eigenvalues --    2.71159   2.72404   2.73730   2.74688   2.75491
 Alpha virt. eigenvalues --    2.77800   2.80039   2.83025   2.84217   2.84329
 Alpha virt. eigenvalues --    2.89233   2.90743   2.94503   2.94796   3.04844
 Alpha virt. eigenvalues --    3.09355   3.11521   3.39224   3.40098   3.52034
 Alpha virt. eigenvalues --    3.64283   3.64733   3.64908   3.65100   3.65881
 Alpha virt. eigenvalues --    3.66216   3.66591   3.66755   3.67430   3.68116
 Alpha virt. eigenvalues --    3.68448   3.69179   3.83971   3.84049   3.84804
 Alpha virt. eigenvalues --    3.84815   3.85698   3.89330   4.02507   4.02879
 Alpha virt. eigenvalues --    4.04725   4.05594   4.07883   4.09217   4.24256
 Alpha virt. eigenvalues --    4.25488   4.26456   4.26902   4.29188   4.29985
  Beta  occ. eigenvalues --  -88.31201 -88.30765 -88.30421 -24.49512 -24.49470
  Beta  occ. eigenvalues --  -24.49356 -24.49001 -24.47957 -24.47907 -10.20169
  Beta  occ. eigenvalues --  -10.19544 -10.19179 -10.19087 -10.19081 -10.19041
  Beta  occ. eigenvalues --  -10.15498 -10.14499 -10.14491 -10.14407 -10.14358
  Beta  occ. eigenvalues --  -10.14315 -10.13906 -10.13902 -10.13860 -10.13274
  Beta  occ. eigenvalues --  -10.13007 -10.12529 -10.12407 -10.12386 -10.12251
  Beta  occ. eigenvalues --  -10.12229 -10.12005 -10.11933 -10.11809 -10.11768
  Beta  occ. eigenvalues --  -10.11688 -10.11527 -10.11211 -10.10695  -7.91887
  Beta  occ. eigenvalues --   -7.91561  -7.90873  -5.93550  -5.93218  -5.93032
  Beta  occ. eigenvalues --   -5.92696  -5.92662  -5.92605  -5.92323  -5.92114
  Beta  occ. eigenvalues --   -5.91552  -1.35565  -1.34184  -1.34051  -1.32973
  Beta  occ. eigenvalues --   -1.31693  -1.31684  -1.05499  -1.04738  -1.02499
  Beta  occ. eigenvalues --   -1.01197  -1.00093  -0.99793  -0.94725  -0.93309
  Beta  occ. eigenvalues --   -0.91638  -0.89455  -0.89113  -0.88458  -0.88067
  Beta  occ. eigenvalues --   -0.87637  -0.87399  -0.85879  -0.85073  -0.83094
  Beta  occ. eigenvalues --   -0.78325  -0.77019  -0.76022  -0.75641  -0.75025
  Beta  occ. eigenvalues --   -0.74482  -0.71306  -0.70945  -0.70553  -0.70207
  Beta  occ. eigenvalues --   -0.69736  -0.69558  -0.67954  -0.67431  -0.66544
  Beta  occ. eigenvalues --   -0.65395  -0.63851  -0.62832  -0.62771  -0.62483
  Beta  occ. eigenvalues --   -0.62027  -0.61131  -0.60237  -0.59938  -0.59810
  Beta  occ. eigenvalues --   -0.59588  -0.59387  -0.58833  -0.58630  -0.58130
  Beta  occ. eigenvalues --   -0.57799  -0.57715  -0.57155  -0.57060  -0.56228
  Beta  occ. eigenvalues --   -0.55908  -0.55734  -0.54637  -0.54047  -0.53403
  Beta  occ. eigenvalues --   -0.52215  -0.51980  -0.51824  -0.51179  -0.50987
  Beta  occ. eigenvalues --   -0.50186  -0.49777  -0.49732  -0.49330  -0.49096
  Beta  occ. eigenvalues --   -0.48981  -0.48192  -0.48048  -0.47500  -0.46992
  Beta  occ. eigenvalues --   -0.46688  -0.46328  -0.45810  -0.45729  -0.45440
  Beta  occ. eigenvalues --   -0.44448  -0.40204  -0.39161  -0.37721  -0.36367
  Beta  occ. eigenvalues --   -0.36130  -0.35945  -0.35901  -0.35103  -0.34789
  Beta  occ. eigenvalues --   -0.33899  -0.32086  -0.30274
  Beta virt. eigenvalues --   -0.00177   0.02017   0.04484   0.05274   0.05345
  Beta virt. eigenvalues --    0.05636   0.06372   0.07769   0.08972   0.10490
  Beta virt. eigenvalues --    0.12046   0.12419   0.14064   0.14460   0.14565
  Beta virt. eigenvalues --    0.14904   0.15561   0.16415   0.17144   0.17175
  Beta virt. eigenvalues --    0.18037   0.18389   0.18819   0.19366   0.19929
  Beta virt. eigenvalues --    0.20582   0.21299   0.21437   0.21895   0.22330
[...]
     6   Atom        0.000000     -0.000000      0.000000
     7   Atom        0.000000      0.000000      0.000000
     8   Atom       -0.000000      0.000000     -0.000000
     9   Atom        0.000000     -0.000000     -0.000000
    10   Atom       -0.000000     -0.000000      0.000000
    11   Atom       -0.000000      0.000000     -0.000000
    12   Atom        0.000000      0.000000     -0.000000
    13   Atom        0.000000      0.000000      0.000000
    14   Atom       -0.000000      0.000000     -0.000000
    15   Atom       -0.000000     -0.000000     -0.000000
    16   Atom        0.000000     -0.000000      0.000000
    17   Atom       -0.000000      0.000000      0.000000
    18   Atom       -0.000000      0.000000     -0.000000
    19   Atom        0.000000      0.000000      0.000000
    20   Atom       -0.000000      0.000000      0.000000
    21   Atom       -0.000000     -0.000000     -0.000000
    22   Atom       -0.000000      0.000000      0.000000
    23   Atom       -0.000000      0.000000      0.000000
    24   Atom       -0.000000      0.000000     -0.000000
    25   Atom       -0.000000      0.000000      0.000000
    26   Atom        0.000000      0.000000      0.000000
    27   Atom       -0.000000     -0.000000     -0.000000
    28   Atom       -0.000000     -0.000000     -0.000000
    29   Atom       -0.000000      0.000000     -0.000000
    30   Atom       -0.000000      0.000000      0.000000
    31   Atom       -0.000000     -0.000000     -0.000000
    32   Atom        0.000000     -0.000000      0.000000
    33   Atom       -0.000000     -0.000000     -0.000000
    34   Atom       -0.000000      0.000000      0.000000
    35   Atom       -0.000000      0.000000      0.000000
    36   Atom        0.000000     -0.000000     -0.000000
    37   Atom        0.000000     -0.000000     -0.000000
    38   Atom        0.000000     -0.000000      0.000000
    39   Atom       -0.000000     -0.000000      0.000000
    40   Atom       -0.000000     -0.000000     -0.000000
    41   Atom       -0.000000      0.000000      0.000000
    42   Atom       -0.000000      0.000000      0.000000
    43   Atom       -0.000000     -0.000000      0.000000
    44   Atom        0.000000      0.000000      0.000000
    45   Atom        0.000000     -0.000000     -0.000000
    46   Atom       -0.000000      0.000000      0.000000
    47   Atom       -0.000000      0.000000      0.000000
    48   Atom        0.000000     -0.000000      0.000000
    49   Atom        0.000000     -0.000000     -0.000000
    50   Atom        0.000000     -0.000000     -0.000000
    51   Atom       -0.000000      0.000000     -0.000000
    52   Atom       -0.000000     -0.000000     -0.000000
    53   Atom       -0.000000     -0.000000      0.000000
 --------------------------------------------------------


 ---------------------------------------------------------------------------------
              Anisotropic Spin Dipole Couplings in Principal Axis System
 ---------------------------------------------------------------------------------

       Atom             a.u.   MegaHertz   Gauss  10(-4) cm-1        Axes

              Baa    -0.0000    -0.000    -0.000    -0.000  0.6260  0.7782  0.0504
     1 C(13)  Bbb     0.0000     0.000     0.000     0.000  0.7794 -0.6265 -0.0059
              Bcc     0.0000     0.000     0.000     0.000 -0.0270 -0.0429  0.9987
 
              Baa    -0.0000    -0.000    -0.000    -0.000 -0.1672  0.9644 -0.2050
     2 C(13)  Bbb     0.0000     0.000     0.000     0.000  0.7082  0.2622  0.6555
              Bcc     0.0000     0.000     0.000     0.000 -0.6859  0.0356  0.7268
 
              Baa    -0.0000    -0.000    -0.000    -0.000  0.9665  0.1341  0.2190
     3 C(13)  Bbb     0.0000     0.000     0.000     0.000 -0.1751 -0.2799  0.9439
              Bcc     0.0000     0.000     0.000     0.000 -0.1879  0.9506  0.2471
 
              Baa    -0.0000    -0.000    -0.000    -0.000 -0.1654  0.0280  0.9858
     4 C(13)  Bbb     0.0000     0.000     0.000     0.000 -0.3729  0.9236 -0.0888
              Bcc     0.0000     0.000     0.000     0.000  0.9130  0.3823  0.1423
 
              Baa    -0.0000    -0.000    -0.000    -0.000  0.6455  0.7587  0.0883
     5 C(13)  Bbb    -0.0000    -0.000    -0.000    -0.000  0.7497 -0.6514  0.1166
              Bcc     0.0000     0.000     0.000     0.000 -0.1460  0.0090  0.9893
 
              Baa    -0.0000    -0.000    -0.000    -0.000  0.2351 -0.4069  0.8827
     6 F(19)  Bbb    -0.0000    -0.000    -0.000    -0.000  0.6605 -0.5994 -0.4522
              Bcc     0.0000     0.000     0.000     0.000  0.7131  0.6893  0.1278
 
              Baa    -0.0000    -0.000    -0.000    -0.000 -0.3399  0.2208  0.9142
     7 C(13)  Bbb    -0.0000    -0.000    -0.000    -0.000 -0.6266  0.6717 -0.3952
              Bcc     0.0000     0.000     0.000     0.000  0.7013  0.7071  0.0900
 
              Baa    -0.0000    -0.000    -0.000    -0.000  0.2500  0.9477  0.1984
     8 C(13)  Bbb     0.0000     0.000     0.000     0.000  0.8125 -0.0939 -0.5753
              Bcc     0.0000     0.000     0.000     0.000  0.5266 -0.3050  0.7935
 
              Baa    -0.0000    -0.000    -0.000    -0.000 -0.0275  0.9718  0.2340
     9 C(13)  Bbb     0.0000     0.000     0.000     0.000  0.0560 -0.2322  0.9711
              Bcc     0.0000     0.000     0.000     0.000  0.9980  0.0398 -0.0481
 
              Baa    -0.0000    -0.000    -0.000    -0.000  0.9918 -0.0203  0.1258
    10 F(19)  Bbb    -0.0000    -0.000    -0.000    -0.000 -0.1274 -0.1904  0.9734
              Bcc     0.0000     0.000     0.000     0.000 -0.0042  0.9815  0.1914
 
              Baa    -0.0000    -0.000    -0.000    -0.000 -0.4386  0.5386  0.7194
    11 C(13)  Bbb    -0.0000    -0.000    -0.000    -0.000  0.6815  0.7211 -0.1244
              Bcc     0.0000     0.000     0.000     0.000  0.5858 -0.4357  0.6834
 
              Baa    -0.0000    -0.000    -0.000    -0.000  0.8169 -0.5272 -0.2340
    12 C(13)  Bbb    -0.0000    -0.000    -0.000    -0.000  0.1254 -0.2336  0.9642
              Bcc     0.0000     0.000     0.000     0.000  0.5630  0.8170  0.1247
 
              Baa    -0.0000    -0.000    -0.000    -0.000  0.8310 -0.5562  0.0064
    13 S(33)  Bbb     0.0000     0.000     0.000     0.000 -0.0603 -0.0786  0.9951
              Bcc     0.0000     0.000     0.000     0.000  0.5530  0.8273  0.0988
 
              Baa    -0.0000    -0.000    -0.000    -0.000  0.8184  0.5728 -0.0447
    14 C(13)  Bbb    -0.0000    -0.000    -0.000    -0.000 -0.5454  0.7990  0.2534
              Bcc     0.0000     0.000     0.000     0.000  0.1808 -0.1830  0.9663
 
              Baa    -0.0000    -0.000    -0.000    -0.000  0.1227  0.3779  0.9177
    15 C(13)  Bbb     0.0000     0.000     0.000     0.000  0.8933  0.3607 -0.2680
              Bcc     0.0000     0.000     0.000     0.000 -0.4323  0.8527 -0.2934
 
              Baa    -0.0000    -0.000    -0.000    -0.000  0.6827 -0.6814  0.2639
    16 C(13)  Bbb     0.0000     0.000     0.000     0.000  0.6575  0.4152 -0.6287
              Bcc     0.0000     0.000     0.000     0.000  0.3188  0.6027  0.7315
 
              Baa    -0.0000    -0.000    -0.000    -0.000  0.8085  0.5169 -0.2813
    17 C(13)  Bbb     0.0000     0.000     0.000     0.000 -0.5874  0.7378 -0.3325
              Bcc     0.0000     0.000     0.000     0.000  0.0357  0.4340  0.9002
 
              Baa    -0.0000    -0.000    -0.000    -0.000  0.8489  0.5240 -0.0689
    18 C(13)  Bbb     0.0000     0.000     0.000     0.000 -0.3104  0.5999  0.7374
              Bcc     0.0000     0.000     0.000     0.000  0.4277 -0.6046  0.6719
 
              Baa    -0.0000    -0.000    -0.000    -0.000  0.0267 -0.0959  0.9950
    19 F(19)  Bbb    -0.0000    -0.000    -0.000    -0.000 -0.5663  0.8188  0.0942
              Bcc     0.0000     0.000     0.000     0.000  0.8238  0.5660  0.0324
 
              Baa    -0.0000    -0.000    -0.000    -0.000  0.2159  0.9643 -0.1534
    20 C(13)  Bbb     0.0000     0.000     0.000     0.000  0.9713 -0.2281 -0.0674
              Bcc     0.0000     0.000     0.000     0.000  0.1000  0.1345  0.9859
 
              Baa    -0.0000    -0.000    -0.000    -0.000  0.5020  0.8530  0.1429
    21 C(13)  Bbb     0.0000     0.000     0.000     0.000  0.8619 -0.4797 -0.1642
              Bcc     0.0000     0.000     0.000     0.000  0.0715 -0.2056  0.9760
 
              Baa    -0.0000    -0.000    -0.000    -0.000  0.9110  0.3399 -0.2336
    22 C(13)  Bbb    -0.0000    -0.000    -0.000    -0.000  0.2485 -0.0004  0.9686
              Bcc     0.0000     0.000     0.000     0.000 -0.3291  0.9405  0.0849
 
              Baa    -0.0000    -0.000    -0.000    -0.000  0.3845  0.8496 -0.3609
    23 F(19)  Bbb     0.0000     0.000     0.000     0.000 -0.2324  0.4675  0.8529
              Bcc     0.0000     0.000     0.000     0.000  0.8934 -0.2441  0.3772
 
              Baa    -0.0000    -0.000    -0.000    -0.000  0.0429  0.9925  0.1149
    24 C(13)  Bbb    -0.0000    -0.000    -0.000    -0.000 -0.2482 -0.1008  0.9634
              Bcc     0.0000     0.000     0.000     0.000  0.9678 -0.0698  0.2420
 
              Baa    -0.0000    -0.000    -0.000    -0.000  0.9090  0.1468 -0.3900
    25 C(13)  Bbb    -0.0000    -0.000    -0.000    -0.000  0.3910  0.0227  0.9201
              Bcc     0.0000     0.000     0.000     0.000 -0.1439  0.9889  0.0368
 
              Baa    -0.0000    -0.000    -0.000    -0.000 -0.5689  0.8222 -0.0176
    26 S(33)  Bbb     0.0000     0.000     0.000     0.000 -0.1368 -0.0735  0.9879
              Bcc     0.0000     0.000     0.000     0.000  0.8109  0.5644  0.1543
 
              Baa    -0.0000    -0.000    -0.000    -0.000  0.1252  0.3207  0.9389
    27 C(13)  Bbb     0.0000     0.000     0.000     0.000  0.6729  0.6680 -0.3179
              Bcc     0.0000     0.000     0.000     0.000  0.7291 -0.6715  0.1322
 
              Baa    -0.0000    -0.000    -0.000    -0.000  0.2122  0.4708  0.8563
    28 C(13)  Bbb     0.0000     0.000     0.000     0.000 -0.2410  0.8744 -0.4211
              Bcc     0.0000     0.000     0.000     0.000  0.9471  0.1170 -0.2990
 
              Baa    -0.0000    -0.000    -0.000    -0.000  0.3600  0.3963  0.8446
    29 C(13)  Bbb    -0.0000    -0.000    -0.000    -0.000  0.8802  0.1559 -0.4483
              Bcc     0.0000     0.000     0.000     0.000 -0.3093  0.9048 -0.2927
 
              Baa    -0.0000    -0.000    -0.000    -0.000  0.2583  0.9285 -0.2666
    30 C(13)  Bbb    -0.0000    -0.000    -0.000    -0.000  0.8450 -0.3509 -0.4035
              Bcc     0.0000     0.000     0.000     0.000  0.4682  0.1211  0.8753
 
              Baa    -0.0000    -0.000    -0.000    -0.000  0.4855  0.6645  0.5681
    31 C(13)  Bbb    -0.0000    -0.000    -0.000    -0.000  0.7292 -0.6662  0.1561
              Bcc     0.0000     0.000     0.000     0.000 -0.4822 -0.3385  0.8080
 
              Baa    -0.0000    -0.000    -0.000    -0.000 -0.6092  0.7655 -0.2069
    32 F(19)  Bbb    -0.0000    -0.000    -0.000    -0.000 -0.0241  0.2429  0.9697
              Bcc     0.0000     0.000     0.000     0.000  0.7927  0.5957 -0.1296
 
              Baa    -0.0000    -0.000    -0.000    -0.000  0.4582  0.3881  0.7996
    33 C(13)  Bbb    -0.0000    -0.000    -0.000    -0.000  0.7846  0.2461 -0.5690
              Bcc     0.0000     0.000     0.000     0.000 -0.4176  0.8882 -0.1918
 
              Baa    -0.0000    -0.000    -0.000    -0.000  0.8780  0.4070 -0.2520
    34 C(13)  Bbb    -0.0000    -0.000    -0.000    -0.000  0.2400  0.0813  0.9674
              Bcc     0.0000     0.000     0.000     0.000 -0.4142  0.9098  0.0263
 
              Baa    -0.0000    -0.000    -0.000    -0.000  0.1222  0.9906 -0.0607
    35 C(13)  Bbb     0.0000     0.000     0.000     0.000 -0.5805  0.1209  0.8052
              Bcc     0.0000     0.000     0.000     0.000  0.8051 -0.0632  0.5898
 
              Baa    -0.0000    -0.000    -0.000    -0.000  0.9423 -0.1836  0.2798
    36 F(19)  Bbb    -0.0000    -0.000    -0.000    -0.000 -0.0659  0.7179  0.6930
              Bcc     0.0000     0.000     0.000     0.000  0.3281  0.6715 -0.6644
 
              Baa    -0.0000    -0.000    -0.000    -0.000  0.9516 -0.2127  0.2217
    37 C(13)  Bbb     0.0000     0.000     0.000     0.000 -0.1631  0.2620  0.9512
              Bcc     0.0000     0.000     0.000     0.000  0.2605  0.9413 -0.2146
 
              Baa    -0.0000    -0.000    -0.000    -0.000  0.3326 -0.2718  0.9031
    38 C(13)  Bbb    -0.0000    -0.000    -0.000    -0.000  0.9035 -0.1826 -0.3877
              Bcc     0.0000     0.000     0.000     0.000  0.2703  0.9449  0.1848
 
              Baa    -0.0000    -0.000    -0.000    -0.000 -0.0983 -0.5526  0.8277
    39 S(33)  Bbb    -0.0000    -0.000    -0.000    -0.000  0.8970  0.3110  0.3142
              Bcc     0.0000     0.000     0.000     0.000 -0.4310  0.7733  0.4651
 
              Baa    -0.0000    -0.000    -0.000    -0.000  0.8457  0.5051  0.1723
    40 H(1)   Bbb     0.0000     0.000     0.000     0.000 -0.3912  0.8063 -0.4437
              Bcc     0.0000     0.000     0.000     0.000 -0.3630  0.3079  0.8795
 
              Baa    -0.0000    -0.000    -0.000    -0.000  0.2298  0.9681 -0.0998
    41 H(1)   Bbb    -0.0000    -0.000    -0.000    -0.000 -0.1201  0.1299  0.9842
              Bcc     0.0000     0.000     0.000     0.000  0.9658 -0.2142  0.1461
 
              Baa    -0.0000    -0.000    -0.000    -0.000  0.0255  0.9929 -0.1163
    42 H(1)   Bbb     0.0000     0.000     0.000     0.000  0.9974 -0.0174  0.0703
              Bcc     0.0000     0.000     0.000     0.000 -0.0677  0.1178  0.9907
 
              Baa    -0.0000    -0.000    -0.000    -0.000  0.9772  0.2055  0.0530
    43 H(1)   Bbb     0.0000     0.000     0.000     0.000 -0.0418 -0.0587  0.9974
              Bcc     0.0000     0.000     0.000     0.000 -0.2081  0.9769  0.0488
 
              Baa    -0.0000    -0.000    -0.000    -0.000  0.9646 -0.2609  0.0374
    44 H(1)   Bbb    -0.0000    -0.000    -0.000    -0.000 -0.1522 -0.4357  0.8871
              Bcc     0.0000     0.000     0.000     0.000  0.2152  0.8615  0.4600
 
              Baa    -0.0000    -0.000    -0.000    -0.000  0.9350 -0.2435  0.2580
    45 H(1)   Bbb    -0.0000    -0.000    -0.000    -0.000 -0.0346  0.6610  0.7496
              Bcc     0.0000     0.000     0.000     0.000  0.3531  0.7097 -0.6096
 
              Baa    -0.0000    -0.000    -0.000    -0.000  0.5525  0.7891 -0.2684
    46 H(1)   Bbb     0.0000     0.000     0.000     0.000 -0.1012  0.3832  0.9181
              Bcc     0.0000     0.000     0.000     0.000  0.8273 -0.4801  0.2916
 
              Baa    -0.0000    -0.000    -0.000    -0.000 -0.3454 -0.4317  0.8333
    47 H(1)   Bbb    -0.0000    -0.000    -0.000    -0.000 -0.2188  0.9005  0.3758
              Bcc     0.0000     0.000     0.000     0.000  0.9126  0.0525  0.4055
 
              Baa    -0.0000    -0.000    -0.000    -0.000  0.0447 -0.0576  0.9973
    48 H(1)   Bbb    -0.0000    -0.000    -0.000    -0.000 -0.6132  0.7865  0.0729
              Bcc     0.0000     0.000     0.000     0.000  0.7886  0.6148  0.0002
 
              Baa    -0.0000    -0.000    -0.000    -0.000  0.3257  0.4696  0.8206
    49 H(1)   Bbb    -0.0000    -0.000    -0.000    -0.000  0.7455 -0.6614  0.0826
              Bcc     0.0000     0.000     0.000     0.000  0.5815  0.5848 -0.5655
 
              Baa    -0.0000    -0.000    -0.000    -0.000  0.0276  0.7106  0.7031
    50 H(1)   Bbb     0.0000     0.000     0.000     0.000  0.9957 -0.0814  0.0432
              Bcc     0.0000     0.000     0.000     0.000 -0.0879 -0.6989  0.7098
 
              Baa    -0.0000    -0.000    -0.000    -0.000  0.1745  0.6043  0.7774
    51 H(1)   Bbb    -0.0000    -0.000    -0.000    -0.000  0.9509  0.1015 -0.2924
              Bcc     0.0000     0.000     0.000     0.000 -0.2556  0.7903 -0.5569
 
              Baa    -0.0000    -0.000    -0.000    -0.000  0.8460  0.5104  0.1542
    52 H(1)   Bbb     0.0000     0.000     0.000     0.000  0.2391 -0.6217  0.7459
              Bcc     0.0000     0.000     0.000     0.000 -0.4766  0.5942  0.6480
 
              Baa    -0.0000    -0.000    -0.000    -0.000 -0.2370 -0.6072  0.7584
    53 H(1)   Bbb    -0.0000    -0.000    -0.000    -0.000  0.3925  0.6542  0.6465
              Bcc     0.0000     0.000     0.000     0.000  0.8887 -0.4509 -0.0833
 

 ---------------------------------------------------------------------------------

 No NMR shielding tensors so no spin-rotation constants.
 Leave Link  601 at Sat Jul 25 10:22:42 2020, MaxMem=  4026531840 cpu:               8.5 elap:               1.2
 (Enter /opt/ohpc/pub/libs/gaussian/g16-A.03/sandybridge/g16/l9999.exe)

 Test job not archived.
 1\1\GINC-SKYLAKE051\FOpt\ULC-wPBE\CC-pVDZ\C30H14F6S3\RDU230\25-Jul-202
 0\0\\#P uLC-wPBE/cc-pVDZ iop(3/107=0356000000, 3/108=0356000000) opt\\
 H14 C30 S3 F6\\0,1\C,10.9521988682,2.4321992195,-0.4023616453\C,10.975
 8517483,1.0672611233,-0.6722379455\C,9.8131836086,0.3139668972,-0.5805
 917386\C,8.5899449011,0.894907423,-0.2135747103\C,8.6096274671,2.26771
 35354,0.0428857035\F,7.4608150442,2.8856707627,0.3862041774\C,9.755499
 1321,3.0385476442,-0.0435431593\C,7.3616556728,0.0911308423,-0.1040217
 328\C,7.2531754019,-1.2690192273,0.0338853664\F,8.3094691917,-2.090665
 5658,0.1465898425\C,5.9361076097,-1.7827393913,0.0629417742\C,5.007757
 3163,-0.7850152678,-0.0573722164\S,5.7631080043,0.7583520568,-0.200310
 8769\C,3.5412844552,-0.9164556456,-0.0613835116\C,2.9308422634,-2.0713
 117629,-0.5621558052\C,1.5521066252,-2.2078737023,-0.5600223195\C,0.70
 89312907,-1.2011648412,-0.0649328085\C,1.349196901,-0.0569288849,0.415
 8446648\F,0.6033815881,0.9562432172,0.8992466816\C,2.7218246003,0.1003
 796107,0.4300700691\C,-0.7532314783,-1.3532365232,-0.0566495208\C,-1.4
 825563319,-2.5075297054,-0.1920077978\F,-0.9300951314,-3.7260200272,-0
 .3080869239\C,-2.8875757108,-2.3525977193,-0.1933392774\C,-3.245498824
 1,-1.0393931259,-0.0551185886\S,-1.8596950481,-0.022538049,0.075327801
 1\C,-4.6058375943,-0.4760736969,-0.0028503518\C,-4.8939421075,0.672874
 8344,0.7412865051\C,-6.1854460093,1.1766452834,0.7866679786\C,-7.23687
 69953,0.5631590073,0.0987639851\C,-6.9213994337,-0.5748011227,-0.64500
 4439\F,-7.8845305994,-1.1790564322,-1.3552060539\C,-5.6420835734,-1.09
 62885065,-0.7043249915\C,-8.6067079999,1.0962232456,0.1328392234\C,-9.
 7809311586,0.4270844343,0.3345451975\F,-9.8444992531,-0.8913836304,0.5
 432161583\C,-10.9442494955,1.2425565917,0.3398078731\C,-10.623885229,2
 .5509877466,0.1390955876\S,-8.9368527642,2.7838592001,-0.0602023953\H,
 11.8643541349,3.0291319677,-0.4745479882\H,11.9096574073,0.5801108057,
 -0.9617568758\H,9.8446072119,-0.753122095,-0.7991626061\H,9.684875399,
 4.1058546299,0.17433038\H,5.7101260702,-2.8394201594,0.2019863933\H,3.
 5451721904,-2.8697670023,-0.9833666387\H,1.1078470039,-3.1167271138,-0
 .9641284556\H,3.1315720633,1.022093329,0.8487029441\H,-3.580905816,-3.
 1903768399,-0.2604728665\H,-4.1037653076,1.1649081095,1.3133678062\H,-
 6.3985621685,2.0641676041,1.3879070649\H,-5.4661459437,-1.9735125823,-
 1.3294321829\H,-11.9517164761,0.8566209603,0.4921118299\H,-11.30084272
 1,3.4028245387,0.0900084158\\Version=EM64L-G16RevA.03\State=1-A\HF=-29
 43.7233495\S2=0.\S2-1=0.\S2A=0.\RMSD=4.629e-09\RMSF=6.286e-06\Dipole=0
 .1587875,0.3956379,-0.0771644\Quadrupole=20.8856372,-3.150067,-17.7355
 702,-7.8942808,-6.4810708,3.7466884\PG=C01 [X(C30H14F6S3)]\\@


 TERRY FORSTER, PORTLY ATLANTA BRAVES RELIEVER,
 ANNOUNCING THAT HE WAS GOING TO A FAT FARM:
 "A WAIST IS A TERRIBLE THING TO MIND."
 Job cpu time:       1 days  8 hours 20 minutes 14.2 seconds.
 Elapsed time:       0 days  4 hours  3 minutes 47.3 seconds.
 File lengths (MBytes):  RWF=    492 Int=      0 D2E=      0 Chk=     44 Scr=      8
 Normal termination of Gaussian 16 at Sat Jul 25 10:22:42 2020.
