 Entering Gaussian System, Link 0=g16
 Input=mols_65_5_29_cF-cF-N_opt_0.gjf
 Output=mols_65_5_29_cF-cF-N_opt_0.log
 Initial command:
 /opt/ohpc/pub/libs/gaussian/g16-A.03/sandybridge/g16/l1.exe "/mnt/gpfs2_4m/scratch/rdu230/ondemand/projects/dihedral_energies/7trial/wtuning/mols_65_5_29_cF-cF-N/Gau-102479.inp" -scrdir="/mnt/gpfs2_4m/scratch/rdu230/ondemand/projects/dihedral_energies/7trial/wtuning/mols_65_5_29_cF-cF-N/"
 Entering Link 1 = /opt/ohpc/pub/libs/gaussian/g16-A.03/sandybridge/g16/l1.exe PID=    102480.
  
 Copyright (c) 1988,1990,1992,1993,1995,1998,2003,2009,2016,
            Gaussian, Inc.  All Rights Reserved.
  
 This is part of the Gaussian(R) 16 program.  It is based on
 the Gaussian(R) 09 system (copyright 2009, Gaussian, Inc.),
 the Gaussian(R) 03 system (copyright 2003, Gaussian, Inc.),
 the Gaussian(R) 98 system (copyright 1998, Gaussian, Inc.),
 the Gaussian(R) 94 system (copyright 1995, Gaussian, Inc.),
 the Gaussian 92(TM) system (copyright 1992, Gaussian, Inc.),
 the Gaussian 90(TM) system (copyright 1990, Gaussian, Inc.),
 the Gaussian 88(TM) system (copyright 1988, Gaussian, Inc.),
 the Gaussian 86(TM) system (copyright 1986, Carnegie Mellon
 University), and the Gaussian 82(TM) system (copyright 1983,
 Carnegie Mellon University). Gaussian is a federally registered
 trademark of Gaussian, Inc.
  
 This software contains proprietary and confidential information,
 including trade secrets, belonging to Gaussian, Inc.
  
 This software is provided under written license and may be
 used, copied, transmitted, or stored only in accord with that
 written license.
  
 The following legend is applicable only to US Government
 contracts under FAR:
  
                    RESTRICTED RIGHTS LEGEND
  
 Use, reproduction and disclosure by the US Government is
 subject to restrictions as set forth in subparagraphs (a)
 and (c) of the Commercial Computer Software - Restricted
 Rights clause in FAR 52.227-19.
  
 Gaussian, Inc.
 340 Quinnipiac St., Bldg. 40, Wallingford CT 06492
  
  
 ---------------------------------------------------------------
 Warning -- This program may not be used in any manner that
 competes with the business of Gaussian, Inc. or will provide
 assistance to any competitor of Gaussian, Inc.  The licensee
 of this program is prohibited from giving any competitor of
 Gaussian, Inc. access to this program.  By using this program,
 the user acknowledges that Gaussian, Inc. is engaged in the
 business of creating and licensing software in the field of
 computational chemistry and represents and warrants to the
 licensee that it is not a competitor of Gaussian, Inc. and that
 it will not use this program in any manner prohibited above.
 ---------------------------------------------------------------
  

 Cite this work as:
 Gaussian 16, Revision A.03,
 M. J. Frisch, G. W. Trucks, H. B. Schlegel, G. E. Scuseria, 
 M. A. Robb, J. R. Cheeseman, G. Scalmani, V. Barone, 
 G. A. Petersson, H. Nakatsuji, X. Li, M. Caricato, A. V. Marenich, 
 J. Bloino, B. G. Janesko, R. Gomperts, B. Mennucci, H. P. Hratchian, 
 J. V. Ortiz, A. F. Izmaylov, J. L. Sonnenberg, D. Williams-Young, 
 F. Ding, F. Lipparini, F. Egidi, J. Goings, B. Peng, A. Petrone, 
 T. Henderson, D. Ranasinghe, V. G. Zakrzewski, J. Gao, N. Rega, 
 G. Zheng, W. Liang, M. Hada, M. Ehara, K. Toyota, R. Fukuda, 
 J. Hasegawa, M. Ishida, T. Nakajima, Y. Honda, O. Kitao, H. Nakai, 
 T. Vreven, K. Throssell, J. A. Montgomery, Jr., J. E. Peralta, 
 F. Ogliaro, M. J. Bearpark, J. J. Heyd, E. N. Brothers, K. N. Kudin, 
 V. N. Staroverov, T. A. Keith, R. Kobayashi, J. Normand, 
 K. Raghavachari, A. P. Rendell, J. C. Burant, S. S. Iyengar, 
 J. Tomasi, M. Cossi, J. M. Millam, M. Klene, C. Adamo, R. Cammi, 
 J. W. Ochterski, R. L. Martin, K. Morokuma, O. Farkas, 
 J. B. Foresman, and D. J. Fox, Gaussian, Inc., Wallingford CT, 2016.
 
 ******************************************
 Gaussian 16:  EM64L-G16RevA.03 25-Dec-2016
                25-Jul-2020 
 ******************************************
 %mem=30GB
 %nproc=8
 Will use up to    8 processors via shared memory.
 ---------------------------------------------------------------
 #P uLC-wPBE/cc-pVDZ iop(3/107=0255000000, 3/108=0255000000) opt
 ---------------------------------------------------------------
 1/18=20,19=15,26=3,38=1/1,3;
 2/9=110,12=2,17=6,18=5,40=1/2;
 3/5=16,11=2,25=1,30=1,71=1,74=-41,107=255000000,108=255000000,116=2/1,2,3;
 4//1;
 5/5=2,38=5/2;
 6/7=2,8=2,9=2,10=2,28=1/1;
 7//1,2,3,16;
 1/18=20,19=15,26=3/3(2);
 2/9=110/2;
 99//99;
 2/9=110/2;
 3/5=16,11=2,25=1,30=1,71=1,74=-41,107=255000000,108=255000000,116=2/1,2,3;
 4/5=5,16=3,69=1/1;
 5/5=2,38=5/2;
 7//1,2,3,16;
 1/18=20,19=15,26=3/3(-5);
 2/9=110/2;
 6/7=2,8=2,9=2,10=2,19=2,28=1/1;
 99/9=1/99;
 Leave Link    1 at Sat Jul 25 15:02:44 2020, MaxMem=  4026531840 cpu:               1.0 elap:               0.2
 (Enter /opt/ohpc/pub/libs/gaussian/g16-A.03/sandybridge/g16/l101.exe)
 -----------------
 H17 C45 S5 N5 F10
 -----------------
 Symbolic Z-matrix:
 Charge =  0 Multiplicity = 1
 C                    -19.11363  -1.45559  -0.12322 
 C                    -18.45822  -0.41136   0.54698 
 C                    -17.07956  -0.44645   0.70136 
 F                    -16.45248   0.55836   1.33908 
 C                    -16.254   -1.50544   0.19834 
 C                    -16.88656  -2.54763  -0.38567 
 F                    -16.24044  -3.63925  -0.88914 
 C                    -18.30936  -2.49998  -0.55554 
 C                    -14.76979  -1.57441   0.42224 
 N                    -14.18945  -2.52219   1.02631 
 C                    -12.78598  -2.32741   0.97596 
 C                    -12.38631  -1.10646   0.42724 
 S                    -13.77619  -0.25982  -0.1478 
 C                    -11.08604  -0.46961   0.27817 
 C                    -10.10597  -1.22245  -0.38051 
 C                    -8.77299  -0.66175  -0.54345 
 F                    -7.94031  -1.41987  -1.15867 
 C                    -8.49679   0.58896  -0.09966 
 C                    -9.48896   1.31734   0.55889 
 F                    -9.31341   2.51404   1.12597 
 C                    -10.75344   0.77801   0.7706 
 C                    -7.16944   1.21581  -0.24762 
 N                    -7.04529   2.48581  -0.78292 
 C                    -5.73763   2.71771  -0.82929 
 C                    -4.87733   1.77034  -0.44179 
 S                    -5.7694    0.4522    0.09419 
 C                    -3.40896   1.78604  -0.42388 
 C                    -2.69678   2.91568   0.08707 
 C                    -1.30584   2.93376   0.05498 
 F                    -0.67682   4.07862   0.50855 
 C                    -0.50161   1.90634  -0.45965 
 C                    -1.18277   0.71254  -0.84515 
 F                    -0.57843  -0.34121  -1.38392 
 C                    -2.59634   0.72596  -0.85716 
 C                     0.91483   1.99317  -0.47247 
 N                     1.59195   2.93619  -1.10289 
 C                     2.98805   2.74849  -0.9894 
 C                     3.32462   1.5932   -0.3564 
 S                     1.91269   0.69571   0.14832 
 C                     4.6402    0.9817   -0.15955 
 C                     5.01636  -0.29666  -0.49914 
 C                     6.30668  -0.80145  -0.35931 
 F                     6.4476   -2.10257  -0.694 
 C                     7.33124  -0.03345   0.19519 
 C                     6.99694   1.25648   0.47578 
 F                     7.90458   2.1003    0.95345 
 C                     5.69252   1.83781   0.26218 
 C                     8.63167  -0.62373   0.35577 
 N                     8.91476  -1.69874   0.91011 
 C                     10.20857  -1.94888   0.92479 
 C                     11.01234  -0.96645   0.39275 
 S                     10.03005   0.20751  -0.27682 
 C                     12.48596  -0.9254    0.18401 
 C                     13.24654   0.24726   0.49463 
 C                     14.59863   0.27304   0.44252 
 F                     15.26901   1.3425    0.76371 
 C                     15.29994  -0.87069   0.06227 
 C                     14.58794  -2.04578  -0.31597 
 F                     15.26943  -3.18774  -0.67876 
 C                     13.20412  -2.13795  -0.17229 
 C                     16.7737  -0.83959  -0.00289 
 N                     17.42771   0.08005  -0.65721 
 C                     18.79724  -0.13548  -0.56752 
 C                     19.12317  -1.20654   0.21445 
 S                     17.77091  -2.02821   0.7311 
 H                    -20.10679  -1.43497  -0.21458 
 H                    -18.95015   0.49202   0.89271 
 H                    -18.81509  -3.35247  -1.01699 
 H                    -12.10899  -3.01528   1.4108 
 H                    -10.2602  -2.21598  -0.6928 
 H                    -11.53416   1.41052   1.2899 
 H                    -5.40401   3.73987  -1.16839 
 H                    -3.25      3.80099   0.435 
 H                    -3.10499  -0.17077  -1.22399 
 H                     3.58822   3.46541  -1.4814 
 H                     4.26368  -0.97807  -0.90345 
 H                     5.50552   2.89625   0.61624 
 H                     10.55704  -2.88741   1.42746 
 H                     12.73824   1.14395   0.88367 
 H                     12.74114  -3.0202   -0.4418 
 H                     19.55267   0.59229  -0.95695 
 H                     20.14493  -1.5518    0.44964 
 
 ITRead=  0  0  0  0  0  0  0  0  0  0  0  0  0  0  0  0  0  0  0  0
 ITRead=  0  0  0  0  0  0  0  0  0  0  0  0  0  0  0  0  0  0  0  0
 ITRead=  0  0  0  0  0  0  0  0  0  0  0  0  0  0  0  0  0  0  0  0
 ITRead=  0  0  0  0  0  0  0  0  0  0  0  0  0  0  0  0  0  0  0  0
 ITRead=  0  0
 MicOpt= -1 -1 -1 -1 -1 -1 -1 -1 -1 -1 -1 -1 -1 -1 -1 -1 -1 -1 -1 -1
 MicOpt= -1 -1 -1 -1 -1 -1 -1 -1 -1 -1 -1 -1 -1 -1 -1 -1 -1 -1 -1 -1
 MicOpt= -1 -1 -1 -1 -1 -1 -1 -1 -1 -1 -1 -1 -1 -1 -1 -1 -1 -1 -1 -1
 MicOpt= -1 -1 -1 -1 -1 -1 -1 -1 -1 -1 -1 -1 -1 -1 -1 -1 -1 -1 -1 -1
 MicOpt= -1 -1
 NAtoms=     82 NQM=       82 NQMF=       0 NMMI=      0 NMMIF=      0
                NMic=       0 NMicF=      0.
                    Isotopes and Nuclear Properties:
 (Nuclear quadrupole moments (NQMom) in fm**2, nuclear magnetic moments (NMagM)
  in nuclear magnetons)

  Atom         1           2           3           4           5           6           7           8           9          10
 IAtWgt=          12          12          12          19          12          12          19          12          12          14
 AtmWgt=  12.0000000  12.0000000  12.0000000  18.9984033  12.0000000  12.0000000  18.9984033  12.0000000  12.0000000  14.0030740
 NucSpn=           0           0           0           1           0           0           1           0           0           2
 AtZEff=  -0.0000000  -0.0000000  -0.0000000  -0.0000000  -0.0000000  -0.0000000  -0.0000000  -0.0000000  -0.0000000  -0.0000000
 NQMom=    0.0000000   0.0000000   0.0000000   0.0000000   0.0000000   0.0000000   0.0000000   0.0000000   0.0000000   2.0440000
 NMagM=    0.0000000   0.0000000   0.0000000   2.6288670   0.0000000   0.0000000   2.6288670   0.0000000   0.0000000   0.4037610
 AtZNuc=   6.0000000   6.0000000   6.0000000   9.0000000   6.0000000   6.0000000   9.0000000   6.0000000   6.0000000   7.0000000

  Atom        11          12          13          14          15          16          17          18          19          20
 IAtWgt=          12          12          32          12          12          12          19          12          12          19
 AtmWgt=  12.0000000  12.0000000  31.9720718  12.0000000  12.0000000  12.0000000  18.9984033  12.0000000  12.0000000  18.9984033
 NucSpn=           0           0           0           0           0           0           1           0           0           1
 AtZEff=  -0.0000000  -0.0000000  -0.0000000  -0.0000000  -0.0000000  -0.0000000  -0.0000000  -0.0000000  -0.0000000  -0.0000000
 NQMom=    0.0000000   0.0000000   0.0000000   0.0000000   0.0000000   0.0000000   0.0000000   0.0000000   0.0000000   0.0000000
 NMagM=    0.0000000   0.0000000   0.0000000   0.0000000   0.0000000   0.0000000   2.6288670   0.0000000   0.0000000   2.6288670
 AtZNuc=   6.0000000   6.0000000  16.0000000   6.0000000   6.0000000   6.0000000   9.0000000   6.0000000   6.0000000   9.0000000

  Atom        21          22          23          24          25          26          27          28          29          30
 IAtWgt=          12          12          14          12          12          32          12          12          12          19
 AtmWgt=  12.0000000  12.0000000  14.0030740  12.0000000  12.0000000  31.9720718  12.0000000  12.0000000  12.0000000  18.9984033
 NucSpn=           0           0           2           0           0           0           0           0           0           1
 AtZEff=  -0.0000000  -0.0000000  -0.0000000  -0.0000000  -0.0000000  -0.0000000  -0.0000000  -0.0000000  -0.0000000  -0.0000000
 NQMom=    0.0000000   0.0000000   2.0440000   0.0000000   0.0000000   0.0000000   0.0000000   0.0000000   0.0000000   0.0000000
 NMagM=    0.0000000   0.0000000   0.4037610   0.0000000   0.0000000   0.0000000   0.0000000   0.0000000   0.0000000   2.6288670
 AtZNuc=   6.0000000   6.0000000   7.0000000   6.0000000   6.0000000  16.0000000   6.0000000   6.0000000   6.0000000   9.0000000

  Atom        31          32          33          34          35          36          37          38          39          40
 IAtWgt=          12          12          19          12          12          14          12          12          32          12
 AtmWgt=  12.0000000  12.0000000  18.9984033  12.0000000  12.0000000  14.0030740  12.0000000  12.0000000  31.9720718  12.0000000
 NucSpn=           0           0           1           0           0           2           0           0           0           0
 AtZEff=  -0.0000000  -0.0000000  -0.0000000  -0.0000000  -0.0000000  -0.0000000  -0.0000000  -0.0000000  -0.0000000  -0.0000000
 NQMom=    0.0000000   0.0000000   0.0000000   0.0000000   0.0000000   2.0440000   0.0000000   0.0000000   0.0000000   0.0000000
 NMagM=    0.0000000   0.0000000   2.6288670   0.0000000   0.0000000   0.4037610   0.0000000   0.0000000   0.0000000   0.0000000
 AtZNuc=   6.0000000   6.0000000   9.0000000   6.0000000   6.0000000   7.0000000   6.0000000   6.0000000  16.0000000   6.0000000

  Atom        41          42          43          44          45          46          47          48          49          50
 IAtWgt=          12          12          19          12          12          19          12          12          14          12
 AtmWgt=  12.0000000  12.0000000  18.9984033  12.0000000  12.0000000  18.9984033  12.0000000  12.0000000  14.0030740  12.0000000
 NucSpn=           0           0           1           0           0           1           0           0           2           0
 AtZEff=  -0.0000000  -0.0000000  -0.0000000  -0.0000000  -0.0000000  -0.0000000  -0.0000000  -0.0000000  -0.0000000  -0.0000000
 NQMom=    0.0000000   0.0000000   0.0000000   0.0000000   0.0000000   0.0000000   0.0000000   0.0000000   2.0440000   0.0000000
 NMagM=    0.0000000   0.0000000   2.6288670   0.0000000   0.0000000   2.6288670   0.0000000   0.0000000   0.4037610   0.0000000
 AtZNuc=   6.0000000   6.0000000   9.0000000   6.0000000   6.0000000   9.0000000   6.0000000   6.0000000   7.0000000   6.0000000

  Atom        51          52          53          54          55          56          57          58          59          60
 IAtWgt=          12          32          12          12          12          19          12          12          19          12
 AtmWgt=  12.0000000  31.9720718  12.0000000  12.0000000  12.0000000  18.9984033  12.0000000  12.0000000  18.9984033  12.0000000
 NucSpn=           0           0           0           0           0           1           0           0           1           0
 AtZEff=  -0.0000000  -0.0000000  -0.0000000  -0.0000000  -0.0000000  -0.0000000  -0.0000000  -0.0000000  -0.0000000  -0.0000000
 NQMom=    0.0000000   0.0000000   0.0000000   0.0000000   0.0000000   0.0000000   0.0000000   0.0000000   0.0000000   0.0000000
 NMagM=    0.0000000   0.0000000   0.0000000   0.0000000   0.0000000   2.6288670   0.0000000   0.0000000   2.6288670   0.0000000
 AtZNuc=   6.0000000  16.0000000   6.0000000   6.0000000   6.0000000   9.0000000   6.0000000   6.0000000   9.0000000   6.0000000

  Atom        61          62          63          64          65          66          67          68          69          70
 IAtWgt=          12          14          12          12          32           1           1           1           1           1
 AtmWgt=  12.0000000  14.0030740  12.0000000  12.0000000  31.9720718   1.0078250   1.0078250   1.0078250   1.0078250   1.0078250
 NucSpn=           0           2           0           0           0           1           1           1           1           1
 AtZEff=  -0.0000000  -0.0000000  -0.0000000  -0.0000000  -0.0000000  -0.0000000  -0.0000000  -0.0000000  -0.0000000  -0.0000000
 NQMom=    0.0000000   2.0440000   0.0000000   0.0000000   0.0000000   0.0000000   0.0000000   0.0000000   0.0000000   0.0000000
 NMagM=    0.0000000   0.4037610   0.0000000   0.0000000   0.0000000   2.7928460   2.7928460   2.7928460   2.7928460   2.7928460
 AtZNuc=   6.0000000   7.0000000   6.0000000   6.0000000  16.0000000   1.0000000   1.0000000   1.0000000   1.0000000   1.0000000

  Atom        71          72          73          74          75          76          77          78          79          80
 IAtWgt=           1           1           1           1           1           1           1           1           1           1
 AtmWgt=   1.0078250   1.0078250   1.0078250   1.0078250   1.0078250   1.0078250   1.0078250   1.0078250   1.0078250   1.0078250
 NucSpn=           1           1           1           1           1           1           1           1           1           1
 AtZEff=  -0.0000000  -0.0000000  -0.0000000  -0.0000000  -0.0000000  -0.0000000  -0.0000000  -0.0000000  -0.0000000  -0.0000000
 NQMom=    0.0000000   0.0000000   0.0000000   0.0000000   0.0000000   0.0000000   0.0000000   0.0000000   0.0000000   0.0000000
 NMagM=    2.7928460   2.7928460   2.7928460   2.7928460   2.7928460   2.7928460   2.7928460   2.7928460   2.7928460   2.7928460
 AtZNuc=   1.0000000   1.0000000   1.0000000   1.0000000   1.0000000   1.0000000   1.0000000   1.0000000   1.0000000   1.0000000

  Atom        81          82
 IAtWgt=           1           1
 AtmWgt=   1.0078250   1.0078250
 NucSpn=           1           1
 AtZEff=  -0.0000000  -0.0000000
 NQMom=    0.0000000   0.0000000
 NMagM=    2.7928460   2.7928460
 AtZNuc=   1.0000000   1.0000000
 Leave Link  101 at Sat Jul 25 15:02:45 2020, MaxMem=  4026531840 cpu:               3.6 elap:               0.5
 (Enter /opt/ohpc/pub/libs/gaussian/g16-A.03/sandybridge/g16/l103.exe)

 GradGradGradGradGradGradGradGradGradGradGradGradGradGradGradGradGradGrad
 Berny optimization.
 Initialization pass.
                           ----------------------------
                           !    Initial Parameters    !
                           ! (Angstroms and Degrees)  !
 --------------------------                            --------------------------
 ! Name  Definition              Value          Derivative Info.                !
 --------------------------------------------------------------------------------
 ! R1    R(1,2)                  1.4033         estimate D2E/DX2                !
 ! R2    R(1,8)                  1.3873         estimate D2E/DX2                !
 ! R3    R(1,66)                 0.9976         estimate D2E/DX2                !
 ! R4    R(2,3)                  1.3877         estimate D2E/DX2                !
 ! R5    R(2,67)                 1.0852         estimate D2E/DX2                !
 ! R6    R(3,4)                  1.3452         estimate D2E/DX2                !
 ! R7    R(3,5)                  1.4339         estimate D2E/DX2                !
 ! R8    R(5,6)                  1.3518         estimate D2E/DX2                !
 ! R9    R(5,9)                  1.5026         estimate D2E/DX2                !
 ! R10   R(6,7)                  1.3648         estimate D2E/DX2                !
 ! R11   R(6,8)                  1.4337         estimate D2E/DX2                !
 ! R12   R(8,68)                 1.0934         estimate D2E/DX2                !
 ! R13   R(9,10)                 1.2649         estimate D2E/DX2                !
 ! R14   R(9,13)                 1.7436         estimate D2E/DX2                !
 ! R15   R(10,11)                1.4178         estimate D2E/DX2                !
 ! R16   R(11,12)                1.397          estimate D2E/DX2                !
 ! R17   R(11,69)                1.0586         estimate D2E/DX2                !
 ! R18   R(12,13)                1.726          estimate D2E/DX2                !
 ! R19   R(12,14)                1.4555         estimate D2E/DX2                !
 ! R20   R(14,15)                1.4004         estimate D2E/DX2                !
 ! R21   R(14,21)                1.3819         estimate D2E/DX2                !
 ! R22   R(15,16)                1.4553         estimate D2E/DX2                !
 ! R23   R(15,70)                1.0528         estimate D2E/DX2                !
 ! R24   R(16,17)                1.2832         estimate D2E/DX2                !
 ! R25   R(16,18)                1.3555         estimate D2E/DX2                !
 ! R26   R(18,19)                1.3959         estimate D2E/DX2                !
 ! R27   R(18,22)                1.4754         estimate D2E/DX2                !
 ! R28   R(19,20)                1.3358         estimate D2E/DX2                !
 ! R29   R(19,21)                1.3909         estimate D2E/DX2                !
 ! R30   R(21,71)                1.131          estimate D2E/DX2                !
 ! R31   R(22,23)                1.3838         estimate D2E/DX2                !
 ! R32   R(22,26)                1.631          estimate D2E/DX2                !
 ! R33   R(23,24)                1.3289         estimate D2E/DX2                !
 ! R34   R(24,25)                1.3371         estimate D2E/DX2                !
 ! R35   R(24,72)                1.1274         estimate D2E/DX2                !
 ! R36   R(25,26)                1.6794         estimate D2E/DX2                !
 ! R37   R(25,27)                1.4686         estimate D2E/DX2                !
 ! R38   R(27,28)                1.4298         estimate D2E/DX2                !
 ! R39   R(27,34)                1.4042         estimate D2E/DX2                !
 ! R40   R(28,29)                1.3914         estimate D2E/DX2                !
 ! R41   R(28,73)                1.1004         estimate D2E/DX2                !
 ! R42   R(29,30)                1.3828         estimate D2E/DX2                !
 ! R43   R(29,31)                1.4026         estimate D2E/DX2                !
 ! R44   R(31,32)                1.4275         estimate D2E/DX2                !
 ! R45   R(31,35)                1.4192         estimate D2E/DX2                !
 ! R46   R(32,33)                1.3289         estimate D2E/DX2                !
 ! R47   R(32,34)                1.4137         estimate D2E/DX2                !
 ! R48   R(34,74)                1.0943         estimate D2E/DX2                !
 ! R49   R(35,36)                1.3211         estimate D2E/DX2                !
 ! R50   R(35,39)                1.7506         estimate D2E/DX2                !
 ! R51   R(36,37)                1.4132         estimate D2E/DX2                !
 ! R52   R(37,38)                1.3597         estimate D2E/DX2                !
 ! R53   R(37,75)                1.0565         estimate D2E/DX2                !
 ! R54   R(38,39)                1.7475         estimate D2E/DX2                !
 ! R55   R(38,40)                1.464          estimate D2E/DX2                !
 ! R56   R(40,41)                1.3752         estimate D2E/DX2                !
 ! R57   R(40,47)                1.4206         estimate D2E/DX2                !
 ! R58   R(41,42)                1.3926         estimate D2E/DX2                !
 ! R59   R(41,76)                1.0928         estimate D2E/DX2                !
 ! R60   R(42,43)                1.3509         estimate D2E/DX2                !
 ! R61   R(42,44)                1.3953         estimate D2E/DX2                !
 ! R62   R(44,45)                1.3618         estimate D2E/DX2                !
 ! R63   R(44,48)                1.4371         estimate D2E/DX2                !
 ! R64   R(45,46)                1.3282         estimate D2E/DX2                !
 ! R65   R(45,47)                1.444          estimate D2E/DX2                !
 ! R66   R(47,77)                1.1316         estimate D2E/DX2                !
 ! R67   R(48,49)                1.2422         estimate D2E/DX2                !
 ! R68   R(48,52)                1.7454         estimate D2E/DX2                !
 ! R69   R(49,50)                1.3179         estimate D2E/DX2                !
 ! R70   R(50,51)                1.3763         estimate D2E/DX2                !
 ! R71   R(50,78)                1.1202         estimate D2E/DX2                !
 ! R72   R(51,52)                1.6707         estimate D2E/DX2                !
 ! R73   R(51,53)                1.4889         estimate D2E/DX2                !
 ! R74   R(53,54)                1.4318         estimate D2E/DX2                !
 ! R75   R(53,60)                1.4536         estimate D2E/DX2                !
 ! R76   R(54,55)                1.3533         estimate D2E/DX2                !
 ! R77   R(54,79)                1.1017         estimate D2E/DX2                !
 ! R78   R(55,56)                1.3024         estimate D2E/DX2                !
 ! R79   R(55,57)                1.3945         estimate D2E/DX2                !
 ! R80   R(57,58)                1.4251         estimate D2E/DX2                !
 ! R81   R(57,61)                1.4755         estimate D2E/DX2                !
 ! R82   R(58,59)                1.3784         estimate D2E/DX2                !
 ! R83   R(58,60)                1.3943         estimate D2E/DX2                !
 ! R84   R(60,80)                1.0322         estimate D2E/DX2                !
 ! R85   R(61,62)                1.3045         estimate D2E/DX2                !
 ! R86   R(61,65)                1.7164         estimate D2E/DX2                !
 ! R87   R(62,63)                1.3893         estimate D2E/DX2                !
 ! R88   R(63,64)                1.3656         estimate D2E/DX2                !
 ! R89   R(63,81)                1.1189         estimate D2E/DX2                !
 ! R90   R(64,65)                1.6645         estimate D2E/DX2                !
 ! R91   R(64,82)                1.1039         estimate D2E/DX2                !
 ! A1    A(2,1,8)              115.994          estimate D2E/DX2                !
 ! A2    A(2,1,66)             119.5615         estimate D2E/DX2                !
 ! A3    A(8,1,66)             124.3477         estimate D2E/DX2                !
 ! A4    A(1,2,3)              119.8897         estimate D2E/DX2                !
 ! A5    A(1,2,67)             124.0492         estimate D2E/DX2                !
 ! A6    A(3,2,67)             115.8467         estimate D2E/DX2                !
 ! A7    A(2,3,4)              119.8002         estimate D2E/DX2                !
 ! A8    A(2,3,5)              123.4793         estimate D2E/DX2                !
 ! A9    A(4,3,5)              116.7164         estimate D2E/DX2                !
 ! A10   A(3,5,6)              116.8426         estimate D2E/DX2                !
 ! A11   A(3,5,9)              123.3899         estimate D2E/DX2                !
 ! A12   A(6,5,9)              119.4194         estimate D2E/DX2                !
 ! A13   A(5,6,7)              123.6768         estimate D2E/DX2                !
 ! A14   A(5,6,8)              119.3365         estimate D2E/DX2                !
 ! A15   A(7,6,8)              116.9178         estimate D2E/DX2                !
 ! A16   A(1,8,6)              124.2946         estimate D2E/DX2                !
 ! A17   A(1,8,68)             116.7659         estimate D2E/DX2                !
 ! A18   A(6,8,68)             118.8894         estimate D2E/DX2                !
 ! A19   A(5,9,10)             123.9685         estimate D2E/DX2                !
 ! A20   A(5,9,13)             118.6563         estimate D2E/DX2                !
 ! A21   A(10,9,13)            117.361          estimate D2E/DX2                !
 ! A22   A(9,10,11)            109.5273         estimate D2E/DX2                !
 ! A23   A(10,11,12)           114.659          estimate D2E/DX2                !
 ! A24   A(10,11,69)           121.9518         estimate D2E/DX2                !
 ! A25   A(12,11,69)           123.1146         estimate D2E/DX2                !
 ! A26   A(11,12,13)           109.2196         estimate D2E/DX2                !
 ! A27   A(11,12,14)           132.705          estimate D2E/DX2                !
 ! A28   A(13,12,14)           118.0739         estimate D2E/DX2                !
 ! A29   A(9,13,12)             88.8617         estimate D2E/DX2                !
 ! A30   A(12,14,15)           115.986          estimate D2E/DX2                !
 ! A31   A(12,14,21)           124.9979         estimate D2E/DX2                !
 ! A32   A(15,14,21)           118.9802         estimate D2E/DX2                !
 ! A33   A(14,15,16)           119.1158         estimate D2E/DX2                !
 ! A34   A(14,15,70)           122.9774         estimate D2E/DX2                !
 ! A35   A(16,15,70)           117.6822         estimate D2E/DX2                !
 ! A36   A(15,16,17)           114.8619         estimate D2E/DX2                !
 ! A37   A(15,16,18)           120.3627         estimate D2E/DX2                !
 ! A38   A(17,16,18)           124.7404         estimate D2E/DX2                !
 ! A39   A(16,18,19)           119.41           estimate D2E/DX2                !
 ! A40   A(16,18,22)           122.854          estimate D2E/DX2                !
 ! A41   A(19,18,22)           117.715          estimate D2E/DX2                !
 ! A42   A(18,19,20)           125.0504         estimate D2E/DX2                !
 ! A43   A(18,19,21)           121.0403         estimate D2E/DX2                !
 ! A44   A(20,19,21)           113.7171         estimate D2E/DX2                !
 ! A45   A(14,21,19)           120.9735         estimate D2E/DX2                !
 ! A46   A(14,21,71)           120.1561         estimate D2E/DX2                !
 ! A47   A(19,21,71)           118.7223         estimate D2E/DX2                !
 ! A48   A(18,22,23)           120.6274         estimate D2E/DX2                !
 ! A49   A(18,22,26)           123.5287         estimate D2E/DX2                !
 ! A50   A(23,22,26)           115.7058         estimate D2E/DX2                !
 ! A51   A(22,23,24)           105.1854         estimate D2E/DX2                !
 ! A52   A(23,24,25)           119.9596         estimate D2E/DX2                !
 ! A53   A(23,24,72)           117.3804         estimate D2E/DX2                !
 ! A54   A(25,24,72)           122.6259         estimate D2E/DX2                !
 ! A55   A(24,25,26)           107.8683         estimate D2E/DX2                !
 ! A56   A(24,25,27)           129.7391         estimate D2E/DX2                !
 ! A57   A(26,25,27)           122.3844         estimate D2E/DX2                !
 ! A58   A(22,26,25)            91.2383         estimate D2E/DX2                !
 ! A59   A(25,27,28)           120.7195         estimate D2E/DX2                !
 ! A60   A(25,27,34)           124.5266         estimate D2E/DX2                !
 ! A61   A(28,27,34)           114.7365         estimate D2E/DX2                !
 ! A62   A(27,28,29)           119.9964         estimate D2E/DX2                !
 ! A63   A(27,28,73)           119.8813         estimate D2E/DX2                !
 ! A64   A(29,28,73)           119.9608         estimate D2E/DX2                !
 ! A65   A(28,29,30)           117.2532         estimate D2E/DX2                !
 ! A66   A(28,29,31)           124.8997         estimate D2E/DX2                !
 ! A67   A(30,29,31)           117.7752         estimate D2E/DX2                !
 ! A68   A(29,31,32)           115.9812         estimate D2E/DX2                !
 ! A69   A(29,31,35)           122.0595         estimate D2E/DX2                !
 ! A70   A(32,31,35)           121.6671         estimate D2E/DX2                !
 ! A71   A(31,32,33)           123.7541         estimate D2E/DX2                !
 ! A72   A(31,32,34)           118.131          estimate D2E/DX2                !
 ! A73   A(33,32,34)           117.3114         estimate D2E/DX2                !
 ! A74   A(27,34,32)           125.6758         estimate D2E/DX2                !
 ! A75   A(27,34,74)           116.9415         estimate D2E/DX2                !
 ! A76   A(32,34,74)           117.3783         estimate D2E/DX2                !
 ! A77   A(31,35,36)           124.0253         estimate D2E/DX2                !
 ! A78   A(31,35,39)           121.3581         estimate D2E/DX2                !
 ! A79   A(36,35,39)           113.9616         estimate D2E/DX2                !
 ! A80   A(35,36,37)           111.9141         estimate D2E/DX2                !
 ! A81   A(36,37,38)           113.252          estimate D2E/DX2                !
 ! A82   A(36,37,75)           115.6995         estimate D2E/DX2                !
 ! A83   A(38,37,75)           130.7502         estimate D2E/DX2                !
 ! A84   A(37,38,39)           111.7682         estimate D2E/DX2                !
 ! A85   A(37,38,40)           129.7862         estimate D2E/DX2                !
 ! A86   A(39,38,40)           118.2092         estimate D2E/DX2                !
 ! A87   A(35,39,38)            88.7101         estimate D2E/DX2                !
 ! A88   A(38,40,41)           126.9324         estimate D2E/DX2                !
 ! A89   A(38,40,47)           116.9907         estimate D2E/DX2                !
 ! A90   A(41,40,47)           115.5249         estimate D2E/DX2                !
 ! A91   A(40,41,42)           124.4456         estimate D2E/DX2                !
 ! A92   A(40,41,76)           118.8552         estimate D2E/DX2                !
 ! A93   A(42,41,76)           116.6985         estimate D2E/DX2                !
 ! A94   A(41,42,43)           114.8922         estimate D2E/DX2                !
 ! A95   A(41,42,44)           121.3819         estimate D2E/DX2                !
 ! A96   A(43,42,44)           123.5043         estimate D2E/DX2                !
 ! A97   A(42,44,45)           115.0234         estimate D2E/DX2                !
 ! A98   A(42,44,48)           118.8658         estimate D2E/DX2                !
 ! A99   A(45,44,48)           126.0282         estimate D2E/DX2                !
 ! A100  A(44,45,46)           120.5411         estimate D2E/DX2                !
 ! A101  A(44,45,47)           124.9343         estimate D2E/DX2                !
 ! A102  A(46,45,47)           114.5038         estimate D2E/DX2                !
 ! A103  A(40,47,45)           118.0637         estimate D2E/DX2                !
 ! A104  A(40,47,77)           122.2842         estimate D2E/DX2                !
 ! A105  A(45,47,77)           118.6555         estimate D2E/DX2                !
 ! A106  A(44,48,49)           127.6997         estimate D2E/DX2                !
 ! A107  A(44,48,52)           119.2655         estimate D2E/DX2                !
 ! A108  A(49,48,52)           113.0348         estimate D2E/DX2                !
 ! A109  A(48,49,50)           113.1388         estimate D2E/DX2                !
 ! A110  A(49,50,51)           115.6931         estimate D2E/DX2                !
 ! A111  A(49,50,78)           117.9955         estimate D2E/DX2                !
 ! A112  A(51,50,78)           126.1443         estimate D2E/DX2                !
 ! A113  A(50,51,52)           108.2477         estimate D2E/DX2                !
 ! A114  A(50,51,53)           130.6834         estimate D2E/DX2                !
 ! A115  A(52,51,53)           120.4206         estimate D2E/DX2                !
 ! A116  A(48,52,51)            89.4937         estimate D2E/DX2                !
 ! A117  A(51,53,54)           121.1928         estimate D2E/DX2                !
 ! A118  A(51,53,60)           120.0229         estimate D2E/DX2                !
 ! A119  A(54,53,60)           118.2888         estimate D2E/DX2                !
 ! A120  A(53,54,55)           122.5451         estimate D2E/DX2                !
 ! A121  A(53,54,79)           119.8751         estimate D2E/DX2                !
 ! A122  A(55,54,79)           117.3249         estimate D2E/DX2                !
 ! A123  A(54,55,56)           121.3582         estimate D2E/DX2                !
 ! A124  A(54,55,57)           119.8233         estimate D2E/DX2                !
 ! A125  A(56,55,57)           118.8077         estimate D2E/DX2                !
 ! A126  A(55,57,58)           119.8294         estimate D2E/DX2                !
 ! A127  A(55,57,61)           119.8061         estimate D2E/DX2                !
 ! A128  A(58,57,61)           120.3107         estimate D2E/DX2                !
 ! A129  A(57,58,59)           120.3949         estimate D2E/DX2                !
 ! A130  A(57,58,60)           121.535          estimate D2E/DX2                !
 ! A131  A(59,58,60)           117.5831         estimate D2E/DX2                !
 ! A132  A(53,60,58)           117.4164         estimate D2E/DX2                !
 ! A133  A(53,60,80)           123.7391         estimate D2E/DX2                !
 ! A134  A(58,60,80)           118.3443         estimate D2E/DX2                !
 ! A135  A(57,61,62)           122.5327         estimate D2E/DX2                !
 ! A136  A(57,61,65)           123.1486         estimate D2E/DX2                !
 ! A137  A(62,61,65)           114.295          estimate D2E/DX2                !
 ! A138  A(61,62,63)           110.639          estimate D2E/DX2                !
 ! A139  A(62,63,64)           113.1989         estimate D2E/DX2                !
 ! A140  A(62,63,81)           122.831          estimate D2E/DX2                !
 ! A141  A(64,63,81)           123.2502         estimate D2E/DX2                !
 ! A142  A(63,64,65)           111.7777         estimate D2E/DX2                !
 ! A143  A(63,64,82)           126.0318         estimate D2E/DX2                !
 ! A144  A(65,64,82)           122.1028         estimate D2E/DX2                !
 ! A145  A(61,65,64)            89.8517         estimate D2E/DX2                !
 ! D1    D(8,1,2,3)              2.135          estimate D2E/DX2                !
 ! D2    D(8,1,2,67)           176.5873         estimate D2E/DX2                !
 ! D3    D(66,1,2,3)           178.7142         estimate D2E/DX2                !
 ! D4    D(66,1,2,67)           -6.8335         estimate D2E/DX2                !
 ! D5    D(2,1,8,6)             -1.5332         estimate D2E/DX2                !
 ! D6    D(2,1,8,68)           175.8592         estimate D2E/DX2                !
 ! D7    D(66,1,8,6)          -177.9291         estimate D2E/DX2                !
 ! D8    D(66,1,8,68)           -0.5367         estimate D2E/DX2                !
 ! D9    D(1,2,3,4)            179.7135         estimate D2E/DX2                !
 ! D10   D(1,2,3,5)              0.4796         estimate D2E/DX2                !
 ! D11   D(67,2,3,4)             4.8198         estimate D2E/DX2                !
 ! D12   D(67,2,3,5)          -174.4141         estimate D2E/DX2                !
 ! D13   D(2,3,5,6)             -3.8505         estimate D2E/DX2                !
 ! D14   D(2,3,5,9)           -177.0223         estimate D2E/DX2                !
 ! D15   D(4,3,5,6)            176.8937         estimate D2E/DX2                !
 ! D16   D(4,3,5,9)              3.7219         estimate D2E/DX2                !
 ! D17   D(3,5,6,7)           -178.7649         estimate D2E/DX2                !
 ! D18   D(3,5,6,8)              4.3521         estimate D2E/DX2                !
 ! D19   D(9,5,6,7)             -5.3089         estimate D2E/DX2                !
 ! D20   D(9,5,6,8)            177.8081         estimate D2E/DX2                !
 ! D21   D(3,5,9,10)           119.6457         estimate D2E/DX2                !
 ! D22   D(3,5,9,13)           -58.9456         estimate D2E/DX2                !
 ! D23   D(6,5,9,10)           -53.3591         estimate D2E/DX2                !
 ! D24   D(6,5,9,13)           128.0497         estimate D2E/DX2                !
 ! D25   D(5,6,8,1)             -1.8722         estimate D2E/DX2                !
 ! D26   D(5,6,8,68)          -179.2131         estimate D2E/DX2                !
 ! D27   D(7,6,8,1)           -178.9634         estimate D2E/DX2                !
 ! D28   D(7,6,8,68)             3.6958         estimate D2E/DX2                !
 ! D29   D(5,9,10,11)          175.6752         estimate D2E/DX2                !
 ! D30   D(13,9,10,11)          -5.7167         estimate D2E/DX2                !
 ! D31   D(5,9,13,12)         -178.5888         estimate D2E/DX2                !
 ! D32   D(10,9,13,12)           2.7267         estimate D2E/DX2                !
 ! D33   D(9,10,11,12)           6.7148         estimate D2E/DX2                !
 ! D34   D(9,10,11,69)        -179.1306         estimate D2E/DX2                !
 ! D35   D(10,11,12,13)         -4.7419         estimate D2E/DX2                !
 ! D36   D(10,11,12,14)        174.7922         estimate D2E/DX2                !
 ! D37   D(69,11,12,13)       -178.82           estimate D2E/DX2                !
 ! D38   D(69,11,12,14)          0.714          estimate D2E/DX2                !
 ! D39   D(11,12,13,9)           1.3213         estimate D2E/DX2                !
 ! D40   D(14,12,13,9)        -178.2906         estimate D2E/DX2                !
 ! D41   D(11,12,14,15)         54.6643         estimate D2E/DX2                !
 ! D42   D(11,12,14,21)       -123.1252         estimate D2E/DX2                !
 ! D43   D(13,12,14,15)       -125.8344         estimate D2E/DX2                !
 ! D44   D(13,12,14,21)         56.3761         estimate D2E/DX2                !
 ! D45   D(12,14,15,16)       -178.7885         estimate D2E/DX2                !
 ! D46   D(12,14,15,70)         -4.3636         estimate D2E/DX2                !
 ! D47   D(21,14,15,16)         -0.8585         estimate D2E/DX2                !
 ! D48   D(21,14,15,70)        173.5665         estimate D2E/DX2                !
 ! D49   D(12,14,21,19)       -178.8645         estimate D2E/DX2                !
 ! D50   D(12,14,21,71)         -3.3432         estimate D2E/DX2                !
 ! D51   D(15,14,21,19)          3.407          estimate D2E/DX2                !
 ! D52   D(15,14,21,71)        178.9283         estimate D2E/DX2                !
 ! D53   D(14,15,16,17)       -179.9659         estimate D2E/DX2                !
 ! D54   D(14,15,16,18)         -2.0163         estimate D2E/DX2                !
 ! D55   D(70,15,16,17)          5.3146         estimate D2E/DX2                !
 ! D56   D(70,15,16,18)       -176.7358         estimate D2E/DX2                !
 ! D57   D(15,16,18,19)          2.3033         estimate D2E/DX2                !
 ! D58   D(15,16,18,22)       -179.4027         estimate D2E/DX2                !
 ! D59   D(17,16,18,19)       -179.9607         estimate D2E/DX2                !
 ! D60   D(17,16,18,22)         -1.6668         estimate D2E/DX2                !
 ! D61   D(16,18,19,20)        174.875          estimate D2E/DX2                !
 ! D62   D(16,18,19,21)          0.2367         estimate D2E/DX2                !
 ! D63   D(22,18,19,20)         -3.5061         estimate D2E/DX2                !
 ! D64   D(22,18,19,21)       -178.1445         estimate D2E/DX2                !
 ! D65   D(16,18,22,23)        129.7312         estimate D2E/DX2                !
 ! D66   D(16,18,22,26)        -45.8109         estimate D2E/DX2                !
 ! D67   D(19,18,22,23)        -51.9475         estimate D2E/DX2                !
 ! D68   D(19,18,22,26)        132.5103         estimate D2E/DX2                !
 ! D69   D(18,19,21,14)         -3.1875         estimate D2E/DX2                !
 ! D70   D(18,19,21,71)       -178.7717         estimate D2E/DX2                !
 ! D71   D(20,19,21,14)       -178.3946         estimate D2E/DX2                !
 ! D72   D(20,19,21,71)          6.0211         estimate D2E/DX2                !
 ! D73   D(18,22,23,24)       -177.2752         estimate D2E/DX2                !
 ! D74   D(26,22,23,24)         -1.3989         estimate D2E/DX2                !
 ! D75   D(18,22,26,25)        176.0347         estimate D2E/DX2                !
 ! D76   D(23,22,26,25)          0.2916         estimate D2E/DX2                !
 ! D77   D(22,23,24,25)          2.2713         estimate D2E/DX2                !
 ! D78   D(22,23,24,72)       -175.6596         estimate D2E/DX2                !
 ! D79   D(23,24,25,26)         -2.1292         estimate D2E/DX2                !
 ! D80   D(23,24,25,27)        178.9087         estimate D2E/DX2                !
 ! D81   D(72,24,25,26)        175.6892         estimate D2E/DX2                !
 ! D82   D(72,24,25,27)         -3.2729         estimate D2E/DX2                !
 ! D83   D(24,25,26,22)          0.9246         estimate D2E/DX2                !
 ! D84   D(27,25,26,22)        179.9795         estimate D2E/DX2                !
 ! D85   D(24,25,27,28)         45.6254         estimate D2E/DX2                !
 ! D86   D(24,25,27,34)       -135.9681         estimate D2E/DX2                !
 ! D87   D(26,25,27,28)       -133.2048         estimate D2E/DX2                !
 ! D88   D(26,25,27,34)         45.2016         estimate D2E/DX2                !
 ! D89   D(25,27,28,29)       -177.8081         estimate D2E/DX2                !
 ! D90   D(25,27,28,73)         -2.4281         estimate D2E/DX2                !
 ! D91   D(34,27,28,29)          3.6374         estimate D2E/DX2                !
 ! D92   D(34,27,28,73)        179.0174         estimate D2E/DX2                !
 ! D93   D(25,27,34,32)       -179.6959         estimate D2E/DX2                !
 ! D94   D(25,27,34,74)         -0.4861         estimate D2E/DX2                !
 ! D95   D(28,27,34,32)         -1.2042         estimate D2E/DX2                !
 ! D96   D(28,27,34,74)        178.0055         estimate D2E/DX2                !
 ! D97   D(27,28,29,30)        177.1751         estimate D2E/DX2                !
 ! D98   D(27,28,29,31)          0.3387         estimate D2E/DX2                !
 ! D99   D(73,28,29,30)          1.7988         estimate D2E/DX2                !
 ! D100  D(73,28,29,31)       -175.0376         estimate D2E/DX2                !
 ! D101  D(28,29,31,32)         -6.6659         estimate D2E/DX2                !
 ! D102  D(28,29,31,35)        179.4487         estimate D2E/DX2                !
 ! D103  D(30,29,31,32)        176.5128         estimate D2E/DX2                !
 ! D104  D(30,29,31,35)          2.6275         estimate D2E/DX2                !
 ! D105  D(29,31,32,33)        178.0892         estimate D2E/DX2                !
 ! D106  D(29,31,32,34)          8.6477         estimate D2E/DX2                !
 ! D107  D(35,31,32,33)         -7.9994         estimate D2E/DX2                !
 ! D108  D(35,31,32,34)       -177.4408         estimate D2E/DX2                !
 ! D109  D(29,31,35,36)        -60.0264         estimate D2E/DX2                !
 ! D110  D(29,31,35,39)        129.8181         estimate D2E/DX2                !
 ! D111  D(32,31,35,36)        126.4332         estimate D2E/DX2                !
 ! D112  D(32,31,35,39)        -43.7223         estimate D2E/DX2                !
 ! D113  D(31,32,34,27)         -5.1429         estimate D2E/DX2                !
 ! D114  D(31,32,34,74)        175.6504         estimate D2E/DX2                !
 ! D115  D(33,32,34,27)       -175.2699         estimate D2E/DX2                !
 ! D116  D(33,32,34,74)          5.5235         estimate D2E/DX2                !
 ! D117  D(31,35,36,37)       -177.7328         estimate D2E/DX2                !
 ! D118  D(39,35,36,37)         -6.9264         estimate D2E/DX2                !
 ! D119  D(31,35,39,38)        176.5465         estimate D2E/DX2                !
 ! D120  D(36,35,39,38)          5.4671         estimate D2E/DX2                !
 ! D121  D(35,36,37,38)          4.9835         estimate D2E/DX2                !
 ! D122  D(35,36,37,75)        179.3948         estimate D2E/DX2                !
 ! D123  D(36,37,38,39)         -0.8143         estimate D2E/DX2                !
 ! D124  D(36,37,38,40)        173.4039         estimate D2E/DX2                !
 ! D125  D(75,37,38,39)       -174.1625         estimate D2E/DX2                !
 ! D126  D(75,37,38,40)          0.0557         estimate D2E/DX2                !
 ! D127  D(37,38,39,35)         -2.4468         estimate D2E/DX2                !
 ! D128  D(40,38,39,35)       -177.4071         estimate D2E/DX2                !
 ! D129  D(37,38,40,41)       -125.6642         estimate D2E/DX2                !
 ! D130  D(37,38,40,47)         45.3855         estimate D2E/DX2                !
 ! D131  D(39,38,40,41)         48.2414         estimate D2E/DX2                !
 ! D132  D(39,38,40,47)       -140.7089         estimate D2E/DX2                !
 ! D133  D(38,40,41,42)        176.067          estimate D2E/DX2                !
 ! D134  D(38,40,41,76)         -4.2297         estimate D2E/DX2                !
 ! D135  D(47,40,41,42)          4.9042         estimate D2E/DX2                !
 ! D136  D(47,40,41,76)       -175.3925         estimate D2E/DX2                !
 ! D137  D(38,40,47,45)        179.4196         estimate D2E/DX2                !
 ! D138  D(38,40,47,77)         11.0015         estimate D2E/DX2                !
 ! D139  D(41,40,47,45)         -8.5016         estimate D2E/DX2                !
 ! D140  D(41,40,47,77)       -176.9197         estimate D2E/DX2                !
 ! D141  D(40,41,42,43)        177.0175         estimate D2E/DX2                !
 ! D142  D(40,41,42,44)          2.2449         estimate D2E/DX2                !
 ! D143  D(76,41,42,43)         -2.6916         estimate D2E/DX2                !
 ! D144  D(76,41,42,44)       -177.4642         estimate D2E/DX2                !
 ! D145  D(41,42,44,45)         -5.1991         estimate D2E/DX2                !
 ! D146  D(41,42,44,48)        177.9055         estimate D2E/DX2                !
 ! D147  D(43,42,44,45)       -179.511          estimate D2E/DX2                !
 ! D148  D(43,42,44,48)          3.5936         estimate D2E/DX2                !
 ! D149  D(42,44,45,46)       -177.1279         estimate D2E/DX2                !
 ! D150  D(42,44,45,47)          1.1214         estimate D2E/DX2                !
 ! D151  D(48,44,45,46)         -0.4901         estimate D2E/DX2                !
 ! D152  D(48,44,45,47)        177.7592         estimate D2E/DX2                !
 ! D153  D(42,44,48,49)        -51.9726         estimate D2E/DX2                !
 ! D154  D(42,44,48,52)        128.0004         estimate D2E/DX2                !
 ! D155  D(45,44,48,49)        131.5064         estimate D2E/DX2                !
 ! D156  D(45,44,48,52)        -48.5206         estimate D2E/DX2                !
 ! D157  D(44,45,47,40)          5.9202         estimate D2E/DX2                !
 ! D158  D(44,45,47,77)        174.7676         estimate D2E/DX2                !
 ! D159  D(46,45,47,40)       -175.7369         estimate D2E/DX2                !
 ! D160  D(46,45,47,77)         -6.8894         estimate D2E/DX2                !
 ! D161  D(44,48,49,50)       -178.3551         estimate D2E/DX2                !
 ! D162  D(52,48,49,50)          1.6704         estimate D2E/DX2                !
 ! D163  D(44,48,52,51)        175.5634         estimate D2E/DX2                !
 ! D164  D(49,48,52,51)         -4.4598         estimate D2E/DX2                !
 ! D165  D(48,49,50,51)          2.9777         estimate D2E/DX2                !
 ! D166  D(48,49,50,78)        178.5708         estimate D2E/DX2                !
 ! D167  D(49,50,51,52)         -6.2049         estimate D2E/DX2                !
 ! D168  D(49,50,51,53)       -176.7789         estimate D2E/DX2                !
 ! D169  D(78,50,51,52)        178.6147         estimate D2E/DX2                !
 ! D170  D(78,50,51,53)          8.0407         estimate D2E/DX2                !
 ! D171  D(50,51,52,48)          5.6015         estimate D2E/DX2                !
 ! D172  D(53,51,52,48)        177.3209         estimate D2E/DX2                !
 ! D173  D(50,51,53,54)       -136.8603         estimate D2E/DX2                !
 ! D174  D(50,51,53,60)         34.9257         estimate D2E/DX2                !
 ! D175  D(52,51,53,54)         53.5309         estimate D2E/DX2                !
 ! D176  D(52,51,53,60)       -134.683          estimate D2E/DX2                !
 ! D177  D(51,53,54,55)        173.2676         estimate D2E/DX2                !
 ! D178  D(51,53,54,79)         -0.776          estimate D2E/DX2                !
 ! D179  D(60,53,54,55)          1.343          estimate D2E/DX2                !
 ! D180  D(60,53,54,79)       -172.7005         estimate D2E/DX2                !
 ! D181  D(51,53,60,58)       -178.1479         estimate D2E/DX2                !
 ! D182  D(51,53,60,80)         10.116          estimate D2E/DX2                !
 ! D183  D(54,53,60,58)         -6.1258         estimate D2E/DX2                !
 ! D184  D(54,53,60,80)       -177.8619         estimate D2E/DX2                !
 ! D185  D(53,54,55,56)       -178.1786         estimate D2E/DX2                !
 ! D186  D(53,54,55,57)          0.6175         estimate D2E/DX2                !
 ! D187  D(79,54,55,56)         -3.9918         estimate D2E/DX2                !
 ! D188  D(79,54,55,57)        174.8044         estimate D2E/DX2                !
 ! D189  D(54,55,57,58)          2.2639         estimate D2E/DX2                !
 ! D190  D(54,55,57,61)        179.6032         estimate D2E/DX2                !
 ! D191  D(56,55,57,58)       -178.9093         estimate D2E/DX2                !
 ! D192  D(56,55,57,61)         -1.57           estimate D2E/DX2                !
 ! D193  D(55,57,58,59)       -179.2345         estimate D2E/DX2                !
 ! D194  D(55,57,58,60)         -7.4353         estimate D2E/DX2                !
 ! D195  D(61,57,58,59)          3.4399         estimate D2E/DX2                !
 ! D196  D(61,57,58,60)        175.239          estimate D2E/DX2                !
 ! D197  D(55,57,61,62)        -51.3787         estimate D2E/DX2                !
 ! D198  D(55,57,61,65)        130.4948         estimate D2E/DX2                !
 ! D199  D(58,57,61,62)        125.9476         estimate D2E/DX2                !
 ! D200  D(58,57,61,65)        -52.179          estimate D2E/DX2                !
 ! D201  D(57,58,60,53)          9.1895         estimate D2E/DX2                !
 ! D202  D(57,58,60,80)       -178.6157         estimate D2E/DX2                !
 ! D203  D(59,58,60,53)       -178.7898         estimate D2E/DX2                !
 ! D204  D(59,58,60,80)         -6.5951         estimate D2E/DX2                !
 ! D205  D(57,61,62,63)       -179.3286         estimate D2E/DX2                !
 ! D206  D(65,61,62,63)         -1.0495         estimate D2E/DX2                !
 ! D207  D(57,61,65,64)       -178.4577         estimate D2E/DX2                !
 ! D208  D(62,61,65,64)          3.2751         estimate D2E/DX2                !
 ! D209  D(61,62,63,64)         -2.4647         estimate D2E/DX2                !
 ! D210  D(61,62,63,81)       -173.0223         estimate D2E/DX2                !
 ! D211  D(62,63,64,65)          4.9453         estimate D2E/DX2                !
 ! D212  D(62,63,64,82)       -178.4222         estimate D2E/DX2                !
 ! D213  D(81,63,64,65)        175.4575         estimate D2E/DX2                !
 ! D214  D(81,63,64,82)         -7.91           estimate D2E/DX2                !
 ! D215  D(63,64,65,61)         -4.5321         estimate D2E/DX2                !
 ! D216  D(82,64,65,61)        178.6825         estimate D2E/DX2                !
 --------------------------------------------------------------------------------
 Trust Radius=3.00D-01 FncErr=1.00D-07 GrdErr=1.00D-06 EigMax=2.50D+02 EigMin=1.00D-04
 Number of steps in this run=    462 maximum allowed number of steps=    492.
 GradGradGradGradGradGradGradGradGradGradGradGradGradGradGradGradGradGrad

 Leave Link  103 at Sat Jul 25 15:02:45 2020, MaxMem=  4026531840 cpu:               0.1 elap:               0.0
 (Enter /opt/ohpc/pub/libs/gaussian/g16-A.03/sandybridge/g16/l202.exe)
 Stoichiometry    C45H17F10N5S5
 Framework group  C1[X(C45H17F10N5S5)]
 Deg. of freedom   240
 Full point group                 C1      NOp   1
 Largest Abelian subgroup         C1      NOp   1
 Largest concise Abelian subgroup C1      NOp   1
                         Standard orientation:                         
 ---------------------------------------------------------------------
 Center     Atomic      Atomic             Coordinates (Angstroms)
 Number     Number       Type             X           Y           Z
 ---------------------------------------------------------------------
      1          6           0      -19.113223   -1.462850   -0.107498
      2          6           0      -18.458212   -0.414668    0.556900
      3          6           0      -17.079541   -0.448351    0.711441
      4          9           0      -16.452840    0.560223    1.343569
      5          6           0      -16.253569   -1.509782    0.214268
      6          6           0      -16.885719   -2.555446   -0.363954
      7          9           0      -16.239178   -3.649572   -0.861384
      8          6           0      -18.308544   -2.509297   -0.534050
      9          6           0      -14.769324   -1.576918    0.438505
     10          7           0      -14.188597   -2.521117    1.047799
     11          6           0      -12.785199   -2.326059    0.996338
     12          6           0      -12.386033   -1.108006    0.440862
     13         16           0      -13.776260   -0.265115   -0.138818
     14          6           0      -11.086020   -0.471464    0.288236
     15          6           0      -10.105664   -1.227549   -0.366283
     16          6           0       -8.772913   -0.667229   -0.532362
     17          9           0       -7.939943   -1.428419   -1.143397
     18          6           0       -8.497199    0.586027   -0.095509
     19          6           0       -9.489645    1.317638    0.559025
     20          9           0       -9.314559    2.517532    1.119467
     21          6           0      -10.753907    0.778987    0.773745
     22          6           0       -7.170102    1.212574   -0.246967
     23          7           0       -7.046470    2.479640   -0.789294
     24          6           0       -5.738900    2.711802   -0.836973
     25          6           0       -4.878212    1.766932   -0.444262
     26         16           0       -5.769744    0.451428    0.099033
     27          6           0       -3.409855    1.783317   -0.426475
     28          6           0       -2.698109    2.916048    0.078205
     29          6           0       -1.307176    2.934505    0.045975
     30          9           0       -0.678606    4.082111    0.493185
     31          6           0       -0.502548    1.904579   -0.462978
     32          6           0       -1.183245    0.708389   -0.841844
     33          9           0       -0.578494   -0.348088   -1.374787
     34          6           0       -2.596817    0.721180   -0.853892
     35          6           0        0.913851    1.991892   -0.476310
     36          7           0        1.590587    2.931683   -1.111956
     37          6           0        2.986765    2.745171   -0.997460
     38          6           0        3.323802    1.593530   -0.358087
     39         16           0        1.912246    0.698293    0.151632
     40          6           0        4.639636    0.983662   -0.157883
     41          6           0        5.016295   -0.296416   -0.490398
     42          6           0        6.306824   -0.799902   -0.347811
     43          9           0        6.448250   -2.102807   -0.675300
     44          6           0        7.331085   -0.028441    0.202403
     45          6           0        6.996276    1.262889    0.475858
     46          9           0        7.903591    2.109705    0.948828
     47          6           0        5.691625    1.842512    0.259072
     48          6           0        8.631757   -0.617302    0.366214
     49          7           0        8.915280   -1.689117    0.926497
     50          6           0       10.209198   -1.938656    0.942529
     51          6           0       11.012565   -0.958863    0.405041
     52         16           0       10.029792    0.210972   -0.270996
     53          6           0       12.486161   -0.918381    0.196040
     54          6           0       13.246284    0.256273    0.500146
     55          6           0       14.598363    0.282306    0.447864
     56          9           0       15.268322    1.353797    0.763112
     57          6           0       15.300114   -0.863233    0.073929
     58          6           0       14.588572   -2.040682   -0.297783
     59          9           0       15.270513   -3.184359   -0.654261
     60          6           0       13.204792   -2.132599   -0.153563
     61          6           0       16.773860   -0.831900    0.008564
     62          7           0       17.427490    0.084360   -0.650857
     63          6           0       18.797109   -0.130129   -0.559999
     64          6           0       19.123477   -1.196708    0.227873
     65         16           0       17.771560   -2.016045    0.749102
     66          1           0      -20.106389   -1.443131   -0.198945
     67          1           0      -18.950499    0.490415    0.897634
     68          1           0      -18.813949   -3.364532   -0.990760
     69          1           0      -12.107927   -3.011234    1.434966
     70          1           0      -10.259504   -2.222854   -0.673069
     71          1           0      -11.534867    1.414054    1.289555
     72          1           0       -5.405698    3.732199   -1.181733
     73          1           0       -3.251676    3.803054    0.421235
     74          1           0       -3.105119   -0.177771   -1.215743
     75          1           0        3.586631    3.459595   -1.493434
     76          1           0        4.263874   -0.980352   -0.890917
     77          1           0        5.504208    2.902822    0.607274
     78          1           0       10.558044   -2.874247    1.450377
     79          1           0       12.737634    1.154903    0.884226
     80          1           0       12.742158   -3.016521   -0.418176
     81          1           0       19.552238    0.595774   -0.953473
     82          1           0       20.145386   -1.540255    0.464952
 ---------------------------------------------------------------------
 Rotational constants (GHZ):           0.1476638           0.0039883           0.0039083
 Leave Link  202 at Sat Jul 25 15:02:45 2020, MaxMem=  4026531840 cpu:               0.1 elap:               0.0
 (Enter /opt/ohpc/pub/libs/gaussian/g16-A.03/sandybridge/g16/l301.exe)
 Standard basis: CC-pVDZ (5D, 7F)
 Ernie: Thresh=  0.10000D-02 Tol=  0.10000D-05 Strict=F.
 Ernie:  170 primitive shells out of 1655 were deleted.
 There are  1080 symmetry adapted cartesian basis functions of A   symmetry.
 There are  1015 symmetry adapted basis functions of A   symmetry.
  1015 basis functions,  2454 primitive gaussians,  1080 cartesian basis functions
   246 alpha electrons      246 beta electrons
       nuclear repulsion energy      8585.0701072544 Hartrees.
 IExCor=32609 DFT=T Ex+Corr=LC-wPBE ExCW=0 ScaHFX=  1.000000
 ScaDFX=  1.000000  0.000000  1.000000  1.000000 ScalE2=  1.000000  1.000000
 IRadAn=      5 IRanWt=     -1 IRanGd=            0 ICorTp=0 IEmpDi=  4
 HFx  wShort=  0.000000 wLong=  0.255000 cFull=  0.000000 cShort=  0.000000 cLong=  1.000000
 DFx  wShort=  0.000000 wLong=  0.255000 cFull=  0.000000 cShort=  0.000000 cLong=  1.000000
 NAtoms=   82 NActive=   82 NUniq=   82 SFac= 1.00D+00 NAtFMM=   60 NAOKFM=T Big=T
 Integral buffers will be    131072 words long.
 Raffenetti 2 integral format.
 Two-electron integral symmetry is turned on.
 Leave Link  301 at Sat Jul 25 15:02:45 2020, MaxMem=  4026531840 cpu:               0.6 elap:               0.1
 (Enter /opt/ohpc/pub/libs/gaussian/g16-A.03/sandybridge/g16/l302.exe)
 NPDir=0 NMtPBC=     1 NCelOv=     1 NCel=       1 NClECP=     1 NCelD=      1
         NCelK=      1 NCelE2=     1 NClLst=     1 CellRange=     0.0.
 One-electron integrals computed using PRISM.
 One-electron integral symmetry used in STVInt
 NBasis=  1015 RedAO= T EigKep=  3.49D-04  NBF=  1015
 NBsUse=  1015 1.00D-06 EigRej= -1.00D+00 NBFU=  1015
 Precomputing XC quadrature grid using
 IXCGrd= 4 IRadAn=           5 IRanWt=          -1 IRanGd=           0 AccXCQ= 0.00D+00.
 Generated NRdTot=       0 NPtTot=           0 NUsed=           0 NTot=          32
 NSgBfM=   613   613   613   613   613 MxSgAt=    82 MxSgA2=    70.
 Leave Link  302 at Sat Jul 25 15:02:48 2020, MaxMem=  4026531840 cpu:              25.8 elap:               3.3
 (Enter /opt/ohpc/pub/libs/gaussian/g16-A.03/sandybridge/g16/l303.exe)
 DipDrv:  MaxL=1.
 Leave Link  303 at Sat Jul 25 15:02:49 2020, MaxMem=  4026531840 cpu:               1.7 elap:               0.2
 (Enter /opt/ohpc/pub/libs/gaussian/g16-A.03/sandybridge/g16/l401.exe)
 ExpMin= 1.22D-01 ExpMax= 1.11D+05 ExpMxC= 1.07D+03 IAcc=3 IRadAn=         5 AccDes= 0.00D+00
 Harris functional with IExCor=32609 and IRadAn=       5 diagonalized for initial guess.
 HarFok:  IExCor=32609 AccDes= 0.00D+00 IRadAn=         5 IDoV= 1 UseB2=F ITyADJ=14
 ICtDFT=  3500011 ScaDFX=  1.000000  1.000000  1.000000  1.000000
 FoFCou: FMM=F IPFlag=           0 FMFlag=      100000 FMFlg1=        2001
         NFxFlg=           0 DoJE=T BraDBF=F KetDBF=T FulRan=T
         wScrn=  0.000000 ICntrl=       500 IOpCl=  0 I1Cent=   200000004 NGrid=           0
         NMat0=    1 NMatS0=      1 NMatT0=    0 NMatD0=    1 NMtDS0=    0 NMtDT0=    0
 Petite list used in FoFCou.
 Harris En= -4984.72692928531    
 JPrj=0 DoOrth=F DoCkMO=F.
 Initial guess <Sx>= 0.0000 <Sy>= 0.0000 <Sz>= 0.0000 <S**2>=-0.0000 S=-0.0000
 Leave Link  401 at Sat Jul 25 15:02:59 2020, MaxMem=  4026531840 cpu:              81.1 elap:              10.2
 (Enter /opt/ohpc/pub/libs/gaussian/g16-A.03/sandybridge/g16/l502.exe)
 Integral symmetry usage will be decided dynamically.
 UHF open shell SCF:
 Using DIIS extrapolation, IDIIS=  1040.
 NGot=  4026531840 LenX=  4024179904 LenY=  4023012424
 Requested convergence on RMS density matrix=1.00D-08 within 128 cycles.
 Requested convergence on MAX density matrix=1.00D-06.
 Requested convergence on             energy=1.00D-06.
 No special actions if energy rises.
 Fock matrices will be formed incrementally for  20 cycles.
 Integral accuracy reduced to 1.0D-05 until final iterations.

 Cycle   1  Pass 0  IDiag  1:
 FoFJK:  IHMeth= 1 ICntrl=       0 DoSepK=T KAlg= 0 I1Cent=           0 FoldK=F
 IRaf=         1 NMat=       1 IRICut=       1 DoRegI=T DoRafI=F ISym2E= 0 IDoP0=0 IntGTp=1.
 FoFCou: FMM=T IPFlag=           0 FMFlag=      100000 FMFlg1=        2001
         NFxFlg=           0 DoJE=T BraDBF=F KetDBF=F FulRan=T
         wScrn=  0.000000 ICntrl=       500 IOpCl=  0 I1Cent=           0 NGrid=           0
         NMat0=    1 NMatS0=      1 NMatT0=    0 NMatD0=    1 NMtDS0=    0 NMtDT0=    0
 Symmetry not used in FoFCou.
 FMM levels:  10  Number of levels for PrismC:   9
 E= -4984.12682164127    
 DIIS: error= 1.46D-02 at cycle   1 NSaved=   1.
 NSaved= 1 IEnMin= 1 EnMin= -4984.12682164127     IErMin= 1 ErrMin= 1.46D-02
 ErrMax= 1.46D-02  0.00D+00 EMaxC= 1.00D-01 BMatC= 3.98D+00 BMatP= 3.98D+00
 IDIUse=3 WtCom= 8.54D-01 WtEn= 1.46D-01
 Coeff-Com:  0.100D+01
 Coeff-En:   0.100D+01
 Coeff:      0.100D+01
 Gap=     0.297 Goal=   None    Shift=    0.000
 Gap=     0.297 Goal=   None    Shift=    0.000
 GapD=    0.297 DampG=1.000 DampE=0.500 DampFc=0.5000 IDamp=-1.
 Damping current iteration by 5.00D-01
 RMSDP=2.32D-03 MaxDP=1.46D-01              OVMax= 2.26D-01

 Cycle   2  Pass 0  IDiag  1:
 RMSU=  1.16D-03    CP:  9.96D-01
 E= -4984.61599086748     Delta-E=       -0.489169226214 Rises=F Damp=T
 DIIS: error= 3.86D-03 at cycle   2 NSaved=   2.
 NSaved= 2 IEnMin= 2 EnMin= -4984.61599086748     IErMin= 2 ErrMin= 3.86D-03
 ErrMax= 3.86D-03  0.00D+00 EMaxC= 1.00D-01 BMatC= 2.33D-01 BMatP= 3.98D+00
 IDIUse=3 WtCom= 9.61D-01 WtEn= 3.86D-02
 Coeff-Com:  0.603D-01 0.940D+00
 Coeff-En:   0.847D-01 0.915D+00
 Coeff:      0.612D-01 0.939D+00
 Gap=     0.339 Goal=   None    Shift=    0.000
 Gap=     0.339 Goal=   None    Shift=    0.000
 RMSDP=6.88D-04 MaxDP=2.77D-02 DE=-4.89D-01 OVMax= 1.52D-01

 Cycle   3  Pass 0  IDiag  1:
 RMSU=  6.88D-04    CP:  9.94D-01  1.00D+00
 E= -4985.19170679576     Delta-E=       -0.575715928280 Rises=F Damp=F
 DIIS: error= 3.08D-03 at cycle   3 NSaved=   3.
 NSaved= 3 IEnMin= 3 EnMin= -4985.19170679576     IErMin= 3 ErrMin= 3.08D-03
 ErrMax= 3.08D-03  0.00D+00 EMaxC= 1.00D-01 BMatC= 1.53D-01 BMatP= 2.33D-01
 IDIUse=3 WtCom= 9.69D-01 WtEn= 3.08D-02
 Coeff-Com: -0.696D-02 0.439D+00 0.568D+00
 Coeff-En:   0.000D+00 0.000D+00 0.100D+01
 Coeff:     -0.675D-02 0.425D+00 0.581D+00
 Gap=     0.277 Goal=   None    Shift=    0.000
 Gap=     0.277 Goal=   None    Shift=    0.000
 RMSDP=2.11D-04 MaxDP=2.27D-02 DE=-5.76D-01 OVMax= 2.67D-02

 Cycle   4  Pass 0  IDiag  1:
 RMSU=  1.73D-04    CP:  9.95D-01  1.06D+00  8.56D-01
 E= -4985.22468368067     Delta-E=       -0.032976884906 Rises=F Damp=F
 DIIS: error= 1.13D-03 at cycle   4 NSaved=   4.
 NSaved= 4 IEnMin= 4 EnMin= -4985.22468368067     IErMin= 4 ErrMin= 1.13D-03
 ErrMax= 1.13D-03  0.00D+00 EMaxC= 1.00D-01 BMatC= 1.38D-02 BMatP= 1.53D-01
 IDIUse=3 WtCom= 9.89D-01 WtEn= 1.13D-02
 Coeff-Com: -0.341D-02 0.555D-01 0.238D+00 0.710D+00
 Coeff-En:   0.000D+00 0.000D+00 0.000D+00 0.100D+01
 Coeff:     -0.338D-02 0.548D-01 0.235D+00 0.713D+00
 Gap=     0.278 Goal=   None    Shift=    0.000
 Gap=     0.278 Goal=   None    Shift=    0.000
 RMSDP=7.17D-05 MaxDP=7.11D-03 DE=-3.30D-02 OVMax= 8.16D-03

 Cycle   5  Pass 0  IDiag  1:
 RMSU=  6.00D-05    CP:  9.94D-01  1.05D+00  8.92D-01  8.48D-01
 E= -4985.22806912363     Delta-E=       -0.003385442962 Rises=F Damp=F
 DIIS: error= 3.40D-04 at cycle   5 NSaved=   5.
 NSaved= 5 IEnMin= 5 EnMin= -4985.22806912363     IErMin= 5 ErrMin= 3.40D-04
 ErrMax= 3.40D-04  0.00D+00 EMaxC= 1.00D-01 BMatC= 1.56D-03 BMatP= 1.38D-02
 IDIUse=3 WtCom= 9.97D-01 WtEn= 3.40D-03
 Coeff-Com:  0.203D-02-0.213D-01 0.441D-01 0.298D+00 0.677D+00
 Coeff-En:   0.000D+00 0.000D+00 0.000D+00 0.000D+00 0.100D+01
 Coeff:      0.203D-02-0.212D-01 0.440D-01 0.297D+00 0.679D+00
 Gap=     0.279 Goal=   None    Shift=    0.000
 Gap=     0.279 Goal=   None    Shift=    0.000
 RMSDP=3.12D-05 MaxDP=2.17D-03 DE=-3.39D-03 OVMax= 3.80D-03

 Cycle   6  Pass 0  IDiag  1:
 RMSU=  2.21D-05    CP:  9.94D-01  1.05D+00  9.19D-01  9.19D-01  9.74D-01
 E= -4985.22849677667     Delta-E=       -0.000427653044 Rises=F Damp=F
 DIIS: error= 1.15D-04 at cycle   6 NSaved=   6.
 NSaved= 6 IEnMin= 6 EnMin= -4985.22849677667     IErMin= 6 ErrMin= 1.15D-04
 ErrMax= 1.15D-04  0.00D+00 EMaxC= 1.00D-01 BMatC= 1.94D-04 BMatP= 1.56D-03
 IDIUse=3 WtCom= 9.99D-01 WtEn= 1.15D-03
 Coeff-Com:  0.292D-02-0.198D-01-0.184D-01 0.139D-01 0.237D+00 0.784D+00
 Coeff-En:   0.000D+00 0.000D+00 0.000D+00 0.000D+00 0.000D+00 0.100D+01
 Coeff:      0.292D-02-0.198D-01-0.183D-01 0.138D-01 0.237D+00 0.785D+00
 Gap=     0.280 Goal=   None    Shift=    0.000
 Gap=     0.280 Goal=   None    Shift=    0.000
 RMSDP=1.65D-05 MaxDP=8.48D-04 DE=-4.28D-04 OVMax= 1.85D-03

 Cycle   7  Pass 0  IDiag  1:
 RMSU=  1.24D-05    CP:  9.94D-01  1.05D+00  9.26D-01  9.38D-01  1.11D+00
                    CP:  1.12D+00
 E= -4985.22857795290     Delta-E=       -0.000081176229 Rises=F Damp=F
 DIIS: error= 6.29D-05 at cycle   7 NSaved=   7.
 NSaved= 7 IEnMin= 7 EnMin= -4985.22857795290     IErMin= 7 ErrMin= 6.29D-05
 ErrMax= 6.29D-05  0.00D+00 EMaxC= 1.00D-01 BMatC= 4.64D-05 BMatP= 1.94D-04
 IDIUse=1 WtCom= 1.00D+00 WtEn= 0.00D+00
 Coeff-Com:  0.133D-02-0.638D-02-0.128D-01-0.338D-01-0.178D-01 0.338D+00
 Coeff-Com:  0.732D+00
 Coeff:      0.133D-02-0.638D-02-0.128D-01-0.338D-01-0.178D-01 0.338D+00
 Coeff:      0.732D+00
 Gap=     0.280 Goal=   None    Shift=    0.000
 Gap=     0.280 Goal=   None    Shift=    0.000
 RMSDP=1.36D-05 MaxDP=5.10D-04 DE=-8.12D-05 OVMax= 1.17D-03

 Cycle   8  Pass 0  IDiag  1:
 RMSU=  1.01D-05    CP:  9.94D-01  1.05D+00  9.31D-01  9.53D-01  1.15D+00
                    CP:  1.41D+00  1.35D+00
 E= -4985.22859904709     Delta-E=       -0.000021094191 Rises=F Damp=F
 DIIS: error= 2.60D-05 at cycle   8 NSaved=   8.
 NSaved= 8 IEnMin= 8 EnMin= -4985.22859904709     IErMin= 8 ErrMin= 2.60D-05
 ErrMax= 2.60D-05  0.00D+00 EMaxC= 1.00D-01 BMatC= 1.11D-05 BMatP= 4.64D-05
 IDIUse=1 WtCom= 1.00D+00 WtEn= 0.00D+00
 Coeff-Com:  0.181D-03 0.350D-03-0.164D-02-0.153D-01-0.556D-01-0.346D-02
 Coeff-Com:  0.334D+00 0.741D+00
 Coeff:      0.181D-03 0.350D-03-0.164D-02-0.153D-01-0.556D-01-0.346D-02
 Coeff:      0.334D+00 0.741D+00
 Gap=     0.280 Goal=   None    Shift=    0.000
 Gap=     0.280 Goal=   None    Shift=    0.000
 RMSDP=1.49D-05 MaxDP=5.23D-04 DE=-2.11D-05 OVMax= 4.61D-04

 Cycle   9  Pass 0  IDiag  1:
 RMSU=  8.12D-06    CP:  9.94D-01  1.05D+00  9.34D-01  9.58D-01  1.18D+00
                    CP:  1.60D+00  1.99D+00  1.82D+00
 E= -4985.22859852293     Delta-E=        0.000000524160 Rises=F Damp=F
 DIIS: error= 4.05D-05 at cycle   9 NSaved=   9.
 NSaved= 9 IEnMin= 8 EnMin= -4985.22859904709     IErMin= 8 ErrMin= 2.60D-05
 ErrMax= 4.05D-05  0.00D+00 EMaxC= 1.00D-01 BMatC= 6.94D-06 BMatP= 1.11D-05
 IDIUse=1 WtCom= 1.00D+00 WtEn= 0.00D+00
 Coeff-Com:  0.142D-03 0.282D-03-0.117D-02-0.115D-01-0.428D-01-0.608D-02
 Coeff-Com:  0.252D+00 0.573D+00 0.236D+00
 Coeff:      0.142D-03 0.282D-03-0.117D-02-0.115D-01-0.428D-01-0.608D-02
 Coeff:      0.252D+00 0.573D+00 0.236D+00
 Gap=     0.280 Goal=   None    Shift=    0.000
 Gap=     0.280 Goal=   None    Shift=    0.000
 RMSDP=5.87D-06 MaxDP=2.27D-04 DE= 5.24D-07 OVMax= 4.76D-05

 Initial convergence to 1.0D-05 achieved.  Increase integral accuracy.
 Cycle  10  Pass 1  IDiag  1:
 E= -4985.22776856700     Delta-E=        0.000829955934 Rises=F Damp=F
 DIIS: error= 3.53D-04 at cycle   1 NSaved=   1.
 NSaved= 1 IEnMin= 1 EnMin= -4985.22776856700     IErMin= 1 ErrMin= 3.53D-04
 ErrMax= 3.53D-04  0.00D+00 EMaxC= 1.00D-01 BMatC= 2.27D-04 BMatP= 2.27D-04
 IDIUse=3 WtCom= 9.96D-01 WtEn= 3.53D-03
 Coeff-Com:  0.100D+01
 Coeff-En:   0.100D+01
 Coeff:      0.100D+01
 Gap=     0.280 Goal=   None    Shift=    0.000
 Gap=     0.280 Goal=   None    Shift=    0.000
 RMSDP=5.87D-06 MaxDP=2.27D-04 DE= 8.30D-04 OVMax= 6.62D-04

 Cycle  11  Pass 1  IDiag  1:
 RMSU=  1.77D-04    CP:  9.99D-01
 E= -4985.22781782651     Delta-E=       -0.000049259510 Rises=F Damp=F
 DIIS: error= 1.43D-05 at cycle   2 NSaved=   2.
 NSaved= 2 IEnMin= 2 EnMin= -4985.22781782651     IErMin= 2 ErrMin= 1.43D-05
 ErrMax= 1.43D-05  0.00D+00 EMaxC= 1.00D-01 BMatC= 7.29D-07 BMatP= 2.27D-04
 IDIUse=1 WtCom= 1.00D+00 WtEn= 0.00D+00
 Coeff-Com: -0.362D-01 0.104D+01
 Coeff:     -0.362D-01 0.104D+01
 Gap=     0.280 Goal=   None    Shift=    0.000
 Gap=     0.280 Goal=   None    Shift=    0.000
 RMSDP=8.99D-06 MaxDP=4.81D-04 DE=-4.93D-05 OVMax= 9.92D-05

 Cycle  12  Pass 1  IDiag  1:
 RMSU=  2.80D-06    CP:  9.99D-01  1.05D+00
 E= -4985.22781808069     Delta-E=       -0.000000254176 Rises=F Damp=F
 DIIS: error= 5.52D-06 at cycle   3 NSaved=   3.
 NSaved= 3 IEnMin= 3 EnMin= -4985.22781808069     IErMin= 3 ErrMin= 5.52D-06
 ErrMax= 5.52D-06  0.00D+00 EMaxC= 1.00D-01 BMatC= 5.06D-07 BMatP= 7.29D-07
 IDIUse=1 WtCom= 1.00D+00 WtEn= 0.00D+00
 Coeff-Com: -0.204D-01 0.536D+00 0.484D+00
 Coeff:     -0.204D-01 0.536D+00 0.484D+00
 Gap=     0.280 Goal=   None    Shift=    0.000
 Gap=     0.280 Goal=   None    Shift=    0.000
 RMSDP=4.69D-07 MaxDP=2.98D-05 DE=-2.54D-07 OVMax= 4.50D-05

 Cycle  13  Pass 1  IDiag  1:
 RMSU=  4.37D-07    CP:  9.99D-01  1.05D+00  1.02D+00
 E= -4985.22781816236     Delta-E=       -0.000000081671 Rises=F Damp=F
 DIIS: error= 1.18D-06 at cycle   4 NSaved=   4.
 NSaved= 4 IEnMin= 4 EnMin= -4985.22781816236     IErMin= 4 ErrMin= 1.18D-06
 ErrMax= 1.18D-06  0.00D+00 EMaxC= 1.00D-01 BMatC= 2.41D-08 BMatP= 5.06D-07
 IDIUse=1 WtCom= 1.00D+00 WtEn= 0.00D+00
 Coeff-Com:  0.142D-04-0.153D-01 0.134D+00 0.881D+00
 Coeff:      0.142D-04-0.153D-01 0.134D+00 0.881D+00
 Gap=     0.280 Goal=   None    Shift=    0.000
 Gap=     0.280 Goal=   None    Shift=    0.000
 RMSDP=2.68D-07 MaxDP=1.37D-05 DE=-8.17D-08 OVMax= 2.50D-05

 Cycle  14  Pass 1  IDiag  1:
 RMSU=  1.48D-07    CP:  9.99D-01  1.05D+00  1.09D+00  1.02D+00
 E= -4985.22781817015     Delta-E=       -0.000000007793 Rises=F Damp=F
 DIIS: error= 7.92D-07 at cycle   5 NSaved=   5.
 NSaved= 5 IEnMin= 5 EnMin= -4985.22781817015     IErMin= 5 ErrMin= 7.92D-07
 ErrMax= 7.92D-07  0.00D+00 EMaxC= 1.00D-01 BMatC= 6.33D-09 BMatP= 2.41D-08
 IDIUse=1 WtCom= 1.00D+00 WtEn= 0.00D+00
 Coeff-Com:  0.232D-02-0.675D-01 0.686D-03 0.391D+00 0.673D+00
 Coeff:      0.232D-02-0.675D-01 0.686D-03 0.391D+00 0.673D+00
 Gap=     0.280 Goal=   None    Shift=    0.000
 Gap=     0.280 Goal=   None    Shift=    0.000
 RMSDP=8.22D-08 MaxDP=4.49D-06 DE=-7.79D-09 OVMax= 1.11D-05

 Cycle  15  Pass 1  IDiag  1:
 RMSU=  6.36D-08    CP:  9.99D-01  1.05D+00  1.10D+00  1.07D+00  1.17D+00
 E= -4985.22781817280     Delta-E=       -0.000000002654 Rises=F Damp=F
 DIIS: error= 2.61D-07 at cycle   6 NSaved=   6.
 NSaved= 6 IEnMin= 6 EnMin= -4985.22781817280     IErMin= 6 ErrMin= 2.61D-07
 ErrMax= 2.61D-07  0.00D+00 EMaxC= 1.00D-01 BMatC= 1.00D-09 BMatP= 6.33D-09
 IDIUse=1 WtCom= 1.00D+00 WtEn= 0.00D+00
 Coeff-Com:  0.578D-03-0.136D-01-0.318D-01-0.912D-01 0.206D+00 0.930D+00
 Coeff:      0.578D-03-0.136D-01-0.318D-01-0.912D-01 0.206D+00 0.930D+00
 Gap=     0.280 Goal=   None    Shift=    0.000
 Gap=     0.280 Goal=   None    Shift=    0.000
 RMSDP=4.70D-08 MaxDP=3.52D-06 DE=-2.65D-09 OVMax= 8.89D-06

 Cycle  16  Pass 1  IDiag  1:
 RMSU=  2.55D-08    CP:  9.99D-01  1.05D+00  1.10D+00  1.09D+00  1.41D+00
                    CP:  1.17D+00
 E= -4985.22781817343     Delta-E=       -0.000000000622 Rises=F Damp=F
 DIIS: error= 1.55D-07 at cycle   7 NSaved=   7.
 NSaved= 7 IEnMin= 7 EnMin= -4985.22781817343     IErMin= 7 ErrMin= 1.55D-07
 ErrMax= 1.55D-07  0.00D+00 EMaxC= 1.00D-01 BMatC= 3.29D-10 BMatP= 1.00D-09
 IDIUse=1 WtCom= 1.00D+00 WtEn= 0.00D+00
 Coeff-Com: -0.260D-03 0.933D-02-0.192D-01-0.151D+00-0.545D-01 0.498D+00
 Coeff-Com:  0.719D+00
 Coeff:     -0.260D-03 0.933D-02-0.192D-01-0.151D+00-0.545D-01 0.498D+00
 Coeff:      0.719D+00
 Gap=     0.280 Goal=   None    Shift=    0.000
 Gap=     0.280 Goal=   None    Shift=    0.000
 RMSDP=2.29D-08 MaxDP=1.82D-06 DE=-6.22D-10 OVMax= 4.05D-06

 Cycle  17  Pass 1  IDiag  1:
 RMSU=  1.11D-08    CP:  9.99D-01  1.05D+00  1.10D+00  1.10D+00  1.50D+00
                    CP:  1.38D+00  1.09D+00
 E= -4985.22781817364     Delta-E=       -0.000000000211 Rises=F Damp=F
 DIIS: error= 3.13D-08 at cycle   8 NSaved=   8.
 NSaved= 8 IEnMin= 8 EnMin= -4985.22781817364     IErMin= 8 ErrMin= 3.13D-08
[...]
              Bcc     0.0000     0.000     0.000     0.000  0.1019 -0.1349  0.9856
 
              Baa    -0.0000    -0.000    -0.000    -0.000  0.9776  0.1568  0.1404
    23 N(14)  Bbb    -0.0000    -0.000    -0.000    -0.000 -0.1736  0.2243  0.9589
              Bcc     0.0000     0.000     0.000     0.000 -0.1189  0.9618 -0.2465
 
              Baa    -0.0000    -0.000    -0.000    -0.000  0.8872  0.4601  0.0340
    24 C(13)  Bbb    -0.0000    -0.000    -0.000    -0.000 -0.1330  0.1845  0.9738
              Bcc     0.0000     0.000     0.000     0.000 -0.4417  0.8685 -0.2249
 
              Baa    -0.0000    -0.000    -0.000    -0.000  0.9736 -0.0127 -0.2281
    25 C(13)  Bbb    -0.0000    -0.000    -0.000    -0.000  0.2262  0.1927  0.9548
              Bcc     0.0000     0.000     0.000     0.000 -0.0318  0.9812 -0.1905
 
              Baa    -0.0000    -0.000    -0.000    -0.000  0.0169  0.7480  0.6634
    26 S(33)  Bbb    -0.0000    -0.000    -0.000    -0.000  0.9047  0.2711 -0.3287
              Bcc     0.0000     0.000     0.000     0.000  0.4257 -0.6058  0.6722
 
              Baa    -0.0000    -0.000    -0.000    -0.000  0.9975  0.0571 -0.0416
    27 C(13)  Bbb     0.0000     0.000     0.000     0.000  0.0519 -0.1935  0.9797
              Bcc     0.0000     0.000     0.000     0.000 -0.0479  0.9794  0.1960
 
              Baa    -0.0000    -0.000    -0.000    -0.000  0.9756 -0.1957 -0.0996
    28 C(13)  Bbb     0.0000     0.000     0.000     0.000 -0.0516 -0.6455  0.7620
              Bcc     0.0000     0.000     0.000     0.000  0.2134  0.7383  0.6398
 
              Baa    -0.0000    -0.000    -0.000    -0.000  0.0374 -0.2265  0.9733
    29 C(13)  Bbb     0.0000     0.000     0.000     0.000  0.0301  0.9738  0.2255
              Bcc     0.0000     0.000     0.000     0.000  0.9988 -0.0208 -0.0432
 
              Baa    -0.0000    -0.000    -0.000    -0.000 -0.0370  0.9427  0.3315
    30 F(19)  Bbb    -0.0000    -0.000    -0.000    -0.000 -0.0014 -0.3318  0.9434
              Bcc     0.0000     0.000     0.000     0.000  0.9993  0.0344  0.0136
 
              Baa    -0.0000    -0.000    -0.000    -0.000  0.8522 -0.1770 -0.4924
    31 C(13)  Bbb    -0.0000    -0.000    -0.000    -0.000  0.3913 -0.4091  0.8243
              Bcc     0.0000     0.000     0.000     0.000  0.3474  0.8951  0.2794
 
              Baa    -0.0000    -0.000    -0.000    -0.000  0.8019 -0.5798 -0.1444
    32 C(13)  Bbb     0.0000     0.000     0.000     0.000  0.2236  0.0672  0.9724
              Bcc     0.0000     0.000     0.000     0.000  0.5540  0.8120 -0.1835
 
              Baa    -0.0000    -0.000    -0.000    -0.000 -0.1313 -0.4897  0.8620
    33 F(19)  Bbb    -0.0000    -0.000    -0.000    -0.000  0.8101  0.4482  0.3780
              Bcc     0.0000     0.000     0.000     0.000 -0.5715  0.7479  0.3378
 
              Baa    -0.0000    -0.000    -0.000    -0.000 -0.5674  0.7827  0.2559
    34 C(13)  Bbb    -0.0000    -0.000    -0.000    -0.000  0.8233  0.5459  0.1558
              Bcc     0.0000     0.000     0.000     0.000  0.0177 -0.2991  0.9541
 
              Baa    -0.0000    -0.000    -0.000    -0.000  0.8602 -0.5096 -0.0155
    35 C(13)  Bbb     0.0000     0.000     0.000     0.000  0.5098  0.8591  0.0453
              Bcc     0.0000     0.000     0.000     0.000 -0.0098 -0.0468  0.9989
 
              Baa    -0.0000    -0.000    -0.000    -0.000  0.9666  0.2370 -0.0979
    36 N(14)  Bbb     0.0000     0.000     0.000     0.000 -0.1058  0.7164  0.6897
              Bcc     0.0000     0.000     0.000     0.000  0.2336 -0.6562  0.7175
 
              Baa    -0.0000    -0.000    -0.000    -0.000 -0.1546  0.0896  0.9839
    37 C(13)  Bbb     0.0000     0.000     0.000     0.000  0.9248  0.3635  0.1122
              Bcc     0.0000     0.000     0.000     0.000 -0.3476  0.9273 -0.1390
 
              Baa    -0.0000    -0.000    -0.000    -0.000  0.0977  0.2959  0.9502
    38 C(13)  Bbb    -0.0000    -0.000    -0.000    -0.000  0.5348  0.7896 -0.3008
              Bcc     0.0000     0.000     0.000     0.000  0.8393 -0.5375  0.0811
 
              Baa    -0.0000    -0.000    -0.000    -0.000 -0.5548  0.8112 -0.1847
    39 S(33)  Bbb     0.0000     0.000     0.000     0.000 -0.2305  0.0635  0.9710
              Bcc     0.0000     0.000     0.000     0.000  0.7994  0.5813  0.1517
 
              Baa    -0.0000    -0.000    -0.000    -0.000 -0.2579 -0.2766  0.9257
    40 C(13)  Bbb    -0.0000    -0.000    -0.000    -0.000  0.9292 -0.3335  0.1592
              Bcc     0.0000     0.000     0.000     0.000  0.2647  0.9012  0.3431
 
              Baa    -0.0000    -0.000    -0.000    -0.000  0.1965 -0.1656  0.9664
    41 C(13)  Bbb    -0.0000    -0.000    -0.000    -0.000  0.7143  0.6994 -0.0254
              Bcc     0.0000     0.000     0.000     0.000 -0.6717  0.6953  0.2557
 
              Baa    -0.0000    -0.000    -0.000    -0.000 -0.2018 -0.3488  0.9152
    42 C(13)  Bbb    -0.0000    -0.000    -0.000    -0.000  0.8005  0.4797  0.3593
              Bcc     0.0000     0.000     0.000     0.000 -0.5644  0.8051  0.1824
 
              Baa    -0.0000    -0.000    -0.000    -0.000  0.8606 -0.5022 -0.0852
    43 F(19)  Bbb    -0.0000    -0.000    -0.000    -0.000 -0.0686 -0.2802  0.9575
              Bcc     0.0000     0.000     0.000     0.000  0.5047  0.8181  0.2756
 
              Baa    -0.0000    -0.000    -0.000    -0.000  0.9839  0.1549  0.0891
    44 C(13)  Bbb     0.0000     0.000     0.000     0.000 -0.1784  0.8272  0.5328
              Bcc     0.0000     0.000     0.000     0.000  0.0088 -0.5401  0.8416
 
              Baa    -0.0000    -0.000    -0.000    -0.000 -0.6672  0.7351  0.1207
    45 C(13)  Bbb     0.0000     0.000     0.000     0.000  0.7294  0.6116  0.3065
              Bcc     0.0000     0.000     0.000     0.000 -0.1515 -0.2925  0.9442
 
              Baa    -0.0000    -0.000    -0.000    -0.000 -0.0481  0.2988  0.9531
    46 F(19)  Bbb     0.0000     0.000     0.000     0.000  0.8039 -0.5548  0.2145
              Bcc     0.0000     0.000     0.000     0.000  0.5929  0.7765 -0.2135
 
              Baa    -0.0000    -0.000    -0.000    -0.000  0.8231 -0.5653  0.0547
    47 C(13)  Bbb     0.0000     0.000     0.000     0.000 -0.1713 -0.1554  0.9729
              Bcc     0.0000     0.000     0.000     0.000  0.5414  0.8101  0.2248
 
              Baa    -0.0000    -0.000    -0.000    -0.000  0.9480 -0.3003  0.1056
    48 C(13)  Bbb     0.0000     0.000     0.000     0.000  0.1658  0.7490  0.6415
              Bcc     0.0000     0.000     0.000     0.000 -0.2717 -0.5906  0.7598
 
              Baa    -0.0000    -0.000    -0.000    -0.000 -0.6129  0.7884  0.0533
    49 N(14)  Bbb    -0.0000    -0.000    -0.000    -0.000  0.7876  0.6041  0.1215
              Bcc     0.0000     0.000     0.000     0.000 -0.0636 -0.1164  0.9912
 
              Baa    -0.0000    -0.000    -0.000    -0.000 -0.1656  0.9626  0.2143
    50 C(13)  Bbb     0.0000     0.000     0.000     0.000  0.8551  0.2484 -0.4551
              Bcc     0.0000     0.000     0.000     0.000  0.4914 -0.1078  0.8643
 
              Baa    -0.0000    -0.000    -0.000    -0.000  0.9959 -0.0908 -0.0050
    51 C(13)  Bbb     0.0000     0.000     0.000     0.000  0.0526  0.5295  0.8466
              Bcc     0.0000     0.000     0.000     0.000  0.0743  0.8434 -0.5321
 
              Baa    -0.0000    -0.000    -0.000    -0.000  0.9762 -0.1620  0.1442
    52 S(33)  Bbb     0.0000     0.000     0.000     0.000 -0.0722  0.3840  0.9205
              Bcc     0.0000     0.000     0.000     0.000  0.2045  0.9090 -0.3632
 
              Baa    -0.0000    -0.000    -0.000    -0.000  0.7057  0.6470  0.2887
    53 C(13)  Bbb     0.0000     0.000     0.000     0.000  0.0078 -0.4146  0.9100
              Bcc     0.0000     0.000     0.000     0.000  0.7084 -0.6399 -0.2976
 
              Baa    -0.0000    -0.000    -0.000    -0.000  0.7302 -0.6813 -0.0509
    54 C(13)  Bbb    -0.0000    -0.000    -0.000    -0.000  0.2925  0.2443  0.9245
              Bcc     0.0000     0.000     0.000     0.000  0.6175  0.6900 -0.3777
 
              Baa    -0.0000    -0.000    -0.000    -0.000  0.0340 -0.5030  0.8636
    55 C(13)  Bbb     0.0000     0.000     0.000     0.000  0.8240  0.5032  0.2606
              Bcc     0.0000     0.000     0.000     0.000 -0.5656  0.7028  0.4315
 
              Baa    -0.0000    -0.000    -0.000    -0.000 -0.3660  0.6949  0.6189
    56 F(19)  Bbb    -0.0000    -0.000    -0.000    -0.000  0.2334  0.7124 -0.6618
              Bcc     0.0000     0.000     0.000     0.000  0.9008  0.0977  0.4230
 
              Baa    -0.0000    -0.000    -0.000    -0.000  0.9292  0.3020  0.2130
    57 C(13)  Bbb     0.0000     0.000     0.000     0.000 -0.3688  0.7198  0.5881
              Bcc     0.0000     0.000     0.000     0.000  0.0243 -0.6250  0.7802
 
              Baa    -0.0000    -0.000    -0.000    -0.000  0.3887  0.7190  0.5761
    58 C(13)  Bbb    -0.0000    -0.000    -0.000    -0.000 -0.3094 -0.4871  0.8167
              Bcc     0.0000     0.000     0.000     0.000  0.8679 -0.4957  0.0331
 
              Baa    -0.0000    -0.000    -0.000    -0.000  0.0433  0.2602  0.9646
    59 F(19)  Bbb    -0.0000    -0.000    -0.000    -0.000 -0.1869  0.9505 -0.2480
              Bcc     0.0000     0.000     0.000     0.000  0.9814  0.1696 -0.0898
 
              Baa    -0.0000    -0.000    -0.000    -0.000  0.9380  0.3350  0.0885
    60 C(13)  Bbb     0.0000     0.000     0.000     0.000 -0.3413  0.8489  0.4036
              Bcc     0.0000     0.000     0.000     0.000  0.0601 -0.4088  0.9106
 
              Baa    -0.0000    -0.000    -0.000    -0.000  0.0629 -0.2892  0.9552
    61 C(13)  Bbb    -0.0000    -0.000    -0.000    -0.000  0.5571  0.8042  0.2068
              Bcc     0.0000     0.000     0.000     0.000  0.8280 -0.5192 -0.2117
 
              Baa    -0.0000    -0.000    -0.000    -0.000  0.2897  0.9515  0.1032
    62 N(14)  Bbb     0.0000     0.000     0.000     0.000  0.8987 -0.3075  0.3126
              Bcc     0.0000     0.000     0.000     0.000 -0.3292 -0.0022  0.9443
 
              Baa    -0.0000    -0.000    -0.000    -0.000  0.7052  0.7073  0.0483
    63 C(13)  Bbb     0.0000     0.000     0.000     0.000  0.7081 -0.6992 -0.0986
              Bcc     0.0000     0.000     0.000     0.000  0.0360 -0.1037  0.9940
 
              Baa    -0.0000    -0.000    -0.000    -0.000  0.6422  0.7254  0.2477
    64 C(13)  Bbb     0.0000     0.000     0.000     0.000 -0.0976 -0.2432  0.9651
              Bcc     0.0000     0.000     0.000     0.000  0.7603 -0.6440 -0.0854
 
              Baa    -0.0000    -0.000    -0.000    -0.000  0.5132  0.2062  0.8332
    65 S(33)  Bbb    -0.0000    -0.000    -0.000    -0.000  0.7679  0.3234 -0.5530
              Bcc     0.0000     0.000     0.000     0.000 -0.3834  0.9235  0.0076
 
              Baa    -0.0000    -0.000    -0.000    -0.000  0.2812  0.9574  0.0664
    66 H(1)   Bbb    -0.0000    -0.000    -0.000    -0.000 -0.0299 -0.0604  0.9977
              Bcc     0.0000     0.000     0.000     0.000  0.9592 -0.2825  0.0116
 
              Baa    -0.0000    -0.000    -0.000    -0.000  0.0429  0.9958 -0.0803
    67 H(1)   Bbb     0.0000     0.000     0.000     0.000  0.9980 -0.0390  0.0492
              Bcc     0.0000     0.000     0.000     0.000 -0.0458  0.0823  0.9956
 
              Baa    -0.0000    -0.000    -0.000    -0.000  0.9321  0.3561  0.0669
    68 H(1)   Bbb    -0.0000    -0.000    -0.000    -0.000 -0.3527  0.9340 -0.0572
              Bcc     0.0000     0.000     0.000     0.000 -0.0829  0.0298  0.9961
 
              Baa    -0.0000    -0.000    -0.000    -0.000 -0.2863  0.8487 -0.4447
    69 H(1)   Bbb    -0.0000    -0.000    -0.000    -0.000  0.9455  0.1752 -0.2743
              Bcc     0.0000     0.000     0.000     0.000  0.1549  0.4990  0.8527
 
              Baa    -0.0000    -0.000    -0.000    -0.000  0.1541  0.9852  0.0755
    70 H(1)   Bbb    -0.0000    -0.000    -0.000    -0.000  0.1177 -0.0942  0.9886
              Bcc     0.0000     0.000     0.000     0.000  0.9810 -0.1434 -0.1304
 
              Baa    -0.0000    -0.000    -0.000    -0.000  0.4705  0.8811 -0.0483
    71 H(1)   Bbb     0.0000     0.000     0.000     0.000  0.1085 -0.0034  0.9941
              Bcc     0.0000     0.000     0.000     0.000  0.8757 -0.4730 -0.0972
 
              Baa    -0.0000    -0.000    -0.000    -0.000 -0.3442  0.4047  0.8472
    72 H(1)   Bbb    -0.0000    -0.000    -0.000    -0.000  0.8157 -0.3180  0.4832
              Bcc     0.0000     0.000     0.000     0.000  0.4650  0.8574 -0.2206
 
              Baa    -0.0000    -0.000    -0.000    -0.000  0.1808 -0.3602  0.9152
    73 H(1)   Bbb     0.0000     0.000     0.000     0.000 -0.0387  0.9272  0.3725
              Bcc     0.0000     0.000     0.000     0.000  0.9828  0.1027 -0.1537
 
              Baa    -0.0000    -0.000    -0.000    -0.000  0.5779  0.7959  0.1806
    74 H(1)   Bbb     0.0000     0.000     0.000     0.000 -0.0331 -0.1983  0.9796
              Bcc     0.0000     0.000     0.000     0.000  0.8154 -0.5721 -0.0883
 
              Baa    -0.0000    -0.000    -0.000    -0.000  0.2359  0.9021  0.3613
    75 H(1)   Bbb    -0.0000    -0.000    -0.000    -0.000 -0.3508 -0.2676  0.8974
              Bcc     0.0000     0.000     0.000     0.000  0.9062 -0.3384  0.2534
 
              Baa    -0.0000    -0.000    -0.000    -0.000 -0.2018 -0.3073  0.9300
    76 H(1)   Bbb    -0.0000    -0.000    -0.000    -0.000 -0.3152  0.9193  0.2354
              Bcc     0.0000     0.000     0.000     0.000  0.9273  0.2457  0.2824
 
              Baa    -0.0000    -0.000    -0.000    -0.000 -0.2513 -0.3621  0.8976
    77 H(1)   Bbb    -0.0000    -0.000    -0.000    -0.000  0.6908  0.5825  0.4283
              Bcc     0.0000     0.000     0.000     0.000 -0.6780  0.7277  0.1038
 
              Baa    -0.0000    -0.000    -0.000    -0.000 -0.2941  0.9556  0.0199
    78 H(1)   Bbb     0.0000     0.000     0.000     0.000  0.9455  0.2939 -0.1400
              Bcc     0.0000     0.000     0.000     0.000  0.1396  0.0224  0.9900
 
              Baa    -0.0000    -0.000    -0.000    -0.000  0.9693  0.2226 -0.1049
    79 H(1)   Bbb    -0.0000    -0.000    -0.000    -0.000  0.2009 -0.4697  0.8597
              Bcc     0.0000     0.000     0.000     0.000 -0.1421  0.8543  0.5000
 
              Baa    -0.0000    -0.000    -0.000    -0.000  0.8799 -0.3399 -0.3320
    80 H(1)   Bbb     0.0000     0.000     0.000     0.000  0.3941  0.1317  0.9096
              Bcc     0.0000     0.000     0.000     0.000  0.2654  0.9312 -0.2498
 
              Baa    -0.0000    -0.000    -0.000    -0.000 -0.5753  0.8060  0.1393
    81 H(1)   Bbb     0.0000     0.000     0.000     0.000  0.5508  0.2559  0.7944
              Bcc     0.0000     0.000     0.000     0.000  0.6046  0.5337 -0.5912
 
              Baa    -0.0000    -0.000    -0.000    -0.000  0.7023  0.3610  0.6135
    82 H(1)   Bbb     0.0000     0.000     0.000     0.000 -0.3958 -0.5183  0.7581
              Bcc     0.0000     0.000     0.000     0.000 -0.5917  0.7752  0.2211
 

 ---------------------------------------------------------------------------------

 No NMR shielding tensors so no spin-rotation constants.
 Leave Link  601 at Sat Jul 25 20:41:38 2020, MaxMem=  4026531840 cpu:              12.4 elap:               1.7
 (Enter /opt/ohpc/pub/libs/gaussian/g16-A.03/sandybridge/g16/l9999.exe)

 Test job not archived.
 1\1\GINC-SKYLAKE038\FOpt\ULC-wPBE\CC-pVDZ\C45H17F10N5S5\RDU230\25-Jul-
 2020\0\\#P uLC-wPBE/cc-pVDZ iop(3/107=0255000000, 3/108=0255000000) op
 t\\H17 C45 S5 N5 F10\\0,1\C,-19.2445400196,-1.704175651,0.1331079474\C
 ,-18.6018883003,-0.468287658,0.0710207144\C,-17.2175894428,-0.43440376
 61,0.1648610541\F,-16.6098624437,0.7710948063,0.0926640731\C,-16.41507
 72862,-1.5759185262,0.327064362\C,-17.1153958759,-2.7980165362,0.37311
 87513\F,-16.4388866721,-3.9462977759,0.4929729313\C,-18.5017406273,-2.
 8740254729,0.2808974536\C,-14.9462825524,-1.5126014796,0.4537082279\N,
 -14.2225379806,-2.475173683,0.9743974757\C,-12.8941250772,-2.167634664
 6,0.9279711015\C,-12.5588286437,-0.957361289,0.3639203431\S,-14.010452
 7265,-0.1512249432,-0.1273490828\C,-11.221642838,-0.3660260877,0.19663
 89696\C,-10.0979220883,-1.1957920558,0.0692420411\C,-8.8436777356,-0.6
 239904089,-0.0680357181\F,-7.788150983,-1.4606976825,-0.1806419743\C,-
 8.6036455465,0.7596137302,-0.1078206204\C,-9.7590036105,1.5558033284,0
 .0247057037\F,-9.6509914257,2.8885243953,0.0326626257\C,-11.0331208227
 ,1.022643022,0.1742624997\C,-7.2618522822,1.3421447865,-0.2871627453\N
 ,-7.0556874056,2.5915213774,-0.631897106\C,-5.7217053592,2.8699605337,
 -0.6894553035\C,-4.8612421005,1.8391107859,-0.3856117156\S,-5.79243010
 87,0.4272156599,-0.0142117521\C,-3.3896806901,1.8498813801,-0.38033638
 64\C,-2.6970158938,3.0409021311,-0.1206026968\C,-1.3083975268,3.061629
 0958,-0.1362226042\F,-0.7129363921,4.2270587022,0.1388663098\C,-0.5248
 976719,1.919086341,-0.3971692743\C,-1.2643902262,0.7484477876,-0.63180
 41078\F,-0.5907648342,-0.3969952464,-0.8768916596\C,-2.6487380119,0.68
 70716143,-0.6353097127\C,0.9479277553,1.9642447923,-0.4264827281\N,1.6
 352607974,3.0782868833,-0.521457557\C,2.9760506371,2.830002077,-0.4904
 662515\C,3.3585407005,1.5132519608,-0.3665479816\S,1.9385714442,0.5250
 48229,-0.295251822\C,4.7206953441,0.958015774,-0.3200764303\C,4.999834
 478,-0.3364451519,-0.7791192445\C,6.2966497302,-0.8329295725,-0.733391
 7282\F,6.493172404,-2.0678874434,-1.2070639363\C,7.38733869,-0.0895353
 359,-0.2393476983\C,7.057806149,1.2041355407,0.1981789883\F,8.04658176
 92,1.988633259,0.6810991237\C,5.777629382,1.7332838079,0.1788448401\C,
 8.7535612148,-0.6394121407,-0.1787881691\N,9.0238835354,-1.9187247929,
 -0.2913664775\C,10.3684861904,-2.1416050151,-0.2337383465\C,11.1728479
 836,-1.0351932488,-0.0785872317\S,10.1706424184,0.3737074693,0.0103900
 503\C,12.6401129173,-0.9780365541,0.0261598754\C,13.2825902629,0.03353
 0639,0.7528044194\C,14.6689854939,0.0583532983,0.843810457\F,15.215336
 2463,1.0384763732,1.5720403253\C,15.4966036366,-0.9034821463,0.2326303
 026\C,14.8059043588,-1.9017863369,-0.4730563627\F,15.5242369458,-2.869
 8617031,-1.0833187418\C,13.4265992924,-1.9578762297,-0.5966547407\C,16
 .9682544577,-0.8459870545,0.3205217549\N,17.6297860736,0.2419449996,0.
 6334553593\C,18.9766150456,0.0004555404,0.6772079321\C,19.3644244311,-
 1.2836613819,0.4020544048\S,17.9866288924,-2.2486354105,0.0539989603\H
 ,-20.3364989861,-1.7560136888,0.0603923454\H,-19.1474480872,0.47255065
 33,-0.0490499325\H,-18.9722553856,-3.8612498484,0.3233954484\H,-12.173
 1972256,-2.8703343651,1.3585809102\H,-10.1795748831,-2.2864007169,0.05
 23377225\H,-11.8685372448,1.7203033731,0.2931000653\H,-5.4027736763,3.
 8716735759,-0.9955926435\H,-3.2207951905,3.9697891549,0.1239176095\H,-
 3.1273564969,-0.2722897153,-0.8560587637\H,3.6719453199,3.6692497655,-
 0.5919629123\H,4.2207880167,-0.9795658546,-1.2013506417\H,5.622699719,
 2.7403060962,0.5767368973\H,10.7369413627,-3.1714402565,-0.2843709283\
 H,12.7205667289,0.8107247614,1.2809712258\H,12.9879550921,-2.757980758
 4,-1.1999403002\H,19.6577596503,0.8220513305,0.9205591339\H,20.3737918
 105,-1.6996661835,0.3706772928\\Version=EM64L-G16RevA.03\State=1-A\HF=
 -4985.3537587\S2=0.\S2-1=0.\S2A=0.\RMSD=5.823e-09\RMSF=1.218e-06\Dipol
 e=-2.1056007,-0.4867315,-0.088333\Quadrupole=63.0497206,-30.1821706,-3
 2.8675499,-4.9191723,1.8516135,1.6054991\PG=C01 [X(C45H17F10N5S5)]\\@


 SLITHERY-DITHERY
 FRIEDRICH A. KEKULE
 DREAMT ON A BUS OF THINGS
 FREUD WOULD THINK KEEN.
 MOST OF THE TIME THEY WERE
 HERPETOLOGICAL
 BITING THEIR TAILS IN THE
 SHAPE OF BENZENE.
 Job cpu time:       1 days 20 hours 16 minutes 54.0 seconds.
 Elapsed time:       0 days  5 hours 38 minutes 50.3 seconds.
 File lengths (MBytes):  RWF=   1180 Int=      0 D2E=      0 Chk=    108 Scr=      8
 Normal termination of Gaussian 16 at Sat Jul 25 20:41:38 2020.
