 Entering Gaussian System, Link 0=g16
 Input=mols_65_1_11_c-cF-COC_opt_0.gjf
 Output=mols_65_1_11_c-cF-COC_opt_0.log
 Initial command:
 /opt/ohpc/pub/libs/gaussian/g16-A.03/sandybridge/g16/l1.exe "/mnt/gpfs2_4m/scratch/rdu230/ondemand/projects/dihedral_energies/7trial/wtuning/mols_65_1_11_c-cF-COC/Gau-213585.inp" -scrdir="/mnt/gpfs2_4m/scratch/rdu230/ondemand/projects/dihedral_energies/7trial/wtuning/mols_65_1_11_c-cF-COC/"
 Entering Link 1 = /opt/ohpc/pub/libs/gaussian/g16-A.03/sandybridge/g16/l1.exe PID=    213594.
  
 Copyright (c) 1988,1990,1992,1993,1995,1998,2003,2009,2016,
            Gaussian, Inc.  All Rights Reserved.
  
 This is part of the Gaussian(R) 16 program.  It is based on
 the Gaussian(R) 09 system (copyright 2009, Gaussian, Inc.),
 the Gaussian(R) 03 system (copyright 2003, Gaussian, Inc.),
 the Gaussian(R) 98 system (copyright 1998, Gaussian, Inc.),
 the Gaussian(R) 94 system (copyright 1995, Gaussian, Inc.),
 the Gaussian 92(TM) system (copyright 1992, Gaussian, Inc.),
 the Gaussian 90(TM) system (copyright 1990, Gaussian, Inc.),
 the Gaussian 88(TM) system (copyright 1988, Gaussian, Inc.),
 the Gaussian 86(TM) system (copyright 1986, Carnegie Mellon
 University), and the Gaussian 82(TM) system (copyright 1983,
 Carnegie Mellon University). Gaussian is a federally registered
 trademark of Gaussian, Inc.
  
 This software contains proprietary and confidential information,
 including trade secrets, belonging to Gaussian, Inc.
  
 This software is provided under written license and may be
 used, copied, transmitted, or stored only in accord with that
 written license.
  
 The following legend is applicable only to US Government
 contracts under FAR:
  
                    RESTRICTED RIGHTS LEGEND
  
 Use, reproduction and disclosure by the US Government is
 subject to restrictions as set forth in subparagraphs (a)
 and (c) of the Commercial Computer Software - Restricted
 Rights clause in FAR 52.227-19.
  
 Gaussian, Inc.
 340 Quinnipiac St., Bldg. 40, Wallingford CT 06492
  
  
 ---------------------------------------------------------------
 Warning -- This program may not be used in any manner that
 competes with the business of Gaussian, Inc. or will provide
 assistance to any competitor of Gaussian, Inc.  The licensee
 of this program is prohibited from giving any competitor of
 Gaussian, Inc. access to this program.  By using this program,
 the user acknowledges that Gaussian, Inc. is engaged in the
 business of creating and licensing software in the field of
 computational chemistry and represents and warrants to the
 licensee that it is not a competitor of Gaussian, Inc. and that
 it will not use this program in any manner prohibited above.
 ---------------------------------------------------------------
  

 Cite this work as:
 Gaussian 16, Revision A.03,
 M. J. Frisch, G. W. Trucks, H. B. Schlegel, G. E. Scuseria, 
 M. A. Robb, J. R. Cheeseman, G. Scalmani, V. Barone, 
 G. A. Petersson, H. Nakatsuji, X. Li, M. Caricato, A. V. Marenich, 
 J. Bloino, B. G. Janesko, R. Gomperts, B. Mennucci, H. P. Hratchian, 
 J. V. Ortiz, A. F. Izmaylov, J. L. Sonnenberg, D. Williams-Young, 
 F. Ding, F. Lipparini, F. Egidi, J. Goings, B. Peng, A. Petrone, 
 T. Henderson, D. Ranasinghe, V. G. Zakrzewski, J. Gao, N. Rega, 
 G. Zheng, W. Liang, M. Hada, M. Ehara, K. Toyota, R. Fukuda, 
 J. Hasegawa, M. Ishida, T. Nakajima, Y. Honda, O. Kitao, H. Nakai, 
 T. Vreven, K. Throssell, J. A. Montgomery, Jr., J. E. Peralta, 
 F. Ogliaro, M. J. Bearpark, J. J. Heyd, E. N. Brothers, K. N. Kudin, 
 V. N. Staroverov, T. A. Keith, R. Kobayashi, J. Normand, 
 K. Raghavachari, A. P. Rendell, J. C. Burant, S. S. Iyengar, 
 J. Tomasi, M. Cossi, J. M. Millam, M. Klene, C. Adamo, R. Cammi, 
 J. W. Ochterski, R. L. Martin, K. Morokuma, O. Farkas, 
 J. B. Foresman, and D. J. Fox, Gaussian, Inc., Wallingford CT, 2016.
 
 ******************************************
 Gaussian 16:  EM64L-G16RevA.03 25-Dec-2016
                24-Jul-2020 
 ******************************************
 %mem=30GB
 %nproc=8
 Will use up to    8 processors via shared memory.
 ---------------------------------------------------------------
 #P uLC-wPBE/cc-pVDZ iop(3/107=0466000000, 3/108=0466000000) opt
 ---------------------------------------------------------------
 1/18=20,19=15,26=3,38=1/1,3;
 2/9=110,12=2,17=6,18=5,40=1/2;
 3/5=16,11=2,25=1,30=1,71=1,74=-41,107=466000000,108=466000000,116=2/1,2,3;
 4//1;
 5/5=2,38=5/2;
 6/7=2,8=2,9=2,10=2,28=1/1;
 7//1,2,3,16;
 1/18=20,19=15,26=3/3(2);
 2/9=110/2;
 99//99;
 2/9=110/2;
 3/5=16,11=2,25=1,30=1,71=1,74=-41,107=466000000,108=466000000,116=2/1,2,3;
 4/5=5,16=3,69=1/1;
 5/5=2,38=5/2;
 7//1,2,3,16;
 1/18=20,19=15,26=3/3(-5);
 2/9=110/2;
 6/7=2,8=2,9=2,10=2,19=2,28=1/1;
 99/9=1/99;
 Leave Link    1 at Fri Jul 24 12:11:57 2020, MaxMem=  4026531840 cpu:               2.3 elap:               0.3
 (Enter /opt/ohpc/pub/libs/gaussian/g16-A.03/sandybridge/g16/l101.exe)
 ---------------
 H9 C11 S1 O1 F1
 ---------------
 Symbolic Z-matrix:
 Charge =  0 Multiplicity = 1
 C                    -3.60348   0.6709   -0.16939 
 C                    -2.68924   1.37894  -1.05338 
 C                    -1.3881    1.05399  -0.99137 
 C                    -0.91651   0.0583   -0.22212 
 C                    -1.84003  -0.62923   0.66011 
 F                    -1.32801  -1.6008    1.50383 
 C                    -3.11304  -0.34569   0.63279 
 C                     0.55401  -0.31475  -0.1511 
 C                     1.6365    0.53156   0.02006 
 O                     1.4558    1.78687   0.39454 
 C                     2.56982   2.52774   0.78292 
 C                     2.83497  -0.19379  -0.08893 
 C                     2.64591  -1.47276  -0.41969 
 S                     1.0112   -1.8454   -0.61845 
 H                    -4.7258    0.91931  -0.2096 
 H                    -3.08679   2.14639  -1.66029 
 H                    -0.68803   1.57927  -1.74232 
 H                    -3.8256   -0.85414   1.34735 
 H                     3.12511   2.09167   1.56727 
 H                     2.3033    3.52956   1.05963 
 H                     3.2926    2.64274  -0.06537 
 H                     3.87556   0.27291   0.06217 
 H                     3.46782  -2.19944  -0.56786 
 
 ITRead=  0  0  0  0  0  0  0  0  0  0  0  0  0  0  0  0  0  0  0  0
 ITRead=  0  0  0
 MicOpt= -1 -1 -1 -1 -1 -1 -1 -1 -1 -1 -1 -1 -1 -1 -1 -1 -1 -1 -1 -1
 MicOpt= -1 -1 -1
 NAtoms=     23 NQM=       23 NQMF=       0 NMMI=      0 NMMIF=      0
                NMic=       0 NMicF=      0.
                    Isotopes and Nuclear Properties:
 (Nuclear quadrupole moments (NQMom) in fm**2, nuclear magnetic moments (NMagM)
  in nuclear magnetons)

  Atom         1           2           3           4           5           6           7           8           9          10
 IAtWgt=          12          12          12          12          12          19          12          12          12          16
 AtmWgt=  12.0000000  12.0000000  12.0000000  12.0000000  12.0000000  18.9984033  12.0000000  12.0000000  12.0000000  15.9949146
 NucSpn=           0           0           0           0           0           1           0           0           0           0
 AtZEff=  -0.0000000  -0.0000000  -0.0000000  -0.0000000  -0.0000000  -0.0000000  -0.0000000  -0.0000000  -0.0000000  -0.0000000
 NQMom=    0.0000000   0.0000000   0.0000000   0.0000000   0.0000000   0.0000000   0.0000000   0.0000000   0.0000000   0.0000000
 NMagM=    0.0000000   0.0000000   0.0000000   0.0000000   0.0000000   2.6288670   0.0000000   0.0000000   0.0000000   0.0000000
 AtZNuc=   6.0000000   6.0000000   6.0000000   6.0000000   6.0000000   9.0000000   6.0000000   6.0000000   6.0000000   8.0000000

  Atom        11          12          13          14          15          16          17          18          19          20
 IAtWgt=          12          12          12          32           1           1           1           1           1           1
 AtmWgt=  12.0000000  12.0000000  12.0000000  31.9720718   1.0078250   1.0078250   1.0078250   1.0078250   1.0078250   1.0078250
 NucSpn=           0           0           0           0           1           1           1           1           1           1
 AtZEff=  -0.0000000  -0.0000000  -0.0000000  -0.0000000  -0.0000000  -0.0000000  -0.0000000  -0.0000000  -0.0000000  -0.0000000
 NQMom=    0.0000000   0.0000000   0.0000000   0.0000000   0.0000000   0.0000000   0.0000000   0.0000000   0.0000000   0.0000000
 NMagM=    0.0000000   0.0000000   0.0000000   0.0000000   2.7928460   2.7928460   2.7928460   2.7928460   2.7928460   2.7928460
 AtZNuc=   6.0000000   6.0000000   6.0000000  16.0000000   1.0000000   1.0000000   1.0000000   1.0000000   1.0000000   1.0000000

  Atom        21          22          23
 IAtWgt=           1           1           1
 AtmWgt=   1.0078250   1.0078250   1.0078250
 NucSpn=           1           1           1
 AtZEff=  -0.0000000  -0.0000000  -0.0000000
 NQMom=    0.0000000   0.0000000   0.0000000
 NMagM=    2.7928460   2.7928460   2.7928460
 AtZNuc=   1.0000000   1.0000000   1.0000000
 Leave Link  101 at Fri Jul 24 12:11:57 2020, MaxMem=  4026531840 cpu:               2.8 elap:               0.4
 (Enter /opt/ohpc/pub/libs/gaussian/g16-A.03/sandybridge/g16/l103.exe)

 GradGradGradGradGradGradGradGradGradGradGradGradGradGradGradGradGradGrad
 Berny optimization.
 Initialization pass.
                           ----------------------------
                           !    Initial Parameters    !
                           ! (Angstroms and Degrees)  !
 --------------------------                            --------------------------
 ! Name  Definition              Value          Derivative Info.                !
 --------------------------------------------------------------------------------
 ! R1    R(1,2)                  1.4555         estimate D2E/DX2                !
 ! R2    R(1,7)                  1.3847         estimate D2E/DX2                !
 ! R3    R(1,15)                 1.1502         estimate D2E/DX2                !
 ! R4    R(2,3)                  1.3425         estimate D2E/DX2                !
 ! R5    R(2,16)                 1.0561         estimate D2E/DX2                !
 ! R6    R(3,4)                  1.3437         estimate D2E/DX2                !
 ! R7    R(3,17)                 1.1532         estimate D2E/DX2                !
 ! R8    R(4,5)                  1.4505         estimate D2E/DX2                !
 ! R9    R(4,8)                  1.5188         estimate D2E/DX2                !
 ! R10   R(5,6)                  1.3849         estimate D2E/DX2                !
 ! R11   R(5,7)                  1.3045         estimate D2E/DX2                !
 ! R12   R(7,18)                 1.13           estimate D2E/DX2                !
 ! R13   R(8,9)                  1.3847         estimate D2E/DX2                !
 ! R14   R(8,14)                 1.6644         estimate D2E/DX2                !
 ! R15   R(9,10)                 1.3224         estimate D2E/DX2                !
 ! R16   R(9,12)                 1.4051         estimate D2E/DX2                !
 ! R17   R(10,11)                1.3931         estimate D2E/DX2                !
 ! R18   R(11,19)                1.0553         estimate D2E/DX2                !
 ! R19   R(11,20)                1.073          estimate D2E/DX2                !
 ! R20   R(11,21)                1.1204         estimate D2E/DX2                !
 ! R21   R(12,13)                1.3345         estimate D2E/DX2                !
 ! R22   R(12,22)                1.1504         estimate D2E/DX2                !
 ! R23   R(13,14)                1.6884         estimate D2E/DX2                !
 ! R24   R(13,23)                1.107          estimate D2E/DX2                !
 ! A1    A(2,1,7)              119.1096         estimate D2E/DX2                !
 ! A2    A(2,1,15)             119.1176         estimate D2E/DX2                !
 ! A3    A(7,1,15)             121.6283         estimate D2E/DX2                !
 ! A4    A(1,2,3)              117.5778         estimate D2E/DX2                !
 ! A5    A(1,2,16)             117.7787         estimate D2E/DX2                !
 ! A6    A(3,2,16)             124.5589         estimate D2E/DX2                !
 ! A7    A(2,3,4)              123.0887         estimate D2E/DX2                !
 ! A8    A(2,3,17)             116.6166         estimate D2E/DX2                !
 ! A9    A(4,3,17)             119.8177         estimate D2E/DX2                !
 ! A10   A(3,4,5)              118.423          estimate D2E/DX2                !
 ! A11   A(3,4,8)              123.2706         estimate D2E/DX2                !
 ! A12   A(5,4,8)              118.1388         estimate D2E/DX2                !
 ! A13   A(4,5,6)              117.8837         estimate D2E/DX2                !
 ! A14   A(4,5,7)              120.3692         estimate D2E/DX2                !
 ! A15   A(6,5,7)              121.7378         estimate D2E/DX2                !
 ! A16   A(1,7,5)              121.1537         estimate D2E/DX2                !
 ! A17   A(1,7,18)             118.2498         estimate D2E/DX2                !
 ! A18   A(5,7,18)             120.2873         estimate D2E/DX2                !
 ! A19   A(4,8,9)              127.7768         estimate D2E/DX2                !
 ! A20   A(4,8,14)             118.6015         estimate D2E/DX2                !
 ! A21   A(9,8,14)             112.4602         estimate D2E/DX2                !
 ! A22   A(8,9,10)             120.5557         estimate D2E/DX2                !
 ! A23   A(8,9,12)             109.9803         estimate D2E/DX2                !
 ! A24   A(10,9,12)            128.9436         estimate D2E/DX2                !
 ! A25   A(9,10,11)            118.3277         estimate D2E/DX2                !
 ! A26   A(10,11,19)           114.0929         estimate D2E/DX2                !
 ! A27   A(10,11,20)           111.7038         estimate D2E/DX2                !
 ! A28   A(10,11,21)           111.0625         estimate D2E/DX2                !
 ! A29   A(19,11,20)           108.9561         estimate D2E/DX2                !
 ! A30   A(19,11,21)           105.4085         estimate D2E/DX2                !
 ! A31   A(20,11,21)           105.0507         estimate D2E/DX2                !
 ! A32   A(9,12,13)            113.149          estimate D2E/DX2                !
 ! A33   A(9,12,22)            123.4975         estimate D2E/DX2                !
 ! A34   A(13,12,22)           123.3324         estimate D2E/DX2                !
 ! A35   A(12,13,14)           112.2019         estimate D2E/DX2                !
 ! A36   A(12,13,23)           123.8544         estimate D2E/DX2                !
 ! A37   A(14,13,23)           123.9314         estimate D2E/DX2                !
 ! A38   A(8,14,13)             91.715          estimate D2E/DX2                !
 ! D1    D(7,1,2,3)             -3.5629         estimate D2E/DX2                !
 ! D2    D(7,1,2,16)           179.6267         estimate D2E/DX2                !
 ! D3    D(15,1,2,3)          -179.2659         estimate D2E/DX2                !
 ! D4    D(15,1,2,16)            3.9237         estimate D2E/DX2                !
 ! D5    D(2,1,7,5)              3.6451         estimate D2E/DX2                !
 ! D6    D(2,1,7,18)           177.2759         estimate D2E/DX2                !
 ! D7    D(15,1,7,5)           179.2361         estimate D2E/DX2                !
 ! D8    D(15,1,7,18)           -7.1332         estimate D2E/DX2                !
 ! D9    D(1,2,3,4)              4.4029         estimate D2E/DX2                !
 ! D10   D(1,2,3,17)           176.4492         estimate D2E/DX2                !
 ! D11   D(16,2,3,4)          -179.024          estimate D2E/DX2                !
 ! D12   D(16,2,3,17)           -6.9778         estimate D2E/DX2                !
 ! D13   D(2,3,4,5)             -4.9358         estimate D2E/DX2                !
 ! D14   D(2,3,4,8)            179.8638         estimate D2E/DX2                !
 ! D15   D(17,3,4,5)          -176.7382         estimate D2E/DX2                !
 ! D16   D(17,3,4,8)             8.0614         estimate D2E/DX2                !
 ! D17   D(3,4,5,6)           -176.3408         estimate D2E/DX2                !
 ! D18   D(3,4,5,7)              4.7447         estimate D2E/DX2                !
 ! D19   D(8,4,5,6)             -0.891          estimate D2E/DX2                !
 ! D20   D(8,4,5,7)           -179.8055         estimate D2E/DX2                !
 ! D21   D(3,4,8,9)             47.8095         estimate D2E/DX2                !
 ! D22   D(3,4,8,14)          -118.8752         estimate D2E/DX2                !
 ! D23   D(5,4,8,9)           -127.4038         estimate D2E/DX2                !
 ! D24   D(5,4,8,14)            65.9115         estimate D2E/DX2                !
 ! D25   D(4,5,7,1)             -4.2028         estimate D2E/DX2                !
 ! D26   D(4,5,7,18)          -177.7048         estimate D2E/DX2                !
 ! D27   D(6,5,7,1)            176.9254         estimate D2E/DX2                !
 ! D28   D(6,5,7,18)             3.4235         estimate D2E/DX2                !
 ! D29   D(4,8,9,10)            12.8266         estimate D2E/DX2                !
 ! D30   D(4,8,9,12)          -174.7356         estimate D2E/DX2                !
 ! D31   D(14,8,9,10)         -179.8121         estimate D2E/DX2                !
 ! D32   D(14,8,9,12)           -7.3743         estimate D2E/DX2                !
 ! D33   D(4,8,14,13)          175.1388         estimate D2E/DX2                !
 ! D34   D(9,8,14,13)            6.4992         estimate D2E/DX2                !
 ! D35   D(8,9,10,11)          168.7386         estimate D2E/DX2                !
 ! D36   D(12,9,10,11)          -2.1113         estimate D2E/DX2                !
 ! D37   D(8,9,12,13)            4.4965         estimate D2E/DX2                !
 ! D38   D(8,9,12,22)         -177.128          estimate D2E/DX2                !
 ! D39   D(10,9,12,13)         176.1182         estimate D2E/DX2                !
 ! D40   D(10,9,12,22)          -5.5063         estimate D2E/DX2                !
 ! D41   D(9,10,11,19)         -56.1688         estimate D2E/DX2                !
 ! D42   D(9,10,11,20)         179.7075         estimate D2E/DX2                !
 ! D43   D(9,10,11,21)          62.7851         estimate D2E/DX2                !
 ! D44   D(9,12,13,14)           0.2595         estimate D2E/DX2                !
 ! D45   D(9,12,13,23)         179.0236         estimate D2E/DX2                !
 ! D46   D(22,12,13,14)       -178.1191         estimate D2E/DX2                !
 ! D47   D(22,12,13,23)          0.645          estimate D2E/DX2                !
 ! D48   D(12,13,14,8)          -3.8654         estimate D2E/DX2                !
 ! D49   D(23,13,14,8)         177.3717         estimate D2E/DX2                !
 --------------------------------------------------------------------------------
 Trust Radius=3.00D-01 FncErr=1.00D-07 GrdErr=1.00D-06 EigMax=2.50D+02 EigMin=1.00D-04
 Number of steps in this run=    121 maximum allowed number of steps=    138.
 GradGradGradGradGradGradGradGradGradGradGradGradGradGradGradGradGradGrad

 Leave Link  103 at Fri Jul 24 12:11:57 2020, MaxMem=  4026531840 cpu:               0.1 elap:               0.1
 (Enter /opt/ohpc/pub/libs/gaussian/g16-A.03/sandybridge/g16/l202.exe)
                          Input orientation:                          
 ---------------------------------------------------------------------
 Center     Atomic      Atomic             Coordinates (Angstroms)
 Number     Number       Type             X           Y           Z
 ---------------------------------------------------------------------
      1          6           0       -3.603483    0.670901   -0.169391
      2          6           0       -2.689241    1.378944   -1.053379
      3          6           0       -1.388100    1.053992   -0.991373
      4          6           0       -0.916507    0.058296   -0.222116
      5          6           0       -1.840029   -0.629225    0.660113
      6          9           0       -1.328011   -1.600800    1.503829
      7          6           0       -3.113038   -0.345693    0.632787
      8          6           0        0.554007   -0.314752   -0.151102
      9          6           0        1.636502    0.531560    0.020060
     10          8           0        1.455801    1.786865    0.394541
     11          6           0        2.569822    2.527742    0.782920
     12          6           0        2.834974   -0.193787   -0.088931
     13          6           0        2.645909   -1.472763   -0.419692
     14         16           0        1.011200   -1.845404   -0.618454
     15          1           0       -4.725801    0.919313   -0.209598
     16          1           0       -3.086793    2.146394   -1.660286
     17          1           0       -0.688025    1.579265   -1.742315
     18          1           0       -3.825604   -0.854137    1.347349
     19          1           0        3.125114    2.091673    1.567271
     20          1           0        2.303296    3.529562    1.059626
     21          1           0        3.292601    2.642741   -0.065369
     22          1           0        3.875559    0.272910    0.062167
     23          1           0        3.467815   -2.199441   -0.567857
 ---------------------------------------------------------------------
                    Distance matrix (angstroms):
                    1          2          3          4          5
     1  C    0.000000
     2  C    1.455540   0.000000
     3  C    2.393812   1.342537   0.000000
     4  C    2.756430   2.361714   1.343714   0.000000
     5  C    2.342685   2.773077   2.401013   1.450485   0.000000
     6  F    3.624647   4.155855   3.643839   2.429161   1.384911
     7  C    1.384734   2.448904   2.751804   2.391404   1.304488
     8  C    4.272771   3.768470   2.520178   1.518756   2.547228
     9  C    5.245260   4.536781   3.231741   2.607774   3.720666
    10  O    5.211502   4.409563   3.247404   2.999344   4.095182
    11  C    6.516475   5.687660   4.580961   4.388935   5.424786
    12  C    6.496760   5.824139   4.495076   3.762299   4.754611
    13  C    6.611569   6.082567   4.794219   3.882523   4.690541
    14  S    5.275296   4.927357   3.781826   2.738104   3.353108
    15  H    1.150184   2.251845   3.430679   3.905410   3.388517
    16  H    2.160281   1.056108   2.127521   3.337458   3.826582
    17  H    3.434983   2.125941   1.153226   2.162535   3.460665
    18  H    2.162309   3.470082   3.879691   3.429081   2.113146
    19  H    7.092856   6.417360   5.290798   4.865309   5.734010
    20  H    6.676261   5.832270   4.895043   4.905067   5.884068
    21  H    7.173210   6.193204   5.028973   4.941712   6.129925
    22  H    7.493203   6.750137   5.424587   4.805286   5.817159
    23  H    7.642048   7.137921   5.860384   4.943601   5.669806
                    6          7          8          9         10
     6  F    0.000000
     7  C    2.349538   0.000000
     8  C    2.816861   3.750021   0.000000
     9  C    3.941683   4.868587   1.384679   0.000000
    10  O    4.522876   5.047658   2.351117   1.322376   0.000000
    11  C    5.723432   6.369778   3.607725   2.331906   1.393119
    12  C    4.674079   5.993563   2.285018   1.405113   2.461472
    13  C    4.416828   5.961834   2.406072   2.286831   3.564338
    14  S    3.167937   4.563340   1.664434   2.539421   3.797000
    15  H    4.564184   2.216045   5.422427   6.378244   6.271350
    16  H    5.210221   3.386646   4.646536   5.266950   4.998673
    17  H    4.589101   3.902212   2.768014   3.099529   3.034014
    18  H    2.611506   1.129984   4.660181   5.789340   5.981302
    19  H    5.785214   6.762289   3.918454   2.654012   2.062719
    20  H    6.301136   6.673565   4.393703   3.242426   2.048799
    21  H    6.466845   7.102842   4.031626   2.684594   2.077950
    22  H    5.715446   7.039088   3.379872   2.254340   2.873632
    23  H    5.258346   6.941582   3.495142   3.340317   4.567827
                   11         12         13         14         15
    11  C    0.000000
    12  C    2.870044   0.000000
    13  C    4.178050   1.334514   0.000000
    14  S    4.849490   2.516820   1.688384   0.000000
    15  H    7.536461   7.643224   7.752953   6.381536   0.000000
    16  H    6.173490   6.558424   6.892115   5.814930   2.509297
    17  H    4.229656   4.276554   4.709493   3.984820   4.369027
    18  H    7.256525   6.845602   6.736884   5.314289   2.525780
    19  H    1.055325   2.837343   4.108876   4.974596   8.134406
    20  H    1.072961   3.932581   5.227717   5.777173   7.604770
    21  H    1.120370   2.873303   4.181044   5.064992   8.202791
    22  H    2.703461   1.150415   2.188973   3.626989   8.629895
    23  H    4.997724   2.156967   1.107043   2.482511   8.774413
                   16         17         18         19         20
    16  H    0.000000
    17  H    2.466263   0.000000
    18  H    4.312180   5.031090   0.000000
    19  H    7.000565   5.075032   7.552393   0.000000
    20  H    6.193879   4.539001   7.540757   1.732228   0.000000
    21  H    6.594451   4.448428   8.055605   1.731254   1.740916
    22  H    7.412903   5.078289   7.888589   2.477177   3.751362
    23  H    7.939935   5.738378   7.659753   4.805192   6.068466
                   21         22         23
    21  H    0.000000
    22  H    2.443809   0.000000
    23  H    4.871337   2.583739   0.000000
 Stoichiometry    C11H9FOS
 Framework group  C1[X(C11H9FOS)]
 Deg. of freedom    63
 Full point group                 C1      NOp   1
 Largest Abelian subgroup         C1      NOp   1
 Largest concise Abelian subgroup C1      NOp   1
                         Standard orientation:                         
 ---------------------------------------------------------------------
 Center     Atomic      Atomic             Coordinates (Angstroms)
 Number     Number       Type             X           Y           Z
 ---------------------------------------------------------------------
      1          6           0       -3.595840    0.696955   -0.180841
      2          6           0       -2.674161    1.403025   -1.058664
      3          6           0       -1.375559    1.068399   -0.994916
      4          6           0       -0.913201    0.065317   -0.229660
      5          6           0       -1.844007   -0.620156    0.646487
      6          9           0       -1.341251   -1.599799    1.486435
      7          6           0       -3.114869   -0.327332    0.617276
      8          6           0        0.554400   -0.318670   -0.156708
      9          6           0        1.642480    0.518922    0.021775
     10          8           0        1.469792    1.773515    0.402374
     11          6           0        2.588056    2.504311    0.797599
     12          6           0        2.836001   -0.214449   -0.087850
     13          6           0        2.638647   -1.490280   -0.425836
     14         16           0        1.001845   -1.850102   -0.630891
     15          1           0       -4.716233    0.953644   -0.222718
     16          1           0       -3.064557    2.176487   -1.662578
     17          1           0       -0.669712    1.592549   -1.741225
     18          1           0       -3.832988   -0.834374    1.327260
     19          1           0        3.138090    2.060152    1.581116
     20          1           0        2.327988    3.506558    1.078864
     21          1           0        3.313922    2.618551   -0.048152
     22          1           0        3.879501    0.243950    0.068461
     23          1           0        3.455709   -2.222067   -0.575640
 ---------------------------------------------------------------------
 Rotational constants (GHZ):           0.9789389           0.4840490           0.3798810
 Leave Link  202 at Fri Jul 24 12:11:58 2020, MaxMem=  4026531840 cpu:               0.3 elap:               0.1
 (Enter /opt/ohpc/pub/libs/gaussian/g16-A.03/sandybridge/g16/l301.exe)
 Standard basis: CC-pVDZ (5D, 7F)
 Ernie: Thresh=  0.10000D-02 Tol=  0.10000D-05 Strict=F.
 Ernie:  36 primitive shells out of 381 were deleted.
 There are   259 symmetry adapted cartesian basis functions of A   symmetry.
 There are   245 symmetry adapted basis functions of A   symmetry.
   245 basis functions,   563 primitive gaussians,   259 cartesian basis functions
    54 alpha electrons       54 beta electrons
       nuclear repulsion energy       965.1019941144 Hartrees.
 IExCor=32609 DFT=T Ex+Corr=LC-wPBE ExCW=0 ScaHFX=  1.000000
 ScaDFX=  1.000000  0.000000  1.000000  1.000000 ScalE2=  1.000000  1.000000
 IRadAn=      5 IRanWt=     -1 IRanGd=            0 ICorTp=0 IEmpDi=  4
 HFx  wShort=  0.000000 wLong=  0.466000 cFull=  0.000000 cShort=  0.000000 cLong=  1.000000
 DFx  wShort=  0.000000 wLong=  0.466000 cFull=  0.000000 cShort=  0.000000 cLong=  1.000000
 NAtoms=   23 NActive=   23 NUniq=   23 SFac= 1.00D+00 NAtFMM=   60 NAOKFM=F Big=F
 Integral buffers will be    131072 words long.
 Raffenetti 2 integral format.
 Two-electron integral symmetry is turned on.
 Leave Link  301 at Fri Jul 24 12:11:58 2020, MaxMem=  4026531840 cpu:               0.4 elap:               0.1
 (Enter /opt/ohpc/pub/libs/gaussian/g16-A.03/sandybridge/g16/l302.exe)
 NPDir=0 NMtPBC=     1 NCelOv=     1 NCel=       1 NClECP=     1 NCelD=      1
         NCelK=      1 NCelE2=     1 NClLst=     1 CellRange=     0.0.
 One-electron integrals computed using PRISM.
 One-electron integral symmetry used in STVInt
 NBasis=   245 RedAO= T EigKep=  3.67D-04  NBF=   245
 NBsUse=   245 1.00D-06 EigRej= -1.00D+00 NBFU=   245
 Precomputing XC quadrature grid using
 IXCGrd= 4 IRadAn=           5 IRanWt=          -1 IRanGd=           0 AccXCQ= 0.00D+00.
 Generated NRdTot=       0 NPtTot=           0 NUsed=           0 NTot=          32
 NSgBfM=   258   258   258   258   258 MxSgAt=    23 MxSgA2=    23.
 Leave Link  302 at Fri Jul 24 12:11:58 2020, MaxMem=  4026531840 cpu:               2.6 elap:               0.4
 (Enter /opt/ohpc/pub/libs/gaussian/g16-A.03/sandybridge/g16/l303.exe)
 DipDrv:  MaxL=1.
 Leave Link  303 at Fri Jul 24 12:11:58 2020, MaxMem=  4026531840 cpu:               0.3 elap:               0.1
 (Enter /opt/ohpc/pub/libs/gaussian/g16-A.03/sandybridge/g16/l401.exe)
 ExpMin= 1.22D-01 ExpMax= 1.11D+05 ExpMxC= 1.07D+03 IAcc=3 IRadAn=         5 AccDes= 0.00D+00
 Harris functional with IExCor=32609 and IRadAn=       5 diagonalized for initial guess.
 HarFok:  IExCor=32609 AccDes= 0.00D+00 IRadAn=         5 IDoV= 1 UseB2=F ITyADJ=14
 ICtDFT=  3500011 ScaDFX=  1.000000  1.000000  1.000000  1.000000
 FoFCou: FMM=F IPFlag=           0 FMFlag=      100000 FMFlg1=           0
         NFxFlg=           0 DoJE=T BraDBF=F KetDBF=T FulRan=T
         wScrn=  0.000000 ICntrl=       500 IOpCl=  0 I1Cent=   200000004 NGrid=           0
         NMat0=    1 NMatS0=      1 NMatT0=    0 NMatD0=    1 NMtDS0=    0 NMtDT0=    0
 Petite list used in FoFCou.
 Harris En= -997.170017427769    
 JPrj=0 DoOrth=F DoCkMO=F.
 Initial guess <Sx>= 0.0000 <Sy>= 0.0000 <Sz>= 0.0000 <S**2>=-0.0000 S=-0.0000
 Leave Link  401 at Fri Jul 24 12:12:00 2020, MaxMem=  4026531840 cpu:              12.2 elap:               1.5
 (Enter /opt/ohpc/pub/libs/gaussian/g16-A.03/sandybridge/g16/l502.exe)
 Integral symmetry usage will be decided dynamically.
 UHF open shell SCF:
 Using DIIS extrapolation, IDIIS=  1040.
 NGot=  4026531840 LenX=  4026392809 LenY=  4026325287
 Requested convergence on RMS density matrix=1.00D-08 within 128 cycles.
 Requested convergence on MAX density matrix=1.00D-06.
 Requested convergence on             energy=1.00D-06.
 No special actions if energy rises.
 Fock matrices will be formed incrementally for  20 cycles.
 Integral accuracy reduced to 1.0D-05 until final iterations.

 Cycle   1  Pass 0  IDiag  1:
 FoFJK:  IHMeth= 1 ICntrl=       0 DoSepK=T KAlg= 0 I1Cent=           0 FoldK=F
 IRaf=         1 NMat=       1 IRICut=       1 DoRegI=T DoRafI=F ISym2E= 0 IDoP0=0 IntGTp=1.
 FoFCou: FMM=F IPFlag=           0 FMFlag=      100000 FMFlg1=           0
         NFxFlg=           0 DoJE=T BraDBF=F KetDBF=F FulRan=T
         wScrn=  0.000000 ICntrl=       500 IOpCl=  0 I1Cent=           0 NGrid=           0
         NMat0=    1 NMatS0=      1 NMatT0=    0 NMatD0=    1 NMtDS0=    0 NMtDT0=    0
 Symmetry not used in FoFCou.
 E= -996.975679927677    
 DIIS: error= 1.99D-02 at cycle   1 NSaved=   1.
 NSaved= 1 IEnMin= 1 EnMin= -996.975679927677     IErMin= 1 ErrMin= 1.99D-02
 ErrMax= 1.99D-02  0.00D+00 EMaxC= 1.00D-01 BMatC= 1.16D+00 BMatP= 1.16D+00
 IDIUse=3 WtCom= 8.01D-01 WtEn= 1.99D-01
 Coeff-Com:  0.100D+01
 Coeff-En:   0.100D+01
 Coeff:      0.100D+01
 Gap=     0.401 Goal=   None    Shift=    0.000
 Gap=     0.401 Goal=   None    Shift=    0.000
 GapD=    0.401 DampG=2.000 DampE=0.500 DampFc=1.0000 IDamp=-1.
 RMSDP=4.10D-03 MaxDP=1.17D-01              OVMax= 1.82D-01

 Cycle   2  Pass 0  IDiag  1:
 RMSU=  4.05D-03    CP:  9.72D-01
 E= -997.138962646835     Delta-E=       -0.163282719158 Rises=F Damp=F
 DIIS: error= 1.41D-02 at cycle   2 NSaved=   2.
 NSaved= 2 IEnMin= 2 EnMin= -997.138962646835     IErMin= 2 ErrMin= 1.41D-02
 ErrMax= 1.41D-02  0.00D+00 EMaxC= 1.00D-01 BMatC= 6.29D-01 BMatP= 1.16D+00
 IDIUse=3 WtCom= 8.59D-01 WtEn= 1.41D-01
 Coeff-Com:  0.419D+00 0.581D+00
 Coeff-En:   0.274D+00 0.726D+00
 Coeff:      0.398D+00 0.602D+00
 Gap=     0.372 Goal=   None    Shift=    0.000
 Gap=     0.372 Goal=   None    Shift=    0.000
 RMSDP=1.97D-03 MaxDP=6.73D-02 DE=-1.63D-01 OVMax= 9.15D-02

 Cycle   3  Pass 0  IDiag  1:
 RMSU=  1.26D-03    CP:  9.78D-01  6.29D-01
 E= -997.297355191596     Delta-E=       -0.158392544761 Rises=F Damp=F
 DIIS: error= 2.52D-03 at cycle   3 NSaved=   3.
 NSaved= 3 IEnMin= 3 EnMin= -997.297355191596     IErMin= 3 ErrMin= 2.52D-03
 ErrMax= 2.52D-03  0.00D+00 EMaxC= 1.00D-01 BMatC= 1.61D-02 BMatP= 6.29D-01
 IDIUse=3 WtCom= 9.75D-01 WtEn= 2.52D-02
 Coeff-Com:  0.804D-01 0.173D+00 0.746D+00
 Coeff-En:   0.000D+00 0.000D+00 0.100D+01
 Coeff:      0.784D-01 0.169D+00 0.753D+00
 Gap=     0.358 Goal=   None    Shift=    0.000
 Gap=     0.358 Goal=   None    Shift=    0.000
 RMSDP=3.78D-04 MaxDP=1.36D-02 DE=-1.58D-01 OVMax= 2.80D-02

 Cycle   4  Pass 0  IDiag  1:
 RMSU=  2.99D-04    CP:  9.77D-01  6.73D-01  8.86D-01
 E= -997.301465793856     Delta-E=       -0.004110602260 Rises=F Damp=F
 DIIS: error= 1.03D-03 at cycle   4 NSaved=   4.
 NSaved= 4 IEnMin= 4 EnMin= -997.301465793856     IErMin= 4 ErrMin= 1.03D-03
 ErrMax= 1.03D-03  0.00D+00 EMaxC= 1.00D-01 BMatC= 2.61D-03 BMatP= 1.61D-02
 IDIUse=3 WtCom= 9.90D-01 WtEn= 1.03D-02
 Coeff-Com: -0.136D-01-0.676D-02 0.280D+00 0.741D+00
 Coeff-En:   0.000D+00 0.000D+00 0.000D+00 0.100D+01
 Coeff:     -0.135D-01-0.669D-02 0.277D+00 0.743D+00
 Gap=     0.359 Goal=   None    Shift=    0.000
 Gap=     0.359 Goal=   None    Shift=    0.000
 RMSDP=1.42D-04 MaxDP=4.80D-03 DE=-4.11D-03 OVMax= 8.13D-03

 Cycle   5  Pass 0  IDiag  1:
 RMSU=  9.64D-05    CP:  9.76D-01  6.71D-01  9.63D-01  8.89D-01
 E= -997.302229796293     Delta-E=       -0.000764002437 Rises=F Damp=F
 DIIS: error= 2.42D-04 at cycle   5 NSaved=   5.
 NSaved= 5 IEnMin= 5 EnMin= -997.302229796293     IErMin= 5 ErrMin= 2.42D-04
 ErrMax= 2.42D-04  0.00D+00 EMaxC= 1.00D-01 BMatC= 1.86D-04 BMatP= 2.61D-03
 IDIUse=3 WtCom= 9.98D-01 WtEn= 2.42D-03
 Coeff-Com: -0.106D-01-0.191D-01 0.226D-01 0.203D+00 0.804D+00
 Coeff-En:   0.000D+00 0.000D+00 0.000D+00 0.000D+00 0.100D+01
 Coeff:     -0.106D-01-0.191D-01 0.226D-01 0.203D+00 0.804D+00
 Gap=     0.360 Goal=   None    Shift=    0.000
 Gap=     0.360 Goal=   None    Shift=    0.000
 RMSDP=5.39D-05 MaxDP=1.67D-03 DE=-7.64D-04 OVMax= 4.50D-03

 Cycle   6  Pass 0  IDiag  1:
 RMSU=  3.95D-05    CP:  9.76D-01  6.71D-01  9.83D-01  9.73D-01  1.09D+00
 E= -997.302320953679     Delta-E=       -0.000091157386 Rises=F Damp=F
 DIIS: error= 1.17D-04 at cycle   6 NSaved=   6.
 NSaved= 6 IEnMin= 6 EnMin= -997.302320953679     IErMin= 6 ErrMin= 1.17D-04
 ErrMax= 1.17D-04  0.00D+00 EMaxC= 1.00D-01 BMatC= 4.02D-05 BMatP= 1.86D-04
 IDIUse=3 WtCom= 9.99D-01 WtEn= 1.17D-03
 Coeff-Com: -0.204D-02-0.751D-02-0.319D-01-0.446D-01 0.246D+00 0.840D+00
 Coeff-En:   0.000D+00 0.000D+00 0.000D+00 0.000D+00 0.000D+00 0.100D+01
 Coeff:     -0.204D-02-0.751D-02-0.319D-01-0.446D-01 0.246D+00 0.840D+00
 Gap=     0.360 Goal=   None    Shift=    0.000
 Gap=     0.360 Goal=   None    Shift=    0.000
 RMSDP=2.93D-05 MaxDP=1.19D-03 DE=-9.12D-05 OVMax= 2.41D-03

 Cycle   7  Pass 0  IDiag  1:
 RMSU=  1.62D-05    CP:  9.76D-01  6.71D-01  9.90D-01  1.00D+00  1.30D+00
                    CP:  1.19D+00
 E= -997.302349924298     Delta-E=       -0.000028970619 Rises=F Damp=F
 DIIS: error= 5.51D-05 at cycle   7 NSaved=   7.
 NSaved= 7 IEnMin= 7 EnMin= -997.302349924298     IErMin= 7 ErrMin= 5.51D-05
 ErrMax= 5.51D-05  0.00D+00 EMaxC= 1.00D-01 BMatC= 7.63D-06 BMatP= 4.02D-05
 IDIUse=1 WtCom= 1.00D+00 WtEn= 0.00D+00
 Coeff-Com:  0.163D-02 0.210D-02-0.686D-02-0.527D-01-0.167D+00 0.143D+00
 Coeff-Com:  0.108D+01
 Coeff:      0.163D-02 0.210D-02-0.686D-02-0.527D-01-0.167D+00 0.143D+00
 Coeff:      0.108D+01
 Gap=     0.360 Goal=   None    Shift=    0.000
 Gap=     0.360 Goal=   None    Shift=    0.000
 RMSDP=2.15D-05 MaxDP=7.96D-04 DE=-2.90D-05 OVMax= 2.11D-03

 Cycle   8  Pass 0  IDiag  1:
 RMSU=  6.54D-06    CP:  9.76D-01  6.70D-01  9.95D-01  1.02D+00  1.40D+00
                    CP:  1.56D+00  1.32D+00
 E= -997.302358089323     Delta-E=       -0.000008165025 Rises=F Damp=F
 DIIS: error= 1.86D-05 at cycle   8 NSaved=   8.
 NSaved= 8 IEnMin= 8 EnMin= -997.302358089323     IErMin= 8 ErrMin= 1.86D-05
 ErrMax= 1.86D-05  0.00D+00 EMaxC= 1.00D-01 BMatC= 1.15D-06 BMatP= 7.63D-06
 IDIUse=1 WtCom= 1.00D+00 WtEn= 0.00D+00
 Coeff-Com:  0.802D-03 0.165D-02 0.310D-02-0.956D-02-0.875D-01-0.825D-01
 Coeff-Com:  0.333D+00 0.841D+00
 Coeff:      0.802D-03 0.165D-02 0.310D-02-0.956D-02-0.875D-01-0.825D-01
 Coeff:      0.333D+00 0.841D+00
 Gap=     0.360 Goal=   None    Shift=    0.000
 Gap=     0.360 Goal=   None    Shift=    0.000
 RMSDP=6.51D-06 MaxDP=2.53D-04 DE=-8.17D-06 OVMax= 5.34D-04

 Initial convergence to 1.0D-05 achieved.  Increase integral accuracy.
 Cycle   9  Pass 1  IDiag  1:
 E= -997.302180199487     Delta-E=        0.000177889836 Rises=F Damp=F
 DIIS: error= 8.35D-05 at cycle   1 NSaved=   1.
 NSaved= 1 IEnMin= 1 EnMin= -997.302180199487     IErMin= 1 ErrMin= 8.35D-05
 ErrMax= 8.35D-05  0.00D+00 EMaxC= 1.00D-01 BMatC= 1.99D-06 BMatP= 1.99D-06
 IDIUse=1 WtCom= 1.00D+00 WtEn= 0.00D+00
 Coeff-Com:  0.100D+01
 Coeff:      0.100D+01
 Gap=     0.360 Goal=   None    Shift=    0.000
 Gap=     0.360 Goal=   None    Shift=    0.000
 RMSDP=6.51D-06 MaxDP=2.53D-04 DE= 1.78D-04 OVMax= 1.62D-04

 Cycle  10  Pass 1  IDiag  1:
 RMSU=  4.22D-05    CP:  1.00D+00
 E= -997.302180598648     Delta-E=       -0.000000399161 Rises=F Damp=F
 DIIS: error= 4.53D-06 at cycle   2 NSaved=   2.
 NSaved= 2 IEnMin= 2 EnMin= -997.302180598648     IErMin= 2 ErrMin= 4.53D-06
 ErrMax= 4.53D-06  0.00D+00 EMaxC= 1.00D-01 BMatC= 6.35D-08 BMatP= 1.99D-06
 IDIUse=1 WtCom= 1.00D+00 WtEn= 0.00D+00
 Coeff-Com:  0.127D-01 0.987D+00
 Coeff:      0.127D-01 0.987D+00
 Gap=     0.360 Goal=   None    Shift=    0.000
 Gap=     0.360 Goal=   None    Shift=    0.000
 RMSDP=2.47D-06 MaxDP=6.72D-05 DE=-3.99D-07 OVMax= 8.20D-05

 Cycle  11  Pass 1  IDiag  1:
 RMSU=  1.19D-06    CP:  1.00D+00  1.05D+00
 E= -997.302180623806     Delta-E=       -0.000000025158 Rises=F Damp=F
 DIIS: error= 4.44D-06 at cycle   3 NSaved=   3.
 NSaved= 3 IEnMin= 3 EnMin= -997.302180623806     IErMin= 3 ErrMin= 4.44D-06
 ErrMax= 4.44D-06  0.00D+00 EMaxC= 1.00D-01 BMatC= 4.79D-08 BMatP= 6.35D-08
 IDIUse=1 WtCom= 1.00D+00 WtEn= 0.00D+00
 Coeff-Com: -0.239D-01 0.466D+00 0.558D+00
 Coeff:     -0.239D-01 0.466D+00 0.558D+00
 Gap=     0.360 Goal=   None    Shift=    0.000
 Gap=     0.360 Goal=   None    Shift=    0.000
 RMSDP=5.25D-07 MaxDP=2.16D-05 DE=-2.52D-08 OVMax= 4.48D-05

 Cycle  12  Pass 1  IDiag  1:
 RMSU=  4.80D-07    CP:  1.00D+00  1.06D+00  8.96D-01
 E= -997.302180629271     Delta-E=       -0.000000005465 Rises=F Damp=F
 DIIS: error= 1.09D-06 at cycle   4 NSaved=   4.
 NSaved= 4 IEnMin= 4 EnMin= -997.302180629271     IErMin= 4 ErrMin= 1.09D-06
 ErrMax= 1.09D-06  0.00D+00 EMaxC= 1.00D-01 BMatC= 2.15D-09 BMatP= 4.79D-08
 IDIUse=1 WtCom= 1.00D+00 WtEn= 0.00D+00
 Coeff-Com:  0.149D-02-0.137D+00-0.684D-01 0.120D+01
 Coeff:      0.149D-02-0.137D+00-0.684D-01 0.120D+01
 Gap=     0.360 Goal=   None    Shift=    0.000
 Gap=     0.360 Goal=   None    Shift=    0.000
 RMSDP=3.57D-07 MaxDP=1.30D-05 DE=-5.47D-09 OVMax= 3.22D-05

 Cycle  13  Pass 1  IDiag  1:
 RMSU=  2.02D-07    CP:  1.00D+00  1.06D+00  1.07D+00  1.42D+00
 E= -997.302180632051     Delta-E=       -0.000000002780 Rises=F Damp=F
 DIIS: error= 5.76D-07 at cycle   5 NSaved=   5.
 NSaved= 5 IEnMin= 5 EnMin= -997.302180632051     IErMin= 5 ErrMin= 5.76D-07
 ErrMax= 5.76D-07  0.00D+00 EMaxC= 1.00D-01 BMatC= 8.43D-10 BMatP= 2.15D-09
 IDIUse=1 WtCom= 1.00D+00 WtEn= 0.00D+00
 Coeff-Com:  0.798D-02-0.205D+00-0.200D+00 0.525D+00 0.872D+00
 Coeff:      0.798D-02-0.205D+00-0.200D+00 0.525D+00 0.872D+00
 Gap=     0.360 Goal=   None    Shift=    0.000
 Gap=     0.360 Goal=   None    Shift=    0.000
 RMSDP=2.15D-07 MaxDP=7.32D-06 DE=-2.78D-09 OVMax= 2.16D-05

 Cycle  14  Pass 1  IDiag  1:
 RMSU=  8.66D-08    CP:  1.00D+00  1.06D+00  1.15D+00  1.74D+00  1.40D+00
 E= -997.302180632777     Delta-E=       -0.000000000726 Rises=F Damp=F
 DIIS: error= 1.57D-07 at cycle   6 NSaved=   6.
 NSaved= 6 IEnMin= 6 EnMin= -997.302180632777     IErMin= 6 ErrMin= 1.57D-07
 ErrMax= 1.57D-07  0.00D+00 EMaxC= 1.00D-01 BMatC= 5.25D-11 BMatP= 8.43D-10
 IDIUse=1 WtCom= 1.00D+00 WtEn= 0.00D+00
 Coeff-Com:  0.127D-02-0.236D-01-0.274D-01-0.281D-01 0.170D+00 0.908D+00
 Coeff:      0.127D-02-0.236D-01-0.274D-01-0.281D-01 0.170D+00 0.908D+00
 Gap=     0.360 Goal=   None    Shift=    0.000
 Gap=     0.360 Goal=   None    Shift=    0.000
 RMSDP=5.00D-08 MaxDP=1.61D-06 DE=-7.26D-10 OVMax= 3.87D-06

 Cycle  15  Pass 1  IDiag  1:
 RMSU=  2.27D-08    CP:  1.00D+00  1.06D+00  1.16D+00  1.77D+00  1.57D+00
                    CP:  1.15D+00
 E= -997.302180632815     Delta-E=       -0.000000000038 Rises=F Damp=F
 DIIS: error= 7.60D-08 at cycle   7 NSaved=   7.
 NSaved= 7 IEnMin= 7 EnMin= -997.302180632815     IErMin= 7 ErrMin= 7.60D-08
 ErrMax= 7.60D-08  0.00D+00 EMaxC= 1.00D-01 BMatC= 1.18D-11 BMatP= 5.25D-11
 IDIUse=1 WtCom= 1.00D+00 WtEn= 0.00D+00
 Coeff-Com: -0.910D-03 0.268D-01 0.252D-01-0.102D+00-0.813D-01 0.345D+00
 Coeff-Com:  0.787D+00
 Coeff:     -0.910D-03 0.268D-01 0.252D-01-0.102D+00-0.813D-01 0.345D+00
 Coeff:      0.787D+00
 Gap=     0.360 Goal=   None    Shift=    0.000
 Gap=     0.360 Goal=   None    Shift=    0.000
 RMSDP=1.66D-08 MaxDP=5.77D-07 DE=-3.80D-11 OVMax= 1.55D-06

 Cycle  16  Pass 1  IDiag  1:
 RMSU=  9.49D-09    CP:  1.00D+00  1.06D+00  1.16D+00  1.78D+00  1.61D+00
                    CP:  1.24D+00  1.03D+00
 E= -997.302180632814     Delta-E=        0.000000000001 Rises=F Damp=F
 DIIS: error= 2.19D-08 at cycle   8 NSaved=   8.
 NSaved= 8 IEnMin= 7 EnMin= -997.302180632815     IErMin= 8 ErrMin= 2.19D-08
 ErrMax= 2.19D-08  0.00D+00 EMaxC= 1.00D-01 BMatC= 1.11D-12 BMatP= 1.18D-11
 IDIUse=1 WtCom= 1.00D+00 WtEn= 0.00D+00
 Coeff-Com: -0.346D-03 0.873D-02 0.903D-02-0.233D-01-0.369D-01-0.251D-01
 Coeff-Com:  0.196D+00 0.872D+00
 Coeff:     -0.346D-03 0.873D-02 0.903D-02-0.233D-01-0.369D-01-0.251D-01
 Coeff:      0.196D+00 0.872D+00
 Gap=     0.360 Goal=   None    Shift=    0.000
 Gap=     0.360 Goal=   None    Shift=    0.000
 RMSDP=5.37D-09 MaxDP=1.76D-07 DE= 9.09D-13 OVMax= 3.31D-07

 SCF Done:  E(ULC-wPBE) =  -997.302180633     A.U. after   16 cycles
            NFock= 16  Conv=0.54D-08     -V/T= 2.0046
 <Sx>= 0.0000 <Sy>= 0.0000 <Sz>= 0.0000 <S**2>=-0.0000 S=-0.0000
 <L.S>= 0.000000000000E+00
 KE= 9.927555466695D+02 PE=-4.276283853241D+03 EE= 1.321124131824D+03
 Annihilation of the first spin contaminant:
 S**2 before annihilation    -0.0000,   after     0.0000
 Leave Link  502 at Fri Jul 24 12:13:16 2020, MaxMem=  4026531840 cpu:             608.4 elap:              76.3
 (Enter /opt/ohpc/pub/libs/gaussian/g16-A.03/sandybridge/g16/l601.exe)
 Copying SCF densities to generalized density rwf, IOpCl= 1 IROHF=0.

 **********************************************************************

            Population analysis using the SCF density.

 **********************************************************************

 Orbital symmetries:
 Alpha Orbitals:
       Occupied  (A) (A) (A) (A) (A) (A) (A) (A) (A) (A) (A) (A)
                 (A) (A) (A) (A) (A) (A) (A) (A) (A) (A) (A) (A)
                 (A) (A) (A) (A) (A) (A) (A) (A) (A) (A) (A) (A)
                 (A) (A) (A) (A) (A) (A) (A) (A) (A) (A) (A) (A)
                 (A) (A) (A) (A) (A) (A)
       Virtual   (A) (A) (A) (A) (A) (A) (A) (A) (A) (A) (A) (A)
                 (A) (A) (A) (A) (A) (A) (A) (A) (A) (A) (A) (A)
                 (A) (A) (A) (A) (A) (A) (A) (A) (A) (A) (A) (A)
                 (A) (A) (A) (A) (A) (A) (A) (A) (A) (A) (A) (A)
                 (A) (A) (A) (A) (A) (A) (A) (A) (A) (A) (A) (A)
                 (A) (A) (A) (A) (A) (A) (A) (A) (A) (A) (A) (A)
                 (A) (A) (A) (A) (A) (A) (A) (A) (A) (A) (A) (A)
                 (A) (A) (A) (A) (A) (A) (A) (A) (A) (A) (A) (A)
                 (A) (A) (A) (A) (A) (A) (A) (A) (A) (A) (A) (A)
                 (A) (A) (A) (A) (A) (A) (A) (A) (A) (A) (A) (A)
                 (A) (A) (A) (A) (A) (A) (A) (A) (A) (A) (A) (A)
                 (A) (A) (A) (A) (A) (A) (A) (A) (A) (A) (A) (A)
                 (A) (A) (A) (A) (A) (A) (A) (A) (A) (A) (A) (A)
                 (A) (A) (A) (A) (A) (A) (A) (A) (A) (A) (A) (A)
                 (A) (A) (A) (A) (A) (A) (A) (A) (A) (A) (A) (A)
                 (A) (A) (A) (A) (A) (A) (A) (A) (A) (A) (A)
 Beta  Orbitals:
       Occupied  (A) (A) (A) (A) (A) (A) (A) (A) (A) (A) (A) (A)
                 (A) (A) (A) (A) (A) (A) (A) (A) (A) (A) (A) (A)
                 (A) (A) (A) (A) (A) (A) (A) (A) (A) (A) (A) (A)
                 (A) (A) (A) (A) (A) (A) (A) (A) (A) (A) (A) (A)
                 (A) (A) (A) (A) (A) (A)
       Virtual   (A) (A) (A) (A) (A) (A) (A) (A) (A) (A) (A) (A)
                 (A) (A) (A) (A) (A) (A) (A) (A) (A) (A) (A) (A)
                 (A) (A) (A) (A) (A) (A) (A) (A) (A) (A) (A) (A)
                 (A) (A) (A) (A) (A) (A) (A) (A) (A) (A) (A) (A)
                 (A) (A) (A) (A) (A) (A) (A) (A) (A) (A) (A) (A)
                 (A) (A) (A) (A) (A) (A) (A) (A) (A) (A) (A) (A)
                 (A) (A) (A) (A) (A) (A) (A) (A) (A) (A) (A) (A)
                 (A) (A) (A) (A) (A) (A) (A) (A) (A) (A) (A) (A)
                 (A) (A) (A) (A) (A) (A) (A) (A) (A) (A) (A) (A)
                 (A) (A) (A) (A) (A) (A) (A) (A) (A) (A) (A) (A)
                 (A) (A) (A) (A) (A) (A) (A) (A) (A) (A) (A) (A)
                 (A) (A) (A) (A) (A) (A) (A) (A) (A) (A) (A) (A)
                 (A) (A) (A) (A) (A) (A) (A) (A) (A) (A) (A) (A)
                 (A) (A) (A) (A) (A) (A) (A) (A) (A) (A) (A) (A)
                 (A) (A) (A) (A) (A) (A) (A) (A) (A) (A) (A) (A)
                 (A) (A) (A) (A) (A) (A) (A) (A) (A) (A) (A)
 The electronic state is 1-A.
 Alpha  occ. eigenvalues --  -88.34958 -24.52239 -19.04672 -10.24050 -10.21456
 Alpha  occ. eigenvalues --  -10.20710 -10.18217 -10.18076 -10.18034 -10.17521
 Alpha  occ. eigenvalues --  -10.16398 -10.16253 -10.16097 -10.16044  -7.96015
 Alpha  occ. eigenvalues --   -5.97214  -5.96669  -5.96301  -1.35452  -1.25340
 Alpha  occ. eigenvalues --   -1.08245  -1.05419  -0.95417  -0.93213  -0.92445
 Alpha  occ. eigenvalues --   -0.89151  -0.84691  -0.78307  -0.76495  -0.72408
 Alpha  occ. eigenvalues --   -0.70862  -0.69034  -0.66197  -0.63542  -0.62334
 Alpha  occ. eigenvalues --   -0.61536  -0.59916  -0.59884  -0.57675  -0.57101
 Alpha  occ. eigenvalues --   -0.54457  -0.53668  -0.53148  -0.52616  -0.50707
 Alpha  occ. eigenvalues --   -0.50007  -0.47392  -0.46821  -0.45649  -0.44991
 Alpha  occ. eigenvalues --   -0.39011  -0.36829  -0.34541  -0.30876
 Alpha virt. eigenvalues --    0.05173   0.08951   0.10159   0.14933   0.15598
 Alpha virt. eigenvalues --    0.16044   0.17702   0.18908   0.19634   0.21727
 Alpha virt. eigenvalues --    0.22184   0.23168   0.23811   0.24140   0.26086
 Alpha virt. eigenvalues --    0.26203   0.26523   0.29714   0.34286   0.36601
 Alpha virt. eigenvalues --    0.39470   0.41078   0.41183   0.42175   0.44066
 Alpha virt. eigenvalues --    0.47261   0.50948   0.53090   0.54293   0.55362
 Alpha virt. eigenvalues --    0.56068   0.56447   0.56997   0.57226   0.58168
 Alpha virt. eigenvalues --    0.59335   0.60549   0.60878   0.61988   0.62629
 Alpha virt. eigenvalues --    0.62778   0.63359   0.63706   0.65018   0.65313
 Alpha virt. eigenvalues --    0.66439   0.67037   0.69015   0.69461   0.70082
 Alpha virt. eigenvalues --    0.72055   0.73027   0.73786   0.74256   0.74841
 Alpha virt. eigenvalues --    0.76535   0.77134   0.77683   0.78549   0.79802
 Alpha virt. eigenvalues --    0.80526   0.82138   0.83596   0.84215   0.84942
 Alpha virt. eigenvalues --    0.86425   0.89083   0.90070   0.91817   0.93480
 Alpha virt. eigenvalues --    0.95092   0.97291   0.99366   1.00995   1.01794
 Alpha virt. eigenvalues --    1.05153   1.05448   1.07118   1.07276   1.07988
 Alpha virt. eigenvalues --    1.08672   1.11149   1.13760   1.14713   1.15645
 Alpha virt. eigenvalues --    1.15991   1.16902   1.18259   1.18817   1.21803
 Alpha virt. eigenvalues --    1.22200   1.24339   1.27686   1.29306   1.30684
 Alpha virt. eigenvalues --    1.31276   1.32925   1.34496   1.36830   1.39063
 Alpha virt. eigenvalues --    1.41620   1.44278   1.44912   1.46205   1.49253
 Alpha virt. eigenvalues --    1.50200   1.52270   1.55568   1.56443   1.58187
 Alpha virt. eigenvalues --    1.60003   1.61907   1.62450   1.63749   1.66261
 Alpha virt. eigenvalues --    1.67632   1.68747   1.69906   1.73125   1.73303
 Alpha virt. eigenvalues --    1.74394   1.75937   1.76562   1.77291   1.77511
 Alpha virt. eigenvalues --    1.78784   1.79167   1.80669   1.82417   1.83533
 Alpha virt. eigenvalues --    1.83969   1.84810   1.86349   1.86992   1.88751
 Alpha virt. eigenvalues --    1.91386   1.92930   1.93087   1.95357   1.96125
 Alpha virt. eigenvalues --    1.98437   1.99700   2.02354   2.03922   2.05452
 Alpha virt. eigenvalues --    2.05862   2.06808   2.08990   2.09703   2.11115
 Alpha virt. eigenvalues --    2.13203   2.13857   2.16008   2.18338   2.21972
 Alpha virt. eigenvalues --    2.23239   2.25864   2.27957   2.30424   2.35858
 Alpha virt. eigenvalues --    2.36989   2.38616   2.43397   2.48003   2.48623
 Alpha virt. eigenvalues --    2.52476   2.53447   2.58101   2.60306   2.63215
 Alpha virt. eigenvalues --    2.64307   2.65028   2.68117   2.70747   2.73645
 Alpha virt. eigenvalues --    2.75349   2.83873   2.91642   2.97460   3.05540
 Alpha virt. eigenvalues --    3.11651   3.20616   3.22134   3.52598   3.56211
 Alpha virt. eigenvalues --    3.61414   3.71850   3.75282   3.88996   4.09035
 Alpha virt. eigenvalues --    4.33985
  Beta  occ. eigenvalues --  -88.34958 -24.52239 -19.04672 -10.24050 -10.21456
  Beta  occ. eigenvalues --  -10.20710 -10.18217 -10.18076 -10.18034 -10.17521
  Beta  occ. eigenvalues --  -10.16398 -10.16253 -10.16097 -10.16044  -7.96015
  Beta  occ. eigenvalues --   -5.97214  -5.96669  -5.96301  -1.35452  -1.25340
  Beta  occ. eigenvalues --   -1.08245  -1.05419  -0.95417  -0.93213  -0.92445
  Beta  occ. eigenvalues --   -0.89151  -0.84691  -0.78307  -0.76495  -0.72408
  Beta  occ. eigenvalues --   -0.70862  -0.69034  -0.66197  -0.63542  -0.62334
  Beta  occ. eigenvalues --   -0.61536  -0.59916  -0.59884  -0.57675  -0.57101
  Beta  occ. eigenvalues --   -0.54457  -0.53668  -0.53148  -0.52616  -0.50707
  Beta  occ. eigenvalues --   -0.50007  -0.47392  -0.46821  -0.45649  -0.44991
  Beta  occ. eigenvalues --   -0.39011  -0.36829  -0.34541  -0.30876
  Beta virt. eigenvalues --    0.05173   0.08951   0.10159   0.14933   0.15598
  Beta virt. eigenvalues --    0.16044   0.17702   0.18908   0.19634   0.21727
  Beta virt. eigenvalues --    0.22184   0.23168   0.23811   0.24140   0.26086
  Beta virt. eigenvalues --    0.26203   0.26523   0.29714   0.34286   0.36601
  Beta virt. eigenvalues --    0.39470   0.41078   0.41183   0.42175   0.44066
  Beta virt. eigenvalues --    0.47261   0.50948   0.53090   0.54293   0.55362
  Beta virt. eigenvalues --    0.56068   0.56447   0.56997   0.57226   0.58168
  Beta virt. eigenvalues --    0.59335   0.60549   0.60878   0.61988   0.62629
  Beta virt. eigenvalues --    0.62778   0.63359   0.63706   0.65018   0.65313
  Beta virt. eigenvalues --    0.66439   0.67037   0.69015   0.69461   0.70082
  Beta virt. eigenvalues --    0.72055   0.73027   0.73786   0.74256   0.74841
  Beta virt. eigenvalues --    0.76535   0.77134   0.77683   0.78549   0.79802
  Beta virt. eigenvalues --    0.80526   0.82138   0.83596   0.84215   0.84942
  Beta virt. eigenvalues --    0.86425   0.89083   0.90070   0.91817   0.93480
  Beta virt. eigenvalues --    0.95092   0.97291   0.99366   1.00995   1.01794
  Beta virt. eigenvalues --    1.05153   1.05448   1.07118   1.07276   1.07988
  Beta virt. eigenvalues --    1.08672   1.11149   1.13760   1.14713   1.15645
  Beta virt. eigenvalues --    1.15991   1.16902   1.18259   1.18817   1.21803
  Beta virt. eigenvalues --    1.22200   1.24339   1.27686   1.29306   1.30684
  Beta virt. eigenvalues --    1.31276   1.32925   1.34496   1.36830   1.39063
  Beta virt. eigenvalues --    1.41620   1.44278   1.44912   1.46205   1.49253
  Beta virt. eigenvalues --    1.50200   1.52270   1.55568   1.56443   1.58187
  Beta virt. eigenvalues --    1.60003   1.61907   1.62450   1.63749   1.66261
  Beta virt. eigenvalues --    1.67632   1.68747   1.69906   1.73125   1.73303
  Beta virt. eigenvalues --    1.74394   1.75937   1.76562   1.77291   1.77511
  Beta virt. eigenvalues --    1.78784   1.79167   1.80669   1.82417   1.83533
  Beta virt. eigenvalues --    1.83969   1.84810   1.86349   1.86992   1.88751
  Beta virt. eigenvalues --    1.91386   1.92930   1.93087   1.95357   1.96125
  Beta virt. eigenvalues --    1.98437   1.99700   2.02354   2.03922   2.05452
  Beta virt. eigenvalues --    2.05862   2.06808   2.08990   2.09703   2.11115
  Beta virt. eigenvalues --    2.13203   2.13857   2.16008   2.18338   2.21972
  Beta virt. eigenvalues --    2.23239   2.25864   2.27957   2.30424   2.35858
  Beta virt. eigenvalues --    2.36989   2.38616   2.43397   2.48003   2.48623
  Beta virt. eigenvalues --    2.52476   2.53447   2.58101   2.60306   2.63215
  Beta virt. eigenvalues --    2.64307   2.65028   2.68117   2.70747   2.73645
  Beta virt. eigenvalues --    2.75349   2.83873   2.91642   2.97460   3.05540
  Beta virt. eigenvalues --    3.11651   3.20616   3.22134   3.52598   3.56211
  Beta virt. eigenvalues --    3.61414   3.71850   3.75282   3.88996   4.09035
  Beta virt. eigenvalues --    4.33985
          Condensed to atoms (all electrons):
               1          2          3          4          5          6
     1  C    4.873659   0.497867   0.001519  -0.084820   0.032733   0.003958
     2  C    0.497867   4.706932   0.501481   0.008653  -0.076567  -0.000347
     3  C    0.001519   0.501481   4.789151   0.480880   0.039059   0.003720
     4  C   -0.084820   0.008653   0.480880   5.380599   0.275282  -0.087526
     5  C    0.032733  -0.076567   0.039059   0.275282   4.832728   0.458784
     6  F    0.003958  -0.000347   0.003720  -0.087526   0.458784   8.830723
     7  C    0.433684  -0.001841  -0.094076  -0.018755   0.397683  -0.063573
     8  C   -0.000710   0.006931  -0.097324   0.257157  -0.088562   0.010847
     9  C   -0.000008   0.000088  -0.010722  -0.053832   0.004212   0.000189
    10  O   -0.000007   0.000140   0.004200   0.001799  -0.000518   0.000001
    11  C    0.000000  -0.000001  -0.000223  -0.000245   0.000030   0.000000
    12  C   -0.000001   0.000012   0.001067   0.009281  -0.000530   0.000009
    13  C   -0.000000   0.000003  -0.000269   0.002813   0.000101   0.000057
    14  S    0.000012  -0.000178   0.002235  -0.055724  -0.005736   0.001278
    15  H    0.403142  -0.037954   0.007540  -0.000551   0.007301  -0.000021
    16  H   -0.045289   0.413036  -0.041097   0.009677  -0.000670   0.000001
    17  H    0.008419  -0.045448   0.408722  -0.038463   0.007797  -0.000019
    18  H   -0.044745   0.006821  -0.000953   0.011425  -0.032757   0.000052
    19  H   -0.000000   0.000001   0.000023   0.000086  -0.000005   0.000000
    20  H   -0.000000  -0.000002  -0.000014   0.000002   0.000004  -0.000000
    21  H    0.000000  -0.000001   0.000016  -0.000001  -0.000002   0.000000
    22  H   -0.000000  -0.000000   0.000006  -0.000194   0.000003   0.000000
    23  H    0.000000   0.000000   0.000004  -0.000167  -0.000005   0.000000
               7          8          9         10         11         12
     1  C    0.433684  -0.000710  -0.000008  -0.000007   0.000000  -0.000001
     2  C   -0.001841   0.006931   0.000088   0.000140  -0.000001   0.000012
     3  C   -0.094076  -0.097324  -0.010722   0.004200  -0.000223   0.001067
     4  C   -0.018755   0.257157  -0.053832   0.001799  -0.000245   0.009281
     5  C    0.397683  -0.088562   0.004212  -0.000518   0.000030  -0.000530
     6  F   -0.063573   0.010847   0.000189   0.000001   0.000000   0.000009
     7  C    4.965412   0.013744   0.000049   0.000012  -0.000000   0.000010
     8  C    0.013744   5.427917   0.546082  -0.074078   0.006791  -0.069153
     9  C    0.000049   0.546082   4.738360   0.464885  -0.080041   0.408058
    10  O    0.000012  -0.074078   0.464885   7.614058   0.358594  -0.063151
    11  C   -0.000000   0.006791  -0.080041   0.358594   4.453913  -0.004944
    12  C    0.000010  -0.069153   0.408058  -0.063151  -0.004944   4.911683
    13  C    0.000001  -0.104984  -0.038054   0.004351   0.000647   0.575658
    14  S   -0.000303   0.366783  -0.089955   0.002654  -0.000183  -0.102812
    15  H   -0.038561   0.000017   0.000000  -0.000000   0.000000   0.000000
    16  H    0.008551  -0.000310  -0.000003   0.000005  -0.000000   0.000000
    17  H   -0.001183  -0.016684   0.000684   0.001834  -0.000066   0.000044
    18  H    0.389331  -0.000335   0.000002   0.000000   0.000000  -0.000000
    19  H    0.000000   0.001695  -0.003657  -0.029236   0.399434   0.007756
    20  H   -0.000000  -0.000467   0.002097  -0.015205   0.410523  -0.000076
    21  H    0.000000   0.000002  -0.006777  -0.032558   0.396732   0.005672
    22  H    0.000000   0.006370  -0.034180  -0.003458   0.003680   0.396321
    23  H   -0.000000   0.002059   0.006232  -0.000054  -0.000003  -0.012597
              13         14         15         16         17         18
     1  C   -0.000000   0.000012   0.403142  -0.045289   0.008419  -0.044745
     2  C    0.000003  -0.000178  -0.037954   0.413036  -0.045448   0.006821
     3  C   -0.000269   0.002235   0.007540  -0.041097   0.408722  -0.000953
     4  C    0.002813  -0.055724  -0.000551   0.009677  -0.038463   0.011425
     5  C    0.000101  -0.005736   0.007301  -0.000670   0.007797  -0.032757
     6  F    0.000057   0.001278  -0.000021   0.000001  -0.000019   0.000052
     7  C    0.000001  -0.000303  -0.038561   0.008551  -0.001183   0.389331
     8  C   -0.104984   0.366783   0.000017  -0.000310  -0.016684  -0.000335
     9  C   -0.038054  -0.089955   0.000000  -0.000003   0.000684   0.000002
    10  O    0.004351   0.002654  -0.000000   0.000005   0.001834   0.000000
    11  C    0.000647  -0.000183   0.000000  -0.000000  -0.000066   0.000000
    12  C    0.575658  -0.102812   0.000000   0.000000   0.000044  -0.000000
    13  C    4.952749   0.398658   0.000000  -0.000000  -0.000121  -0.000000
    14  S    0.398658  15.299593   0.000000   0.000002   0.000563   0.000002
    15  H    0.000000   0.000000   0.631105  -0.009703  -0.000189  -0.011336
    16  H   -0.000000   0.000002  -0.009703   0.673537  -0.012770  -0.000129
    17  H   -0.000121   0.000563  -0.000189  -0.012770   0.646674   0.000044
    18  H   -0.000000   0.000002  -0.011336  -0.000129   0.000044   0.634711
    19  H   -0.000158  -0.000147  -0.000000   0.000000   0.000021  -0.000000
    20  H   -0.000007   0.000017   0.000000  -0.000000  -0.000021  -0.000000
    21  H    0.000012  -0.000043   0.000000  -0.000000  -0.000037   0.000000
    22  H   -0.034755   0.006501  -0.000000   0.000000   0.000007   0.000000
    23  H    0.396732  -0.036023  -0.000000   0.000000   0.000001   0.000000
              19         20         21         22         23
     1  C   -0.000000  -0.000000   0.000000  -0.000000   0.000000
     2  C    0.000001  -0.000002  -0.000001  -0.000000   0.000000
     3  C    0.000023  -0.000014   0.000016   0.000006   0.000004
     4  C    0.000086   0.000002  -0.000001  -0.000194  -0.000167
     5  C   -0.000005   0.000004  -0.000002   0.000003  -0.000005
     6  F    0.000000  -0.000000   0.000000   0.000000   0.000000
     7  C    0.000000  -0.000000   0.000000   0.000000  -0.000000
     8  C    0.001695  -0.000467   0.000002   0.006370   0.002059
     9  C   -0.003657   0.002097  -0.006777  -0.034180   0.006232
    10  O   -0.029236  -0.015205  -0.032558  -0.003458  -0.000054
    11  C    0.399434   0.410523   0.396732   0.003680  -0.000003
    12  C    0.007756  -0.000076   0.005672   0.396321  -0.012597
    13  C   -0.000158  -0.000007   0.000012  -0.034755   0.396732
    14  S   -0.000147   0.000017  -0.000043   0.006501  -0.036023
    15  H   -0.000000   0.000000   0.000000  -0.000000  -0.000000
    16  H    0.000000  -0.000000  -0.000000   0.000000   0.000000
    17  H    0.000021  -0.000021  -0.000037   0.000007   0.000001
    18  H   -0.000000  -0.000000   0.000000   0.000000   0.000000
    19  H    0.652575  -0.026447  -0.044779   0.000730   0.000008
    20  H   -0.026447   0.597677  -0.025349  -0.000086   0.000000
    21  H   -0.044779  -0.025349   0.666282   0.000357   0.000008
    22  H    0.000730  -0.000086   0.000357   0.622454  -0.007658
    23  H    0.000008   0.000000   0.000008  -0.007658   0.598337
          Atomic-Atomic Spin Densities.
               1          2          3          4          5          6
     1  C   -0.000000   0.000000  -0.000000   0.000000  -0.000000  -0.000000
     2  C    0.000000   0.000000   0.000000  -0.000000   0.000000   0.000000
     3  C   -0.000000   0.000000  -0.000000  -0.000000  -0.000000   0.000000
     4  C    0.000000  -0.000000  -0.000000   0.000000   0.000000   0.000000
     5  C   -0.000000   0.000000  -0.000000   0.000000  -0.000000  -0.000000
     6  F   -0.000000   0.000000   0.000000   0.000000  -0.000000   0.000000
     7  C    0.000000  -0.000000   0.000000  -0.000000   0.000000   0.000000
     8  C    0.000000  -0.000000   0.000000  -0.000000  -0.000000   0.000000
     9  C   -0.000000  -0.000000   0.000000   0.000000  -0.000000  -0.000000
    10  O   -0.000000   0.000000  -0.000000   0.000000   0.000000   0.000000
    11  C    0.000000   0.000000   0.000000  -0.000000  -0.000000  -0.000000
    12  C   -0.000000   0.000000  -0.000000   0.000000   0.000000   0.000000
    13  C   -0.000000   0.000000  -0.000000  -0.000000  -0.000000  -0.000000
    14  S    0.000000  -0.000000   0.000000   0.000000   0.000000   0.000000
    15  H   -0.000000   0.000000  -0.000000   0.000000  -0.000000  -0.000000
    16  H   -0.000000  -0.000000   0.000000  -0.000000   0.000000  -0.000000
    17  H   -0.000000   0.000000  -0.000000   0.000000  -0.000000   0.000000
    18  H   -0.000000  -0.000000  -0.000000  -0.000000   0.000000  -0.000000
    19  H   -0.000000   0.000000  -0.000000   0.000000  -0.000000   0.000000
    20  H   -0.000000  -0.000000   0.000000  -0.000000  -0.000000  -0.000000
    21  H   -0.000000   0.000000  -0.000000   0.000000   0.000000  -0.000000
    22  H    0.000000  -0.000000   0.000000  -0.000000   0.000000   0.000000
    23  H    0.000000  -0.000000   0.000000   0.000000  -0.000000   0.000000
               7          8          9         10         11         12
     1  C    0.000000   0.000000  -0.000000  -0.000000   0.000000  -0.000000
     2  C   -0.000000  -0.000000  -0.000000   0.000000   0.000000   0.000000
     3  C    0.000000   0.000000   0.000000  -0.000000   0.000000  -0.000000
     4  C   -0.000000  -0.000000   0.000000   0.000000  -0.000000   0.000000
     5  C    0.000000  -0.000000  -0.000000   0.000000  -0.000000   0.000000
     6  F    0.000000   0.000000  -0.000000   0.000000  -0.000000   0.000000
     7  C   -0.000000  -0.000000  -0.000000  -0.000000  -0.000000   0.000000
     8  C   -0.000000   0.000000  -0.000000  -0.000000   0.000000  -0.000000
     9  C   -0.000000  -0.000000  -0.000000  -0.000000  -0.000000   0.000000
    10  O   -0.000000  -0.000000  -0.000000   0.000000   0.000000   0.000000
    11  C   -0.000000   0.000000  -0.000000   0.000000   0.000000   0.000000
    12  C    0.000000  -0.000000   0.000000   0.000000   0.000000  -0.000000
    13  C    0.000000  -0.000000   0.000000  -0.000000  -0.000000  -0.000000
    14  S   -0.000000  -0.000000  -0.000000   0.000000   0.000000  -0.000000
    15  H    0.000000   0.000000  -0.000000   0.000000   0.000000  -0.000000
    16  H    0.000000  -0.000000   0.000000   0.000000  -0.000000   0.000000
    17  H    0.000000   0.000000   0.000000   0.000000   0.000000   0.000000
    18  H   -0.000000  -0.000000   0.000000  -0.000000  -0.000000   0.000000
    19  H    0.000000   0.000000   0.000000  -0.000000  -0.000000   0.000000
    20  H   -0.000000  -0.000000  -0.000000  -0.000000  -0.000000   0.000000
    21  H   -0.000000  -0.000000  -0.000000   0.000000   0.000000   0.000000
    22  H   -0.000000  -0.000000   0.000000   0.000000   0.000000  -0.000000
    23  H   -0.000000   0.000000  -0.000000  -0.000000  -0.000000   0.000000
              13         14         15         16         17         18
     1  C   -0.000000   0.000000  -0.000000  -0.000000  -0.000000  -0.000000
     2  C    0.000000  -0.000000   0.000000  -0.000000   0.000000  -0.000000
     3  C   -0.000000   0.000000  -0.000000   0.000000  -0.000000  -0.000000
     4  C   -0.000000   0.000000   0.000000  -0.000000   0.000000  -0.000000
     5  C   -0.000000   0.000000  -0.000000   0.000000  -0.000000   0.000000
     6  F   -0.000000   0.000000  -0.000000  -0.000000   0.000000  -0.000000
     7  C    0.000000  -0.000000   0.000000   0.000000   0.000000  -0.000000
     8  C   -0.000000  -0.000000   0.000000  -0.000000   0.000000  -0.000000
     9  C    0.000000  -0.000000  -0.000000   0.000000   0.000000   0.000000
    10  O   -0.000000   0.000000   0.000000   0.000000   0.000000  -0.000000
    11  C   -0.000000   0.000000   0.000000  -0.000000   0.000000  -0.000000
    12  C   -0.000000  -0.000000  -0.000000   0.000000   0.000000   0.000000
    13  C    0.000000  -0.000000  -0.000000  -0.000000  -0.000000  -0.000000
    14  S   -0.000000   0.000000   0.000000  -0.000000   0.000000  -0.000000
    15  H   -0.000000   0.000000  -0.000000   0.000000  -0.000000   0.000000
    16  H   -0.000000  -0.000000   0.000000   0.000000   0.000000   0.000000
    17  H   -0.000000   0.000000  -0.000000   0.000000  -0.000000   0.000000
    18  H   -0.000000  -0.000000   0.000000   0.000000   0.000000  -0.000000
    19  H   -0.000000  -0.000000  -0.000000   0.000000   0.000000   0.000000
    20  H    0.000000  -0.000000  -0.000000  -0.000000  -0.000000   0.000000
    21  H    0.000000   0.000000   0.000000   0.000000  -0.000000  -0.000000
    22  H   -0.000000   0.000000   0.000000  -0.000000   0.000000  -0.000000
    23  H    0.000000  -0.000000   0.000000  -0.000000   0.000000  -0.000000
              19         20         21         22         23
     1  C   -0.000000  -0.000000  -0.000000   0.000000   0.000000
     2  C    0.000000  -0.000000   0.000000  -0.000000  -0.000000
     3  C   -0.000000   0.000000  -0.000000   0.000000   0.000000
     4  C    0.000000  -0.000000   0.000000  -0.000000   0.000000
     5  C   -0.000000  -0.000000   0.000000   0.000000  -0.000000
     6  F    0.000000  -0.000000  -0.000000   0.000000   0.000000
     7  C    0.000000  -0.000000  -0.000000  -0.000000  -0.000000
     8  C    0.000000  -0.000000  -0.000000  -0.000000   0.000000
     9  C    0.000000  -0.000000  -0.000000   0.000000  -0.000000
    10  O   -0.000000  -0.000000   0.000000   0.000000  -0.000000
    11  C   -0.000000  -0.000000   0.000000   0.000000  -0.000000
    12  C    0.000000   0.000000   0.000000  -0.000000   0.000000
    13  C   -0.000000   0.000000   0.000000  -0.000000   0.000000
    14  S   -0.000000  -0.000000   0.000000   0.000000  -0.000000
    15  H   -0.000000  -0.000000   0.000000   0.000000   0.000000
    16  H    0.000000  -0.000000   0.000000  -0.000000  -0.000000
    17  H    0.000000  -0.000000  -0.000000   0.000000   0.000000
    18  H    0.000000   0.000000  -0.000000  -0.000000  -0.000000
    19  H   -0.000000  -0.000000   0.000000   0.000000  -0.000000
    20  H   -0.000000   0.000000   0.000000  -0.000000  -0.000000
    21  H    0.000000   0.000000  -0.000000  -0.000000   0.000000
    22  H    0.000000  -0.000000  -0.000000   0.000000   0.000000
    23  H   -0.000000  -0.000000   0.000000   0.000000  -0.000000
 Mulliken charges and spin densities:
               1          2
     1  C   -0.079411  -0.000000
     2  C    0.020375   0.000000
     3  C    0.005056  -0.000000
     4  C   -0.097377   0.000000
     5  C    0.149634  -0.000000
     6  F   -0.158134   0.000000
     7  C    0.009816   0.000000
     8  C   -0.193786   0.000000
     9  C    0.146292  -0.000000
    10  O   -0.234268   0.000000
    11  C    0.055361   0.000000
    12  C   -0.062306  -0.000000
    13  C   -0.153434   0.000000
    14  S    0.212807   0.000000
    15  H    0.049212  -0.000000
    16  H    0.005163   0.000000
    17  H    0.040188  -0.000000
    18  H    0.047866   0.000000
    19  H    0.042099  -0.000000
    20  H    0.057354   0.000000
    21  H    0.040465   0.000000
    22  H    0.043902   0.000000
    23  H    0.053127   0.000000
 Sum of Mulliken charges =  -0.00000   0.00000
 Mulliken charges and spin densities with hydrogens summed into heavy atoms:
               1          2
     1  C   -0.030199  -0.000000
     2  C    0.025538   0.000000
     3  C    0.045245  -0.000000
     4  C   -0.097377   0.000000
     5  C    0.149634  -0.000000
     6  F   -0.158134   0.000000
     7  C    0.057682   0.000000
     8  C   -0.193786   0.000000
     9  C    0.146292  -0.000000
    10  O   -0.234268   0.000000
    11  C    0.195278   0.000000
    12  C   -0.018404  -0.000000
    13  C   -0.100307   0.000000
    14  S    0.212807   0.000000
 Electronic spatial extent (au):  <R**2>=           3011.3841
 Charge=              0.0000 electrons
 Dipole moment (field-independent basis, Debye):
    X=              1.1906    Y=              2.0260    Z=             -0.5313  Tot=              2.4092
 Quadrupole moment (field-independent basis, Debye-Ang):
   XX=            -67.8169   YY=            -81.9616   ZZ=            -88.1775
   XY=              1.0090   XZ=              1.5625   YZ=              0.6692
 Traceless Quadrupole moment (field-independent basis, Debye-Ang):
   XX=             11.5017   YY=             -2.6429   ZZ=             -8.8588
   XY=              1.0090   XZ=              1.5625   YZ=              0.6692
 Octapole moment (field-independent basis, Debye-Ang**2):
  XXX=              2.2572  YYY=              8.5251  ZZZ=             13.7048  XYY=             21.0524
  XXY=             11.7069  XXZ=             12.9034  XZZ=             -1.1367  YZZ=              7.0866
  YYZ=             -0.2625  XYZ=             14.5078
 Hexadecapole moment (field-independent basis, Debye-Ang**3):
 XXXX=          -2236.4706 YYYY=          -1007.1621 ZZZZ=           -361.2739 XXXY=             16.5946
 XXXZ=            -20.8822 YYYX=             43.5875 YYYZ=              7.5871 ZZZX=             -5.4183
 ZZZY=            -17.4743 XXYY=           -529.6844 XXZZ=           -491.9564 YYZZ=           -228.8000
 XXYZ=             -5.2614 YYXZ=             17.1738 ZZXY=             12.0704
 N-N= 9.651019941144D+02 E-N=-4.276283854219D+03  KE= 9.927555466695D+02
                          Isotropic Fermi Contact Couplings
        Atom                 a.u.       MegaHertz       Gauss      10(-4) cm-1
     1  C(13)              0.00000       0.00000       0.00000       0.00000
     2  C(13)              0.00000       0.00000       0.00000       0.00000
     3  C(13)              0.00000       0.00000       0.00000       0.00000
     4  C(13)              0.00000       0.00000       0.00000       0.00000
     5  C(13)             -0.00000      -0.00000      -0.00000      -0.00000
     6  F(19)              0.00000       0.00000       0.00000       0.00000
     7  C(13)              0.00000       0.00000       0.00000       0.00000
     8  C(13)              0.00000       0.00000       0.00000       0.00000
     9  C(13)              0.00000       0.00000       0.00000       0.00000
    10  O(17)              0.00000      -0.00000      -0.00000      -0.00000
    11  C(13)             -0.00000      -0.00000      -0.00000      -0.00000
    12  C(13)              0.00000       0.00000       0.00000       0.00000
    13  C(13)              0.00000       0.00000       0.00000       0.00000
    14  S(33)              0.00000       0.00000       0.00000       0.00000
    15  H(1)               0.00000       0.00000       0.00000       0.00000
    16  H(1)               0.00000       0.00000       0.00000       0.00000
    17  H(1)              -0.00000      -0.00000      -0.00000      -0.00000
    18  H(1)               0.00000       0.00000       0.00000       0.00000
    19  H(1)               0.00000       0.00000       0.00000       0.00000
    20  H(1)               0.00000       0.00000       0.00000       0.00000
    21  H(1)              -0.00000      -0.00000      -0.00000      -0.00000
    22  H(1)               0.00000       0.00000       0.00000       0.00000
    23  H(1)              -0.00000      -0.00000      -0.00000      -0.00000
 --------------------------------------------------------
       Center         ----  Spin Dipole Couplings  ----
                      3XX-RR        3YY-RR        3ZZ-RR
 --------------------------------------------------------
     1   Atom       -0.000000     -0.000000      0.000000
     2   Atom        0.000000     -0.000000     -0.000000
     3   Atom       -0.000000      0.000000      0.000000
     4   Atom        0.000000     -0.000000     -0.000000
     5   Atom       -0.000000     -0.000000      0.000000
     6   Atom       -0.000000      0.000000      0.000000
     7   Atom        0.000000      0.000000     -0.000000
     8   Atom        0.000000      0.000000     -0.000000
     9   Atom        0.000000     -0.000000     -0.000000
    10   Atom        0.000000     -0.000000     -0.000000
    11   Atom       -0.000000      0.000000      0.000000
    12   Atom       -0.000000      0.000000      0.000000
    13   Atom        0.000000     -0.000000     -0.000000
    14   Atom        0.000000     -0.000000     -0.000000
    15   Atom        0.000000     -0.000000      0.000000
    16   Atom        0.000000     -0.000000      0.000000
    17   Atom       -0.000000      0.000000      0.000000
    18   Atom        0.000000     -0.000000     -0.000000
    19   Atom       -0.000000     -0.000000      0.000000
    20   Atom        0.000000      0.000000     -0.000000
    21   Atom       -0.000000     -0.000000      0.000000
    22   Atom       -0.000000      0.000000     -0.000000
    23   Atom        0.000000      0.000000     -0.000000
 --------------------------------------------------------
                        XY            XZ            YZ
 --------------------------------------------------------
     1   Atom        0.000000     -0.000000      0.000000
     2   Atom       -0.000000     -0.000000     -0.000000
     3   Atom       -0.000000      0.000000      0.000000
     4   Atom       -0.000000      0.000000     -0.000000
     5   Atom        0.000000     -0.000000      0.000000
     6   Atom        0.000000     -0.000000      0.000000
     7   Atom        0.000000     -0.000000     -0.000000
     8   Atom       -0.000000     -0.000000      0.000000
     9   Atom        0.000000      0.000000      0.000000
    10   Atom        0.000000     -0.000000      0.000000
    11   Atom        0.000000     -0.000000     -0.000000
    12   Atom       -0.000000     -0.000000      0.000000
    13   Atom       -0.000000     -0.000000     -0.000000
    14   Atom        0.000000     -0.000000      0.000000
    15   Atom        0.000000      0.000000      0.000000
    16   Atom        0.000000     -0.000000      0.000000
    17   Atom        0.000000      0.000000      0.000000
    18   Atom       -0.000000     -0.000000      0.000000
    19   Atom       -0.000000      0.000000     -0.000000
    20   Atom       -0.000000     -0.000000     -0.000000
    21   Atom        0.000000     -0.000000     -0.000000
    22   Atom       -0.000000      0.000000      0.000000
    23   Atom       -0.000000     -0.000000      0.000000
 --------------------------------------------------------


 ---------------------------------------------------------------------------------
              Anisotropic Spin Dipole Couplings in Principal Axis System
 ---------------------------------------------------------------------------------

       Atom             a.u.   MegaHertz   Gauss  10(-4) cm-1        Axes

              Baa    -0.0000    -0.000    -0.000    -0.000 -0.5664  0.6936 -0.4451
     1 C(13)  Bbb     0.0000     0.000     0.000     0.000  0.8010  0.3363 -0.4952
              Bcc     0.0000     0.000     0.000     0.000  0.1937  0.6370  0.7461
 
              Baa    -0.0000    -0.000    -0.000    -0.000  0.1494  0.5481  0.8229
     2 C(13)  Bbb     0.0000     0.000     0.000     0.000 -0.0300  0.8344 -0.5503
              Bcc     0.0000     0.000     0.000     0.000  0.9883 -0.0575 -0.1410
 
              Baa    -0.0000    -0.000    -0.000    -0.000  0.6638  0.5045 -0.5521
     3 C(13)  Bbb     0.0000     0.000     0.000     0.000  0.7394 -0.3313  0.5862
              Bcc     0.0000     0.000     0.000     0.000 -0.1128  0.7973  0.5929
 
              Baa    -0.0000    -0.000    -0.000    -0.000  0.0977  0.5135  0.8525
     4 C(13)  Bbb    -0.0000    -0.000    -0.000    -0.000  0.4251  0.7530 -0.5023
              Bcc     0.0000     0.000     0.000     0.000  0.8998 -0.4115  0.1447
 
              Baa    -0.0000    -0.000    -0.000    -0.000 -0.6212  0.7010 -0.3501
     5 C(13)  Bbb     0.0000     0.000     0.000     0.000  0.6136  0.7131  0.3390
              Bcc     0.0000     0.000     0.000     0.000 -0.4873  0.0042  0.8732
 
              Baa    -0.0000    -0.000    -0.000    -0.000  0.8435 -0.4614  0.2750
     6 F(19)  Bbb     0.0000     0.000     0.000     0.000  0.1559  0.7003  0.6967
              Bcc     0.0000     0.000     0.000     0.000 -0.5140 -0.5448  0.6626
 
              Baa    -0.0000    -0.000    -0.000    -0.000  0.3000  0.3706  0.8790
     7 C(13)  Bbb    -0.0000    -0.000    -0.000    -0.000  0.7972 -0.6035 -0.0177
              Bcc     0.0000     0.000     0.000     0.000  0.5239  0.7060 -0.4765
 
              Baa    -0.0000    -0.000    -0.000    -0.000  0.0199 -0.0742  0.9970
     8 C(13)  Bbb     0.0000     0.000     0.000     0.000  0.2167  0.9739  0.0682
              Bcc     0.0000     0.000     0.000     0.000  0.9760 -0.2147 -0.0355
 
              Baa    -0.0000    -0.000    -0.000    -0.000  0.0960 -0.4237  0.9007
[...]
    22  H   -0.000000  -0.000000  -0.000000  -0.000000   0.000000   0.000000
    23  H   -0.000000  -0.000000   0.000000   0.000000  -0.000000  -0.000000
              13         14         15         16         17         18
     1  C   -0.000000  -0.000000   0.000000   0.000000  -0.000000  -0.000000
     2  C    0.000000   0.000000   0.000000  -0.000000   0.000000  -0.000000
     3  C   -0.000000  -0.000000   0.000000  -0.000000  -0.000000   0.000000
     4  C   -0.000000   0.000000   0.000000  -0.000000   0.000000  -0.000000
     5  C    0.000000   0.000000  -0.000000   0.000000  -0.000000   0.000000
     6  F    0.000000   0.000000  -0.000000   0.000000  -0.000000   0.000000
     7  C    0.000000  -0.000000  -0.000000   0.000000   0.000000  -0.000000
     8  C   -0.000000  -0.000000   0.000000  -0.000000   0.000000  -0.000000
     9  C    0.000000  -0.000000   0.000000  -0.000000  -0.000000  -0.000000
    10  O    0.000000  -0.000000  -0.000000   0.000000  -0.000000   0.000000
    11  C   -0.000000   0.000000   0.000000  -0.000000   0.000000  -0.000000
    12  C    0.000000   0.000000  -0.000000   0.000000  -0.000000   0.000000
    13  C   -0.000000  -0.000000   0.000000  -0.000000  -0.000000  -0.000000
    14  S   -0.000000   0.000000  -0.000000   0.000000   0.000000   0.000000
    15  H    0.000000  -0.000000   0.000000  -0.000000  -0.000000  -0.000000
    16  H   -0.000000   0.000000  -0.000000  -0.000000   0.000000   0.000000
    17  H   -0.000000   0.000000  -0.000000   0.000000  -0.000000   0.000000
    18  H   -0.000000   0.000000  -0.000000   0.000000   0.000000   0.000000
    19  H   -0.000000   0.000000  -0.000000  -0.000000   0.000000   0.000000
    20  H    0.000000  -0.000000   0.000000  -0.000000  -0.000000  -0.000000
    21  H   -0.000000   0.000000  -0.000000   0.000000  -0.000000   0.000000
    22  H   -0.000000   0.000000   0.000000  -0.000000   0.000000   0.000000
    23  H    0.000000  -0.000000   0.000000  -0.000000  -0.000000  -0.000000
              19         20         21         22         23
     1  C   -0.000000   0.000000  -0.000000   0.000000   0.000000
     2  C    0.000000  -0.000000   0.000000  -0.000000   0.000000
     3  C    0.000000  -0.000000   0.000000   0.000000   0.000000
     4  C   -0.000000   0.000000  -0.000000   0.000000  -0.000000
     5  C   -0.000000   0.000000  -0.000000  -0.000000   0.000000
     6  F    0.000000   0.000000   0.000000  -0.000000   0.000000
     7  C    0.000000  -0.000000   0.000000  -0.000000  -0.000000
     8  C    0.000000  -0.000000   0.000000  -0.000000  -0.000000
     9  C    0.000000  -0.000000   0.000000  -0.000000   0.000000
    10  O   -0.000000  -0.000000  -0.000000  -0.000000   0.000000
    11  C   -0.000000   0.000000  -0.000000   0.000000  -0.000000
    12  C   -0.000000  -0.000000  -0.000000   0.000000  -0.000000
    13  C   -0.000000   0.000000  -0.000000  -0.000000   0.000000
    14  S    0.000000  -0.000000   0.000000   0.000000  -0.000000
    15  H   -0.000000   0.000000  -0.000000   0.000000   0.000000
    16  H   -0.000000  -0.000000   0.000000  -0.000000  -0.000000
    17  H    0.000000  -0.000000  -0.000000   0.000000  -0.000000
    18  H    0.000000  -0.000000   0.000000   0.000000  -0.000000
    19  H    0.000000  -0.000000   0.000000  -0.000000  -0.000000
    20  H   -0.000000   0.000000  -0.000000  -0.000000   0.000000
    21  H    0.000000  -0.000000   0.000000   0.000000  -0.000000
    22  H   -0.000000  -0.000000   0.000000   0.000000  -0.000000
    23  H   -0.000000   0.000000  -0.000000  -0.000000   0.000000
 Mulliken charges and spin densities:
               1          2
     1  C    0.000366   0.000000
     2  C    0.001628   0.000000
     3  C   -0.001563   0.000000
     4  C   -0.024764   0.000000
     5  C    0.098290   0.000000
     6  F   -0.136583   0.000000
     7  C   -0.010048  -0.000000
     8  C   -0.201354   0.000000
     9  C    0.149618  -0.000000
    10  O   -0.270500  -0.000000
    11  C    0.033167  -0.000000
    12  C   -0.011569   0.000000
    13  C   -0.144210  -0.000000
    14  S    0.188844  -0.000000
    15  H    0.018648   0.000000
    16  H    0.013315  -0.000000
    17  H    0.020380  -0.000000
    18  H    0.028319  -0.000000
    19  H    0.055001   0.000000
    20  H    0.067177   0.000000
    21  H    0.053465   0.000000
    22  H    0.021610  -0.000000
    23  H    0.050762   0.000000
 Sum of Mulliken charges =  -0.00000   0.00000
 Mulliken charges and spin densities with hydrogens summed into heavy atoms:
               1          2
     1  C    0.019014   0.000000
     2  C    0.014944  -0.000000
     3  C    0.018818   0.000000
     4  C   -0.024764   0.000000
     5  C    0.098290   0.000000
     6  F   -0.136583   0.000000
     7  C    0.018271  -0.000000
     8  C   -0.201354   0.000000
     9  C    0.149618  -0.000000
    10  O   -0.270500  -0.000000
    11  C    0.208811  -0.000000
    12  C    0.010041   0.000000
    13  C   -0.093448  -0.000000
    14  S    0.188844  -0.000000
 Electronic spatial extent (au):  <R**2>=           3055.7478
 Charge=             -0.0000 electrons
 Dipole moment (field-independent basis, Debye):
    X=              1.8139    Y=              1.9932    Z=             -0.0568  Tot=              2.6956
 Quadrupole moment (field-independent basis, Debye-Ang):
   XX=            -68.2850   YY=            -80.2966   ZZ=            -90.2495
   XY=              1.1791   XZ=              0.7633   YZ=              0.3709
 Traceless Quadrupole moment (field-independent basis, Debye-Ang):
   XX=             11.3253   YY=             -0.6862   ZZ=            -10.6391
   XY=              1.1791   XZ=              0.7633   YZ=              0.3709
 Octapole moment (field-independent basis, Debye-Ang**2):
  XXX=              6.8267  YYY=             11.4562  ZZZ=             10.1099  XYY=             18.9722
  XXY=              8.0711  XXZ=              7.7999  XZZ=              2.2749  YZZ=             -0.0145
  YYZ=             -1.9114  XYZ=              8.8685
 Hexadecapole moment (field-independent basis, Debye-Ang**3):
 XXXX=          -2288.5037 YYYY=          -1169.9924 ZZZZ=           -180.6305 XXXY=             38.5998
 XXXZ=            -17.7748 YYYX=             33.9030 YYYZ=              0.4758 ZZZX=             -5.0350
 ZZZY=             -7.4912 XXYY=           -549.4102 XXZZ=           -491.8375 YYZZ=           -239.8631
 XXYZ=             -0.7222 YYXZ=             11.1353 ZZXY=             24.1281
 N-N= 9.653573110776D+02 E-N=-4.276672023165D+03  KE= 9.927036107067D+02
                          Isotropic Fermi Contact Couplings
        Atom                 a.u.       MegaHertz       Gauss      10(-4) cm-1
     1  C(13)              0.00000       0.00000       0.00000       0.00000
     2  C(13)             -0.00000      -0.00000      -0.00000      -0.00000
     3  C(13)             -0.00000      -0.00000      -0.00000      -0.00000
     4  C(13)              0.00000       0.00000       0.00000       0.00000
     5  C(13)              0.00000       0.00000       0.00000       0.00000
     6  F(19)              0.00000       0.00000       0.00000       0.00000
     7  C(13)             -0.00000      -0.00000      -0.00000      -0.00000
     8  C(13)             -0.00000      -0.00000      -0.00000      -0.00000
     9  C(13)             -0.00000      -0.00000      -0.00000      -0.00000
    10  O(17)              0.00000      -0.00000      -0.00000      -0.00000
    11  C(13)             -0.00000      -0.00000      -0.00000      -0.00000
    12  C(13)             -0.00000      -0.00000      -0.00000      -0.00000
    13  C(13)              0.00000       0.00000       0.00000       0.00000
    14  S(33)              0.00000       0.00000       0.00000       0.00000
    15  H(1)               0.00000       0.00000       0.00000       0.00000
    16  H(1)              -0.00000      -0.00000      -0.00000      -0.00000
    17  H(1)              -0.00000      -0.00000      -0.00000      -0.00000
    18  H(1)               0.00000       0.00000       0.00000       0.00000
    19  H(1)              -0.00000      -0.00000      -0.00000      -0.00000
    20  H(1)               0.00000       0.00000       0.00000       0.00000
    21  H(1)              -0.00000      -0.00000      -0.00000      -0.00000
    22  H(1)               0.00000       0.00000       0.00000       0.00000
    23  H(1)               0.00000       0.00000       0.00000       0.00000
 --------------------------------------------------------
       Center         ----  Spin Dipole Couplings  ----
                      3XX-RR        3YY-RR        3ZZ-RR
 --------------------------------------------------------
     1   Atom       -0.000000      0.000000     -0.000000
     2   Atom       -0.000000      0.000000      0.000000
     3   Atom        0.000000     -0.000000      0.000000
     4   Atom        0.000000     -0.000000     -0.000000
     5   Atom        0.000000     -0.000000     -0.000000
     6   Atom        0.000000      0.000000     -0.000000
     7   Atom       -0.000000      0.000000      0.000000
     8   Atom       -0.000000      0.000000      0.000000
     9   Atom       -0.000000      0.000000      0.000000
    10   Atom       -0.000000      0.000000     -0.000000
    11   Atom        0.000000      0.000000     -0.000000
    12   Atom        0.000000     -0.000000     -0.000000
    13   Atom       -0.000000      0.000000      0.000000
    14   Atom        0.000000     -0.000000     -0.000000
    15   Atom        0.000000     -0.000000     -0.000000
    16   Atom       -0.000000      0.000000      0.000000
    17   Atom       -0.000000     -0.000000      0.000000
    18   Atom        0.000000      0.000000     -0.000000
    19   Atom        0.000000      0.000000     -0.000000
    20   Atom       -0.000000      0.000000      0.000000
    21   Atom        0.000000      0.000000     -0.000000
    22   Atom        0.000000     -0.000000      0.000000
    23   Atom       -0.000000      0.000000     -0.000000
 --------------------------------------------------------
                        XY            XZ            YZ
 --------------------------------------------------------
     1   Atom       -0.000000     -0.000000     -0.000000
     2   Atom        0.000000      0.000000     -0.000000
     3   Atom        0.000000      0.000000      0.000000
     4   Atom       -0.000000      0.000000     -0.000000
     5   Atom        0.000000     -0.000000      0.000000
     6   Atom       -0.000000      0.000000     -0.000000
     7   Atom        0.000000     -0.000000      0.000000
     8   Atom       -0.000000     -0.000000      0.000000
     9   Atom        0.000000     -0.000000     -0.000000
    10   Atom       -0.000000     -0.000000      0.000000
    11   Atom        0.000000      0.000000      0.000000
    12   Atom       -0.000000     -0.000000     -0.000000
    13   Atom       -0.000000     -0.000000      0.000000
    14   Atom       -0.000000      0.000000      0.000000
    15   Atom       -0.000000     -0.000000     -0.000000
    16   Atom        0.000000      0.000000      0.000000
    17   Atom       -0.000000      0.000000      0.000000
    18   Atom       -0.000000      0.000000     -0.000000
    19   Atom        0.000000     -0.000000      0.000000
    20   Atom        0.000000      0.000000      0.000000
    21   Atom       -0.000000      0.000000      0.000000
    22   Atom        0.000000     -0.000000     -0.000000
    23   Atom       -0.000000     -0.000000      0.000000
 --------------------------------------------------------


 ---------------------------------------------------------------------------------
              Anisotropic Spin Dipole Couplings in Principal Axis System
 ---------------------------------------------------------------------------------

       Atom             a.u.   MegaHertz   Gauss  10(-4) cm-1        Axes

              Baa    -0.0000    -0.000    -0.000    -0.000  0.3801  0.4742  0.7941
     1 C(13)  Bbb    -0.0000    -0.000    -0.000    -0.000  0.8693  0.1103 -0.4819
              Bcc     0.0000     0.000     0.000     0.000 -0.3161  0.8735 -0.3703
 
              Baa    -0.0000    -0.000    -0.000    -0.000  0.9832 -0.1671 -0.0730
     2 C(13)  Bbb     0.0000     0.000     0.000     0.000  0.1799  0.9549  0.2361
              Bcc     0.0000     0.000     0.000     0.000  0.0303 -0.2453  0.9690
 
              Baa    -0.0000    -0.000    -0.000    -0.000 -0.1857  0.9825  0.0136
     3 C(13)  Bbb     0.0000     0.000     0.000     0.000 -0.5811 -0.1210  0.8048
              Bcc     0.0000     0.000     0.000     0.000  0.7924  0.1415  0.5934
 
              Baa    -0.0000    -0.000    -0.000    -0.000  0.1653  0.8960  0.4122
     4 C(13)  Bbb    -0.0000    -0.000    -0.000    -0.000 -0.1127 -0.3980  0.9104
              Bcc     0.0000     0.000     0.000     0.000  0.9798 -0.1969  0.0352
 
              Baa    -0.0000    -0.000    -0.000    -0.000 -0.1271  0.8981 -0.4210
     5 C(13)  Bbb    -0.0000    -0.000    -0.000    -0.000  0.2835  0.4397  0.8522
              Bcc     0.0000     0.000     0.000     0.000  0.9505 -0.0110 -0.3105
 
              Baa    -0.0000    -0.000    -0.000    -0.000 -0.0624  0.4288  0.9012
     6 F(19)  Bbb     0.0000     0.000     0.000     0.000  0.5503  0.7681 -0.3274
              Bcc     0.0000     0.000     0.000     0.000  0.8326 -0.4755  0.2839
 
              Baa    -0.0000    -0.000    -0.000    -0.000  0.9740 -0.0470  0.2215
     7 C(13)  Bbb     0.0000     0.000     0.000     0.000 -0.2200  0.0355  0.9749
              Bcc     0.0000     0.000     0.000     0.000  0.0537  0.9983 -0.0242
 
              Baa    -0.0000    -0.000    -0.000    -0.000  0.9589  0.1326  0.2509
     8 C(13)  Bbb     0.0000     0.000     0.000     0.000 -0.2061 -0.2821  0.9370
              Bcc     0.0000     0.000     0.000     0.000 -0.1950  0.9502  0.2432
 
              Baa    -0.0000    -0.000    -0.000    -0.000  0.9582 -0.2768  0.0726
     9 C(13)  Bbb     0.0000     0.000     0.000     0.000  0.2262  0.8879  0.4005
              Bcc     0.0000     0.000     0.000     0.000 -0.1753 -0.3674  0.9134
 
              Baa    -0.0000     0.000     0.000     0.000  0.9005 -0.0201  0.4345
    10 O(17)  Bbb    -0.0000     0.000     0.000     0.000 -0.4323 -0.1506  0.8890
              Bcc     0.0000    -0.000    -0.000    -0.000 -0.0476  0.9884  0.1443
 
              Baa    -0.0000    -0.000    -0.000    -0.000 -0.4876  0.2913  0.8230
    11 C(13)  Bbb    -0.0000    -0.000    -0.000    -0.000 -0.4568  0.7183 -0.5248
              Bcc     0.0000     0.000     0.000     0.000  0.7441  0.6318  0.2171
 
              Baa    -0.0000    -0.000    -0.000    -0.000  0.1748  0.7796  0.6014
    12 C(13)  Bbb     0.0000     0.000     0.000     0.000  0.5594 -0.5813  0.5909
              Bcc     0.0000     0.000     0.000     0.000  0.8102  0.2331 -0.5377
 
              Baa    -0.0000    -0.000    -0.000    -0.000  0.9676  0.2485  0.0449
    13 C(13)  Bbb     0.0000     0.000     0.000     0.000 -0.2029  0.8711 -0.4472
              Bcc     0.0000     0.000     0.000     0.000 -0.1502  0.4236  0.8933
 
              Baa    -0.0000    -0.000    -0.000    -0.000  0.5609  0.8002 -0.2121
    14 S(33)  Bbb    -0.0000    -0.000    -0.000    -0.000  0.0718  0.2081  0.9755
              Bcc     0.0000     0.000     0.000     0.000  0.8247 -0.5624  0.0593
 
              Baa    -0.0000    -0.000    -0.000    -0.000  0.0542  0.1653  0.9848
    15 H(1)   Bbb    -0.0000    -0.000    -0.000    -0.000  0.1982  0.9648 -0.1728
              Bcc     0.0000     0.000     0.000     0.000  0.9787 -0.2045 -0.0195
 
              Baa    -0.0000    -0.000    -0.000    -0.000  0.3442  0.7468 -0.5691
    16 H(1)   Bbb    -0.0000    -0.000    -0.000    -0.000  0.9381 -0.2980  0.1762
              Bcc     0.0000     0.000     0.000     0.000  0.0380  0.5946  0.8031
 
              Baa    -0.0000    -0.000    -0.000    -0.000  0.7409  0.5750 -0.3472
    17 H(1)   Bbb     0.0000     0.000     0.000     0.000 -0.5755  0.8099  0.1133
              Bcc     0.0000     0.000     0.000     0.000  0.3464  0.1159  0.9309
 
              Baa    -0.0000    -0.000    -0.000    -0.000 -0.0653 -0.0000  0.9979
    18 H(1)   Bbb    -0.0000    -0.000    -0.000    -0.000  0.2645  0.9642  0.0173
              Bcc     0.0000     0.000     0.000     0.000  0.9622 -0.2651  0.0629
 
              Baa    -0.0000    -0.000    -0.000    -0.000  0.2158 -0.3505  0.9113
    19 H(1)   Bbb     0.0000     0.000     0.000     0.000  0.7586 -0.5275 -0.3825
              Bcc     0.0000     0.000     0.000     0.000  0.6148  0.7739  0.1521
 
              Baa    -0.0000    -0.000    -0.000    -0.000  0.7783 -0.5945  0.2018
    20 H(1)   Bbb    -0.0000    -0.000    -0.000    -0.000 -0.4149 -0.2459  0.8760
              Bcc     0.0000     0.000     0.000     0.000  0.4712  0.7655  0.4381
 
              Baa    -0.0000    -0.000    -0.000    -0.000 -0.1944 -0.3000  0.9339
    21 H(1)   Bbb     0.0000     0.000     0.000     0.000  0.3003  0.8882  0.3478
              Bcc     0.0000     0.000     0.000     0.000  0.9338 -0.3481  0.0826
 
              Baa    -0.0000    -0.000    -0.000    -0.000  0.1284  0.9061  0.4032
    22 H(1)   Bbb    -0.0000    -0.000    -0.000    -0.000  0.7469 -0.3558  0.5618
              Bcc     0.0000     0.000     0.000     0.000 -0.6525 -0.2290  0.7224
 
              Baa    -0.0000    -0.000    -0.000    -0.000  0.9921  0.1106  0.0591
    23 H(1)   Bbb    -0.0000    -0.000    -0.000    -0.000 -0.0353 -0.2063  0.9778
              Bcc     0.0000     0.000     0.000     0.000 -0.1204  0.9722  0.2008
 

 ---------------------------------------------------------------------------------

 No NMR shielding tensors so no spin-rotation constants.
 Leave Link  601 at Fri Jul 24 12:30:41 2020, MaxMem=  4026531840 cpu:               1.8 elap:               0.3
 (Enter /opt/ohpc/pub/libs/gaussian/g16-A.03/sandybridge/g16/l9999.exe)

 Test job not archived.
 1\1\GINC-SKYLAKE038\FOpt\ULC-wPBE\CC-pVDZ\C11H9F1O1S1\RDU230\24-Jul-20
 20\0\\#P uLC-wPBE/cc-pVDZ iop(3/107=0466000000, 3/108=0466000000) opt\
 \H9 C11 S1 O1 F1\\0,1\C,-3.6133800911,0.7109293106,-0.1604177009\C,-2.
 6505333755,1.5782496388,-0.6519529215\C,-1.3123409292,1.2271246717,-0.
 6172122844\C,-0.8893304314,0.0059449221,-0.0883009954\C,-1.8877284777,
 -0.8363098609,0.3900745928\F,-1.5459282966,-2.0302370873,0.899453433\C
 ,-3.2269476852,-0.5100694305,0.3636307193\C,0.5340445982,-0.3591365553
 ,-0.0455740436\C,1.6094790203,0.4898332189,0.0366532294\O,1.442236766,
 1.8280162204,0.1327343183\C,2.5886982569,2.6037509726,0.3697961005\C,2
 .8659722408,-0.1815899748,0.0039704441\C,2.714207639,-1.5249119081,-0.
 1107871655\S,1.083100869,-1.9909627499,-0.1630524778\H,-4.6674688878,0
 .9805550085,-0.1864251318\H,-2.9419883456,2.5386996588,-1.0723882121\H
 ,-0.5622234245,1.9107130202,-1.0024487178\H,-3.9445868426,-1.224911369
 6,0.7591304914\H,3.0996897417,2.2953336176,1.292268295\H,2.2464502685,
 3.6357082898,0.4814423007\H,3.294215413,2.5523506031,-0.4713499185\H,3
 .832543412,0.3075113837,0.0639686391\H,3.4997865619,-2.2724356007,-0.1
 524129944\\Version=EM64L-G16RevA.03\State=1-A\HF=-997.345264\S2=0.\S2-
 1=0.\S2A=0.\RMSD=5.034e-09\RMSF=2.500e-05\Dipole=0.6886716,0.8025863,-
 0.0793098\Quadrupole=8.3470626,-0.4437835,-7.903279,1.2028597,0.584630
 5,-0.2728771\PG=C01 [X(C11H9F1O1S1)]\\@


 KEEP CLOSE TO NATURES HEART, YOURSELF;
 AND BREAK CLEAR AWAY, ONCE IN A WHILE, AND
 CLIMB A MOUNTAIN OR SPEND A WEEK IN THE
 WOODS.  WASH YOUR SPIRIT CLEAN...
                                         -- JOHN MUIR
 Job cpu time:       0 days  2 hours 27 minutes 52.4 seconds.
 Elapsed time:       0 days  0 hours 18 minutes 43.6 seconds.
 File lengths (MBytes):  RWF=    128 Int=      0 D2E=      0 Chk=     12 Scr=      8
 Normal termination of Gaussian 16 at Fri Jul 24 12:30:41 2020.
