 Entering Gaussian System, Link 0=g16
 Input=mols_65_3_23_n-cF-COC_opt_0.gjf
 Output=mols_65_3_23_n-cF-COC_opt_0.log
 Initial command:
 /opt/ohpc/pub/libs/gaussian/g16-A.03/sandybridge/g16/l1.exe "/mnt/gpfs2_4m/scratch/rdu230/ondemand/projects/dihedral_energies/7trial/wtuning/mols_65_3_23_n-cF-COC/Gau-417698.inp" -scrdir="/mnt/gpfs2_4m/scratch/rdu230/ondemand/projects/dihedral_energies/7trial/wtuning/mols_65_3_23_n-cF-COC/"
 Entering Link 1 = /opt/ohpc/pub/libs/gaussian/g16-A.03/sandybridge/g16/l1.exe PID=    417699.
  
 Copyright (c) 1988,1990,1992,1993,1995,1998,2003,2009,2016,
            Gaussian, Inc.  All Rights Reserved.
  
 This is part of the Gaussian(R) 16 program.  It is based on
 the Gaussian(R) 09 system (copyright 2009, Gaussian, Inc.),
 the Gaussian(R) 03 system (copyright 2003, Gaussian, Inc.),
 the Gaussian(R) 98 system (copyright 1998, Gaussian, Inc.),
 the Gaussian(R) 94 system (copyright 1995, Gaussian, Inc.),
 the Gaussian 92(TM) system (copyright 1992, Gaussian, Inc.),
 the Gaussian 90(TM) system (copyright 1990, Gaussian, Inc.),
 the Gaussian 88(TM) system (copyright 1988, Gaussian, Inc.),
 the Gaussian 86(TM) system (copyright 1986, Carnegie Mellon
 University), and the Gaussian 82(TM) system (copyright 1983,
 Carnegie Mellon University). Gaussian is a federally registered
 trademark of Gaussian, Inc.
  
 This software contains proprietary and confidential information,
 including trade secrets, belonging to Gaussian, Inc.
  
 This software is provided under written license and may be
 used, copied, transmitted, or stored only in accord with that
 written license.
  
 The following legend is applicable only to US Government
 contracts under FAR:
  
                    RESTRICTED RIGHTS LEGEND
  
 Use, reproduction and disclosure by the US Government is
 subject to restrictions as set forth in subparagraphs (a)
 and (c) of the Commercial Computer Software - Restricted
 Rights clause in FAR 52.227-19.
  
 Gaussian, Inc.
 340 Quinnipiac St., Bldg. 40, Wallingford CT 06492
  
  
 ---------------------------------------------------------------
 Warning -- This program may not be used in any manner that
 competes with the business of Gaussian, Inc. or will provide
 assistance to any competitor of Gaussian, Inc.  The licensee
 of this program is prohibited from giving any competitor of
 Gaussian, Inc. access to this program.  By using this program,
 the user acknowledges that Gaussian, Inc. is engaged in the
 business of creating and licensing software in the field of
 computational chemistry and represents and warrants to the
 licensee that it is not a competitor of Gaussian, Inc. and that
 it will not use this program in any manner prohibited above.
 ---------------------------------------------------------------
  

 Cite this work as:
 Gaussian 16, Revision A.03,
 M. J. Frisch, G. W. Trucks, H. B. Schlegel, G. E. Scuseria, 
 M. A. Robb, J. R. Cheeseman, G. Scalmani, V. Barone, 
 G. A. Petersson, H. Nakatsuji, X. Li, M. Caricato, A. V. Marenich, 
 J. Bloino, B. G. Janesko, R. Gomperts, B. Mennucci, H. P. Hratchian, 
 J. V. Ortiz, A. F. Izmaylov, J. L. Sonnenberg, D. Williams-Young, 
 F. Ding, F. Lipparini, F. Egidi, J. Goings, B. Peng, A. Petrone, 
 T. Henderson, D. Ranasinghe, V. G. Zakrzewski, J. Gao, N. Rega, 
 G. Zheng, W. Liang, M. Hada, M. Ehara, K. Toyota, R. Fukuda, 
 J. Hasegawa, M. Ishida, T. Nakajima, Y. Honda, O. Kitao, H. Nakai, 
 T. Vreven, K. Throssell, J. A. Montgomery, Jr., J. E. Peralta, 
 F. Ogliaro, M. J. Bearpark, J. J. Heyd, E. N. Brothers, K. N. Kudin, 
 V. N. Staroverov, T. A. Keith, R. Kobayashi, J. Normand, 
 K. Raghavachari, A. P. Rendell, J. C. Burant, S. S. Iyengar, 
 J. Tomasi, M. Cossi, J. M. Millam, M. Klene, C. Adamo, R. Cammi, 
 J. W. Ochterski, R. L. Martin, K. Morokuma, O. Farkas, 
 J. B. Foresman, and D. J. Fox, Gaussian, Inc., Wallingford CT, 2016.
 
 ******************************************
 Gaussian 16:  EM64L-G16RevA.03 25-Dec-2016
                25-Jul-2020 
 ******************************************
 %mem=30GB
 %nproc=8
 Will use up to    8 processors via shared memory.
 ---------------------------------------------------------------
 #P uLC-wPBE/cc-pVDZ iop(3/107=0311400000, 3/108=0311400000) opt
 ---------------------------------------------------------------
 1/18=20,19=15,26=3,38=1/1,3;
 2/9=110,12=2,17=6,18=5,40=1/2;
 3/5=16,11=2,25=1,30=1,71=1,74=-41,107=311400000,108=311400000,116=2/1,2,3;
 4//1;
 5/5=2,38=5/2;
 6/7=2,8=2,9=2,10=2,28=1/1;
 7//1,2,3,16;
 1/18=20,19=15,26=3/3(2);
 2/9=110/2;
 99//99;
 2/9=110/2;
 3/5=16,11=2,25=1,30=1,71=1,74=-41,107=311400000,108=311400000,116=2/1,2,3;
 4/5=5,16=3,69=1/1;
 5/5=2,38=5/2;
 7//1,2,3,16;
 1/18=20,19=15,26=3/3(-5);
 2/9=110/2;
 6/7=2,8=2,9=2,10=2,19=2,28=1/1;
 99/9=1/99;
 Leave Link    1 at Sat Jul 25 02:16:06 2020, MaxMem=  4026531840 cpu:               1.5 elap:               0.2
 (Enter /opt/ohpc/pub/libs/gaussian/g16-A.03/sandybridge/g16/l101.exe)
 -------------------
 H20 C30 S3 N3 O3 F3
 -------------------
 Symbolic Z-matrix:
 Charge =  0 Multiplicity = 1
 C                     11.32783  -0.59649  -0.21824 
 C                     10.47827  -1.20055   0.66875 
 N                     9.13919  -0.79714   0.72292 
 C                     8.72872   0.14093  -0.05462 
 C                     9.56682   0.89066  -0.89876 
 F                     9.09838   1.83395  -1.77222 
 C                     10.93558   0.47261  -1.01543 
 C                     7.25678   0.50511   0.08532 
 C                     6.74083   1.81129   0.27071 
 O                     7.50905   2.91427   0.40526 
 C                     6.76542   4.0736    0.60193 
 C                     5.26117   1.65754   0.3469 
 C                     4.81632   0.36246   0.17483 
 S                     6.06641  -0.70061  -0.0624 
 C                     3.41038  -0.01449   0.17477 
 C                     2.46285   0.62946  -0.56391 
 N                     1.1078    0.21916  -0.67927 
 C                     0.76035  -0.87498   0.11325 
 C                     1.68923  -1.57854   0.8333 
 F                     1.32328  -2.59165   1.64497 
 C                     3.02835  -1.2023    0.92411 
 C                    -0.64211  -1.18352  -0.07116 
 C                    -1.24977  -2.4417   -0.29527 
 O                    -0.43141  -3.57416  -0.50949 
 C                    -1.04226  -4.78635  -0.69558 
 C                    -2.59364  -2.37747  -0.2796 
 C                    -3.15722  -1.09541  -0.08262 
 S                    -1.8105   -0.04027   0.18688 
 C                    -4.50273  -0.70367  -0.0769 
 C                    -5.44344  -1.26176  -0.85142 
 N                    -6.79049  -0.88741  -0.96095 
 C                    -7.22106   0.0986   -0.04179 
 C                    -6.34653   0.68056   0.78449 
 F                    -6.77584   1.63214   1.66404 
 C                    -4.95595   0.26741   0.82121 
 C                    -8.64044   0.36831  -0.12637 
 C                    -9.23454   1.6685   -0.32473 
 O                    -8.41068   2.74835  -0.38414 
 C                    -9.17918   3.96858  -0.52386 
 C                    -10.60515   1.53746  -0.26213 
 C                    -11.08351   0.28658  -0.08574 
 S                    -9.78007  -0.84795   0.05285 
 H                     12.37075  -0.92824  -0.2403 
 H                     10.76299  -1.9601    1.3253 
 H                     11.53985   1.01594  -1.66283 
 H                     6.20347   4.28458  -0.30157 
 H                     7.54073   4.94518   0.65329 
 H                     6.23802   4.1455    1.5204 
 H                     4.62439   2.50567   0.46354 
 H                     2.74627   1.41495  -1.20826 
 H                     3.71761  -1.66939   1.56458 
 H                    -1.67028  -4.7206   -1.67315 
 H                    -1.6482   -5.01581   0.13065 
 H                    -0.297    -5.55982  -0.90159 
 H                    -3.289    -3.20744  -0.47336 
 H                    -5.18437  -2.05631  -1.63318 
 H                    -4.27714   0.80365   1.57878 
 H                    -8.38941   4.802    -0.58314 
 H                    -9.69698   4.14368   0.38496 
 H                    -9.71898   3.99865  -1.45643 
 H                    -11.35588   2.38923  -0.37223 
 H                    -12.13541  -0.06587  -0.14089 
 
 ITRead=  0  0  0  0  0  0  0  0  0  0  0  0  0  0  0  0  0  0  0  0
 ITRead=  0  0  0  0  0  0  0  0  0  0  0  0  0  0  0  0  0  0  0  0
 ITRead=  0  0  0  0  0  0  0  0  0  0  0  0  0  0  0  0  0  0  0  0
 ITRead=  0  0
 MicOpt= -1 -1 -1 -1 -1 -1 -1 -1 -1 -1 -1 -1 -1 -1 -1 -1 -1 -1 -1 -1
 MicOpt= -1 -1 -1 -1 -1 -1 -1 -1 -1 -1 -1 -1 -1 -1 -1 -1 -1 -1 -1 -1
 MicOpt= -1 -1 -1 -1 -1 -1 -1 -1 -1 -1 -1 -1 -1 -1 -1 -1 -1 -1 -1 -1
 MicOpt= -1 -1
 NAtoms=     62 NQM=       62 NQMF=       0 NMMI=      0 NMMIF=      0
                NMic=       0 NMicF=      0.
                    Isotopes and Nuclear Properties:
 (Nuclear quadrupole moments (NQMom) in fm**2, nuclear magnetic moments (NMagM)
  in nuclear magnetons)

  Atom         1           2           3           4           5           6           7           8           9          10
 IAtWgt=          12          12          14          12          12          19          12          12          12          16
 AtmWgt=  12.0000000  12.0000000  14.0030740  12.0000000  12.0000000  18.9984033  12.0000000  12.0000000  12.0000000  15.9949146
 NucSpn=           0           0           2           0           0           1           0           0           0           0
 AtZEff=  -0.0000000  -0.0000000  -0.0000000  -0.0000000  -0.0000000  -0.0000000  -0.0000000  -0.0000000  -0.0000000  -0.0000000
 NQMom=    0.0000000   0.0000000   2.0440000   0.0000000   0.0000000   0.0000000   0.0000000   0.0000000   0.0000000   0.0000000
 NMagM=    0.0000000   0.0000000   0.4037610   0.0000000   0.0000000   2.6288670   0.0000000   0.0000000   0.0000000   0.0000000
 AtZNuc=   6.0000000   6.0000000   7.0000000   6.0000000   6.0000000   9.0000000   6.0000000   6.0000000   6.0000000   8.0000000

  Atom        11          12          13          14          15          16          17          18          19          20
 IAtWgt=          12          12          12          32          12          12          14          12          12          19
 AtmWgt=  12.0000000  12.0000000  12.0000000  31.9720718  12.0000000  12.0000000  14.0030740  12.0000000  12.0000000  18.9984033
 NucSpn=           0           0           0           0           0           0           2           0           0           1
 AtZEff=  -0.0000000  -0.0000000  -0.0000000  -0.0000000  -0.0000000  -0.0000000  -0.0000000  -0.0000000  -0.0000000  -0.0000000
 NQMom=    0.0000000   0.0000000   0.0000000   0.0000000   0.0000000   0.0000000   2.0440000   0.0000000   0.0000000   0.0000000
 NMagM=    0.0000000   0.0000000   0.0000000   0.0000000   0.0000000   0.0000000   0.4037610   0.0000000   0.0000000   2.6288670
 AtZNuc=   6.0000000   6.0000000   6.0000000  16.0000000   6.0000000   6.0000000   7.0000000   6.0000000   6.0000000   9.0000000

  Atom        21          22          23          24          25          26          27          28          29          30
 IAtWgt=          12          12          12          16          12          12          12          32          12          12
 AtmWgt=  12.0000000  12.0000000  12.0000000  15.9949146  12.0000000  12.0000000  12.0000000  31.9720718  12.0000000  12.0000000
 NucSpn=           0           0           0           0           0           0           0           0           0           0
 AtZEff=  -0.0000000  -0.0000000  -0.0000000  -0.0000000  -0.0000000  -0.0000000  -0.0000000  -0.0000000  -0.0000000  -0.0000000
 NQMom=    0.0000000   0.0000000   0.0000000   0.0000000   0.0000000   0.0000000   0.0000000   0.0000000   0.0000000   0.0000000
 NMagM=    0.0000000   0.0000000   0.0000000   0.0000000   0.0000000   0.0000000   0.0000000   0.0000000   0.0000000   0.0000000
 AtZNuc=   6.0000000   6.0000000   6.0000000   8.0000000   6.0000000   6.0000000   6.0000000  16.0000000   6.0000000   6.0000000

  Atom        31          32          33          34          35          36          37          38          39          40
 IAtWgt=          14          12          12          19          12          12          12          16          12          12
 AtmWgt=  14.0030740  12.0000000  12.0000000  18.9984033  12.0000000  12.0000000  12.0000000  15.9949146  12.0000000  12.0000000
 NucSpn=           2           0           0           1           0           0           0           0           0           0
 AtZEff=  -0.0000000  -0.0000000  -0.0000000  -0.0000000  -0.0000000  -0.0000000  -0.0000000  -0.0000000  -0.0000000  -0.0000000
 NQMom=    2.0440000   0.0000000   0.0000000   0.0000000   0.0000000   0.0000000   0.0000000   0.0000000   0.0000000   0.0000000
 NMagM=    0.4037610   0.0000000   0.0000000   2.6288670   0.0000000   0.0000000   0.0000000   0.0000000   0.0000000   0.0000000
 AtZNuc=   7.0000000   6.0000000   6.0000000   9.0000000   6.0000000   6.0000000   6.0000000   8.0000000   6.0000000   6.0000000

  Atom        41          42          43          44          45          46          47          48          49          50
 IAtWgt=          12          32           1           1           1           1           1           1           1           1
 AtmWgt=  12.0000000  31.9720718   1.0078250   1.0078250   1.0078250   1.0078250   1.0078250   1.0078250   1.0078250   1.0078250
 NucSpn=           0           0           1           1           1           1           1           1           1           1
 AtZEff=  -0.0000000  -0.0000000  -0.0000000  -0.0000000  -0.0000000  -0.0000000  -0.0000000  -0.0000000  -0.0000000  -0.0000000
 NQMom=    0.0000000   0.0000000   0.0000000   0.0000000   0.0000000   0.0000000   0.0000000   0.0000000   0.0000000   0.0000000
 NMagM=    0.0000000   0.0000000   2.7928460   2.7928460   2.7928460   2.7928460   2.7928460   2.7928460   2.7928460   2.7928460
 AtZNuc=   6.0000000  16.0000000   1.0000000   1.0000000   1.0000000   1.0000000   1.0000000   1.0000000   1.0000000   1.0000000

  Atom        51          52          53          54          55          56          57          58          59          60
 IAtWgt=           1           1           1           1           1           1           1           1           1           1
 AtmWgt=   1.0078250   1.0078250   1.0078250   1.0078250   1.0078250   1.0078250   1.0078250   1.0078250   1.0078250   1.0078250
 NucSpn=           1           1           1           1           1           1           1           1           1           1
 AtZEff=  -0.0000000  -0.0000000  -0.0000000  -0.0000000  -0.0000000  -0.0000000  -0.0000000  -0.0000000  -0.0000000  -0.0000000
 NQMom=    0.0000000   0.0000000   0.0000000   0.0000000   0.0000000   0.0000000   0.0000000   0.0000000   0.0000000   0.0000000
 NMagM=    2.7928460   2.7928460   2.7928460   2.7928460   2.7928460   2.7928460   2.7928460   2.7928460   2.7928460   2.7928460
 AtZNuc=   1.0000000   1.0000000   1.0000000   1.0000000   1.0000000   1.0000000   1.0000000   1.0000000   1.0000000   1.0000000

  Atom        61          62
 IAtWgt=           1           1
 AtmWgt=   1.0078250   1.0078250
 NucSpn=           1           1
 AtZEff=  -0.0000000  -0.0000000
 NQMom=    0.0000000   0.0000000
 NMagM=    2.7928460   2.7928460
 AtZNuc=   1.0000000   1.0000000
 Leave Link  101 at Sat Jul 25 02:16:06 2020, MaxMem=  4026531840 cpu:               2.9 elap:               0.4
 (Enter /opt/ohpc/pub/libs/gaussian/g16-A.03/sandybridge/g16/l103.exe)

 GradGradGradGradGradGradGradGradGradGradGradGradGradGradGradGradGradGrad
 Berny optimization.
 Initialization pass.
                           ----------------------------
                           !    Initial Parameters    !
                           ! (Angstroms and Degrees)  !
 --------------------------                            --------------------------
 ! Name  Definition              Value          Derivative Info.                !
 --------------------------------------------------------------------------------
 ! R1    R(1,2)                  1.3687         estimate D2E/DX2                !
 ! R2    R(1,7)                  1.3901         estimate D2E/DX2                !
 ! R3    R(1,43)                 1.0946         estimate D2E/DX2                !
 ! R4    R(2,3)                  1.3996         estimate D2E/DX2                !
 ! R5    R(2,44)                 1.0436         estimate D2E/DX2                !
 ! R6    R(3,4)                  1.2857         estimate D2E/DX2                !
 ! R7    R(4,5)                  1.4061         estimate D2E/DX2                !
 ! R8    R(4,8)                  1.5228         estimate D2E/DX2                !
 ! R9    R(5,6)                  1.3683         estimate D2E/DX2                !
 ! R10   R(5,7)                  1.4359         estimate D2E/DX2                !
 ! R11   R(7,45)                 1.039          estimate D2E/DX2                !
 ! R12   R(8,9)                  1.4166         estimate D2E/DX2                !
 ! R13   R(8,14)                 1.7008         estimate D2E/DX2                !
 ! R14   R(9,10)                 1.3509         estimate D2E/DX2                !
 ! R15   R(9,12)                 1.4896         estimate D2E/DX2                !
 ! R16   R(10,11)                1.3913         estimate D2E/DX2                !
 ! R17   R(11,46)                1.0847         estimate D2E/DX2                !
 ! R18   R(11,47)                1.1676         estimate D2E/DX2                !
 ! R19   R(11,48)                1.0616         estimate D2E/DX2                !
 ! R20   R(12,13)                1.3801         estimate D2E/DX2                !
 ! R21   R(12,49)                1.067          estimate D2E/DX2                !
 ! R22   R(13,14)                1.6581         estimate D2E/DX2                !
 ! R23   R(13,15)                1.4556         estimate D2E/DX2                !
 ! R24   R(15,16)                1.3631         estimate D2E/DX2                !
 ! R25   R(15,21)                1.4555         estimate D2E/DX2                !
 ! R26   R(16,17)                1.4205         estimate D2E/DX2                !
 ! R27   R(16,50)                1.0548         estimate D2E/DX2                !
 ! R28   R(17,18)                1.395          estimate D2E/DX2                !
 ! R29   R(18,19)                1.3698         estimate D2E/DX2                !
 ! R30   R(18,22)                1.4478         estimate D2E/DX2                !
 ! R31   R(19,20)                1.3487         estimate D2E/DX2                !
 ! R32   R(19,21)                1.3939         estimate D2E/DX2                !
 ! R33   R(21,51)                1.0505         estimate D2E/DX2                !
 ! R34   R(22,23)                1.4151         estimate D2E/DX2                !
 ! R35   R(22,28)                1.6549         estimate D2E/DX2                !
 ! R36   R(23,24)                1.4135         estimate D2E/DX2                !
 ! R37   R(23,26)                1.3455         estimate D2E/DX2                !
 ! R38   R(24,25)                1.3701         estimate D2E/DX2                !
 ! R39   R(25,52)                1.1638         estimate D2E/DX2                !
 ! R40   R(25,53)                1.05           estimate D2E/DX2                !
 ! R41   R(25,54)                1.0937         estimate D2E/DX2                !
 ! R42   R(26,27)                1.4143         estimate D2E/DX2                !
 ! R43   R(26,55)                1.1            estimate D2E/DX2                !
 ! R44   R(27,28)                1.7319         estimate D2E/DX2                !
 ! R45   R(27,29)                1.4014         estimate D2E/DX2                !
 ! R46   R(29,30)                1.3403         estimate D2E/DX2                !
 ! R47   R(29,35)                1.3982         estimate D2E/DX2                !
 ! R48   R(30,31)                1.4024         estimate D2E/DX2                !
 ! R49   R(30,56)                1.1444         estimate D2E/DX2                !
 ! R50   R(31,32)                1.4151         estimate D2E/DX2                !
 ! R51   R(32,33)                1.3365         estimate D2E/DX2                !
 ! R52   R(32,36)                1.4472         estimate D2E/DX2                !
 ! R53   R(33,34)                1.3651         estimate D2E/DX2                !
 ! R54   R(33,35)                1.4511         estimate D2E/DX2                !
 ! R55   R(35,57)                1.1499         estimate D2E/DX2                !
 ! R56   R(36,37)                1.4432         estimate D2E/DX2                !
 ! R57   R(36,42)                1.6764         estimate D2E/DX2                !
 ! R58   R(37,38)                1.3595         estimate D2E/DX2                !
 ! R59   R(37,40)                1.3783         estimate D2E/DX2                !
 ! R60   R(38,39)                1.4488         estimate D2E/DX2                !
 ! R61   R(39,58)                1.1497         estimate D2E/DX2                !
 ! R62   R(39,59)                1.0605         estimate D2E/DX2                !
 ! R63   R(39,60)                1.078          estimate D2E/DX2                !
 ! R64   R(40,41)                1.3508         estimate D2E/DX2                !
 ! R65   R(40,61)                1.1407         estimate D2E/DX2                !
 ! R66   R(41,42)                1.7336         estimate D2E/DX2                !
 ! R67   R(41,62)                1.1107         estimate D2E/DX2                !
 ! A1    A(2,1,7)              122.4064         estimate D2E/DX2                !
 ! A2    A(2,1,43)             118.0784         estimate D2E/DX2                !
 ! A3    A(7,1,43)             119.365          estimate D2E/DX2                !
 ! A4    A(1,2,3)              119.4552         estimate D2E/DX2                !
 ! A5    A(1,2,44)             124.0271         estimate D2E/DX2                !
 ! A6    A(3,2,44)             116.5178         estimate D2E/DX2                !
 ! A7    A(2,3,4)              119.4954         estimate D2E/DX2                !
 ! A8    A(3,4,5)              124.1805         estimate D2E/DX2                !
 ! A9    A(3,4,8)              115.3101         estimate D2E/DX2                !
 ! A10   A(5,4,8)              120.2525         estimate D2E/DX2                !
 ! A11   A(4,5,6)              123.1456         estimate D2E/DX2                !
 ! A12   A(4,5,7)              117.4982         estimate D2E/DX2                !
 ! A13   A(6,5,7)              118.3714         estimate D2E/DX2                !
 ! A14   A(1,7,5)              116.5057         estimate D2E/DX2                !
 ! A15   A(1,7,45)             126.5434         estimate D2E/DX2                !
 ! A16   A(5,7,45)             116.9215         estimate D2E/DX2                !
 ! A17   A(4,8,9)              125.7757         estimate D2E/DX2                !
 ! A18   A(4,8,14)             119.9349         estimate D2E/DX2                !
 ! A19   A(9,8,14)             114.2131         estimate D2E/DX2                !
 ! A20   A(8,9,10)             123.9714         estimate D2E/DX2                !
 ! A21   A(8,9,12)             105.8621         estimate D2E/DX2                !
 ! A22   A(10,9,12)            130.0967         estimate D2E/DX2                !
 ! A23   A(9,10,11)            112.9855         estimate D2E/DX2                !
 ! A24   A(10,11,46)           108.7372         estimate D2E/DX2                !
 ! A25   A(10,11,47)           105.8617         estimate D2E/DX2                !
 ! A26   A(10,11,48)           116.3773         estimate D2E/DX2                !
 ! A27   A(46,11,47)           103.6175         estimate D2E/DX2                !
 ! A28   A(46,11,48)           116.7506         estimate D2E/DX2                !
 ! A29   A(47,11,48)           103.9618         estimate D2E/DX2                !
 ! A30   A(9,12,13)            114.2463         estimate D2E/DX2                !
 ! A31   A(9,12,49)            121.09           estimate D2E/DX2                !
 ! A32   A(13,12,49)           124.5538         estimate D2E/DX2                !
 ! A33   A(12,13,14)           112.115          estimate D2E/DX2                !
 ! A34   A(12,13,15)           123.6656         estimate D2E/DX2                !
 ! A35   A(14,13,15)           124.2076         estimate D2E/DX2                !
 ! A36   A(8,14,13)             93.4818         estimate D2E/DX2                !
 ! A37   A(13,15,16)           123.3045         estimate D2E/DX2                !
 ! A38   A(13,15,21)           117.7003         estimate D2E/DX2                !
 ! A39   A(16,15,21)           118.8211         estimate D2E/DX2                !
 ! A40   A(15,16,17)           124.7954         estimate D2E/DX2                !
 ! A41   A(15,16,50)           119.7408         estimate D2E/DX2                !
 ! A42   A(17,16,50)           114.9488         estimate D2E/DX2                !
 ! A43   A(16,17,18)           114.7089         estimate D2E/DX2                !
 ! A44   A(17,18,19)           122.1817         estimate D2E/DX2                !
 ! A45   A(17,18,22)           109.6373         estimate D2E/DX2                !
 ! A46   A(19,18,22)           127.9075         estimate D2E/DX2                !
 ! A47   A(18,19,20)           121.2094         estimate D2E/DX2                !
 ! A48   A(18,19,21)           123.1662         estimate D2E/DX2                !
 ! A49   A(20,19,21)           115.0998         estimate D2E/DX2                !
 ! A50   A(15,21,19)           116.0336         estimate D2E/DX2                !
 ! A51   A(15,21,51)           120.3027         estimate D2E/DX2                !
 ! A52   A(19,21,51)           123.3707         estimate D2E/DX2                !
 ! A53   A(18,22,23)           128.7279         estimate D2E/DX2                !
 ! A54   A(18,22,28)           121.1195         estimate D2E/DX2                !
 ! A55   A(23,22,28)           109.6175         estimate D2E/DX2                !
 ! A56   A(22,23,24)           119.1904         estimate D2E/DX2                !
 ! A57   A(22,23,26)           112.6197         estimate D2E/DX2                !
 ! A58   A(24,23,26)           128.1886         estimate D2E/DX2                !
 ! A59   A(23,24,25)           118.1176         estimate D2E/DX2                !
 ! A60   A(24,25,52)           107.7401         estimate D2E/DX2                !
 ! A61   A(24,25,53)           110.1065         estimate D2E/DX2                !
 ! A62   A(24,25,54)           110.3333         estimate D2E/DX2                !
 ! A63   A(52,25,53)           111.2183         estimate D2E/DX2                !
 ! A64   A(52,25,54)           104.4453         estimate D2E/DX2                !
 ! A65   A(53,25,54)           112.7629         estimate D2E/DX2                !
 ! A66   A(23,26,27)           116.2898         estimate D2E/DX2                !
 ! A67   A(23,26,55)           126.3939         estimate D2E/DX2                !
 ! A68   A(27,26,55)           117.1703         estimate D2E/DX2                !
 ! A69   A(26,27,28)           105.3129         estimate D2E/DX2                !
 ! A70   A(26,27,29)           129.538          estimate D2E/DX2                !
 ! A71   A(28,27,29)           125.1442         estimate D2E/DX2                !
 ! A72   A(22,28,27)            95.9612         estimate D2E/DX2                !
 ! A73   A(27,29,30)           123.7205         estimate D2E/DX2                !
 ! A74   A(27,29,35)           120.5298         estimate D2E/DX2                !
 ! A75   A(30,29,35)           115.6503         estimate D2E/DX2                !
 ! A76   A(29,30,31)           127.4577         estimate D2E/DX2                !
 ! A77   A(29,30,56)           121.6675         estimate D2E/DX2                !
 ! A78   A(31,30,56)           110.4535         estimate D2E/DX2                !
 ! A79   A(30,31,32)           115.3114         estimate D2E/DX2                !
 ! A80   A(31,32,33)           120.3898         estimate D2E/DX2                !
 ! A81   A(31,32,36)           112.9739         estimate D2E/DX2                !
 ! A82   A(33,32,36)           126.6358         estimate D2E/DX2                !
 ! A83   A(32,33,34)           119.7422         estimate D2E/DX2                !
 ! A84   A(32,33,35)           121.2463         estimate D2E/DX2                !
 ! A85   A(34,33,35)           118.917          estimate D2E/DX2                !
 ! A86   A(29,35,33)           119.4789         estimate D2E/DX2                !
 ! A87   A(29,35,57)           123.759          estimate D2E/DX2                !
 ! A88   A(33,35,57)           116.7179         estimate D2E/DX2                !
 ! A89   A(32,36,37)           125.4268         estimate D2E/DX2                !
 ! A90   A(32,36,42)           121.6865         estimate D2E/DX2                !
 ! A91   A(37,36,42)           112.8602         estimate D2E/DX2                !
 ! A92   A(36,37,38)           118.1717         estimate D2E/DX2                !
 ! A93   A(36,37,40)           108.5102         estimate D2E/DX2                !
 ! A94   A(38,37,40)           132.8526         estimate D2E/DX2                !
 ! A95   A(37,38,39)           110.5937         estimate D2E/DX2                !
 ! A96   A(38,39,58)           104.5444         estimate D2E/DX2                !
 ! A97   A(38,39,59)           108.3848         estimate D2E/DX2                !
 ! A98   A(38,39,60)           111.8722         estimate D2E/DX2                !
 ! A99   A(58,39,59)           105.064          estimate D2E/DX2                !
 ! A100  A(58,39,60)           106.2103         estimate D2E/DX2                !
 ! A101  A(59,39,60)           119.4897         estimate D2E/DX2                !
 ! A102  A(37,40,41)           116.4955         estimate D2E/DX2                !
 ! A103  A(37,40,61)           125.3862         estimate D2E/DX2                !
 ! A104  A(41,40,61)           118.1002         estimate D2E/DX2                !
 ! A105  A(40,41,42)           110.5006         estimate D2E/DX2                !
 ! A106  A(40,41,62)           128.5151         estimate D2E/DX2                !
 ! A107  A(42,41,62)           120.554          estimate D2E/DX2                !
 ! A108  A(36,42,41)            91.5915         estimate D2E/DX2                !
 ! D1    D(7,1,2,3)              4.3756         estimate D2E/DX2                !
 ! D2    D(7,1,2,44)          -175.6199         estimate D2E/DX2                !
 ! D3    D(43,1,2,3)           179.8882         estimate D2E/DX2                !
 ! D4    D(43,1,2,44)           -0.1073         estimate D2E/DX2                !
 ! D5    D(2,1,7,5)             -2.1276         estimate D2E/DX2                !
 ! D6    D(2,1,7,45)           175.8247         estimate D2E/DX2                !
 ! D7    D(43,1,7,5)          -177.5845         estimate D2E/DX2                !
 ! D8    D(43,1,7,45)            0.3678         estimate D2E/DX2                !
 ! D9    D(1,2,3,4)             -0.4686         estimate D2E/DX2                !
 ! D10   D(44,2,3,4)           179.5272         estimate D2E/DX2                !
 ! D11   D(2,3,4,5)             -5.7392         estimate D2E/DX2                !
 ! D12   D(2,3,4,8)           -179.9101         estimate D2E/DX2                !
 ! D13   D(3,4,5,6)            176.258          estimate D2E/DX2                !
 ! D14   D(3,4,5,7)              7.8133         estimate D2E/DX2                !
 ! D15   D(8,4,5,6)             -9.8433         estimate D2E/DX2                !
 ! D16   D(8,4,5,7)           -178.288          estimate D2E/DX2                !
 ! D17   D(3,4,8,9)            128.839          estimate D2E/DX2                !
 ! D18   D(3,4,8,14)           -54.5283         estimate D2E/DX2                !
 ! D19   D(5,4,8,9)            -45.5793         estimate D2E/DX2                !
 ! D20   D(5,4,8,14)           131.0534         estimate D2E/DX2                !
 ! D21   D(4,5,7,1)             -3.5875         estimate D2E/DX2                !
 ! D22   D(4,5,7,45)           178.2576         estimate D2E/DX2                !
 ! D23   D(6,5,7,1)           -172.5988         estimate D2E/DX2                !
 ! D24   D(6,5,7,45)             9.2463         estimate D2E/DX2                !
 ! D25   D(4,8,9,10)            -2.942          estimate D2E/DX2                !
 ! D26   D(4,8,9,12)           179.8279         estimate D2E/DX2                !
 ! D27   D(14,8,9,10)         -179.7427         estimate D2E/DX2                !
 ! D28   D(14,8,9,12)            3.0272         estimate D2E/DX2                !
 ! D29   D(4,8,14,13)         -179.5675         estimate D2E/DX2                !
 ! D30   D(9,8,14,13)           -2.5626         estimate D2E/DX2                !
 ! D31   D(8,9,10,11)         -178.8072         estimate D2E/DX2                !
 ! D32   D(12,9,10,11)          -2.2912         estimate D2E/DX2                !
 ! D33   D(8,9,12,13)           -2.2172         estimate D2E/DX2                !
 ! D34   D(8,9,12,49)         -178.5742         estimate D2E/DX2                !
 ! D35   D(10,9,12,13)        -179.214          estimate D2E/DX2                !
 ! D36   D(10,9,12,49)           4.4289         estimate D2E/DX2                !
 ! D37   D(9,10,11,46)         -66.7455         estimate D2E/DX2                !
 ! D38   D(9,10,11,47)        -177.5289         estimate D2E/DX2                !
 ! D39   D(9,10,11,48)          67.5811         estimate D2E/DX2                !
 ! D40   D(9,12,13,14)           0.4924         estimate D2E/DX2                !
 ! D41   D(9,12,13,15)        -178.3017         estimate D2E/DX2                !
 ! D42   D(49,12,13,14)        176.7043         estimate D2E/DX2                !
 ! D43   D(49,12,13,15)         -2.0898         estimate D2E/DX2                !
 ! D44   D(12,13,14,8)           1.1207         estimate D2E/DX2                !
 ! D45   D(15,13,14,8)         179.9072         estimate D2E/DX2                !
 ! D46   D(12,13,15,16)         49.0315         estimate D2E/DX2                !
 ! D47   D(12,13,15,21)       -135.8291         estimate D2E/DX2                !
 ! D48   D(14,13,15,16)       -129.6176         estimate D2E/DX2                !
 ! D49   D(14,13,15,21)         45.5218         estimate D2E/DX2                !
 ! D50   D(13,15,16,17)        174.2329         estimate D2E/DX2                !
 ! D51   D(13,15,16,50)          2.8955         estimate D2E/DX2                !
 ! D52   D(21,15,16,17)         -0.855          estimate D2E/DX2                !
 ! D53   D(21,15,16,50)       -172.1924         estimate D2E/DX2                !
 ! D54   D(13,15,21,19)       -176.1777         estimate D2E/DX2                !
 ! D55   D(13,15,21,51)          9.832          estimate D2E/DX2                !
 ! D56   D(16,15,21,19)         -0.8138         estimate D2E/DX2                !
 ! D57   D(16,15,21,51)       -174.8042         estimate D2E/DX2                !
 ! D58   D(15,16,17,18)          4.4171         estimate D2E/DX2                !
 ! D59   D(50,16,17,18)        176.124          estimate D2E/DX2                !
 ! D60   D(16,17,18,19)         -6.5522         estimate D2E/DX2                !
 ! D61   D(16,17,18,22)        179.0142         estimate D2E/DX2                !
 ! D62   D(17,18,19,20)        176.6713         estimate D2E/DX2                !
 ! D63   D(17,18,19,21)          5.3898         estimate D2E/DX2                !
 ! D64   D(22,18,19,20)         -9.9778         estimate D2E/DX2                !
 ! D65   D(22,18,19,21)        178.7407         estimate D2E/DX2                !
 ! D66   D(17,18,22,23)        133.3209         estimate D2E/DX2                !
 ! D67   D(17,18,22,28)        -55.9814         estimate D2E/DX2                !
 ! D68   D(19,18,22,23)        -40.7066         estimate D2E/DX2                !
 ! D69   D(19,18,22,28)        129.9911         estimate D2E/DX2                !
 ! D70   D(18,19,21,15)         -1.3882         estimate D2E/DX2                !
 ! D71   D(18,19,21,51)        172.3981         estimate D2E/DX2                !
 ! D72   D(20,19,21,15)       -173.1574         estimate D2E/DX2                !
 ! D73   D(20,19,21,51)          0.6289         estimate D2E/DX2                !
 ! D74   D(18,22,23,24)         -7.0506         estimate D2E/DX2                !
 ! D75   D(18,22,23,26)        173.3291         estimate D2E/DX2                !
 ! D76   D(28,22,23,24)       -178.6027         estimate D2E/DX2                !
 ! D77   D(28,22,23,26)          1.7769         estimate D2E/DX2                !
 ! D78   D(18,22,28,27)       -175.8347         estimate D2E/DX2                !
 ! D79   D(23,22,28,27)         -3.5282         estimate D2E/DX2                !
 ! D80   D(22,23,24,25)        178.6194         estimate D2E/DX2                !
 ! D81   D(26,23,24,25)         -1.8264         estimate D2E/DX2                !
 ! D82   D(22,23,26,27)          1.5576         estimate D2E/DX2                !
 ! D83   D(22,23,26,55)        177.016          estimate D2E/DX2                !
 ! D84   D(24,23,26,27)       -178.0208         estimate D2E/DX2                !
 ! D85   D(24,23,26,55)         -2.5623         estimate D2E/DX2                !
 ! D86   D(23,24,25,52)         63.5643         estimate D2E/DX2                !
 ! D87   D(23,24,25,53)        -57.8864         estimate D2E/DX2                !
 ! D88   D(23,24,25,54)        177.0091         estimate D2E/DX2                !
 ! D89   D(23,26,27,28)         -3.9151         estimate D2E/DX2                !
 ! D90   D(23,26,27,29)        176.8724         estimate D2E/DX2                !
 ! D91   D(55,26,27,28)       -179.8067         estimate D2E/DX2                !
 ! D92   D(55,26,27,29)          0.9808         estimate D2E/DX2                !
 ! D93   D(26,27,28,22)          4.172          estimate D2E/DX2                !
 ! D94   D(29,27,28,22)       -176.5706         estimate D2E/DX2                !
 ! D95   D(26,27,29,30)        -34.0188         estimate D2E/DX2                !
 ! D96   D(26,27,29,35)        142.1948         estimate D2E/DX2                !
 ! D97   D(28,27,29,30)        146.9101         estimate D2E/DX2                !
 ! D98   D(28,27,29,35)        -36.8763         estimate D2E/DX2                !
 ! D99   D(27,29,30,31)       -176.3625         estimate D2E/DX2                !
 ! D100  D(27,29,30,56)         -4.5462         estimate D2E/DX2                !
 ! D101  D(35,29,30,31)          7.2553         estimate D2E/DX2                !
 ! D102  D(35,29,30,56)        179.0716         estimate D2E/DX2                !
 ! D103  D(27,29,35,33)        178.4376         estimate D2E/DX2                !
 ! D104  D(27,29,35,57)          0.9361         estimate D2E/DX2                !
 ! D105  D(30,29,35,33)         -5.0557         estimate D2E/DX2                !
 ! D106  D(30,29,35,57)        177.4428         estimate D2E/DX2                !
 ! D107  D(29,30,31,32)         -7.1857         estimate D2E/DX2                !
 ! D108  D(56,30,31,32)       -179.7562         estimate D2E/DX2                !
 ! D109  D(30,31,32,33)          4.9679         estimate D2E/DX2                !
 ! D110  D(30,31,32,36)       -175.2893         estimate D2E/DX2                !
 ! D111  D(31,32,33,34)        179.8663         estimate D2E/DX2                !
 ! D112  D(31,32,33,35)         -3.7081         estimate D2E/DX2                !
 ! D113  D(36,32,33,34)          0.1613         estimate D2E/DX2                !
 ! D114  D(36,32,33,35)        176.587          estimate D2E/DX2                !
 ! D115  D(31,32,36,37)       -125.6707         estimate D2E/DX2                !
 ! D116  D(31,32,36,42)         56.3374         estimate D2E/DX2                !
 ! D117  D(33,32,36,37)         54.0529         estimate D2E/DX2                !
 ! D118  D(33,32,36,42)       -123.939          estimate D2E/DX2                !
 ! D119  D(32,33,35,29)          3.7259         estimate D2E/DX2                !
 ! D120  D(32,33,35,57)       -178.5995         estimate D2E/DX2                !
 ! D121  D(34,33,35,29)       -179.8196         estimate D2E/DX2                !
 ! D122  D(34,33,35,57)         -2.145          estimate D2E/DX2                !
 ! D123  D(32,36,37,38)         -2.8974         estimate D2E/DX2                !
 ! D124  D(32,36,37,40)       -176.067          estimate D2E/DX2                !
 ! D125  D(42,36,37,38)        175.2482         estimate D2E/DX2                !
 ! D126  D(42,36,37,40)          2.0786         estimate D2E/DX2                !
 ! D127  D(32,36,42,41)        177.0008         estimate D2E/DX2                !
 ! D128  D(37,36,42,41)         -1.2235         estimate D2E/DX2                !
 ! D129  D(36,37,38,39)       -177.3507         estimate D2E/DX2                !
 ! D130  D(40,37,38,39)         -6.1999         estimate D2E/DX2                !
 ! D131  D(36,37,40,41)         -2.1366         estimate D2E/DX2                !
 ! D132  D(36,37,40,61)        179.4485         estimate D2E/DX2                !
 ! D133  D(38,37,40,41)       -173.9146         estimate D2E/DX2                !
 ! D134  D(38,37,40,61)          7.6706         estimate D2E/DX2                !
 ! D135  D(37,38,39,58)       -178.9754         estimate D2E/DX2                !
 ! D136  D(37,38,39,59)         69.36           estimate D2E/DX2                !
 ! D137  D(37,38,39,60)        -64.4607         estimate D2E/DX2                !
 ! D138  D(37,40,41,42)          1.282          estimate D2E/DX2                !
 ! D139  D(37,40,41,62)       -171.1098         estimate D2E/DX2                !
 ! D140  D(61,40,41,42)        179.817          estimate D2E/DX2                !
 ! D141  D(61,40,41,62)          7.4252         estimate D2E/DX2                !
 ! D142  D(40,41,42,36)          0.0201         estimate D2E/DX2                !
 ! D143  D(62,41,42,36)        173.1108         estimate D2E/DX2                !
 --------------------------------------------------------------------------------
 Trust Radius=3.00D-01 FncErr=1.00D-07 GrdErr=1.00D-06 EigMax=2.50D+02 EigMin=1.00D-04
 Number of steps in this run=    328 maximum allowed number of steps=    372.
 GradGradGradGradGradGradGradGradGradGradGradGradGradGradGradGradGradGrad

 Leave Link  103 at Sat Jul 25 02:16:07 2020, MaxMem=  4026531840 cpu:               0.1 elap:               0.0
 (Enter /opt/ohpc/pub/libs/gaussian/g16-A.03/sandybridge/g16/l202.exe)
 Stoichiometry    C30H20F3N3O3S3
 Framework group  C1[X(C30H20F3N3O3S3)]
 Deg. of freedom   180
 Full point group                 C1      NOp   1
 Largest Abelian subgroup         C1      NOp   1
 Largest concise Abelian subgroup C1      NOp   1
                         Standard orientation:                         
 ---------------------------------------------------------------------
 Center     Atomic      Atomic             Coordinates (Angstroms)
 Number     Number       Type             X           Y           Z
 ---------------------------------------------------------------------
      1          6           0       11.328129   -0.591519   -0.198577
      2          6           0       10.477227   -1.196223    0.686679
      3          7           0        9.138021   -0.792961    0.738999
      4          6           0        8.728694    0.145560   -0.038589
      5          6           0        9.568062    0.895901   -0.880926
      6          9           0        9.100913    1.839714   -1.754528
      7          6           0       10.937042    0.478050   -0.995707
      8          6           0        7.256501    0.509520    0.099261
      9          6           0        6.740142    1.815533    0.284665
     10          8           0        7.508045    2.918498    0.421135
     11          6           0        6.764007    4.077638    0.617371
     12          6           0        5.260381    1.661607    0.358429
     13          6           0        4.815916    0.366594    0.184836
     14         16           0        6.066480   -0.696214   -0.051101
     15          6           0        3.410010   -0.010476    0.182316
     16          6           0        2.463595    0.633854   -0.557442
     17          7           0        1.108767    0.223511   -0.675206
     18          6           0        0.760162   -0.871166    0.116071
     19          6           0        1.687968   -1.575099    0.837139
     20          9           0        1.320833   -2.588759    1.647585
     21          6           0        3.026907   -1.198796    0.930299
     22          6           0       -0.641976   -1.179717   -0.070748
     23          6           0       -1.249168   -2.437804   -0.296616
     24          8           0       -0.430367   -3.570060   -0.510267
     25          6           0       -1.040819   -4.782186   -0.698091
     26          6           0       -2.593071   -2.373711   -0.283028
     27          6           0       -3.157076   -1.091824   -0.086117
     28         16           0       -1.810880   -0.036735    0.186176
     29          6           0       -4.502624   -0.700205   -0.082269
     30          6           0       -5.442067   -1.257887   -0.858627
     31          7           0       -6.788972   -0.883587   -0.970043
     32          6           0       -7.221085    0.101790   -0.050936
     33          6           0       -6.347906    0.683307    0.777092
     34          9           0       -6.778691    1.634284    1.656570
     35          6           0       -4.957353    0.270253    0.815748
     36          6           0       -8.640346    0.371430   -0.137581
     37          6           0       -9.234257    1.671696   -0.336045
     38          8           0       -8.410400    2.751652   -0.393476
     39          6           0       -9.178785    3.971907   -0.533623
     40          6           0      -10.604954    1.540493   -0.275697
     41          6           0      -11.083470    0.289454   -0.100856
     42         16           0       -9.780149   -0.845049    0.039069
     43          1           0       12.371106   -0.923157   -0.219203
     44          1           0       10.760979   -1.956162    1.343201
     45          1           0       11.542275    1.021852   -1.641810
     46          1           0        6.203465    4.289145   -0.286878
     47          1           0        7.539158    4.949259    0.670507
     48          1           0        6.235152    4.148902    1.535050
     49          1           0        4.623344    2.509607    0.474607
     50          1           0        2.747953    1.419781   -1.200847
     51          1           0        3.715202   -1.666238    1.571557
     52          1           0       -1.667295   -4.715870   -1.676604
     53          1           0       -1.648037   -5.012228    0.127038
     54          1           0       -0.295159   -5.555459   -0.903418
     55          1           0       -3.288046   -3.203621   -0.478413
     56          1           0       -5.181686   -2.051921   -1.640478
     57          1           0       -4.279780    0.806078    1.574724
     58          1           0       -8.389000    4.805431   -0.591126
     59          1           0       -9.698041    4.146376    0.374490
     60          1           0       -9.717117    4.002519   -1.467028
     61          1           0      -11.355581    2.392258   -0.386437
     62          1           0      -12.135253   -0.063054   -0.157886
 ---------------------------------------------------------------------
 Rotational constants (GHZ):           0.2090147           0.0173129           0.0163186
 Leave Link  202 at Sat Jul 25 02:16:07 2020, MaxMem=  4026531840 cpu:               0.3 elap:               0.1
 (Enter /opt/ohpc/pub/libs/gaussian/g16-A.03/sandybridge/g16/l301.exe)
 Standard basis: CC-pVDZ (5D, 7F)
 Ernie: Thresh=  0.10000D-02 Tol=  0.10000D-05 Strict=F.
 Ernie:  108 primitive shells out of 1108 were deleted.
 There are   742 symmetry adapted cartesian basis functions of A   symmetry.
 There are   700 symmetry adapted basis functions of A   symmetry.
   700 basis functions,  1640 primitive gaussians,   742 cartesian basis functions
   160 alpha electrons      160 beta electrons
       nuclear repulsion energy      4826.6614829707 Hartrees.
 IExCor=32609 DFT=T Ex+Corr=LC-wPBE ExCW=0 ScaHFX=  1.000000
 ScaDFX=  1.000000  0.000000  1.000000  1.000000 ScalE2=  1.000000  1.000000
 IRadAn=      5 IRanWt=     -1 IRanGd=            0 ICorTp=0 IEmpDi=  4
 HFx  wShort=  0.000000 wLong=  0.311400 cFull=  0.000000 cShort=  0.000000 cLong=  1.000000
 DFx  wShort=  0.000000 wLong=  0.311400 cFull=  0.000000 cShort=  0.000000 cLong=  1.000000
 NAtoms=   62 NActive=   62 NUniq=   62 SFac= 1.00D+00 NAtFMM=   60 NAOKFM=T Big=T
 Integral buffers will be    131072 words long.
 Raffenetti 2 integral format.
 Two-electron integral symmetry is turned on.
 Leave Link  301 at Sat Jul 25 02:16:07 2020, MaxMem=  4026531840 cpu:               0.6 elap:               0.1
 (Enter /opt/ohpc/pub/libs/gaussian/g16-A.03/sandybridge/g16/l302.exe)
 NPDir=0 NMtPBC=     1 NCelOv=     1 NCel=       1 NClECP=     1 NCelD=      1
         NCelK=      1 NCelE2=     1 NClLst=     1 CellRange=     0.0.
 One-electron integrals computed using PRISM.
 One-electron integral symmetry used in STVInt
 NBasis=   700 RedAO= T EigKep=  3.43D-04  NBF=   700
 NBsUse=   700 1.00D-06 EigRej= -1.00D+00 NBFU=   700
 Precomputing XC quadrature grid using
 IXCGrd= 4 IRadAn=           5 IRanWt=          -1 IRanGd=           0 AccXCQ= 0.00D+00.
 Generated NRdTot=       0 NPtTot=           0 NUsed=           0 NTot=          32
 NSgBfM=   629   629   629   629   629 MxSgAt=    62 MxSgA2=    62.
 Leave Link  302 at Sat Jul 25 02:16:08 2020, MaxMem=  4026531840 cpu:              13.3 elap:               1.7
 (Enter /opt/ohpc/pub/libs/gaussian/g16-A.03/sandybridge/g16/l303.exe)
 DipDrv:  MaxL=1.
 Leave Link  303 at Sat Jul 25 02:16:09 2020, MaxMem=  4026531840 cpu:               1.1 elap:               0.2
 (Enter /opt/ohpc/pub/libs/gaussian/g16-A.03/sandybridge/g16/l401.exe)
 ExpMin= 1.22D-01 ExpMax= 1.11D+05 ExpMxC= 1.07D+03 IAcc=3 IRadAn=         5 AccDes= 0.00D+00
 Harris functional with IExCor=32609 and IRadAn=       5 diagonalized for initial guess.
 HarFok:  IExCor=32609 AccDes= 0.00D+00 IRadAn=         5 IDoV= 1 UseB2=F ITyADJ=14
 ICtDFT=  3500011 ScaDFX=  1.000000  1.000000  1.000000  1.000000
 FoFCou: FMM=F IPFlag=           0 FMFlag=      100000 FMFlg1=        2001
         NFxFlg=           0 DoJE=T BraDBF=F KetDBF=T FulRan=T
         wScrn=  0.000000 ICntrl=       500 IOpCl=  0 I1Cent=   200000004 NGrid=           0
         NMat0=    1 NMatS0=      1 NMatT0=    0 NMatD0=    1 NMtDS0=    0 NMtDT0=    0
 Petite list used in FoFCou.
 Harris En= -3037.06547328135    
 JPrj=0 DoOrth=F DoCkMO=F.
 Initial guess <Sx>= 0.0000 <Sy>= 0.0000 <Sz>= 0.0000 <S**2>=-0.0000 S=-0.0000
 Leave Link  401 at Sat Jul 25 02:16:16 2020, MaxMem=  4026531840 cpu:              55.6 elap:               7.0
 (Enter /opt/ohpc/pub/libs/gaussian/g16-A.03/sandybridge/g16/l502.exe)
 Integral symmetry usage will be decided dynamically.
 UHF open shell SCF:
 Using DIIS extrapolation, IDIIS=  1040.
 NGot=  4026531840 LenX=  4025417212 LenY=  4024865906
 Requested convergence on RMS density matrix=1.00D-08 within 128 cycles.
 Requested convergence on MAX density matrix=1.00D-06.
 Requested convergence on             energy=1.00D-06.
 No special actions if energy rises.
 Fock matrices will be formed incrementally for  20 cycles.
 Integral accuracy reduced to 1.0D-05 until final iterations.

 Cycle   1  Pass 0  IDiag  1:
 FoFJK:  IHMeth= 1 ICntrl=       0 DoSepK=T KAlg= 0 I1Cent=           0 FoldK=F
 IRaf=         1 NMat=       1 IRICut=       1 DoRegI=T DoRafI=F ISym2E= 0 IDoP0=0 IntGTp=1.
 FoFCou: FMM=T IPFlag=           0 FMFlag=      100000 FMFlg1=        2001
         NFxFlg=           0 DoJE=T BraDBF=F KetDBF=F FulRan=T
         wScrn=  0.000000 ICntrl=       500 IOpCl=  0 I1Cent=           0 NGrid=           0
         NMat0=    1 NMatS0=      1 NMatT0=    0 NMatD0=    1 NMtDS0=    0 NMtDT0=    0
 Symmetry not used in FoFCou.
 FMM levels:  10  Number of levels for PrismC:   9
 E= -3036.70757732647    
 DIIS: error= 1.58D-02 at cycle   1 NSaved=   1.
 NSaved= 1 IEnMin= 1 EnMin= -3036.70757732647     IErMin= 1 ErrMin= 1.58D-02
 ErrMax= 1.58D-02  0.00D+00 EMaxC= 1.00D-01 BMatC= 2.52D+00 BMatP= 2.52D+00
 IDIUse=3 WtCom= 8.42D-01 WtEn= 1.58D-01
 Coeff-Com:  0.100D+01
 Coeff-En:   0.100D+01
 Coeff:      0.100D+01
 Gap=     0.263 Goal=   None    Shift=    0.000
 Gap=     0.263 Goal=   None    Shift=    0.000
 GapD=    0.263 DampG=1.000 DampE=0.500 DampFc=0.5000 IDamp=-1.
 Damping current iteration by 5.00D-01
 RMSDP=2.35D-03 MaxDP=1.47D-01              OVMax= 1.87D-01

 Cycle   2  Pass 0  IDiag  1:
 RMSU=  1.17D-03    CP:  9.91D-01
 E= -3037.06776081461     Delta-E=       -0.360183488145 Rises=F Damp=T
 DIIS: error= 3.40D-03 at cycle   2 NSaved=   2.
 NSaved= 2 IEnMin= 2 EnMin= -3037.06776081461     IErMin= 2 ErrMin= 3.40D-03
 ErrMax= 3.40D-03  0.00D+00 EMaxC= 1.00D-01 BMatC= 1.31D-01 BMatP= 2.52D+00
 IDIUse=3 WtCom= 9.66D-01 WtEn= 3.40D-02
 Coeff-Com: -0.665D-01 0.107D+01
 Coeff-En:   0.000D+00 0.100D+01
 Coeff:     -0.642D-01 0.106D+01
 Gap=     0.283 Goal=   None    Shift=    0.000
 Gap=     0.283 Goal=   None    Shift=    0.000
 RMSDP=7.07D-04 MaxDP=2.43D-02 DE=-3.60D-01 OVMax= 1.07D-01

 Cycle   3  Pass 0  IDiag  1:
 RMSU=  6.67D-04    CP:  9.86D-01  1.19D+00
 E= -3037.40593438723     Delta-E=       -0.338173572619 Rises=F Damp=F
 DIIS: error= 1.93D-03 at cycle   3 NSaved=   3.
 NSaved= 3 IEnMin= 3 EnMin= -3037.40593438723     IErMin= 3 ErrMin= 1.93D-03
 ErrMax= 1.93D-03  0.00D+00 EMaxC= 1.00D-01 BMatC= 4.63D-02 BMatP= 1.31D-01
 IDIUse=3 WtCom= 9.81D-01 WtEn= 1.93D-02
 Coeff-Com: -0.496D-01 0.385D+00 0.664D+00
 Coeff-En:   0.000D+00 0.000D+00 0.100D+01
 Coeff:     -0.487D-01 0.378D+00 0.671D+00
 Gap=     0.272 Goal=   None    Shift=    0.000
 Gap=     0.272 Goal=   None    Shift=    0.000
 RMSDP=2.35D-04 MaxDP=1.53D-02 DE=-3.38D-01 OVMax= 2.93D-02

 Cycle   4  Pass 0  IDiag  1:
 RMSU=  2.04D-04    CP:  9.86D-01  1.23D+00  8.42D-01
 E= -3037.41594952746     Delta-E=       -0.010015140230 Rises=F Damp=F
 DIIS: error= 1.01D-03 at cycle   4 NSaved=   4.
 NSaved= 4 IEnMin= 4 EnMin= -3037.41594952746     IErMin= 4 ErrMin= 1.01D-03
 ErrMax= 1.01D-03  0.00D+00 EMaxC= 1.00D-01 BMatC= 1.23D-02 BMatP= 4.63D-02
 IDIUse=3 WtCom= 9.90D-01 WtEn= 1.01D-02
 Coeff-Com: -0.852D-02 0.524D-01 0.341D+00 0.615D+00
 Coeff-En:   0.000D+00 0.000D+00 0.133D+00 0.867D+00
 Coeff:     -0.843D-02 0.519D-01 0.339D+00 0.618D+00
 Gap=     0.272 Goal=   None    Shift=    0.000
 Gap=     0.272 Goal=   None    Shift=    0.000
 RMSDP=9.70D-05 MaxDP=7.64D-03 DE=-1.00D-02 OVMax= 1.04D-02

 Cycle   5  Pass 0  IDiag  1:
 RMSU=  7.04D-05    CP:  9.86D-01  1.24D+00  9.20D-01  7.94D-01
 E= -3037.41912540966     Delta-E=       -0.003175882204 Rises=F Damp=F
 DIIS: error= 3.97D-04 at cycle   5 NSaved=   5.
 NSaved= 5 IEnMin= 5 EnMin= -3037.41912540966     IErMin= 5 ErrMin= 3.97D-04
 ErrMax= 3.97D-04  0.00D+00 EMaxC= 1.00D-01 BMatC= 1.12D-03 BMatP= 1.23D-02
 IDIUse=3 WtCom= 9.96D-01 WtEn= 3.97D-03
 Coeff-Com:  0.599D-02-0.295D-01 0.666D-01 0.260D+00 0.697D+00
 Coeff-En:   0.000D+00 0.000D+00 0.000D+00 0.000D+00 0.100D+01
 Coeff:      0.597D-02-0.293D-01 0.663D-01 0.259D+00 0.698D+00
 Gap=     0.274 Goal=   None    Shift=    0.000
 Gap=     0.274 Goal=   None    Shift=    0.000
 RMSDP=3.85D-05 MaxDP=2.24D-03 DE=-3.18D-03 OVMax= 5.82D-03

 Cycle   6  Pass 0  IDiag  1:
 RMSU=  2.94D-05    CP:  9.86D-01  1.23D+00  9.37D-01  8.99D-01  9.53D-01
 E= -3037.41952370513     Delta-E=       -0.000398295466 Rises=F Damp=F
 DIIS: error= 9.47D-05 at cycle   6 NSaved=   6.
 NSaved= 6 IEnMin= 6 EnMin= -3037.41952370513     IErMin= 6 ErrMin= 9.47D-05
 ErrMax= 9.47D-05  0.00D+00 EMaxC= 1.00D-01 BMatC= 1.69D-04 BMatP= 1.12D-03
 IDIUse=1 WtCom= 1.00D+00 WtEn= 0.00D+00
 Coeff-Com:  0.534D-02-0.236D-01-0.278D-01-0.317D-02 0.253D+00 0.796D+00
 Coeff:      0.534D-02-0.236D-01-0.278D-01-0.317D-02 0.253D+00 0.796D+00
 Gap=     0.274 Goal=   None    Shift=    0.000
 Gap=     0.274 Goal=   None    Shift=    0.000
 RMSDP=2.07D-05 MaxDP=1.35D-03 DE=-3.98D-04 OVMax= 3.24D-03

 Cycle   7  Pass 0  IDiag  1:
 RMSU=  1.30D-05    CP:  9.86D-01  1.23D+00  9.49D-01  9.31D-01  1.12D+00
                    CP:  1.10D+00
 E= -3037.41962326586     Delta-E=       -0.000099560727 Rises=F Damp=F
 DIIS: error= 7.44D-05 at cycle   7 NSaved=   7.
 NSaved= 7 IEnMin= 7 EnMin= -3037.41962326586     IErMin= 7 ErrMin= 7.44D-05
 ErrMax= 7.44D-05  0.00D+00 EMaxC= 1.00D-01 BMatC= 3.12D-05 BMatP= 1.69D-04
 IDIUse=1 WtCom= 1.00D+00 WtEn= 0.00D+00
 Coeff-Com:  0.120D-02-0.380D-02-0.191D-01-0.479D-01-0.537D-01 0.257D+00
 Coeff-Com:  0.866D+00
 Coeff:      0.120D-02-0.380D-02-0.191D-01-0.479D-01-0.537D-01 0.257D+00
 Coeff:      0.866D+00
 Gap=     0.275 Goal=   None    Shift=    0.000
 Gap=     0.275 Goal=   None    Shift=    0.000
 RMSDP=1.31D-05 MaxDP=6.93D-04 DE=-9.96D-05 OVMax= 1.89D-03

 Cycle   8  Pass 0  IDiag  1:
 RMSU=  8.26D-06    CP:  9.86D-01  1.23D+00  9.52D-01  9.50D-01  1.19D+00
                    CP:  1.36D+00  1.26D+00
 E= -3037.41964517204     Delta-E=       -0.000021906180 Rises=F Damp=F
 DIIS: error= 2.59D-05 at cycle   8 NSaved=   8.
 NSaved= 8 IEnMin= 8 EnMin= -3037.41964517204     IErMin= 8 ErrMin= 2.59D-05
 ErrMax= 2.59D-05  0.00D+00 EMaxC= 1.00D-01 BMatC= 8.13D-06 BMatP= 3.12D-05
 IDIUse=1 WtCom= 1.00D+00 WtEn= 0.00D+00
 Coeff-Com: -0.465D-03 0.299D-02-0.994D-03-0.189D-01-0.770D-01-0.571D-01
 Coeff-Com:  0.373D+00 0.778D+00
 Coeff:     -0.465D-03 0.299D-02-0.994D-03-0.189D-01-0.770D-01-0.571D-01
 Coeff:      0.373D+00 0.778D+00
 Gap=     0.275 Goal=   None    Shift=    0.000
 Gap=     0.275 Goal=   None    Shift=    0.000
 RMSDP=9.65D-06 MaxDP=3.06D-04 DE=-2.19D-05 OVMax= 9.43D-04

 Initial convergence to 1.0D-05 achieved.  Increase integral accuracy.
 Cycle   9  Pass 1  IDiag  1:
 E= -3037.41908577762     Delta-E=        0.000559394420 Rises=F Damp=F
 DIIS: error= 2.40D-04 at cycle   1 NSaved=   1.
 NSaved= 1 IEnMin= 1 EnMin= -3037.41908577762     IErMin= 1 ErrMin= 2.40D-04
 ErrMax= 2.40D-04  0.00D+00 EMaxC= 1.00D-01 BMatC= 1.07D-04 BMatP= 1.07D-04
 IDIUse=3 WtCom= 9.98D-01 WtEn= 2.40D-03
 Coeff-Com:  0.100D+01
 Coeff-En:   0.100D+01
 Coeff:      0.100D+01
 Gap=     0.275 Goal=   None    Shift=    0.000
 Gap=     0.275 Goal=   None    Shift=    0.000
 RMSDP=9.65D-06 MaxDP=3.06D-04 DE= 5.59D-04 OVMax= 5.69D-04

 Cycle  10  Pass 1  IDiag  1:
 RMSU=  1.42D-04    CP:  1.00D+00
 E= -3037.41910914871     Delta-E=       -0.000023371087 Rises=F Damp=F
 DIIS: error= 1.15D-05 at cycle   2 NSaved=   2.
 NSaved= 2 IEnMin= 2 EnMin= -3037.41910914871     IErMin= 2 ErrMin= 1.15D-05
 ErrMax= 1.15D-05  0.00D+00 EMaxC= 1.00D-01 BMatC= 1.32D-06 BMatP= 1.07D-04
 IDIUse=1 WtCom= 1.00D+00 WtEn= 0.00D+00
 Coeff-Com: -0.212D-01 0.102D+01
 Coeff:     -0.212D-01 0.102D+01
 Gap=     0.275 Goal=   None    Shift=    0.000
 Gap=     0.275 Goal=   None    Shift=    0.000
 RMSDP=7.88D-06 MaxDP=5.28D-04 DE=-2.34D-05 OVMax= 2.74D-04

 Cycle  11  Pass 1  IDiag  1:
 RMSU=  2.75D-06    CP:  1.00D+00  1.05D+00
 E= -3037.41910902600     Delta-E=        0.000000122710 Rises=F Damp=F
 DIIS: error= 1.45D-05 at cycle   3 NSaved=   3.
 NSaved= 3 IEnMin= 2 EnMin= -3037.41910914871     IErMin= 2 ErrMin= 1.15D-05
 ErrMax= 1.45D-05  0.00D+00 EMaxC= 1.00D-01 BMatC= 2.10D-06 BMatP= 1.32D-06
 IDIUse=1 WtCom= 1.00D+00 WtEn= 0.00D+00
 Coeff-Com: -0.233D-01 0.585D+00 0.439D+00
 Coeff:     -0.233D-01 0.585D+00 0.439D+00
 Gap=     0.275 Goal=   None    Shift=    0.000
 Gap=     0.275 Goal=   None    Shift=    0.000
 RMSDP=1.05D-06 MaxDP=8.59D-05 DE= 1.23D-07 OVMax= 1.19D-04

 Cycle  12  Pass 1  IDiag  1:
 RMSU=  8.91D-07    CP:  1.00D+00  1.05D+00  8.21D-01
 E= -3037.41910959023     Delta-E=       -0.000000564233 Rises=F Damp=F
 DIIS: error= 1.50D-06 at cycle   4 NSaved=   4.
 NSaved= 4 IEnMin= 4 EnMin= -3037.41910959023     IErMin= 4 ErrMin= 1.50D-06
 ErrMax= 1.50D-06  0.00D+00 EMaxC= 1.00D-01 BMatC= 2.25D-08 BMatP= 1.32D-06
 IDIUse=1 WtCom= 1.00D+00 WtEn= 0.00D+00
 Coeff-Com: -0.101D-02 0.813D-03 0.378D-01 0.962D+00
 Coeff:     -0.101D-02 0.813D-03 0.378D-01 0.962D+00
 Gap=     0.275 Goal=   None    Shift=    0.000
 Gap=     0.275 Goal=   None    Shift=    0.000
 RMSDP=3.56D-07 MaxDP=2.17D-05 DE=-5.64D-07 OVMax= 4.97D-05

 Cycle  13  Pass 1  IDiag  1:
 RMSU=  2.53D-07    CP:  1.00D+00  1.05D+00  8.88D-01  1.12D+00
 E= -3037.41910962027     Delta-E=       -0.000000030042 Rises=F Damp=F
 DIIS: error= 1.65D-06 at cycle   5 NSaved=   5.
 NSaved= 5 IEnMin= 5 EnMin= -3037.41910962027     IErMin= 4 ErrMin= 1.50D-06
 ErrMax= 1.65D-06  0.00D+00 EMaxC= 1.00D-01 BMatC= 1.02D-08 BMatP= 2.25D-08
 IDIUse=1 WtCom= 1.00D+00 WtEn= 0.00D+00
 Coeff-Com:  0.528D-02-0.143D+00-0.914D-01 0.422D+00 0.807D+00
 Coeff:      0.528D-02-0.143D+00-0.914D-01 0.422D+00 0.807D+00
 Gap=     0.275 Goal=   None    Shift=    0.000
 Gap=     0.275 Goal=   None    Shift=    0.000
 RMSDP=2.12D-07 MaxDP=1.21D-05 DE=-3.00D-08 OVMax= 4.01D-05

 Cycle  14  Pass 1  IDiag  1:
 RMSU=  1.33D-07    CP:  1.00D+00  1.06D+00  9.14D-01  1.23D+00  1.44D+00
 E= -3037.41910962831     Delta-E=       -0.000000008044 Rises=F Damp=F
 DIIS: error= 5.76D-07 at cycle   6 NSaved=   6.
 NSaved= 6 IEnMin= 6 EnMin= -3037.41910962831     IErMin= 6 ErrMin= 5.76D-07
 ErrMax= 5.76D-07  0.00D+00 EMaxC= 1.00D-01 BMatC= 1.94D-09 BMatP= 1.02D-08
 IDIUse=1 WtCom= 1.00D+00 WtEn= 0.00D+00
 Coeff-Com:  0.189D-02-0.458D-01-0.374D-01-0.823D-01 0.288D+00 0.876D+00
 Coeff:      0.189D-02-0.458D-01-0.374D-01-0.823D-01 0.288D+00 0.876D+00
 Gap=     0.275 Goal=   None    Shift=    0.000
 Gap=     0.275 Goal=   None    Shift=    0.000
 RMSDP=1.03D-07 MaxDP=6.58D-06 DE=-8.04D-09 OVMax= 1.87D-05

 Cycle  15  Pass 1  IDiag  1:
 RMSU=  4.53D-08    CP:  1.00D+00  1.05D+00  9.19D-01  1.25D+00  1.78D+00
                    CP:  1.16D+00
 E= -3037.41910968229     Delta-E=       -0.000000053976 Rises=F Damp=F
 DIIS: error= 2.94D-07 at cycle   7 NSaved=   7.
 NSaved= 7 IEnMin= 7 EnMin= -3037.41910968229     IErMin= 7 ErrMin= 2.94D-07
 ErrMax= 2.94D-07  0.00D+00 EMaxC= 1.00D-01 BMatC= 4.92D-10 BMatP= 1.94D-09
 IDIUse=1 WtCom= 1.00D+00 WtEn= 0.00D+00
 Coeff-Com: -0.244D-03 0.944D-02 0.180D-02-0.140D+00-0.323D-01 0.443D+00
 Coeff-Com:  0.718D+00
 Coeff:     -0.244D-03 0.944D-02 0.180D-02-0.140D+00-0.323D-01 0.443D+00
 Coeff:      0.718D+00
 Gap=     0.275 Goal=   None    Shift=    0.000
 Gap=     0.275 Goal=   None    Shift=    0.000
 RMSDP=4.33D-08 MaxDP=2.88D-06 DE=-5.40D-08 OVMax= 8.01D-06

 Cycle  16  Pass 1  IDiag  1:
 RMSU=  1.75D-08    CP:  1.00D+00  1.05D+00  9.19D-01  1.25D+00  1.89D+00
                    CP:  1.34D+00  9.65D-01
 E= -3037.41910968267     Delta-E=       -0.000000000377 Rises=F Damp=F
 DIIS: error= 5.30D-08 at cycle   8 NSaved=   8.
 NSaved= 8 IEnMin= 8 EnMin= -3037.41910968267     IErMin= 8 ErrMin= 5.30D-08
 ErrMax= 5.30D-08  0.00D+00 EMaxC= 1.00D-01 BMatC= 3.98D-11 BMatP= 4.92D-10
 IDIUse=1 WtCom= 1.00D+00 WtEn= 0.00D+00
 Coeff-Com: -0.243D-03 0.757D-02 0.332D-02-0.630D-01-0.364D-01 0.149D+00
 Coeff-Com:  0.342D+00 0.597D+00
 Coeff:     -0.243D-03 0.757D-02 0.332D-02-0.630D-01-0.364D-01 0.149D+00
 Coeff:      0.342D+00 0.597D+00
 Gap=     0.275 Goal=   None    Shift=    0.000
 Gap=     0.275 Goal=   None    Shift=    0.000
 RMSDP=8.61D-09 MaxDP=4.71D-07 DE=-3.77D-10 OVMax= 1.05D-06

 SCF Done:  E(ULC-wPBE) =  -3037.41910968     A.U. after   16 cycles
            NFock= 16  Conv=0.86D-08     -V/T= 2.0047
 <Sx>= 0.0000 <Sy>= 0.0000 <Sz>= 0.0000 <S**2>=-0.0000 S=-0.0000
 <L.S>= 0.000000000000E+00
 KE= 3.023287336440D+03 PE=-1.680016296713D+04 EE= 5.912795038034D+03
 Annihilation of the first spin contaminant:
 S**2 before annihilation    -0.0000,   after    -0.0000
 Leave Link  502 at Sat Jul 25 02:22:48 2020, MaxMem=  4026531840 cpu:            3064.8 elap:             391.8
 (Enter /opt/ohpc/pub/libs/gaussian/g16-A.03/sandybridge/g16/l601.exe)
 Copying SCF densities to generalized density rwf, IOpCl= 1 IROHF=0.

 **********************************************************************

            Population analysis using the SCF density.

 **********************************************************************

 Orbital symmetries:
 Alpha Orbitals:
       Occupied  (A) (A) (A) (A) (A) (A) (A) (A) (A) (A) (A) (A)
                 (A) (A) (A) (A) (A) (A) (A) (A) (A) (A) (A) (A)
                 (A) (A) (A) (A) (A) (A) (A) (A) (A) (A) (A) (A)
                 (A) (A) (A) (A) (A) (A) (A) (A) (A) (A) (A) (A)
                 (A) (A) (A) (A) (A) (A) (A) (A) (A) (A) (A) (A)
                 (A) (A) (A) (A) (A) (A) (A) (A) (A) (A) (A) (A)
                 (A) (A) (A) (A) (A) (A) (A) (A) (A) (A) (A) (A)
                 (A) (A) (A) (A) (A) (A) (A) (A) (A) (A) (A) (A)
                 (A) (A) (A) (A) (A) (A) (A) (A) (A) (A) (A) (A)
                 (A) (A) (A) (A) (A) (A) (A) (A) (A) (A) (A) (A)
                 (A) (A) (A) (A) (A) (A) (A) (A) (A) (A) (A) (A)
                 (A) (A) (A) (A) (A) (A) (A) (A) (A) (A) (A) (A)
                 (A) (A) (A) (A) (A) (A) (A) (A) (A) (A) (A) (A)
                 (A) (A) (A) (A)
       Virtual   (A) (A) (A) (A) (A) (A) (A) (A) (A) (A) (A) (A)
                 (A) (A) (A) (A) (A) (A) (A) (A) (A) (A) (A) (A)
                 (A) (A) (A) (A) (A) (A) (A) (A) (A) (A) (A) (A)
                 (A) (A) (A) (A) (A) (A) (A) (A) (A) (A) (A) (A)
                 (A) (A) (A) (A) (A) (A) (A) (A) (A) (A) (A) (A)
                 (A) (A) (A) (A) (A) (A) (A) (A) (A) (A) (A) (A)
                 (A) (A) (A) (A) (A) (A) (A) (A) (A) (A) (A) (A)
                 (A) (A) (A) (A) (A) (A) (A) (A) (A) (A) (A) (A)
                 (A) (A) (A) (A) (A) (A) (A) (A) (A) (A) (A) (A)
                 (A) (A) (A) (A) (A) (A) (A) (A) (A) (A) (A) (A)
                 (A) (A) (A) (A) (A) (A) (A) (A) (A) (A) (A) (A)
                 (A) (A) (A) (A) (A) (A) (A) (A) (A) (A) (A) (A)
                 (A) (A) (A) (A) (A) (A) (A) (A) (A) (A) (A) (A)
                 (A) (A) (A) (A) (A) (A) (A) (A) (A) (A) (A) (A)
                 (A) (A) (A) (A) (A) (A) (A) (A) (A) (A) (A) (A)
                 (A) (A) (A) (A) (A) (A) (A) (A) (A) (A) (A) (A)
                 (A) (A) (A) (A) (A) (A) (A) (A) (A) (A) (A) (A)
                 (A) (A) (A) (A) (A) (A) (A) (A) (A) (A) (A) (A)
                 (A) (A) (A) (A) (A) (A) (A) (A) (A) (A) (A) (A)
                 (A) (A) (A) (A) (A) (A) (A) (A) (A) (A) (A) (A)
                 (A) (A) (A) (A) (A) (A) (A) (A) (A) (A) (A) (A)
                 (A) (A) (A) (A) (A) (A) (A) (A) (A) (A) (A) (A)
                 (A) (A) (A) (A) (A) (A) (A) (A) (A) (A) (A) (A)
                 (A) (A) (A) (A) (A) (A) (A) (A) (A) (A) (A) (A)
                 (A) (A) (A) (A) (A) (A) (A) (A) (A) (A) (A) (A)
                 (A) (A) (A) (A) (A) (A) (A) (A) (A) (A) (A) (A)
                 (A) (A) (A) (A) (A) (A) (A) (A) (A) (A) (A) (A)
                 (A) (A) (A) (A) (A) (A) (A) (A) (A) (A) (A) (A)
                 (A) (A) (A) (A) (A) (A) (A) (A) (A) (A) (A) (A)
                 (A) (A) (A) (A) (A) (A) (A) (A) (A) (A) (A) (A)
                 (A) (A) (A) (A) (A) (A) (A) (A) (A) (A) (A) (A)
                 (A) (A) (A) (A) (A) (A) (A) (A) (A) (A) (A) (A)
                 (A) (A) (A) (A) (A) (A) (A) (A) (A) (A) (A) (A)
                 (A) (A) (A) (A) (A) (A) (A) (A) (A) (A) (A) (A)
                 (A) (A) (A) (A) (A) (A) (A) (A) (A) (A) (A) (A)
                 (A) (A) (A) (A) (A) (A) (A) (A) (A) (A) (A) (A)
                 (A) (A) (A) (A) (A) (A) (A) (A) (A) (A) (A) (A)
                 (A) (A) (A) (A) (A) (A) (A) (A) (A) (A) (A) (A)
                 (A) (A) (A) (A) (A) (A) (A) (A) (A) (A) (A) (A)
                 (A) (A) (A) (A) (A) (A) (A) (A) (A) (A) (A) (A)
                 (A) (A) (A) (A) (A) (A) (A) (A) (A) (A) (A) (A)
                 (A) (A) (A) (A) (A) (A) (A) (A) (A) (A) (A) (A)
                 (A) (A) (A) (A) (A) (A) (A) (A) (A) (A) (A) (A)
                 (A) (A) (A) (A) (A) (A) (A) (A) (A) (A) (A) (A)
                 (A) (A) (A) (A) (A) (A) (A) (A) (A) (A) (A) (A)
 Beta  Orbitals:
       Occupied  (A) (A) (A) (A) (A) (A) (A) (A) (A) (A) (A) (A)
                 (A) (A) (A) (A) (A) (A) (A) (A) (A) (A) (A) (A)
                 (A) (A) (A) (A) (A) (A) (A) (A) (A) (A) (A) (A)
                 (A) (A) (A) (A) (A) (A) (A) (A) (A) (A) (A) (A)
                 (A) (A) (A) (A) (A) (A) (A) (A) (A) (A) (A) (A)
                 (A) (A) (A) (A) (A) (A) (A) (A) (A) (A) (A) (A)
                 (A) (A) (A) (A) (A) (A) (A) (A) (A) (A) (A) (A)
                 (A) (A) (A) (A) (A) (A) (A) (A) (A) (A) (A) (A)
                 (A) (A) (A) (A) (A) (A) (A) (A) (A) (A) (A) (A)
                 (A) (A) (A) (A) (A) (A) (A) (A) (A) (A) (A) (A)
                 (A) (A) (A) (A) (A) (A) (A) (A) (A) (A) (A) (A)
                 (A) (A) (A) (A) (A) (A) (A) (A) (A) (A) (A) (A)
                 (A) (A) (A) (A) (A) (A) (A) (A) (A) (A) (A) (A)
                 (A) (A) (A) (A)
       Virtual   (A) (A) (A) (A) (A) (A) (A) (A) (A) (A) (A) (A)
                 (A) (A) (A) (A) (A) (A) (A) (A) (A) (A) (A) (A)
                 (A) (A) (A) (A) (A) (A) (A) (A) (A) (A) (A) (A)
                 (A) (A) (A) (A) (A) (A) (A) (A) (A) (A) (A) (A)
                 (A) (A) (A) (A) (A) (A) (A) (A) (A) (A) (A) (A)
                 (A) (A) (A) (A) (A) (A) (A) (A) (A) (A) (A) (A)
                 (A) (A) (A) (A) (A) (A) (A) (A) (A) (A) (A) (A)
                 (A) (A) (A) (A) (A) (A) (A) (A) (A) (A) (A) (A)
                 (A) (A) (A) (A) (A) (A) (A) (A) (A) (A) (A) (A)
                 (A) (A) (A) (A) (A) (A) (A) (A) (A) (A) (A) (A)
                 (A) (A) (A) (A) (A) (A) (A) (A) (A) (A) (A) (A)
                 (A) (A) (A) (A) (A) (A) (A) (A) (A) (A) (A) (A)
                 (A) (A) (A) (A) (A) (A) (A) (A) (A) (A) (A) (A)
                 (A) (A) (A) (A) (A) (A) (A) (A) (A) (A) (A) (A)
                 (A) (A) (A) (A) (A) (A) (A) (A) (A) (A) (A) (A)
                 (A) (A) (A) (A) (A) (A) (A) (A) (A) (A) (A) (A)
                 (A) (A) (A) (A) (A) (A) (A) (A) (A) (A) (A) (A)
                 (A) (A) (A) (A) (A) (A) (A) (A) (A) (A) (A) (A)
                 (A) (A) (A) (A) (A) (A) (A) (A) (A) (A) (A) (A)
                 (A) (A) (A) (A) (A) (A) (A) (A) (A) (A) (A) (A)
                 (A) (A) (A) (A) (A) (A) (A) (A) (A) (A) (A) (A)
                 (A) (A) (A) (A) (A) (A) (A) (A) (A) (A) (A) (A)
                 (A) (A) (A) (A) (A) (A) (A) (A) (A) (A) (A) (A)
                 (A) (A) (A) (A) (A) (A) (A) (A) (A) (A) (A) (A)
                 (A) (A) (A) (A) (A) (A) (A) (A) (A) (A) (A) (A)
                 (A) (A) (A) (A) (A) (A) (A) (A) (A) (A) (A) (A)
                 (A) (A) (A) (A) (A) (A) (A) (A) (A) (A) (A) (A)
                 (A) (A) (A) (A) (A) (A) (A) (A) (A) (A) (A) (A)
                 (A) (A) (A) (A) (A) (A) (A) (A) (A) (A) (A) (A)
                 (A) (A) (A) (A) (A) (A) (A) (A) (A) (A) (A) (A)
                 (A) (A) (A) (A) (A) (A) (A) (A) (A) (A) (A) (A)
                 (A) (A) (A) (A) (A) (A) (A) (A) (A) (A) (A) (A)
                 (A) (A) (A) (A) (A) (A) (A) (A) (A) (A) (A) (A)
                 (A) (A) (A) (A) (A) (A) (A) (A) (A) (A) (A) (A)
                 (A) (A) (A) (A) (A) (A) (A) (A) (A) (A) (A) (A)
                 (A) (A) (A) (A) (A) (A) (A) (A) (A) (A) (A) (A)
                 (A) (A) (A) (A) (A) (A) (A) (A) (A) (A) (A) (A)
                 (A) (A) (A) (A) (A) (A) (A) (A) (A) (A) (A) (A)
                 (A) (A) (A) (A) (A) (A) (A) (A) (A) (A) (A) (A)
                 (A) (A) (A) (A) (A) (A) (A) (A) (A) (A) (A) (A)
                 (A) (A) (A) (A) (A) (A) (A) (A) (A) (A) (A) (A)
                 (A) (A) (A) (A) (A) (A) (A) (A) (A) (A) (A) (A)
                 (A) (A) (A) (A) (A) (A) (A) (A) (A) (A) (A) (A)
                 (A) (A) (A) (A) (A) (A) (A) (A) (A) (A) (A) (A)
                 (A) (A) (A) (A) (A) (A) (A) (A) (A) (A) (A) (A)
 The electronic state is 1-A.
 Alpha  occ. eigenvalues --  -88.28070 -88.27748 -88.27045 -24.46391 -24.45849
 Alpha  occ. eigenvalues --  -24.45393 -18.98245 -18.97091 -18.96265 -14.19093
 Alpha  occ. eigenvalues --  -14.18332 -14.17758 -10.17291 -10.16965 -10.16393
 Alpha  occ. eigenvalues --  -10.14622 -10.13620 -10.13202 -10.13079 -10.13064
 Alpha  occ. eigenvalues --  -10.13045 -10.12615 -10.11971 -10.11907 -10.11507
 Alpha  occ. eigenvalues --  -10.11363 -10.11211 -10.11178 -10.11130 -10.11084
 Alpha  occ. eigenvalues --  -10.11054 -10.10419 -10.10371 -10.10345 -10.10284
 Alpha  occ. eigenvalues --  -10.10165 -10.09923 -10.09512 -10.09158 -10.08430
 Alpha  occ. eigenvalues --  -10.08150 -10.07725  -7.88712  -7.88463  -7.87629
 Alpha  occ. eigenvalues --   -5.90478  -5.90254  -5.89962  -5.89735  -5.89675
 Alpha  occ. eigenvalues --   -5.89401  -5.89362  -5.88914  -5.88575  -1.30185
 Alpha  occ. eigenvalues --   -1.29698  -1.29012  -1.17911  -1.15529  -1.15299
 Alpha  occ. eigenvalues --   -1.05814  -1.04295  -1.03669  -1.01167  -1.00298
 Alpha  occ. eigenvalues --   -0.99062  -0.93838  -0.92632  -0.91743  -0.89468
 Alpha  occ. eigenvalues --   -0.88902  -0.88467  -0.86399  -0.86056  -0.85597
 Alpha  occ. eigenvalues --   -0.84933  -0.83928  -0.82597  -0.80090  -0.79666
 Alpha  occ. eigenvalues --   -0.78260  -0.76981  -0.75858  -0.75619  -0.74584
 Alpha  occ. eigenvalues --   -0.73286  -0.72071  -0.68293  -0.67638  -0.67138
 Alpha  occ. eigenvalues --   -0.67005  -0.66860  -0.65527  -0.65432  -0.64937
 Alpha  occ. eigenvalues --   -0.63620  -0.63242  -0.62210  -0.61781  -0.61486
 Alpha  occ. eigenvalues --   -0.61002  -0.60855  -0.59908  -0.59249  -0.58713
 Alpha  occ. eigenvalues --   -0.58282  -0.57816  -0.57527  -0.57226  -0.57120
 Alpha  occ. eigenvalues --   -0.56642  -0.55904  -0.55760  -0.54502  -0.54384
 Alpha  occ. eigenvalues --   -0.53352  -0.53231  -0.52766  -0.52357  -0.52157
 Alpha  occ. eigenvalues --   -0.51597  -0.51438  -0.51374  -0.50851  -0.50502
 Alpha  occ. eigenvalues --   -0.50117  -0.49907  -0.49685  -0.48921  -0.48245
 Alpha  occ. eigenvalues --   -0.48150  -0.47911  -0.47152  -0.46769  -0.46526
 Alpha  occ. eigenvalues --   -0.45785  -0.44671  -0.44007  -0.43704  -0.43560
 Alpha  occ. eigenvalues --   -0.43362  -0.43115  -0.42654  -0.42461  -0.41351
 Alpha  occ. eigenvalues --   -0.39970  -0.39548  -0.37831  -0.37386  -0.36731
 Alpha  occ. eigenvalues --   -0.36261  -0.35818  -0.35786  -0.35045  -0.33980
 Alpha  occ. eigenvalues --   -0.33346  -0.32854  -0.30215  -0.29272  -0.28074
 Alpha virt. eigenvalues --   -0.00597   0.01570   0.02872   0.03613   0.04072
 Alpha virt. eigenvalues --    0.05410   0.06584   0.08550   0.10358   0.12664
 Alpha virt. eigenvalues --    0.12937   0.13162   0.14039   0.14509   0.14829
 Alpha virt. eigenvalues --    0.14867   0.15135   0.15544   0.16083   0.16549
 Alpha virt. eigenvalues --    0.16914   0.17545   0.17901   0.18196   0.18935
 Alpha virt. eigenvalues --    0.19267   0.19682   0.19882   0.20036   0.20248
 Alpha virt. eigenvalues --    0.20593   0.20854   0.21262   0.21657   0.21831
 Alpha virt. eigenvalues --    0.21917   0.22121   0.22324   0.22607   0.22948
 Alpha virt. eigenvalues --    0.23113   0.23478   0.24010   0.25143   0.25512
 Alpha virt. eigenvalues --    0.26268   0.26813   0.28713   0.29957   0.30431
 Alpha virt. eigenvalues --    0.31118   0.31817   0.32868   0.33160   0.33888
 Alpha virt. eigenvalues --    0.34102   0.34483   0.35067   0.35468   0.36464
 Alpha virt. eigenvalues --    0.37381   0.38406   0.39251   0.40153   0.41473
 Alpha virt. eigenvalues --    0.42298   0.42549   0.43041   0.43590   0.44196
 Alpha virt. eigenvalues --    0.44482   0.44731   0.45195   0.45721   0.45961
 Alpha virt. eigenvalues --    0.46688   0.48726   0.49444   0.49995   0.50173
 Alpha virt. eigenvalues --    0.50718   0.51192   0.51694   0.52507   0.52863
 Alpha virt. eigenvalues --    0.53072   0.53443   0.53639   0.53853   0.54138
 Alpha virt. eigenvalues --    0.54249   0.54566   0.54901   0.54983   0.55143
 Alpha virt. eigenvalues --    0.55596   0.55763   0.55807   0.55933   0.56206
 Alpha virt. eigenvalues --    0.56312   0.56631   0.56961   0.57090   0.57234
 Alpha virt. eigenvalues --    0.57337   0.57783   0.58107   0.58218   0.58424
 Alpha virt. eigenvalues --    0.58634   0.58996   0.59067   0.59236   0.59671
 Alpha virt. eigenvalues --    0.60008   0.60156   0.60718   0.60898   0.60990
 Alpha virt. eigenvalues --    0.61160   0.61379   0.61450   0.61872   0.62164
 Alpha virt. eigenvalues --    0.62597   0.62759   0.63343   0.63437   0.63773
 Alpha virt. eigenvalues --    0.64170   0.64450   0.65102   0.65402   0.65824
 Alpha virt. eigenvalues --    0.66025   0.66449   0.67110   0.67448   0.67846
 Alpha virt. eigenvalues --    0.68959   0.69167   0.69461   0.70280   0.70608
 Alpha virt. eigenvalues --    0.70794   0.70940   0.71032   0.71091   0.71506
 Alpha virt. eigenvalues --    0.71882   0.72473   0.72648   0.72929   0.73305
 Alpha virt. eigenvalues --    0.73354   0.73452   0.74018   0.74220   0.74618
 Alpha virt. eigenvalues --    0.75025   0.75539   0.75719   0.76305   0.76555
 Alpha virt. eigenvalues --    0.76638   0.76726   0.77190   0.77834   0.77961
 Alpha virt. eigenvalues --    0.78133   0.78556   0.79062   0.79096   0.79449
 Alpha virt. eigenvalues --    0.79711   0.80932   0.81195   0.82010   0.82695
 Alpha virt. eigenvalues --    0.82929   0.83277   0.84557   0.84946   0.85202
 Alpha virt. eigenvalues --    0.85808   0.86616   0.87538   0.87755   0.88494
 Alpha virt. eigenvalues --    0.89303   0.89926   0.90689   0.90883   0.91361
 Alpha virt. eigenvalues --    0.92373   0.93237   0.93903   0.94545   0.94983
 Alpha virt. eigenvalues --    0.95069   0.95338   0.96204   0.96606   0.97401
 Alpha virt. eigenvalues --    0.97974   0.98087   0.98514   0.98949   0.99109
 Alpha virt. eigenvalues --    0.99336   0.99507   0.99922   1.00549   1.01496
 Alpha virt. eigenvalues --    1.01713   1.02038   1.02844   1.03118   1.03471
 Alpha virt. eigenvalues --    1.03622   1.04374   1.04545   1.04905   1.05223
 Alpha virt. eigenvalues --    1.05557   1.05681   1.06896   1.07488   1.07931
 Alpha virt. eigenvalues --    1.08177   1.08444   1.08719   1.09118   1.09376
 Alpha virt. eigenvalues --    1.10366   1.10776   1.11187   1.11673   1.12162
 Alpha virt. eigenvalues --    1.12920   1.13239   1.14026   1.14526   1.14959
 Alpha virt. eigenvalues --    1.15523   1.15608   1.16054   1.17033   1.17868
 Alpha virt. eigenvalues --    1.18656   1.18809   1.19137   1.19488   1.20473
 Alpha virt. eigenvalues --    1.21233   1.22127   1.22495   1.23637   1.24283
 Alpha virt. eigenvalues --    1.24498   1.24789   1.25063   1.25356   1.25777
 Alpha virt. eigenvalues --    1.26146   1.26528   1.27389   1.27843   1.28272
 Alpha virt. eigenvalues --    1.28383   1.29305   1.29480   1.30714   1.31480
 Alpha virt. eigenvalues --    1.31771   1.32087   1.33154   1.34243   1.34877
 Alpha virt. eigenvalues --    1.35446   1.36096   1.36788   1.37187   1.38933
 Alpha virt. eigenvalues --    1.39174   1.40030   1.40659   1.41425   1.42548
 Alpha virt. eigenvalues --    1.42914   1.43200   1.43591   1.44706   1.44883
 Alpha virt. eigenvalues --    1.45392   1.45927   1.46494   1.46678   1.46865
 Alpha virt. eigenvalues --    1.47331   1.47503   1.47679   1.47914   1.48116
 Alpha virt. eigenvalues --    1.48901   1.50231   1.51082   1.51946   1.52282
 Alpha virt. eigenvalues --    1.52893   1.53852   1.54214   1.54635   1.55508
 Alpha virt. eigenvalues --    1.56039   1.56385   1.57274   1.57418   1.57882
[...]
    61   Atom       -0.000000      0.000000     -0.000000
    62   Atom       -0.000000     -0.000000     -0.000000
 --------------------------------------------------------


 ---------------------------------------------------------------------------------
              Anisotropic Spin Dipole Couplings in Principal Axis System
 ---------------------------------------------------------------------------------

       Atom             a.u.   MegaHertz   Gauss  10(-4) cm-1        Axes

              Baa    -0.0000    -0.000    -0.000    -0.000 -0.3076  0.7483 -0.5877
     1 C(13)  Bbb     0.0000     0.000     0.000     0.000  0.8439 -0.0708 -0.5318
              Bcc     0.0000     0.000     0.000     0.000  0.4395  0.6595  0.6098
 
              Baa    -0.0000    -0.000    -0.000    -0.000 -0.3673 -0.0339  0.9295
     2 C(13)  Bbb    -0.0000    -0.000    -0.000    -0.000  0.3779  0.9077  0.1825
              Bcc     0.0000     0.000     0.000     0.000  0.8499 -0.4183  0.3205
 
              Baa    -0.0000    -0.000    -0.000    -0.000  0.0357  0.7691 -0.6381
     3 N(14)  Bbb    -0.0000    -0.000    -0.000    -0.000 -0.2323  0.6274  0.7433
              Bcc     0.0000     0.000     0.000     0.000  0.9720  0.1216  0.2010
 
              Baa    -0.0000    -0.000    -0.000    -0.000  0.5970  0.5609 -0.5736
     4 C(13)  Bbb     0.0000     0.000     0.000     0.000  0.2232  0.5706  0.7903
              Bcc     0.0000     0.000     0.000     0.000  0.7706 -0.5998  0.2154
 
              Baa    -0.0000    -0.000    -0.000    -0.000 -0.5009  0.7946 -0.3430
     5 C(13)  Bbb    -0.0000    -0.000    -0.000    -0.000  0.8504  0.3781 -0.3659
              Bcc     0.0000     0.000     0.000     0.000  0.1610  0.4750  0.8651
 
              Baa    -0.0000    -0.000    -0.000    -0.000  0.7908  0.5925 -0.1535
     6 F(19)  Bbb    -0.0000    -0.000    -0.000    -0.000  0.2416 -0.0717  0.9677
              Bcc     0.0000     0.000     0.000     0.000 -0.5624  0.8024  0.1999
 
              Baa    -0.0000    -0.000    -0.000    -0.000 -0.1305  0.3547  0.9258
     7 C(13)  Bbb    -0.0000    -0.000    -0.000    -0.000  0.9672 -0.1595  0.1975
              Bcc     0.0000     0.000     0.000     0.000  0.2178  0.9213 -0.3223
 
              Baa    -0.0000    -0.000    -0.000    -0.000  0.9413 -0.3368 -0.0199
     8 C(13)  Bbb     0.0000     0.000     0.000     0.000  0.3321  0.9143  0.2321
              Bcc     0.0000     0.000     0.000     0.000 -0.0600 -0.2251  0.9725
 
              Baa    -0.0000    -0.000    -0.000    -0.000  0.1561 -0.2643  0.9517
     9 C(13)  Bbb    -0.0000    -0.000    -0.000    -0.000 -0.5760  0.7584  0.3051
              Bcc     0.0000     0.000     0.000     0.000  0.8024  0.5958  0.0339
 
              Baa    -0.0000     0.000     0.000     0.000  0.8845 -0.4665 -0.0051
    10 O(17)  Bbb    -0.0000     0.000     0.000     0.000 -0.1034 -0.2067  0.9729
              Bcc     0.0000    -0.000    -0.000    -0.000  0.4549  0.8600  0.2311
 
              Baa    -0.0000    -0.000    -0.000    -0.000  0.8448 -0.5337  0.0399
    11 C(13)  Bbb     0.0000     0.000     0.000     0.000 -0.0611 -0.0222  0.9979
              Bcc     0.0000     0.000     0.000     0.000  0.5316  0.8454  0.0514
 
              Baa    -0.0000    -0.000    -0.000    -0.000  0.3011  0.9535  0.0137
    12 C(13)  Bbb    -0.0000    -0.000    -0.000    -0.000 -0.0285 -0.0053  0.9996
              Bcc     0.0000     0.000     0.000     0.000  0.9532 -0.3014  0.0256
 
              Baa    -0.0000    -0.000    -0.000    -0.000  0.3473  0.9369  0.0394
    13 C(13)  Bbb     0.0000     0.000     0.000     0.000 -0.2444  0.0499  0.9684
              Bcc     0.0000     0.000     0.000     0.000  0.9053 -0.3460  0.2463
 
              Baa    -0.0000    -0.000    -0.000    -0.000 -0.4591  0.8878 -0.0321
    14 S(33)  Bbb     0.0000     0.000     0.000     0.000  0.7155  0.3481 -0.6057
              Bcc     0.0000     0.000     0.000     0.000  0.5266  0.3011  0.7950
 
              Baa    -0.0000    -0.000    -0.000    -0.000  0.4335  0.6579 -0.6159
    15 C(13)  Bbb    -0.0000    -0.000    -0.000    -0.000 -0.2845  0.7484  0.5992
              Bcc     0.0000     0.000     0.000     0.000  0.8551 -0.0845  0.5116
 
              Baa    -0.0000    -0.000    -0.000    -0.000 -0.1959  0.3932  0.8983
    16 C(13)  Bbb    -0.0000    -0.000    -0.000    -0.000  0.6456  0.7413 -0.1837
              Bcc     0.0000     0.000     0.000     0.000  0.7381 -0.5440  0.3991
 
              Baa    -0.0000    -0.000    -0.000    -0.000 -0.3651  0.7347  0.5718
    17 N(14)  Bbb    -0.0000    -0.000    -0.000    -0.000  0.3513 -0.4600  0.8154
              Bcc     0.0000     0.000     0.000     0.000  0.8621  0.4986 -0.0901
 
              Baa    -0.0000    -0.000    -0.000    -0.000  0.5173 -0.0013  0.8558
    18 C(13)  Bbb    -0.0000    -0.000    -0.000    -0.000 -0.6077  0.7036  0.3684
              Bcc     0.0000     0.000     0.000     0.000  0.6026  0.7106 -0.3631
 
              Baa    -0.0000    -0.000    -0.000    -0.000 -0.0743  0.4872  0.8701
    19 C(13)  Bbb     0.0000     0.000     0.000     0.000  0.2256  0.8581 -0.4612
              Bcc     0.0000     0.000     0.000     0.000  0.9714 -0.1621  0.1737
 
              Baa    -0.0000    -0.000    -0.000    -0.000  0.8823 -0.4215  0.2095
    20 F(19)  Bbb     0.0000     0.000     0.000     0.000 -0.3250 -0.2233  0.9190
              Bcc     0.0000     0.000     0.000     0.000  0.3405  0.8789  0.3340
 
              Baa    -0.0000    -0.000    -0.000    -0.000  0.0628  0.6205  0.7817
    21 C(13)  Bbb    -0.0000    -0.000    -0.000    -0.000  0.9969 -0.0757 -0.0200
              Bcc     0.0000     0.000     0.000     0.000  0.0468  0.7806 -0.6233
 
              Baa    -0.0000    -0.000    -0.000    -0.000 -0.1210 -0.1678  0.9784
    22 C(13)  Bbb    -0.0000    -0.000    -0.000    -0.000  0.7543 -0.6562 -0.0193
              Bcc     0.0000     0.000     0.000     0.000  0.6452  0.7357  0.2060
 
              Baa    -0.0000    -0.000    -0.000    -0.000 -0.0370 -0.3081  0.9506
    23 C(13)  Bbb    -0.0000    -0.000    -0.000    -0.000  0.9981 -0.0576  0.0202
              Bcc     0.0000     0.000     0.000     0.000  0.0486  0.9496  0.3096
 
              Baa    -0.0000     0.000     0.000     0.000  0.9788 -0.0720 -0.1918
    24 O(17)  Bbb     0.0000    -0.000    -0.000    -0.000  0.1258 -0.5274  0.8403
              Bcc     0.0000    -0.000    -0.000    -0.000  0.1617  0.8466  0.5071
 
              Baa    -0.0000    -0.000    -0.000    -0.000  0.8385 -0.3438 -0.4227
    25 C(13)  Bbb    -0.0000    -0.000    -0.000    -0.000 -0.0154  0.7605 -0.6491
              Bcc     0.0000     0.000     0.000     0.000  0.5447  0.5508  0.6324
 
              Baa    -0.0000    -0.000    -0.000    -0.000  0.4180  0.3072  0.8550
    26 C(13)  Bbb    -0.0000    -0.000    -0.000    -0.000  0.7279  0.4499 -0.5175
              Bcc     0.0000     0.000     0.000     0.000 -0.5436  0.8386 -0.0355
 
              Baa    -0.0000    -0.000    -0.000    -0.000 -0.0548 -0.1734  0.9833
    27 C(13)  Bbb     0.0000     0.000     0.000     0.000  0.5211  0.8351  0.1763
              Bcc     0.0000     0.000     0.000     0.000  0.8517 -0.5221 -0.0446
 
              Baa    -0.0000    -0.000    -0.000    -0.000  0.2257  0.0302  0.9737
    28 S(33)  Bbb     0.0000     0.000     0.000     0.000  0.6142  0.7714 -0.1663
              Bcc     0.0000     0.000     0.000     0.000  0.7562 -0.6356 -0.1555
 
              Baa    -0.0000    -0.000    -0.000    -0.000  0.0270  0.7647  0.6439
    29 C(13)  Bbb     0.0000     0.000     0.000     0.000 -0.3635 -0.5925  0.7189
              Bcc     0.0000     0.000     0.000     0.000  0.9312 -0.2534  0.2619
 
              Baa    -0.0000    -0.000    -0.000    -0.000  0.5617  0.7672 -0.3097
    30 C(13)  Bbb    -0.0000    -0.000    -0.000    -0.000 -0.0968  0.4327  0.8963
              Bcc     0.0000     0.000     0.000     0.000  0.8217 -0.4734  0.3173
 
              Baa    -0.0000    -0.000    -0.000    -0.000  0.5988  0.7241  0.3423
    31 N(14)  Bbb     0.0000     0.000     0.000     0.000  0.1038 -0.4939  0.8633
              Bcc     0.0000     0.000     0.000     0.000  0.7942 -0.4814 -0.3709
 
              Baa    -0.0000    -0.000    -0.000    -0.000 -0.0766 -0.4463  0.8916
    32 C(13)  Bbb     0.0000     0.000     0.000     0.000 -0.1430  0.8899  0.4331
              Bcc     0.0000     0.000     0.000     0.000  0.9868  0.0944  0.1319
 
              Baa    -0.0000    -0.000    -0.000    -0.000 -0.3202  0.3812  0.8672
    33 C(13)  Bbb    -0.0000    -0.000    -0.000    -0.000 -0.3186  0.8188 -0.4776
              Bcc     0.0000     0.000     0.000     0.000  0.8922  0.4292  0.1407
 
              Baa    -0.0000    -0.000    -0.000    -0.000  0.9556  0.1399  0.2593
    34 F(19)  Bbb     0.0000     0.000     0.000     0.000  0.0861  0.7091 -0.6998
              Bcc     0.0000     0.000     0.000     0.000 -0.2818  0.6911  0.6656
 
              Baa    -0.0000    -0.000    -0.000    -0.000  0.9741  0.0066 -0.2261
    35 C(13)  Bbb     0.0000     0.000     0.000     0.000 -0.1576  0.7368 -0.6575
              Bcc     0.0000     0.000     0.000     0.000  0.1623  0.6761  0.7187
 
              Baa    -0.0000    -0.000    -0.000    -0.000  0.6383  0.1579  0.7534
    36 C(13)  Bbb    -0.0000    -0.000    -0.000    -0.000  0.7064  0.2687 -0.6548
              Bcc     0.0000     0.000     0.000     0.000 -0.3059  0.9502  0.0599
 
              Baa    -0.0000    -0.000    -0.000    -0.000  0.6310  0.7751  0.0315
    37 C(13)  Bbb     0.0000     0.000     0.000     0.000  0.1809 -0.1865  0.9657
              Bcc     0.0000     0.000     0.000     0.000  0.7544 -0.6036 -0.2579
 
              Baa    -0.0000     0.000     0.000     0.000 -0.6011  0.7923  0.1044
    38 O(17)  Bbb     0.0000    -0.000    -0.000    -0.000  0.1884  0.0135  0.9820
              Bcc     0.0000    -0.000    -0.000    -0.000  0.7767  0.6099 -0.1574
 
              Baa    -0.0000    -0.000    -0.000    -0.000  0.7730 -0.6057 -0.1886
    39 C(13)  Bbb     0.0000     0.000     0.000     0.000 -0.3127 -0.6225  0.7174
              Bcc     0.0000     0.000     0.000     0.000  0.5520  0.4956  0.6706
 
              Baa    -0.0000    -0.000    -0.000    -0.000 -0.0140  0.9998 -0.0128
    40 C(13)  Bbb     0.0000     0.000     0.000     0.000  0.0084  0.0129  0.9999
              Bcc     0.0000     0.000     0.000     0.000  0.9999  0.0139 -0.0086
 
              Baa    -0.0000    -0.000    -0.000    -0.000  0.9990 -0.0234 -0.0391
    41 C(13)  Bbb     0.0000     0.000     0.000     0.000  0.0273 -0.3787  0.9251
              Bcc     0.0000     0.000     0.000     0.000  0.0364  0.9252  0.3776
 
              Baa    -0.0000    -0.000    -0.000    -0.000  0.9937 -0.0602  0.0949
    42 S(33)  Bbb     0.0000     0.000     0.000     0.000  0.0803  0.9711 -0.2248
              Bcc     0.0000     0.000     0.000     0.000 -0.0787  0.2310  0.9698
 
              Baa    -0.0000    -0.000    -0.000    -0.000  0.9374  0.2364 -0.2557
    43 H(1)   Bbb     0.0000     0.000     0.000     0.000  0.0439  0.6482  0.7602
              Bcc     0.0000     0.000     0.000     0.000 -0.3455  0.7238 -0.5972
 
              Baa    -0.0000    -0.000    -0.000    -0.000 -0.2637  0.5566  0.7878
    44 H(1)   Bbb    -0.0000    -0.000    -0.000    -0.000  0.9588  0.2408  0.1509
              Bcc     0.0000     0.000     0.000     0.000 -0.1057  0.7951 -0.5972
 
              Baa    -0.0000    -0.000    -0.000    -0.000  0.2865  0.6990  0.6552
    45 H(1)   Bbb    -0.0000    -0.000    -0.000    -0.000 -0.4122  0.7073 -0.5743
              Bcc     0.0000     0.000     0.000     0.000  0.8649  0.1055 -0.4908
 
              Baa    -0.0000    -0.000    -0.000    -0.000  0.1794  0.0569  0.9821
    46 H(1)   Bbb     0.0000     0.000     0.000     0.000  0.9834 -0.0394 -0.1773
              Bcc     0.0000     0.000     0.000     0.000  0.0286  0.9976 -0.0630
 
              Baa    -0.0000    -0.000    -0.000    -0.000  0.9386 -0.2013  0.2803
    47 H(1)   Bbb    -0.0000    -0.000    -0.000    -0.000 -0.2102  0.3106  0.9270
              Bcc     0.0000     0.000     0.000     0.000  0.2736  0.9290 -0.2492
 
              Baa    -0.0000    -0.000    -0.000    -0.000  0.1172 -0.1622  0.9798
    48 H(1)   Bbb     0.0000     0.000     0.000     0.000  0.8794  0.4754 -0.0264
              Bcc     0.0000     0.000     0.000     0.000 -0.4615  0.8647  0.1983
 
              Baa    -0.0000    -0.000    -0.000    -0.000  0.5069 -0.1110  0.8548
    49 H(1)   Bbb    -0.0000    -0.000    -0.000    -0.000  0.8479  0.2428 -0.4712
              Bcc     0.0000     0.000     0.000     0.000 -0.1553  0.9637  0.2172
 
              Baa    -0.0000    -0.000    -0.000    -0.000 -0.0757  0.4121  0.9080
    50 H(1)   Bbb    -0.0000    -0.000    -0.000    -0.000  0.9591 -0.2191  0.1794
              Bcc     0.0000     0.000     0.000     0.000  0.2729  0.8844 -0.3786
 
              Baa    -0.0000    -0.000    -0.000    -0.000 -0.1634  0.7464  0.6451
    51 H(1)   Bbb     0.0000     0.000     0.000     0.000 -0.2670 -0.6630  0.6994
              Bcc     0.0000     0.000     0.000     0.000  0.9498 -0.0579  0.3076
 
              Baa    -0.0000    -0.000    -0.000    -0.000 -0.0417 -0.1438  0.9887
    52 H(1)   Bbb    -0.0000    -0.000    -0.000    -0.000 -0.1199  0.9832  0.1379
              Bcc     0.0000     0.000     0.000     0.000  0.9919  0.1128  0.0582
 
              Baa    -0.0000    -0.000    -0.000    -0.000 -0.5290 -0.1415  0.8367
    53 H(1)   Bbb     0.0000     0.000     0.000     0.000 -0.6210  0.7365 -0.2680
              Bcc     0.0000     0.000     0.000     0.000  0.5784  0.6614  0.4775
 
              Baa    -0.0000    -0.000    -0.000    -0.000  0.8669 -0.2040 -0.4549
    54 H(1)   Bbb     0.0000     0.000     0.000     0.000  0.4758  0.6108  0.6329
              Bcc     0.0000     0.000     0.000     0.000 -0.1487  0.7651 -0.6265
 
              Baa    -0.0000    -0.000    -0.000    -0.000  0.5958 -0.5077  0.6223
    55 H(1)   Bbb    -0.0000    -0.000    -0.000    -0.000 -0.4959  0.3769  0.7823
              Bcc     0.0000     0.000     0.000     0.000  0.6317  0.7747  0.0272
 
              Baa    -0.0000    -0.000    -0.000    -0.000 -0.4952  0.7346  0.4638
    56 H(1)   Bbb     0.0000     0.000     0.000     0.000  0.8681  0.4391  0.2313
              Bcc     0.0000     0.000     0.000     0.000  0.0337 -0.5172  0.8552
 
              Baa    -0.0000    -0.000    -0.000    -0.000 -0.2554 -0.4164  0.8726
    57 H(1)   Bbb     0.0000     0.000     0.000     0.000  0.4203  0.7650  0.4881
              Bcc     0.0000     0.000     0.000     0.000  0.8707 -0.4914  0.0203
 
              Baa    -0.0000    -0.000    -0.000    -0.000 -0.6523 -0.2331  0.7212
    58 H(1)   Bbb    -0.0000    -0.000    -0.000    -0.000 -0.4949  0.8517 -0.1723
              Bcc     0.0000     0.000     0.000     0.000  0.5741  0.4693  0.6709
 
              Baa    -0.0000    -0.000    -0.000    -0.000 -0.3710  0.2846  0.8839
    59 H(1)   Bbb     0.0000     0.000     0.000     0.000  0.8260 -0.3339  0.4542
              Bcc     0.0000     0.000     0.000     0.000  0.4244  0.8986 -0.1112
 
              Baa    -0.0000    -0.000    -0.000    -0.000 -0.0279 -0.3470  0.9375
    60 H(1)   Bbb     0.0000     0.000     0.000     0.000  0.6980 -0.6781 -0.2302
              Bcc     0.0000     0.000     0.000     0.000  0.7156  0.6479  0.2611
 
              Baa    -0.0000    -0.000    -0.000    -0.000  0.3028  0.9530  0.0119
    61 H(1)   Bbb    -0.0000    -0.000    -0.000    -0.000  0.9530 -0.3027 -0.0076
              Bcc     0.0000     0.000     0.000     0.000  0.0037 -0.0137  0.9999
 
              Baa    -0.0000    -0.000    -0.000    -0.000  0.9219  0.3387  0.1880
    62 H(1)   Bbb     0.0000     0.000     0.000     0.000 -0.1215 -0.2079  0.9706
              Bcc     0.0000     0.000     0.000     0.000 -0.3678  0.9177  0.1505
 

 ---------------------------------------------------------------------------------

 No NMR shielding tensors so no spin-rotation constants.
 Leave Link  601 at Sat Jul 25 04:33:11 2020, MaxMem=  4026531840 cpu:               7.1 elap:               1.0
 (Enter /opt/ohpc/pub/libs/gaussian/g16-A.03/sandybridge/g16/l9999.exe)

 Test job not archived.
 1\1\GINC-SKYLAKE014\FOpt\ULC-wPBE\CC-pVDZ\C30H20F3N3O3S3\RDU230\25-Jul
 -2020\0\\#P uLC-wPBE/cc-pVDZ iop(3/107=0311400000, 3/108=0311400000) o
 pt\\H20 C30 S3 N3 O3 F3\\0,1\C,11.4089122598,-0.5151965472,-0.06671970
 03\C,10.400583793,-1.2836741279,0.5101965687\N,9.1184695853,-0.9224557
 494,0.5288640182\C,8.7572994809,0.2383395435,-0.0400166866\C,9.7108068
 39,1.0328799453,-0.6915898836\F,9.3371798957,2.1352736096,-1.357668910
 7\C,11.0481039422,0.6725829216,-0.6935547008\C,7.3272538916,0.57381243
 59,0.0076065952\C,6.6882889814,1.7924313303,0.1431541367\O,7.394836145
 1,2.9373137567,0.2822044978\C,6.658270935,4.1436389493,0.3418373006\C,
 5.266570075,1.6721436486,0.1841595415\C,4.8465425317,0.3659358074,0.10
 32992377\S,6.1781054851,-0.7202719011,-0.0172459278\C,3.4605481515,-0.
 1281326579,0.1167869847\C,2.4147623444,0.6338081916,-0.4226114413\N,1.
 1450607063,0.2445090666,-0.4492388313\C,0.8075769161,-0.9518160404,0.0
 581247704\C,1.7880253909,-1.7538252038,0.6580379624\F,1.4508682239,-2.
 8976485851,1.2700430195\C,3.1132816981,-1.3594150389,0.6793866501\C,-0
 .6141181032,-1.3128372283,0.0004725204\C,-1.2292326642,-2.5368793149,-
 0.1900093961\O,-0.5010198665,-3.661918253,-0.3681731289\C,-1.214761954
 5,-4.8761197334,-0.5021904986\C,-2.6533382438,-2.4436894213,-0.2213989
 466\C,-3.0998677893,-1.1516716129,-0.0794736482\S,-1.7896778624,-0.042
 9856086,0.0698426739\C,-4.4958741301,-0.6850416232,-0.0660225267\C,-5.
 4919885046,-1.3547194263,-0.7895829837\N,-6.7669433556,-0.9825417913,-
 0.8254980283\C,-7.1594040633,0.1032732338,-0.1407566313\C,-6.232205134
 4,0.8023087703,0.6442738216\F,-6.6293211803,1.8207008164,1.4204598615\
 C,-4.9018644412,0.4270011114,0.6769150053\C,-8.5827379378,0.4559356139
 ,-0.2163360898\C,-9.200504445,1.6925078561,-0.2464077075\O,-8.47444432
 5,2.834421449,-0.2198951022\C,-9.1942954553,4.0511439837,-0.1919870354
 \C,-10.6233128819,1.5990949162,-0.3648539611\C,-11.0426955066,0.299461
 761,-0.4427583496\S,-9.7475508019,-0.8149702361,-0.3902134571\H,12.450
 6352857,-0.8470143956,-0.0420944856\H,10.634123935,-2.2437891534,0.986
 9182328\H,11.7733303762,1.3152314904,-1.2010153789\H,6.0418208992,4.28
 94750796,-0.5642877966\H,7.4006976808,4.9518000747,0.4040520447\H,6.00
 92365651,4.1820161728,1.2364254953\H,4.5782789402,2.5084900824,0.31318
 07228\H,2.6256648581,1.6104064505,-0.8754400639\H,3.8507666795,-2.0030
 175753,1.1686482827\H,-1.8625071694,-4.8716271012,-1.3984649078\H,-1.8
 286507686,-5.0884920091,0.3924303361\H,-0.4569185651,-5.6645942217,-0.
 611986204\H,-3.3265880962,-3.2956456646,-0.3242549556\H,-5.2342859686,
 -2.2355852275,-1.3903865084\H,-4.2076077392,0.9865082149,1.3111935079\
 H,-8.441551257,4.8503520457,-0.1365838924\H,-9.8531002511,4.1149424826
 ,0.6937714048\H,-9.7988249064,4.189395806,-1.1077873595\H,-11.30324585
 43,2.451232896,-0.402013381\H,-12.0695132695,-0.0562370644,-0.53927568
 62\\Version=EM64L-G16RevA.03\State=1-A\HF=-3037.551631\S2=0.\S2-1=0.\S
 2A=0.\RMSD=7.644e-09\RMSF=6.743e-06\Dipole=0.2620666,0.7125728,0.09854
 71\Quadrupole=23.612669,5.2836237,-28.8962927,-4.697475,-1.4836195,1.8
 818626\PG=C01 [X(C30H20F3N3O3S3)]\\@


 I do not feel obliged to believe that the same God who
 has endowed us with sense, reason, and intellect has
 intended us to forgo their use.
                   --Galileo Galilei
 Job cpu time:       0 days 17 hours 53 minutes 35.7 seconds.
 Elapsed time:       0 days  2 hours 17 minutes  3.4 seconds.
 File lengths (MBytes):  RWF=    596 Int=      0 D2E=      0 Chk=     56 Scr=      8
 Normal termination of Gaussian 16 at Sat Jul 25 04:33:11 2020.
