 Entering Gaussian System, Link 0=g16
 Input=mols_55_5_01_C-CF_opt_0.gjf
 Output=mols_55_5_01_C-CF_opt_0.log
 Initial command:
 /opt/ohpc/pub/libs/gaussian/g16-A.03/sandybridge/g16/l1.exe "/mnt/gpfs2_4m/scratch/rdu230/ondemand/projects/dihedral_energies/7trial/wtuning/mols_55_5_01_C-CF/Gau-64343.inp" -scrdir="/mnt/gpfs2_4m/scratch/rdu230/ondemand/projects/dihedral_energies/7trial/wtuning/mols_55_5_01_C-CF/"
 Entering Link 1 = /opt/ohpc/pub/libs/gaussian/g16-A.03/sandybridge/g16/l1.exe PID=     64344.
  
 Copyright (c) 1988,1990,1992,1993,1995,1998,2003,2009,2016,
            Gaussian, Inc.  All Rights Reserved.
  
 This is part of the Gaussian(R) 16 program.  It is based on
 the Gaussian(R) 09 system (copyright 2009, Gaussian, Inc.),
 the Gaussian(R) 03 system (copyright 2003, Gaussian, Inc.),
 the Gaussian(R) 98 system (copyright 1998, Gaussian, Inc.),
 the Gaussian(R) 94 system (copyright 1995, Gaussian, Inc.),
 the Gaussian 92(TM) system (copyright 1992, Gaussian, Inc.),
 the Gaussian 90(TM) system (copyright 1990, Gaussian, Inc.),
 the Gaussian 88(TM) system (copyright 1988, Gaussian, Inc.),
 the Gaussian 86(TM) system (copyright 1986, Carnegie Mellon
 University), and the Gaussian 82(TM) system (copyright 1983,
 Carnegie Mellon University). Gaussian is a federally registered
 trademark of Gaussian, Inc.
  
 This software contains proprietary and confidential information,
 including trade secrets, belonging to Gaussian, Inc.
  
 This software is provided under written license and may be
 used, copied, transmitted, or stored only in accord with that
 written license.
  
 The following legend is applicable only to US Government
 contracts under FAR:
  
                    RESTRICTED RIGHTS LEGEND
  
 Use, reproduction and disclosure by the US Government is
 subject to restrictions as set forth in subparagraphs (a)
 and (c) of the Commercial Computer Software - Restricted
 Rights clause in FAR 52.227-19.
  
 Gaussian, Inc.
 340 Quinnipiac St., Bldg. 40, Wallingford CT 06492
  
  
 ---------------------------------------------------------------
 Warning -- This program may not be used in any manner that
 competes with the business of Gaussian, Inc. or will provide
 assistance to any competitor of Gaussian, Inc.  The licensee
 of this program is prohibited from giving any competitor of
 Gaussian, Inc. access to this program.  By using this program,
 the user acknowledges that Gaussian, Inc. is engaged in the
 business of creating and licensing software in the field of
 computational chemistry and represents and warrants to the
 licensee that it is not a competitor of Gaussian, Inc. and that
 it will not use this program in any manner prohibited above.
 ---------------------------------------------------------------
  

 Cite this work as:
 Gaussian 16, Revision A.03,
 M. J. Frisch, G. W. Trucks, H. B. Schlegel, G. E. Scuseria, 
 M. A. Robb, J. R. Cheeseman, G. Scalmani, V. Barone, 
 G. A. Petersson, H. Nakatsuji, X. Li, M. Caricato, A. V. Marenich, 
 J. Bloino, B. G. Janesko, R. Gomperts, B. Mennucci, H. P. Hratchian, 
 J. V. Ortiz, A. F. Izmaylov, J. L. Sonnenberg, D. Williams-Young, 
 F. Ding, F. Lipparini, F. Egidi, J. Goings, B. Peng, A. Petrone, 
 T. Henderson, D. Ranasinghe, V. G. Zakrzewski, J. Gao, N. Rega, 
 G. Zheng, W. Liang, M. Hada, M. Ehara, K. Toyota, R. Fukuda, 
 J. Hasegawa, M. Ishida, T. Nakajima, Y. Honda, O. Kitao, H. Nakai, 
 T. Vreven, K. Throssell, J. A. Montgomery, Jr., J. E. Peralta, 
 F. Ogliaro, M. J. Bearpark, J. J. Heyd, E. N. Brothers, K. N. Kudin, 
 V. N. Staroverov, T. A. Keith, R. Kobayashi, J. Normand, 
 K. Raghavachari, A. P. Rendell, J. C. Burant, S. S. Iyengar, 
 J. Tomasi, M. Cossi, J. M. Millam, M. Klene, C. Adamo, R. Cammi, 
 J. W. Ochterski, R. L. Martin, K. Morokuma, O. Farkas, 
 J. B. Foresman, and D. J. Fox, Gaussian, Inc., Wallingford CT, 2016.
 
 ******************************************
 Gaussian 16:  EM64L-G16RevA.03 25-Dec-2016
                23-Jul-2020 
 ******************************************
 %mem=30GB
 %nproc=8
 Will use up to    8 processors via shared memory.
 ---------------------------------------------------------------
 #P uLC-wPBE/cc-pVDZ iop(3/107=0193800000, 3/108=0193800000) opt
 ---------------------------------------------------------------
 1/18=20,19=15,26=3,38=1/1,3;
 2/9=110,12=2,17=6,18=5,40=1/2;
 3/5=16,11=2,25=1,30=1,71=1,74=-41,107=193800000,108=193800000,116=2/1,2,3;
 4//1;
 5/5=2,38=5/2;
 6/7=2,8=2,9=2,10=2,28=1/1;
 7//1,2,3,16;
 1/18=20,19=15,26=3/3(2);
 2/9=110/2;
 99//99;
 2/9=110/2;
 3/5=16,11=2,25=1,30=1,71=1,74=-41,107=193800000,108=193800000,116=2/1,2,3;
 4/5=5,16=3,69=1/1;
 5/5=2,38=5/2;
 7//1,2,3,16;
 1/18=20,19=15,26=3/3(-5);
 2/9=110/2;
 6/7=2,8=2,9=2,10=2,19=2,28=1/1;
 99/9=1/99;
 Leave Link    1 at Thu Jul 23 23:41:14 2020, MaxMem=  4026531840 cpu:               1.7 elap:               0.2
 (Enter /opt/ohpc/pub/libs/gaussian/g16-A.03/sandybridge/g16/l101.exe)
 --------------
 H17 C40 S10 F5
 --------------
 Symbolic Z-matrix:
 Charge =  0 Multiplicity = 1
 C                     18.89794  -0.55326  -0.04466 
 C                     18.35169  -1.79562   0.1456 
 C                     16.88143  -1.74486   0.19381 
 C                     16.39548  -0.51636   0.09656 
 S                     17.66028   0.70523  -0.1384 
 C                     14.98956  -0.06182   0.11757 
 C                     14.45104   1.16438   0.0466 
 F                     15.18906   2.29403   0.06857 
 C                     13.07095   1.24349   0.10749 
 C                     12.52921  -0.05087   0.06791 
 S                     13.69552  -1.18971   0.07802 
 C                     11.12673  -0.35924   0.04458 
 C                     10.56588  -1.67053   0.08058 
 C                     9.08628  -1.57579   0.05952 
 C                     8.58043  -0.39303   0.02781 
 S                     9.88194   0.79367  -0.01836 
 C                     7.22722   0.05269   0.00382 
 C                     6.60495   1.27981   0.09986 
 F                     7.30191   2.48269   0.12497 
 C                     5.1781    1.30498   0.05702 
 C                     4.66451   0.07425  -0.10316 
 S                     5.93583  -1.15592  -0.1001 
 C                     3.23919  -0.33236  -0.0799 
 C                     2.76823  -1.55802  -0.24769 
 C                     1.30894  -1.56934  -0.32574 
 C                     0.76994  -0.26804  -0.12628 
 S                     2.01873   0.90318   0.00894 
 C                    -0.64158   0.09915  -0.10865 
 C                    -1.19242   1.2938   -0.24053 
 F                    -0.47195   2.46345  -0.30808 
 C                    -2.66062   1.30264  -0.17176 
 C                    -3.11699   0.03875  -0.10193 
 S                    -1.88512  -1.08689  -0.09655 
 C                    -4.55061  -0.27474  -0.0456 
 C                    -5.04894  -1.62134   0.06946 
 C                    -6.46881  -1.62787   0.08277 
 C                    -7.01677  -0.3331    0.05413 
 S                    -5.85046   0.87483  -0.05475 
 C                    -8.48575   0.0487    0.09556 
 C                    -9.08034   1.23904   0.2093 
 F                    -8.31078   2.42179   0.3671 
 C                    -10.45732   1.24484   0.12393 
 C                    -10.98746   0.00509   0.05529 
 S                    -9.75068  -1.14319  -0.13052 
 C                    -12.41939  -0.38304  -0.07199 
 C                    -12.88816  -1.64709  -0.34615 
 C                    -14.31799  -1.6507   -0.25174 
 C                    -14.9222  -0.44552  -0.07914 
 S                    -13.69442   0.72395   0.16786 
 C                    -16.33588  -0.10612   0.01772 
 C                    -17.32966  -0.95859   0.27497 
 F                    -17.17391  -2.33614   0.39878 
 C                    -18.57129  -0.38135   0.2499 
 C                    -18.51253   1.00112   0.04809 
 S                    -16.91526   1.43887  -0.13471 
 H                     19.88175  -0.30511  -0.08266 
 H                     18.95219  -2.68964   0.25487 
 H                     16.25551  -2.65665   0.39586 
 H                     12.50552   2.12964   0.09469 
 H                     11.13233  -2.52841   0.07903 
 H                     8.48913  -2.48719   0.03875 
 H                     4.66661   2.27535   0.07636 
 H                     3.31012  -2.50773  -0.37187 
 H                     0.69641  -2.41928  -0.39929 
 H                    -3.21682   2.24382  -0.18059 
 H                    -4.49025  -2.47011   0.04068 
 H                    -7.13392  -2.54222   0.13568 
 H                    -11.10357   2.15811   0.28276 
 H                    -12.3302  -2.57446  -0.46762 
 H                    -14.85431  -2.57668  -0.44923 
 H                    -19.51841  -0.92837   0.46516 
 H                    -19.29837   1.646    -0.00391 
 
 ITRead=  0  0  0  0  0  0  0  0  0  0  0  0  0  0  0  0  0  0  0  0
 ITRead=  0  0  0  0  0  0  0  0  0  0  0  0  0  0  0  0  0  0  0  0
 ITRead=  0  0  0  0  0  0  0  0  0  0  0  0  0  0  0  0  0  0  0  0
 ITRead=  0  0  0  0  0  0  0  0  0  0  0  0
 MicOpt= -1 -1 -1 -1 -1 -1 -1 -1 -1 -1 -1 -1 -1 -1 -1 -1 -1 -1 -1 -1
 MicOpt= -1 -1 -1 -1 -1 -1 -1 -1 -1 -1 -1 -1 -1 -1 -1 -1 -1 -1 -1 -1
 MicOpt= -1 -1 -1 -1 -1 -1 -1 -1 -1 -1 -1 -1 -1 -1 -1 -1 -1 -1 -1 -1
 MicOpt= -1 -1 -1 -1 -1 -1 -1 -1 -1 -1 -1 -1
 NAtoms=     72 NQM=       72 NQMF=       0 NMMI=      0 NMMIF=      0
                NMic=       0 NMicF=      0.
                    Isotopes and Nuclear Properties:
 (Nuclear quadrupole moments (NQMom) in fm**2, nuclear magnetic moments (NMagM)
  in nuclear magnetons)

  Atom         1           2           3           4           5           6           7           8           9          10
 IAtWgt=          12          12          12          12          32          12          12          19          12          12
 AtmWgt=  12.0000000  12.0000000  12.0000000  12.0000000  31.9720718  12.0000000  12.0000000  18.9984033  12.0000000  12.0000000
 NucSpn=           0           0           0           0           0           0           0           1           0           0
 AtZEff=  -0.0000000  -0.0000000  -0.0000000  -0.0000000  -0.0000000  -0.0000000  -0.0000000  -0.0000000  -0.0000000  -0.0000000
 NQMom=    0.0000000   0.0000000   0.0000000   0.0000000   0.0000000   0.0000000   0.0000000   0.0000000   0.0000000   0.0000000
 NMagM=    0.0000000   0.0000000   0.0000000   0.0000000   0.0000000   0.0000000   0.0000000   2.6288670   0.0000000   0.0000000
 AtZNuc=   6.0000000   6.0000000   6.0000000   6.0000000  16.0000000   6.0000000   6.0000000   9.0000000   6.0000000   6.0000000

  Atom        11          12          13          14          15          16          17          18          19          20
 IAtWgt=          32          12          12          12          12          32          12          12          19          12
 AtmWgt=  31.9720718  12.0000000  12.0000000  12.0000000  12.0000000  31.9720718  12.0000000  12.0000000  18.9984033  12.0000000
 NucSpn=           0           0           0           0           0           0           0           0           1           0
 AtZEff=  -0.0000000  -0.0000000  -0.0000000  -0.0000000  -0.0000000  -0.0000000  -0.0000000  -0.0000000  -0.0000000  -0.0000000
 NQMom=    0.0000000   0.0000000   0.0000000   0.0000000   0.0000000   0.0000000   0.0000000   0.0000000   0.0000000   0.0000000
 NMagM=    0.0000000   0.0000000   0.0000000   0.0000000   0.0000000   0.0000000   0.0000000   0.0000000   2.6288670   0.0000000
 AtZNuc=  16.0000000   6.0000000   6.0000000   6.0000000   6.0000000  16.0000000   6.0000000   6.0000000   9.0000000   6.0000000

  Atom        21          22          23          24          25          26          27          28          29          30
 IAtWgt=          12          32          12          12          12          12          32          12          12          19
 AtmWgt=  12.0000000  31.9720718  12.0000000  12.0000000  12.0000000  12.0000000  31.9720718  12.0000000  12.0000000  18.9984033
 NucSpn=           0           0           0           0           0           0           0           0           0           1
 AtZEff=  -0.0000000  -0.0000000  -0.0000000  -0.0000000  -0.0000000  -0.0000000  -0.0000000  -0.0000000  -0.0000000  -0.0000000
 NQMom=    0.0000000   0.0000000   0.0000000   0.0000000   0.0000000   0.0000000   0.0000000   0.0000000   0.0000000   0.0000000
 NMagM=    0.0000000   0.0000000   0.0000000   0.0000000   0.0000000   0.0000000   0.0000000   0.0000000   0.0000000   2.6288670
 AtZNuc=   6.0000000  16.0000000   6.0000000   6.0000000   6.0000000   6.0000000  16.0000000   6.0000000   6.0000000   9.0000000

  Atom        31          32          33          34          35          36          37          38          39          40
 IAtWgt=          12          12          32          12          12          12          12          32          12          12
 AtmWgt=  12.0000000  12.0000000  31.9720718  12.0000000  12.0000000  12.0000000  12.0000000  31.9720718  12.0000000  12.0000000
 NucSpn=           0           0           0           0           0           0           0           0           0           0
 AtZEff=  -0.0000000  -0.0000000  -0.0000000  -0.0000000  -0.0000000  -0.0000000  -0.0000000  -0.0000000  -0.0000000  -0.0000000
 NQMom=    0.0000000   0.0000000   0.0000000   0.0000000   0.0000000   0.0000000   0.0000000   0.0000000   0.0000000   0.0000000
 NMagM=    0.0000000   0.0000000   0.0000000   0.0000000   0.0000000   0.0000000   0.0000000   0.0000000   0.0000000   0.0000000
 AtZNuc=   6.0000000   6.0000000  16.0000000   6.0000000   6.0000000   6.0000000   6.0000000  16.0000000   6.0000000   6.0000000

  Atom        41          42          43          44          45          46          47          48          49          50
 IAtWgt=          19          12          12          32          12          12          12          12          32          12
 AtmWgt=  18.9984033  12.0000000  12.0000000  31.9720718  12.0000000  12.0000000  12.0000000  12.0000000  31.9720718  12.0000000
 NucSpn=           1           0           0           0           0           0           0           0           0           0
 AtZEff=  -0.0000000  -0.0000000  -0.0000000  -0.0000000  -0.0000000  -0.0000000  -0.0000000  -0.0000000  -0.0000000  -0.0000000
 NQMom=    0.0000000   0.0000000   0.0000000   0.0000000   0.0000000   0.0000000   0.0000000   0.0000000   0.0000000   0.0000000
 NMagM=    2.6288670   0.0000000   0.0000000   0.0000000   0.0000000   0.0000000   0.0000000   0.0000000   0.0000000   0.0000000
 AtZNuc=   9.0000000   6.0000000   6.0000000  16.0000000   6.0000000   6.0000000   6.0000000   6.0000000  16.0000000   6.0000000

  Atom        51          52          53          54          55          56          57          58          59          60
 IAtWgt=          12          19          12          12          32           1           1           1           1           1
 AtmWgt=  12.0000000  18.9984033  12.0000000  12.0000000  31.9720718   1.0078250   1.0078250   1.0078250   1.0078250   1.0078250
 NucSpn=           0           1           0           0           0           1           1           1           1           1
 AtZEff=  -0.0000000  -0.0000000  -0.0000000  -0.0000000  -0.0000000  -0.0000000  -0.0000000  -0.0000000  -0.0000000  -0.0000000
 NQMom=    0.0000000   0.0000000   0.0000000   0.0000000   0.0000000   0.0000000   0.0000000   0.0000000   0.0000000   0.0000000
 NMagM=    0.0000000   2.6288670   0.0000000   0.0000000   0.0000000   2.7928460   2.7928460   2.7928460   2.7928460   2.7928460
 AtZNuc=   6.0000000   9.0000000   6.0000000   6.0000000  16.0000000   1.0000000   1.0000000   1.0000000   1.0000000   1.0000000

  Atom        61          62          63          64          65          66          67          68          69          70
 IAtWgt=           1           1           1           1           1           1           1           1           1           1
 AtmWgt=   1.0078250   1.0078250   1.0078250   1.0078250   1.0078250   1.0078250   1.0078250   1.0078250   1.0078250   1.0078250
 NucSpn=           1           1           1           1           1           1           1           1           1           1
 AtZEff=  -0.0000000  -0.0000000  -0.0000000  -0.0000000  -0.0000000  -0.0000000  -0.0000000  -0.0000000  -0.0000000  -0.0000000
 NQMom=    0.0000000   0.0000000   0.0000000   0.0000000   0.0000000   0.0000000   0.0000000   0.0000000   0.0000000   0.0000000
 NMagM=    2.7928460   2.7928460   2.7928460   2.7928460   2.7928460   2.7928460   2.7928460   2.7928460   2.7928460   2.7928460
 AtZNuc=   1.0000000   1.0000000   1.0000000   1.0000000   1.0000000   1.0000000   1.0000000   1.0000000   1.0000000   1.0000000

  Atom        71          72
 IAtWgt=           1           1
 AtmWgt=   1.0078250   1.0078250
 NucSpn=           1           1
 AtZEff=  -0.0000000  -0.0000000
 NQMom=    0.0000000   0.0000000
 NMagM=    2.7928460   2.7928460
 AtZNuc=   1.0000000   1.0000000
 Leave Link  101 at Thu Jul 23 23:41:14 2020, MaxMem=  4026531840 cpu:               2.9 elap:               0.4
 (Enter /opt/ohpc/pub/libs/gaussian/g16-A.03/sandybridge/g16/l103.exe)

 GradGradGradGradGradGradGradGradGradGradGradGradGradGradGradGradGradGrad
 Berny optimization.
 Initialization pass.
                           ----------------------------
                           !    Initial Parameters    !
                           ! (Angstroms and Degrees)  !
 --------------------------                            --------------------------
 ! Name  Definition              Value          Derivative Info.                !
 --------------------------------------------------------------------------------
 ! R1    R(1,2)                  1.3704         estimate D2E/DX2                !
 ! R2    R(1,5)                  1.7676         estimate D2E/DX2                !
 ! R3    R(1,56)                 1.0153         estimate D2E/DX2                !
 ! R4    R(2,3)                  1.4719         estimate D2E/DX2                !
 ! R5    R(2,57)                 1.0825         estimate D2E/DX2                !
 ! R6    R(3,4)                  1.3247         estimate D2E/DX2                !
 ! R7    R(3,58)                 1.1243         estimate D2E/DX2                !
 ! R8    R(4,5)                  1.774          estimate D2E/DX2                !
 ! R9    R(4,6)                  1.4777         estimate D2E/DX2                !
 ! R10   R(6,7)                  1.3411         estimate D2E/DX2                !
 ! R11   R(6,11)                 1.717          estimate D2E/DX2                !
 ! R12   R(7,8)                  1.3495         estimate D2E/DX2                !
 ! R13   R(7,9)                  1.3837         estimate D2E/DX2                !
 ! R14   R(9,10)                 1.4037         estimate D2E/DX2                !
 ! R15   R(9,59)                 1.0513         estimate D2E/DX2                !
 ! R16   R(10,11)                1.6301         estimate D2E/DX2                !
 ! R17   R(10,12)                1.4362         estimate D2E/DX2                !
 ! R18   R(12,13)                1.4267         estimate D2E/DX2                !
 ! R19   R(12,16)                1.6978         estimate D2E/DX2                !
 ! R20   R(13,14)                1.4828         estimate D2E/DX2                !
 ! R21   R(13,60)                1.028          estimate D2E/DX2                !
 ! R22   R(14,15)                1.2868         estimate D2E/DX2                !
 ! R23   R(14,61)                1.0898         estimate D2E/DX2                !
 ! R24   R(15,16)                1.7619         estimate D2E/DX2                !
 ! R25   R(15,17)                1.4249         estimate D2E/DX2                !
 ! R26   R(17,18)                1.3792         estimate D2E/DX2                !
 ! R27   R(17,22)                1.7718         estimate D2E/DX2                !
 ! R28   R(18,19)                1.3904         estimate D2E/DX2                !
 ! R29   R(18,20)                1.4277         estimate D2E/DX2                !
 ! R30   R(20,21)                1.3432         estimate D2E/DX2                !
 ! R31   R(20,62)                1.0971         estimate D2E/DX2                !
 ! R32   R(21,22)                1.7691         estimate D2E/DX2                !
 ! R33   R(21,23)                1.4824         estimate D2E/DX2                !
 ! R34   R(23,24)                1.3237         estimate D2E/DX2                !
 ! R35   R(23,27)                1.739          estimate D2E/DX2                !
 ! R36   R(24,25)                1.4614         estimate D2E/DX2                !
 ! R37   R(24,63)                1.1005         estimate D2E/DX2                !
 ! R38   R(25,26)                1.4226         estimate D2E/DX2                !
 ! R39   R(25,64)                1.0502         estimate D2E/DX2                !
 ! R40   R(26,27)                1.7174         estimate D2E/DX2                !
 ! R41   R(26,28)                1.4586         estimate D2E/DX2                !
 ! R42   R(28,29)                1.3221         estimate D2E/DX2                !
 ! R43   R(28,33)                1.7185         estimate D2E/DX2                !
 ! R44   R(29,30)                1.3754         estimate D2E/DX2                !
 ! R45   R(29,31)                1.4698         estimate D2E/DX2                !
 ! R46   R(31,32)                1.3456         estimate D2E/DX2                !
 ! R47   R(31,65)                1.0933         estimate D2E/DX2                !
 ! R48   R(32,33)                1.6687         estimate D2E/DX2                !
 ! R49   R(32,34)                1.4686         estimate D2E/DX2                !
 ! R50   R(34,35)                1.4405         estimate D2E/DX2                !
 ! R51   R(34,38)                1.7353         estimate D2E/DX2                !
 ! R52   R(35,36)                1.42           estimate D2E/DX2                !
 ! R53   R(35,66)                1.0166         estimate D2E/DX2                !
 ! R54   R(36,37)                1.4062         estimate D2E/DX2                !
 ! R55   R(36,67)                1.1319         estimate D2E/DX2                !
 ! R56   R(37,38)                1.6826         estimate D2E/DX2                !
 ! R57   R(37,39)                1.5184         estimate D2E/DX2                !
 ! R58   R(39,40)                1.3354         estimate D2E/DX2                !
 ! R59   R(39,44)                1.7526         estimate D2E/DX2                !
 ! R60   R(40,41)                1.4199         estimate D2E/DX2                !
 ! R61   R(40,42)                1.3796         estimate D2E/DX2                !
 ! R62   R(42,43)                1.3501         estimate D2E/DX2                !
 ! R63   R(42,68)                1.13           estimate D2E/DX2                !
 ! R64   R(43,44)                1.6978         estimate D2E/DX2                !
 ! R65   R(43,45)                1.4891         estimate D2E/DX2                !
 ! R66   R(45,46)                1.3758         estimate D2E/DX2                !
 ! R67   R(45,49)                1.7055         estimate D2E/DX2                !
 ! R68   R(46,47)                1.433          estimate D2E/DX2                !
 ! R69   R(46,69)                1.0891         estimate D2E/DX2                !
 ! R70   R(47,48)                1.3592         estimate D2E/DX2                !
 ! R71   R(47,70)                1.0881         estimate D2E/DX2                !
 ! R72   R(48,49)                1.7135         estimate D2E/DX2                !
 ! R73   R(48,50)                1.4571         estimate D2E/DX2                !
 ! R74   R(50,51)                1.3344         estimate D2E/DX2                !
 ! R75   R(50,55)                1.6571         estimate D2E/DX2                !
 ! R76   R(51,52)                1.3918         estimate D2E/DX2                !
 ! R77   R(51,53)                1.3695         estimate D2E/DX2                !
 ! R78   R(53,54)                1.3984         estimate D2E/DX2                !
 ! R79   R(53,71)                1.1147         estimate D2E/DX2                !
 ! R80   R(54,55)                1.6662         estimate D2E/DX2                !
 ! R81   R(54,72)                1.0179         estimate D2E/DX2                !
 ! A1    A(2,1,5)              111.9443         estimate D2E/DX2                !
 ! A2    A(2,1,56)             127.8057         estimate D2E/DX2                !
 ! A3    A(5,1,56)             120.1633         estimate D2E/DX2                !
 ! A4    A(1,2,3)              111.8044         estimate D2E/DX2                !
 ! A5    A(1,2,57)             122.7925         estimate D2E/DX2                !
 ! A6    A(3,2,57)             125.4001         estimate D2E/DX2                !
 ! A7    A(2,3,4)              113.3284         estimate D2E/DX2                !
 ! A8    A(2,3,58)             122.2775         estimate D2E/DX2                !
 ! A9    A(4,3,58)             124.1309         estimate D2E/DX2                !
 ! A10   A(3,4,5)              112.7539         estimate D2E/DX2                !
 ! A11   A(3,4,6)              129.2887         estimate D2E/DX2                !
 ! A12   A(5,4,6)              117.9296         estimate D2E/DX2                !
 ! A13   A(1,5,4)               90.11           estimate D2E/DX2                !
 ! A14   A(4,6,7)              131.4923         estimate D2E/DX2                !
 ! A15   A(4,6,11)             120.9738         estimate D2E/DX2                !
 ! A16   A(7,6,11)             107.2623         estimate D2E/DX2                !
 ! A17   A(6,7,8)              123.0165         estimate D2E/DX2                !
 ! A18   A(6,7,9)              116.7724         estimate D2E/DX2                !
 ! A19   A(8,7,9)              119.7927         estimate D2E/DX2                !
 ! A20   A(7,9,10)             109.3276         estimate D2E/DX2                !
 ! A21   A(7,9,59)             125.7411         estimate D2E/DX2                !
 ! A22   A(10,9,59)            124.7048         estimate D2E/DX2                !
 ! A23   A(9,10,11)            111.5856         estimate D2E/DX2                !
 ! A24   A(9,10,12)            125.1227         estimate D2E/DX2                !
 ! A25   A(11,10,12)           123.2834         estimate D2E/DX2                !
 ! A26   A(6,11,10)             94.6142         estimate D2E/DX2                !
 ! A27   A(10,12,13)           125.5103         estimate D2E/DX2                !
 ! A28   A(10,12,16)           124.8034         estimate D2E/DX2                !
 ! A29   A(13,12,16)           109.6848         estimate D2E/DX2                !
 ! A30   A(12,13,14)           109.4629         estimate D2E/DX2                !
 ! A31   A(12,13,60)           123.3919         estimate D2E/DX2                !
 ! A32   A(14,13,60)           127.0942         estimate D2E/DX2                !
 ! A33   A(13,14,15)           116.8303         estimate D2E/DX2                !
 ! A34   A(13,14,61)           119.5775         estimate D2E/DX2                !
 ! A35   A(15,14,61)           123.5608         estimate D2E/DX2                !
 ! A36   A(14,15,16)           109.2287         estimate D2E/DX2                !
 ! A37   A(14,15,17)           131.3956         estimate D2E/DX2                !
 ! A38   A(16,15,17)           119.3664         estimate D2E/DX2                !
 ! A39   A(12,16,15)            94.7755         estimate D2E/DX2                !
 ! A40   A(15,17,18)           134.8775         estimate D2E/DX2                !
 ! A41   A(15,17,22)           118.6719         estimate D2E/DX2                !
 ! A42   A(18,17,22)           106.3889         estimate D2E/DX2                !
 ! A43   A(17,18,19)           123.0117         estimate D2E/DX2                !
 ! A44   A(17,18,20)           117.6774         estimate D2E/DX2                !
 ! A45   A(19,18,20)           119.0938         estimate D2E/DX2                !
 ! A46   A(18,20,21)           111.6887         estimate D2E/DX2                !
 ! A47   A(18,20,62)           118.7513         estimate D2E/DX2                !
 ! A48   A(21,20,62)           129.366          estimate D2E/DX2                !
 ! A49   A(20,21,22)           111.2338         estimate D2E/DX2                !
 ! A50   A(20,21,23)           128.1061         estimate D2E/DX2                !
 ! A51   A(22,21,23)           120.0139         estimate D2E/DX2                !
 ! A52   A(17,22,21)            92.8396         estimate D2E/DX2                !
 ! A53   A(21,23,24)           126.4475         estimate D2E/DX2                !
 ! A54   A(21,23,27)           118.7332         estimate D2E/DX2                !
 ! A55   A(24,23,27)           114.4978         estimate D2E/DX2                !
 ! A56   A(23,24,25)           111.6666         estimate D2E/DX2                !
 ! A57   A(23,24,63)           129.6575         estimate D2E/DX2                !
 ! A58   A(25,24,63)           118.6198         estimate D2E/DX2                !
 ! A59   A(24,25,26)           111.3319         estimate D2E/DX2                !
 ! A60   A(24,25,64)           126.3262         estimate D2E/DX2                !
 ! A61   A(26,25,64)           121.9472         estimate D2E/DX2                !
 ! A62   A(25,26,27)           111.0613         estimate D2E/DX2                !
 ! A63   A(25,26,28)           126.7724         estimate D2E/DX2                !
 ! A64   A(27,26,28)           122.0752         estimate D2E/DX2                !
 ! A65   A(23,27,26)            91.2469         estimate D2E/DX2                !
 ! A66   A(26,28,29)           129.0093         estimate D2E/DX2                !
 ! A67   A(26,28,33)           121.7765         estimate D2E/DX2                !
 ! A68   A(29,28,33)           108.8346         estimate D2E/DX2                !
 ! A69   A(28,29,30)           123.716          estimate D2E/DX2                !
 ! A70   A(28,29,31)           114.6416         estimate D2E/DX2                !
 ! A71   A(30,29,31)           121.3603         estimate D2E/DX2                !
 ! A72   A(29,31,32)           109.6064         estimate D2E/DX2                !
 ! A73   A(29,31,65)           120.8625         estimate D2E/DX2                !
 ! A74   A(32,31,65)           129.531          estimate D2E/DX2                !
 ! A75   A(31,32,33)           112.5445         estimate D2E/DX2                !
 ! A76   A(31,32,34)           122.2479         estimate D2E/DX2                !
 ! A77   A(33,32,34)           125.2067         estimate D2E/DX2                !
 ! A78   A(28,33,32)            93.9344         estimate D2E/DX2                !
 ! A79   A(32,34,35)           122.707          estimate D2E/DX2                !
 ! A80   A(32,34,38)           126.1307         estimate D2E/DX2                !
 ! A81   A(35,34,38)           111.1355         estimate D2E/DX2                !
 ! A82   A(34,35,36)           110.5478         estimate D2E/DX2                !
 ! A83   A(34,35,66)           126.026          estimate D2E/DX2                !
 ! A84   A(36,35,66)           123.0922         estimate D2E/DX2                !
 ! A85   A(35,36,37)           112.6568         estimate D2E/DX2                !
 ! A86   A(35,36,67)           126.2795         estimate D2E/DX2                !
 ! A87   A(37,36,67)           121.048          estimate D2E/DX2                !
 ! A88   A(36,37,38)           113.0921         estimate D2E/DX2                !
 ! A89   A(36,37,39)           127.4418         estimate D2E/DX2                !
 ! A90   A(38,37,39)           119.4628         estimate D2E/DX2                !
 ! A91   A(34,38,37)            92.4817         estimate D2E/DX2                !
 ! A92   A(37,39,40)           131.0882         estimate D2E/DX2                !
 ! A93   A(37,39,44)           121.5836         estimate D2E/DX2                !
 ! A94   A(40,39,44)           107.2058         estimate D2E/DX2                !
 ! A95   A(39,40,41)           120.7068         estimate D2E/DX2                !
 ! A96   A(39,40,42)           116.2861         estimate D2E/DX2                !
 ! A97   A(41,40,42)           122.9789         estimate D2E/DX2                !
 ! A98   A(40,42,43)           113.0297         estimate D2E/DX2                !
 ! A99   A(40,42,68)           124.4364         estimate D2E/DX2                !
 ! A100  A(43,42,68)           121.6495         estimate D2E/DX2                !
 ! A101  A(42,43,44)           109.9113         estimate D2E/DX2                !
 ! A102  A(42,43,45)           128.4117         estimate D2E/DX2                !
 ! A103  A(44,43,45)           120.988          estimate D2E/DX2                !
 ! A104  A(39,44,43)            92.9633         estimate D2E/DX2                !
 ! A105  A(43,45,46)           125.7454         estimate D2E/DX2                !
 ! A106  A(43,45,49)           122.5288         estimate D2E/DX2                !
 ! A107  A(46,45,49)           111.6949         estimate D2E/DX2                !
 ! A108  A(45,46,47)           109.2185         estimate D2E/DX2                !
 ! A109  A(45,46,69)           129.0527         estimate D2E/DX2                !
 ! A110  A(47,46,69)           121.0921         estimate D2E/DX2                !
 ! A111  A(46,47,48)           116.7255         estimate D2E/DX2                !
 ! A112  A(46,47,70)           118.8149         estimate D2E/DX2                !
 ! A113  A(48,47,70)           123.952          estimate D2E/DX2                !
 ! A114  A(47,48,49)           107.7551         estimate D2E/DX2                !
 ! A115  A(47,48,50)           130.2629         estimate D2E/DX2                !
 ! A116  A(49,48,50)           121.7781         estimate D2E/DX2                !
 ! A117  A(45,49,48)            94.1529         estimate D2E/DX2                !
 ! A118  A(48,50,51)           125.9151         estimate D2E/DX2                !
 ! A119  A(48,50,55)           123.387          estimate D2E/DX2                !
 ! A120  A(51,50,55)           110.6702         estimate D2E/DX2                !
 ! A121  A(50,51,52)           124.48           estimate D2E/DX2                !
 ! A122  A(50,51,53)           113.7297         estimate D2E/DX2                !
 ! A123  A(52,51,53)           121.3495         estimate D2E/DX2                !
 ! A124  A(51,53,54)           112.4117         estimate D2E/DX2                !
 ! A125  A(51,53,71)           124.0522         estimate D2E/DX2                !
 ! A126  A(54,53,71)           123.2792         estimate D2E/DX2                !
 ! A127  A(53,54,55)           108.4119         estimate D2E/DX2                !
 ! A128  A(53,54,72)           126.9612         estimate D2E/DX2                !
 ! A129  A(55,54,72)           124.6127         estimate D2E/DX2                !
 ! A130  A(50,55,54)            94.5962         estimate D2E/DX2                !
 ! D1    D(5,1,2,3)              1.1014         estimate D2E/DX2                !
 ! D2    D(5,1,2,57)          -178.2998         estimate D2E/DX2                !
 ! D3    D(56,1,2,3)           177.679          estimate D2E/DX2                !
 ! D4    D(56,1,2,57)           -1.7222         estimate D2E/DX2                !
 ! D5    D(2,1,5,4)              0.2448         estimate D2E/DX2                !
 ! D6    D(56,1,5,4)          -176.628          estimate D2E/DX2                !
 ! D7    D(1,2,3,4)             -2.4453         estimate D2E/DX2                !
 ! D8    D(1,2,3,58)          -176.7775         estimate D2E/DX2                !
 ! D9    D(57,2,3,4)           176.9372         estimate D2E/DX2                !
 ! D10   D(57,2,3,58)            2.605          estimate D2E/DX2                !
 ! D11   D(2,3,4,5)              2.6257         estimate D2E/DX2                !
 ! D12   D(2,3,4,6)           -179.3601         estimate D2E/DX2                !
 ! D13   D(58,3,4,5)           176.8362         estimate D2E/DX2                !
 ! D14   D(58,3,4,6)            -5.1497         estimate D2E/DX2                !
 ! D15   D(3,4,5,1)             -1.6911         estimate D2E/DX2                !
 ! D16   D(6,4,5,1)           -179.9516         estimate D2E/DX2                !
 ! D17   D(3,4,6,7)            178.6612         estimate D2E/DX2                !
 ! D18   D(3,4,6,11)            -8.1421         estimate D2E/DX2                !
 ! D19   D(5,4,6,7)             -3.4116         estimate D2E/DX2                !
 ! D20   D(5,4,6,11)           169.7851         estimate D2E/DX2                !
 ! D21   D(4,6,7,8)             -6.8658         estimate D2E/DX2                !
 ! D22   D(4,6,7,9)           -179.4134         estimate D2E/DX2                !
 ! D23   D(11,6,7,8)           179.2397         estimate D2E/DX2                !
 ! D24   D(11,6,7,9)             6.6921         estimate D2E/DX2                !
 ! D25   D(4,6,11,10)         -178.0071         estimate D2E/DX2                !
 ! D26   D(7,6,11,10)           -3.3386         estimate D2E/DX2                !
 ! D27   D(6,7,9,10)            -7.2771         estimate D2E/DX2                !
 ! D28   D(6,7,9,59)           177.9992         estimate D2E/DX2                !
 ! D29   D(8,7,9,10)           179.9221         estimate D2E/DX2                !
 ! D30   D(8,7,9,59)             5.1984         estimate D2E/DX2                !
 ! D31   D(7,9,10,11)            4.2627         estimate D2E/DX2                !
 ! D32   D(7,9,10,12)         -176.7568         estimate D2E/DX2                !
 ! D33   D(59,9,10,11)         179.0535         estimate D2E/DX2                !
 ! D34   D(59,9,10,12)          -1.9659         estimate D2E/DX2                !
 ! D35   D(9,10,11,6)           -0.5823         estimate D2E/DX2                !
 ! D36   D(12,10,11,6)        -179.5849         estimate D2E/DX2                !
 ! D37   D(9,10,12,13)        -176.2377         estimate D2E/DX2                !
 ! D38   D(9,10,12,16)           3.2604         estimate D2E/DX2                !
 ! D39   D(11,10,12,13)          2.6283         estimate D2E/DX2                !
 ! D40   D(11,10,12,16)       -177.8736         estimate D2E/DX2                !
 ! D41   D(10,12,13,14)        179.198          estimate D2E/DX2                !
 ! D42   D(10,12,13,60)         -3.2343         estimate D2E/DX2                !
 ! D43   D(16,12,13,14)         -0.3643         estimate D2E/DX2                !
 ! D44   D(16,12,13,60)        177.2034         estimate D2E/DX2                !
 ! D45   D(10,12,16,15)       -178.6573         estimate D2E/DX2                !
 ! D46   D(13,12,16,15)          0.9088         estimate D2E/DX2                !
 ! D47   D(12,13,14,15)         -0.6509         estimate D2E/DX2                !
 ! D48   D(12,13,14,61)        177.3841         estimate D2E/DX2                !
 ! D49   D(60,13,14,15)       -178.1048         estimate D2E/DX2                !
 ! D50   D(60,13,14,61)         -0.0698         estimate D2E/DX2                !
 ! D51   D(13,14,15,16)          1.2958         estimate D2E/DX2                !
 ! D52   D(13,14,15,17)       -179.8434         estimate D2E/DX2                !
 ! D53   D(61,14,15,16)       -176.6533         estimate D2E/DX2                !
 ! D54   D(61,14,15,17)          2.2075         estimate D2E/DX2                !
 ! D55   D(14,15,16,12)         -1.2858         estimate D2E/DX2                !
 ! D56   D(17,15,16,12)        179.6947         estimate D2E/DX2                !
 ! D57   D(14,15,17,18)        172.361          estimate D2E/DX2                !
 ! D58   D(14,15,17,22)         -4.3369         estimate D2E/DX2                !
 ! D59   D(16,15,17,18)         -8.8733         estimate D2E/DX2                !
 ! D60   D(16,15,17,22)        174.4288         estimate D2E/DX2                !
 ! D61   D(15,17,18,19)          6.7171         estimate D2E/DX2                !
 ! D62   D(15,17,18,20)       -178.6926         estimate D2E/DX2                !
 ! D63   D(22,17,18,19)       -176.3025         estimate D2E/DX2                !
 ! D64   D(22,17,18,20)         -1.7122         estimate D2E/DX2                !
 ! D65   D(15,17,22,21)       -179.328          estimate D2E/DX2                !
 ! D66   D(18,17,22,21)          3.1104         estimate D2E/DX2                !
 ! D67   D(17,18,20,21)         -1.2696         estimate D2E/DX2                !
 ! D68   D(17,18,20,62)       -176.679          estimate D2E/DX2                !
 ! D69   D(19,18,20,21)        173.5396         estimate D2E/DX2                !
 ! D70   D(19,18,20,62)         -1.8698         estimate D2E/DX2                !
 ! D71   D(18,20,21,22)          3.6555         estimate D2E/DX2                !
 ! D72   D(18,20,21,23)        174.3109         estimate D2E/DX2                !
 ! D73   D(62,20,21,22)        178.4481         estimate D2E/DX2                !
 ! D74   D(62,20,21,23)        -10.8965         estimate D2E/DX2                !
 ! D75   D(20,21,22,17)         -4.028          estimate D2E/DX2                !
 ! D76   D(23,21,22,17)       -175.5428         estimate D2E/DX2                !
 ! D77   D(20,21,23,24)        179.6917         estimate D2E/DX2                !
 ! D78   D(20,21,23,27)          6.5853         estimate D2E/DX2                !
 ! D79   D(22,21,23,24)        -10.3746         estimate D2E/DX2                !
 ! D80   D(22,21,23,27)        176.519          estimate D2E/DX2                !
 ! D81   D(21,23,24,25)       -173.0406         estimate D2E/DX2                !
 ! D82   D(21,23,24,63)          4.1502         estimate D2E/DX2                !
 ! D83   D(27,23,24,25)          0.3177         estimate D2E/DX2                !
 ! D84   D(27,23,24,63)        177.5085         estimate D2E/DX2                !
 ! D85   D(21,23,27,26)        175.9933         estimate D2E/DX2                !
 ! D86   D(24,23,27,26)          2.0839         estimate D2E/DX2                !
 ! D87   D(23,24,25,26)         -3.2595         estimate D2E/DX2                !
 ! D88   D(23,24,25,64)       -176.112          estimate D2E/DX2                !
 ! D89   D(63,24,25,26)        179.204          estimate D2E/DX2                !
 ! D90   D(63,24,25,64)          6.3515         estimate D2E/DX2                !
 ! D91   D(24,25,26,27)          4.7425         estimate D2E/DX2                !
 ! D92   D(24,25,26,28)       -178.6967         estimate D2E/DX2                !
 ! D93   D(64,25,26,27)        177.9579         estimate D2E/DX2                !
 ! D94   D(64,25,26,28)         -5.4813         estimate D2E/DX2                !
 ! D95   D(25,26,27,23)         -3.8726         estimate D2E/DX2                !
 ! D96   D(28,26,27,23)        179.3784         estimate D2E/DX2                !
 ! D97   D(25,26,28,29)       -162.5015         estimate D2E/DX2                !
 ! D98   D(25,26,28,33)          9.6018         estimate D2E/DX2                !
 ! D99   D(27,26,28,29)         13.7104         estimate D2E/DX2                !
 ! D100  D(27,26,28,33)       -174.1864         estimate D2E/DX2                !
 ! D101  D(26,28,29,30)         -5.99           estimate D2E/DX2                !
 ! D102  D(26,28,29,31)       -179.9498         estimate D2E/DX2                !
 ! D103  D(33,28,29,30)       -178.9015         estimate D2E/DX2                !
 ! D104  D(33,28,29,31)          7.1387         estimate D2E/DX2                !
 ! D105  D(26,28,33,32)       -179.2219         estimate D2E/DX2                !
 ! D106  D(29,28,33,32)         -5.6984         estimate D2E/DX2                !
 ! D107  D(28,29,31,32)         -5.3431         estimate D2E/DX2                !
 ! D108  D(28,29,31,65)        174.5968         estimate D2E/DX2                !
 ! D109  D(30,29,31,32)       -179.4599         estimate D2E/DX2                !
 ! D110  D(30,29,31,65)          0.4801         estimate D2E/DX2                !
 ! D111  D(29,31,32,33)          0.7537         estimate D2E/DX2                !
 ! D112  D(29,31,32,34)       -178.9347         estimate D2E/DX2                !
 ! D113  D(65,31,32,33)       -179.1795         estimate D2E/DX2                !
 ! D114  D(65,31,32,34)          1.1321         estimate D2E/DX2                !
 ! D115  D(31,32,33,28)          2.727          estimate D2E/DX2                !
 ! D116  D(34,32,33,28)       -177.5955         estimate D2E/DX2                !
 ! D117  D(31,32,34,35)       -178.0971         estimate D2E/DX2                !
 ! D118  D(31,32,34,38)         -0.1506         estimate D2E/DX2                !
 ! D119  D(33,32,34,35)          2.2551         estimate D2E/DX2                !
 ! D120  D(33,32,34,38)       -179.7984         estimate D2E/DX2                !
 ! D121  D(32,34,35,36)       -179.1826         estimate D2E/DX2                !
 ! D122  D(32,34,35,66)         -5.6862         estimate D2E/DX2                !
 ! D123  D(38,34,35,36)          2.5955         estimate D2E/DX2                !
 ! D124  D(38,34,35,66)        176.0919         estimate D2E/DX2                !
 ! D125  D(32,34,38,37)       -179.2164         estimate D2E/DX2                !
 ! D126  D(35,34,38,37)         -1.0689         estimate D2E/DX2                !
 ! D127  D(34,35,36,37)         -3.2022         estimate D2E/DX2                !
 ! D128  D(34,35,36,67)        178.2378         estimate D2E/DX2                !
 ! D129  D(66,35,36,37)       -176.925          estimate D2E/DX2                !
 ! D130  D(66,35,36,67)          4.515          estimate D2E/DX2                !
 ! D131  D(35,36,37,38)          2.4659         estimate D2E/DX2                !
 ! D132  D(35,36,37,39)       -178.2049         estimate D2E/DX2                !
 ! D133  D(67,36,37,38)       -178.8891         estimate D2E/DX2                !
 ! D134  D(67,36,37,39)          0.4401         estimate D2E/DX2                !
 ! D135  D(36,37,38,34)         -0.7766         estimate D2E/DX2                !
 ! D136  D(39,37,38,34)        179.8351         estimate D2E/DX2                !
 ! D137  D(36,37,39,40)        172.2112         estimate D2E/DX2                !
 ! D138  D(36,37,39,44)        -12.3563         estimate D2E/DX2                !
 ! D139  D(38,37,39,40)         -8.4975         estimate D2E/DX2                !
 ! D140  D(38,37,39,44)        166.935          estimate D2E/DX2                !
 ! D141  D(37,39,40,41)         -2.3404         estimate D2E/DX2                !
 ! D142  D(37,39,40,42)        175.7881         estimate D2E/DX2                !
 ! D143  D(44,39,40,41)       -178.2681         estimate D2E/DX2                !
 ! D144  D(44,39,40,42)         -0.1396         estimate D2E/DX2                !
 ! D145  D(37,39,44,43)        179.7138         estimate D2E/DX2                !
 ! D146  D(40,39,44,43)         -3.8885         estimate D2E/DX2                !
 ! D147  D(39,40,42,43)          5.5649         estimate D2E/DX2                !
 ! D148  D(39,40,42,68)        174.9135         estimate D2E/DX2                !
 ! D149  D(41,40,42,43)       -176.3533         estimate D2E/DX2                !
 ! D150  D(41,40,42,68)         -7.0047         estimate D2E/DX2                !
 ! D151  D(40,42,43,44)         -8.2486         estimate D2E/DX2                !
 ! D152  D(40,42,43,45)       -178.6695         estimate D2E/DX2                !
 ! D153  D(68,42,43,44)       -177.9327         estimate D2E/DX2                !
 ! D154  D(68,42,43,45)         11.6464         estimate D2E/DX2                !
 ! D155  D(42,43,44,39)          6.9642         estimate D2E/DX2                !
 ! D156  D(45,43,44,39)        178.2155         estimate D2E/DX2                !
 ! D157  D(42,43,45,46)        169.191          estimate D2E/DX2                !
 ! D158  D(42,43,45,49)        -13.0007         estimate D2E/DX2                !
 ! D159  D(44,43,45,46)         -0.293          estimate D2E/DX2                !
 ! D160  D(44,43,45,49)        177.5153         estimate D2E/DX2                !
 ! D161  D(43,45,46,47)        174.0601         estimate D2E/DX2                !
 ! D162  D(43,45,46,69)          3.2851         estimate D2E/DX2                !
 ! D163  D(49,45,46,47)         -3.9512         estimate D2E/DX2                !
 ! D164  D(49,45,46,69)       -174.7263         estimate D2E/DX2                !
 ! D165  D(43,45,49,48)       -177.8641         estimate D2E/DX2                !
 ! D166  D(46,45,49,48)          0.2216         estimate D2E/DX2                !
 ! D167  D(45,46,47,48)          7.2918         estimate D2E/DX2                !
 ! D168  D(45,46,47,70)        179.4457         estimate D2E/DX2                !
 ! D169  D(69,46,47,48)        178.9327         estimate D2E/DX2                !
 ! D170  D(69,46,47,70)         -8.9135         estimate D2E/DX2                !
 ! D171  D(46,47,48,49)         -6.9754         estimate D2E/DX2                !
 ! D172  D(46,47,48,50)        178.2515         estimate D2E/DX2                !
 ! D173  D(70,47,48,49)       -178.6847         estimate D2E/DX2                !
 ! D174  D(70,47,48,50)          6.5422         estimate D2E/DX2                !
 ! D175  D(47,48,49,45)          3.7504         estimate D2E/DX2                !
 ! D176  D(50,48,49,45)        179.0598         estimate D2E/DX2                !
 ! D177  D(47,48,50,51)         17.3071         estimate D2E/DX2                !
 ! D178  D(47,48,50,55)       -164.7869         estimate D2E/DX2                !
 ! D179  D(49,48,50,51)       -156.8351         estimate D2E/DX2                !
 ! D180  D(49,48,50,55)         21.0709         estimate D2E/DX2                !
 ! D181  D(48,50,51,52)         -4.7924         estimate D2E/DX2                !
 ! D182  D(48,50,51,53)       -177.2347         estimate D2E/DX2                !
 ! D183  D(55,50,51,52)        177.0763         estimate D2E/DX2                !
 ! D184  D(55,50,51,53)          4.6339         estimate D2E/DX2                !
 ! D185  D(48,50,55,54)        178.678          estimate D2E/DX2                !
 ! D186  D(51,50,55,54)         -3.1345         estimate D2E/DX2                !
 ! D187  D(50,51,53,54)         -4.0864         estimate D2E/DX2                !
 ! D188  D(50,51,53,71)       -178.4204         estimate D2E/DX2                !
 ! D189  D(52,51,53,54)       -176.7929         estimate D2E/DX2                !
 ! D190  D(52,51,53,71)          8.8731         estimate D2E/DX2                !
 ! D191  D(51,53,54,55)          1.616          estimate D2E/DX2                !
 ! D192  D(51,53,54,72)       -179.7132         estimate D2E/DX2                !
 ! D193  D(71,53,54,55)        176.0009         estimate D2E/DX2                !
 ! D194  D(71,53,54,72)         -5.3283         estimate D2E/DX2                !
 ! D195  D(53,54,55,50)          0.8398         estimate D2E/DX2                !
 ! D196  D(72,54,55,50)       -177.8697         estimate D2E/DX2                !
 --------------------------------------------------------------------------------
 Trust Radius=3.00D-01 FncErr=1.00D-07 GrdErr=1.00D-06 EigMax=2.50D+02 EigMin=1.00D-04
 Number of steps in this run=    417 maximum allowed number of steps=    432.
 GradGradGradGradGradGradGradGradGradGradGradGradGradGradGradGradGradGrad

 Leave Link  103 at Thu Jul 23 23:41:14 2020, MaxMem=  4026531840 cpu:               0.1 elap:               0.0
 (Enter /opt/ohpc/pub/libs/gaussian/g16-A.03/sandybridge/g16/l202.exe)
 Stoichiometry    C40H17F5S10
 Framework group  C1[X(C40H17F5S10)]
 Deg. of freedom   210
 Full point group                 C1      NOp   1
 Largest Abelian subgroup         C1      NOp   1
 Largest concise Abelian subgroup C1      NOp   1
                         Standard orientation:                         
 ---------------------------------------------------------------------
 Center     Atomic      Atomic             Coordinates (Angstroms)
 Number     Number       Type             X           Y           Z
 ---------------------------------------------------------------------
      1          6           0       18.897194   -0.551907   -0.033932
      2          6           0       18.351060   -1.793185    0.163600
      3          6           0       16.880779   -1.742364    0.210991
      4          6           0       16.394677   -0.514549    0.106209
      5         16           0       17.659374    0.705802   -0.135648
      6          6           0       14.988680   -0.060111    0.124006
      7          6           0       14.449996    1.165556    0.045495
      8          9           0       15.187835    2.295438    0.060941
      9          6           0       13.069878    1.244821    0.105428
     10          6           0       12.528342   -0.049839    0.073435
     11         16           0       13.694823   -1.188419    0.090774
     12          6           0       11.125920   -0.358558    0.051467
     13          6           0       10.565252   -1.669693    0.095151
     14          6           0        9.085651   -1.575307    0.073012
     15          6           0        8.579631   -0.392837    0.034028
     16         16           0        9.880972    0.793764   -0.018814
     17          6           0        7.226357    0.052520    0.006897
     18          6           0        6.603872    1.280095    0.095364
     19          9           0        7.300639    2.483210    0.113490
     20          6           0        5.177034    1.304787    0.051875
     21          6           0        4.663687    0.073042   -0.101090
     22         16           0        5.935186   -1.156894   -0.090205
     23          6           0        3.238415   -0.333648   -0.075880
     24          6           0        2.767707   -1.560365   -0.236469
     25          6           0        1.308441   -1.572374   -0.314959
     26          6           0        0.769172   -0.269982   -0.123496
     27         16           0        2.017738    0.902220    0.005126
     28          6           0       -0.642405    0.097085   -0.108551
     29          6           0       -1.193381    1.290832   -0.247785
     30          9           0       -0.473072    2.460173   -0.322114
     31          6           0       -2.661611    1.299863   -0.179577
     32          6           0       -3.117805    0.036343   -0.102327
     33         16           0       -1.885765   -1.089050   -0.089763
     34          6           0       -4.551396   -0.277024   -0.044606
     35          6           0       -5.049566   -1.622982    0.078357
     36          6           0       -6.469443   -1.629655    0.091225
     37          6           0       -7.017582   -0.335167    0.054621
     38         16           0       -5.851427    0.872268   -0.061099
     39          6           0       -8.486635    0.046644    0.093260
     40          6           0       -9.081447    1.237562    0.199645
     41          9           0       -8.312125    2.421354    0.350614
     42          6           0      -10.458398    1.242629    0.113771
     43          6           0      -10.988328    0.002409    0.052390
     44         16           0       -9.751312   -1.146767   -0.126103
     45          6           0      -12.420158   -0.386698   -0.073053
     46          6           0      -12.888638   -1.652446   -0.339785
     47          6           0      -14.318503   -1.655705   -0.245842
     48          6           0      -14.922958   -0.449606   -0.080689
     49         16           0      -13.695438    0.721512    0.159710
     50          6           0      -16.336717   -0.109847    0.013646
     51          6           0      -17.330456   -0.960917    0.275662
     52          9           0      -17.174540   -2.337666    0.407793
     53          6           0      -18.572164   -0.384029    0.246703
     54          6           0      -18.513546    0.997218    0.036621
     55         16           0      -16.916280    1.434106   -0.148249
     56          1           0       19.880976   -0.303843   -0.073078
     57          1           0       18.951666   -2.686449    0.278431
     58          1           0       16.254933   -2.653029    0.418292
     59          1           0       12.504315    2.130788    0.087124
     60          1           0       11.131834   -2.527484    0.098938
     61          1           0        8.488647   -2.486915    0.057502
     62          1           0        4.665384    2.275173    0.065216
     63          1           0        3.309785   -2.510717   -0.354766
     64          1           0        0.696070   -2.422839   -0.383615
     65          1           0       -3.217947    2.240884   -0.194252
     66          1           0       -4.490732   -2.471829    0.054872
     67          1           0       -7.134430   -2.543774    0.149392
     68          1           0      -11.104846    2.156743    0.266895
     69          1           0      -12.330494   -2.580442   -0.455490
     70          1           0      -14.854610   -2.582932   -0.437954
     71          1           0      -19.519276   -0.929895    0.464923
     72          1           0      -19.299472    1.641656   -0.019517
 ---------------------------------------------------------------------
 Rotational constants (GHZ):           0.3330078           0.0043514           0.0042970
 Leave Link  202 at Thu Jul 23 23:41:14 2020, MaxMem=  4026531840 cpu:               0.2 elap:               0.1
 (Enter /opt/ohpc/pub/libs/gaussian/g16-A.03/sandybridge/g16/l301.exe)
 Standard basis: CC-pVDZ (5D, 7F)
 Ernie: Thresh=  0.10000D-02 Tol=  0.10000D-05 Strict=F.
 Ernie:  190 primitive shells out of 1575 were deleted.
 There are   950 symmetry adapted cartesian basis functions of A   symmetry.
 There are   895 symmetry adapted basis functions of A   symmetry.
   895 basis functions,  2314 primitive gaussians,   950 cartesian basis functions
   231 alpha electrons      231 beta electrons
       nuclear repulsion energy      7677.6888196406 Hartrees.
 IExCor=32609 DFT=T Ex+Corr=LC-wPBE ExCW=0 ScaHFX=  1.000000
 ScaDFX=  1.000000  0.000000  1.000000  1.000000 ScalE2=  1.000000  1.000000
 IRadAn=      5 IRanWt=     -1 IRanGd=            0 ICorTp=0 IEmpDi=  4
 HFx  wShort=  0.000000 wLong=  0.193800 cFull=  0.000000 cShort=  0.000000 cLong=  1.000000
 DFx  wShort=  0.000000 wLong=  0.193800 cFull=  0.000000 cShort=  0.000000 cLong=  1.000000
 NAtoms=   72 NActive=   72 NUniq=   72 SFac= 1.00D+00 NAtFMM=   60 NAOKFM=T Big=T
 Integral buffers will be    131072 words long.
 Raffenetti 2 integral format.
 Two-electron integral symmetry is turned on.
 Leave Link  301 at Thu Jul 23 23:41:14 2020, MaxMem=  4026531840 cpu:               0.5 elap:               0.1
 (Enter /opt/ohpc/pub/libs/gaussian/g16-A.03/sandybridge/g16/l302.exe)
 NPDir=0 NMtPBC=     1 NCelOv=     1 NCel=       1 NClECP=     1 NCelD=      1
         NCelK=      1 NCelE2=     1 NClLst=     1 CellRange=     0.0.
 One-electron integrals computed using PRISM.
 One-electron integral symmetry used in STVInt
 NBasis=   895 RedAO= T EigKep=  3.03D-04  NBF=   895
 NBsUse=   895 1.00D-06 EigRej= -1.00D+00 NBFU=   895
 Precomputing XC quadrature grid using
 IXCGrd= 4 IRadAn=           5 IRanWt=          -1 IRanGd=           0 AccXCQ= 0.00D+00.
 Generated NRdTot=       0 NPtTot=           0 NUsed=           0 NTot=          32
 NSgBfM=   550   550   550   550   550 MxSgAt=    72 MxSgA2=    63.
 Leave Link  302 at Thu Jul 23 23:41:17 2020, MaxMem=  4026531840 cpu:              19.8 elap:               2.5
 (Enter /opt/ohpc/pub/libs/gaussian/g16-A.03/sandybridge/g16/l303.exe)
 DipDrv:  MaxL=1.
 Leave Link  303 at Thu Jul 23 23:41:17 2020, MaxMem=  4026531840 cpu:               1.4 elap:               0.2
 (Enter /opt/ohpc/pub/libs/gaussian/g16-A.03/sandybridge/g16/l401.exe)
 ExpMin= 1.22D-01 ExpMax= 1.11D+05 ExpMxC= 1.07D+03 IAcc=3 IRadAn=         5 AccDes= 0.00D+00
 Harris functional with IExCor=32609 and IRadAn=       5 diagonalized for initial guess.
 HarFok:  IExCor=32609 AccDes= 0.00D+00 IRadAn=         5 IDoV= 1 UseB2=F ITyADJ=14
 ICtDFT=  3500011 ScaDFX=  1.000000  1.000000  1.000000  1.000000
 FoFCou: FMM=F IPFlag=           0 FMFlag=      100000 FMFlg1=        2001
         NFxFlg=           0 DoJE=T BraDBF=F KetDBF=T FulRan=T
         wScrn=  0.000000 ICntrl=       500 IOpCl=  0 I1Cent=   200000004 NGrid=           0
         NMat0=    1 NMatS0=      1 NMatT0=    0 NMatD0=    1 NMtDS0=    0 NMtDT0=    0
 Petite list used in FoFCou.
 Harris En= -6012.18796648082    
 JPrj=0 DoOrth=F DoCkMO=F.
 Initial guess <Sx>= 0.0000 <Sy>= 0.0000 <Sz>= 0.0000 <S**2>=-0.0000 S=-0.0000
 Leave Link  401 at Thu Jul 23 23:41:26 2020, MaxMem=  4026531840 cpu:              65.6 elap:               8.3
 (Enter /opt/ohpc/pub/libs/gaussian/g16-A.03/sandybridge/g16/l502.exe)
 Integral symmetry usage will be decided dynamically.
 UHF open shell SCF:
 Using DIIS extrapolation, IDIIS=  1040.
 NGot=  4026531840 LenX=  4024709984 LenY=  4023806534
 Requested convergence on RMS density matrix=1.00D-08 within 128 cycles.
 Requested convergence on MAX density matrix=1.00D-06.
 Requested convergence on             energy=1.00D-06.
 No special actions if energy rises.
 Fock matrices will be formed incrementally for  20 cycles.
 Integral accuracy reduced to 1.0D-05 until final iterations.

 Cycle   1  Pass 0  IDiag  1:
 FoFJK:  IHMeth= 1 ICntrl=       0 DoSepK=T KAlg= 0 I1Cent=           0 FoldK=F
 IRaf=         1 NMat=       1 IRICut=       1 DoRegI=T DoRafI=F ISym2E= 0 IDoP0=0 IntGTp=1.
 FoFCou: FMM=T IPFlag=           0 FMFlag=      100000 FMFlg1=        2001
         NFxFlg=           0 DoJE=T BraDBF=F KetDBF=F FulRan=T
         wScrn=  0.000000 ICntrl=       500 IOpCl=  0 I1Cent=           0 NGrid=           0
         NMat0=    1 NMatS0=      1 NMatT0=    0 NMatD0=    1 NMtDS0=    0 NMtDT0=    0
 Symmetry not used in FoFCou.
 FMM levels:  10  Number of levels for PrismC:   9
 E= -6011.06104417424    
 DIIS: error= 1.96D-02 at cycle   1 NSaved=   1.
 NSaved= 1 IEnMin= 1 EnMin= -6011.06104417424     IErMin= 1 ErrMin= 1.96D-02
 ErrMax= 1.96D-02  0.00D+00 EMaxC= 1.00D-01 BMatC= 4.83D+00 BMatP= 4.83D+00
 IDIUse=3 WtCom= 8.04D-01 WtEn= 1.96D-01
 Coeff-Com:  0.100D+01
 Coeff-En:   0.100D+01
 Coeff:      0.100D+01
 Gap=     0.172 Goal=   None    Shift=    0.000
 Gap=     0.172 Goal=   None    Shift=    0.000
 GapD=    0.172 DampG=1.000 DampE=0.500 DampFc=0.5000 IDamp=-1.
 Damping current iteration by 5.00D-01
 RMSDP=2.85D-03 MaxDP=1.61D-01              OVMax= 2.59D-01

 Cycle   2  Pass 0  IDiag  1:
 RMSU=  1.42D-03    CP:  9.90D-01
 E= -6011.70336922029     Delta-E=       -0.642325046048 Rises=F Damp=T
 DIIS: error= 3.39D-03 at cycle   2 NSaved=   2.
 NSaved= 2 IEnMin= 2 EnMin= -6011.70336922029     IErMin= 2 ErrMin= 3.39D-03
 ErrMax= 3.39D-03  0.00D+00 EMaxC= 1.00D-01 BMatC= 1.60D-01 BMatP= 4.83D+00
 IDIUse=3 WtCom= 9.66D-01 WtEn= 3.39D-02
 Coeff-Com:  0.691D-01 0.931D+00
 Coeff-En:   0.105D+00 0.895D+00
 Coeff:      0.704D-01 0.930D+00
 Gap=     0.202 Goal=   None    Shift=    0.000
 Gap=     0.202 Goal=   None    Shift=    0.000
 RMSDP=6.51D-04 MaxDP=2.84D-02 DE=-6.42D-01 OVMax= 1.63D-01

 Cycle   3  Pass 0  IDiag  1:
 RMSU=  6.50D-04    CP:  9.89D-01  9.82D-01
 E= -6012.45014063951     Delta-E=       -0.746771419219 Rises=F Damp=F
 DIIS: error= 2.43D-03 at cycle   3 NSaved=   3.
 NSaved= 3 IEnMin= 3 EnMin= -6012.45014063951     IErMin= 3 ErrMin= 2.43D-03
 ErrMax= 2.43D-03  0.00D+00 EMaxC= 1.00D-01 BMatC= 6.89D-02 BMatP= 1.60D-01
 IDIUse=3 WtCom= 9.76D-01 WtEn= 2.43D-02
 Coeff-Com:  0.252D-01 0.364D+00 0.611D+00
 Coeff-En:   0.000D+00 0.000D+00 0.100D+01
 Coeff:      0.246D-01 0.355D+00 0.620D+00
 Gap=     0.206 Goal=   None    Shift=    0.000
 Gap=     0.206 Goal=   None    Shift=    0.000
 RMSDP=2.44D-04 MaxDP=1.42D-02 DE=-7.47D-01 OVMax= 2.99D-02

 Cycle   4  Pass 0  IDiag  1:
 RMSU=  2.11D-04    CP:  9.89D-01  9.94D-01  8.13D-01
 E= -6012.46419243256     Delta-E=       -0.014051793056 Rises=F Damp=F
 DIIS: error= 1.36D-03 at cycle   4 NSaved=   4.
 NSaved= 4 IEnMin= 4 EnMin= -6012.46419243256     IErMin= 4 ErrMin= 1.36D-03
 ErrMax= 1.36D-03  0.00D+00 EMaxC= 1.00D-01 BMatC= 1.97D-02 BMatP= 6.89D-02
 IDIUse=3 WtCom= 9.86D-01 WtEn= 1.36D-02
 Coeff-Com:  0.994D-02 0.110D-01 0.333D+00 0.646D+00
 Coeff-En:   0.000D+00 0.000D+00 0.193D+00 0.807D+00
 Coeff:      0.981D-02 0.109D-01 0.331D+00 0.648D+00
 Gap=     0.208 Goal=   None    Shift=    0.000
 Gap=     0.208 Goal=   None    Shift=    0.000
 RMSDP=1.02D-04 MaxDP=6.68D-03 DE=-1.41D-02 OVMax= 1.48D-02

 Cycle   5  Pass 0  IDiag  1:
 RMSU=  7.35D-05    CP:  9.89D-01  9.88D-01  8.94D-01  7.78D-01
 E= -6012.46979724620     Delta-E=       -0.005604813641 Rises=F Damp=F
 DIIS: error= 3.14D-04 at cycle   5 NSaved=   5.
 NSaved= 5 IEnMin= 5 EnMin= -6012.46979724620     IErMin= 5 ErrMin= 3.14D-04
 ErrMax= 3.14D-04  0.00D+00 EMaxC= 1.00D-01 BMatC= 1.10D-03 BMatP= 1.97D-02
 IDIUse=3 WtCom= 9.97D-01 WtEn= 3.14D-03
 Coeff-Com:  0.470D-02-0.344D-01 0.575D-01 0.223D+00 0.749D+00
 Coeff-En:   0.000D+00 0.000D+00 0.000D+00 0.000D+00 0.100D+01
 Coeff:      0.469D-02-0.343D-01 0.573D-01 0.222D+00 0.750D+00
 Gap=     0.209 Goal=   None    Shift=    0.000
 Gap=     0.209 Goal=   None    Shift=    0.000
 RMSDP=3.65D-05 MaxDP=1.69D-03 DE=-5.60D-03 OVMax= 4.42D-03

 Cycle   6  Pass 0  IDiag  1:
 RMSU=  2.84D-05    CP:  9.89D-01  9.84D-01  9.16D-01  8.60D-01  1.02D+00
 E= -6012.47015682075     Delta-E=       -0.000359574547 Rises=F Damp=F
 DIIS: error= 2.02D-04 at cycle   6 NSaved=   6.
 NSaved= 6 IEnMin= 6 EnMin= -6012.47015682075     IErMin= 6 ErrMin= 2.02D-04
 ErrMax= 2.02D-04  0.00D+00 EMaxC= 1.00D-01 BMatC= 3.91D-04 BMatP= 1.10D-03
 IDIUse=3 WtCom= 9.98D-01 WtEn= 2.02D-03
 Coeff-Com:  0.197D-02-0.243D-01-0.226D-01 0.210D-01 0.429D+00 0.595D+00
 Coeff-En:   0.000D+00 0.000D+00 0.000D+00 0.000D+00 0.000D+00 0.100D+01
 Coeff:      0.197D-02-0.242D-01-0.225D-01 0.210D-01 0.428D+00 0.596D+00
 Gap=     0.210 Goal=   None    Shift=    0.000
 Gap=     0.210 Goal=   None    Shift=    0.000
 RMSDP=1.80D-05 MaxDP=8.87D-04 DE=-3.60D-04 OVMax= 2.49D-03

 Cycle   7  Pass 0  IDiag  1:
 RMSU=  1.37D-05    CP:  9.89D-01  9.82D-01  9.21D-01  8.79D-01  1.15D+00
                    CP:  8.73D-01
 E= -6012.47028926688     Delta-E=       -0.000132446134 Rises=F Damp=F
 DIIS: error= 6.23D-05 at cycle   7 NSaved=   7.
 NSaved= 7 IEnMin= 7 EnMin= -6012.47028926688     IErMin= 7 ErrMin= 6.23D-05
 ErrMax= 6.23D-05  0.00D+00 EMaxC= 1.00D-01 BMatC= 3.40D-05 BMatP= 3.91D-04
 IDIUse=1 WtCom= 1.00D+00 WtEn= 0.00D+00
 Coeff-Com:  0.207D-03-0.373D-02-0.144D-01-0.268D-01 0.731D-02 0.211D+00
 Coeff-Com:  0.826D+00
 Coeff:      0.207D-03-0.373D-02-0.144D-01-0.268D-01 0.731D-02 0.211D+00
 Coeff:      0.826D+00
 Gap=     0.210 Goal=   None    Shift=    0.000
 Gap=     0.210 Goal=   None    Shift=    0.000
 RMSDP=1.32D-05 MaxDP=4.27D-04 DE=-1.32D-04 OVMax= 1.64D-03

 Cycle   8  Pass 0  IDiag  1:
 RMSU=  1.11D-05    CP:  9.89D-01  9.82D-01  9.25D-01  8.89D-01  1.19D+00
                    CP:  1.06D+00  1.18D+00
 E= -6012.47030886916     Delta-E=       -0.000019602277 Rises=F Damp=F
 DIIS: error= 3.52D-05 at cycle   8 NSaved=   8.
 NSaved= 8 IEnMin= 8 EnMin= -6012.47030886916     IErMin= 8 ErrMin= 3.52D-05
 ErrMax= 3.52D-05  0.00D+00 EMaxC= 1.00D-01 BMatC= 1.32D-05 BMatP= 3.40D-05
 IDIUse=1 WtCom= 1.00D+00 WtEn= 0.00D+00
 Coeff-Com: -0.120D-03 0.116D-02-0.454D-02-0.184D-01-0.631D-01 0.341D-01
 Coeff-Com:  0.478D+00 0.573D+00
 Coeff:     -0.120D-03 0.116D-02-0.454D-02-0.184D-01-0.631D-01 0.341D-01
 Coeff:      0.478D+00 0.573D+00
 Gap=     0.210 Goal=   None    Shift=    0.000
 Gap=     0.210 Goal=   None    Shift=    0.000
 RMSDP=9.25D-06 MaxDP=2.89D-04 DE=-1.96D-05 OVMax= 5.05D-04

 Initial convergence to 1.0D-05 achieved.  Increase integral accuracy.
 Cycle   9  Pass 1  IDiag  1:
 E= -6012.46951097734     Delta-E=        0.000797891826 Rises=F Damp=F
 DIIS: error= 1.75D-04 at cycle   1 NSaved=   1.
 NSaved= 1 IEnMin= 1 EnMin= -6012.46951097734     IErMin= 1 ErrMin= 1.75D-04
 ErrMax= 1.75D-04  0.00D+00 EMaxC= 1.00D-01 BMatC= 1.04D-04 BMatP= 1.04D-04
 IDIUse=3 WtCom= 9.98D-01 WtEn= 1.75D-03
 Coeff-Com:  0.100D+01
 Coeff-En:   0.100D+01
 Coeff:      0.100D+01
 Gap=     0.210 Goal=   None    Shift=    0.000
 Gap=     0.210 Goal=   None    Shift=    0.000
 RMSDP=9.25D-06 MaxDP=2.89D-04 DE= 7.98D-04 OVMax= 3.00D-04

 Cycle  10  Pass 1  IDiag  1:
 RMSU=  9.00D-05    CP:  1.00D+00
 E= -6012.46953102783     Delta-E=       -0.000020050491 Rises=F Damp=F
 DIIS: error= 1.09D-05 at cycle   2 NSaved=   2.
 NSaved= 2 IEnMin= 2 EnMin= -6012.46953102783     IErMin= 2 ErrMin= 1.09D-05
 ErrMax= 1.09D-05  0.00D+00 EMaxC= 1.00D-01 BMatC= 1.70D-06 BMatP= 1.04D-04
 IDIUse=1 WtCom= 1.00D+00 WtEn= 0.00D+00
 Coeff-Com: -0.818D-02 0.101D+01
 Coeff:     -0.818D-02 0.101D+01
 Gap=     0.210 Goal=   None    Shift=    0.000
 Gap=     0.210 Goal=   None    Shift=    0.000
 RMSDP=4.59D-06 MaxDP=1.74D-04 DE=-2.01D-05 OVMax= 2.77D-04

 Cycle  11  Pass 1  IDiag  1:
 RMSU=  2.37D-06    CP:  1.00D+00  1.04D+00
 E= -6012.46953038402     Delta-E=        0.000000643806 Rises=F Damp=F
 DIIS: error= 2.03D-05 at cycle   3 NSaved=   3.
 NSaved= 3 IEnMin= 2 EnMin= -6012.46953102783     IErMin= 2 ErrMin= 1.09D-05
 ErrMax= 2.03D-05  0.00D+00 EMaxC= 1.00D-01 BMatC= 4.34D-06 BMatP= 1.70D-06
 IDIUse=1 WtCom= 1.00D+00 WtEn= 0.00D+00
 Coeff-Com: -0.210D-01 0.635D+00 0.386D+00
 Coeff:     -0.210D-01 0.635D+00 0.386D+00
 Gap=     0.210 Goal=   None    Shift=    0.000
 Gap=     0.210 Goal=   None    Shift=    0.000
 RMSDP=1.18D-06 MaxDP=1.15D-04 DE= 6.44D-07 OVMax= 1.80D-04

 Cycle  12  Pass 1  IDiag  1:
 RMSU=  8.25D-07    CP:  1.00D+00  1.05D+00  6.53D-01
 E= -6012.46953151890     Delta-E=       -0.000001134875 Rises=F Damp=F
 DIIS: error= 1.86D-06 at cycle   4 NSaved=   4.
 NSaved= 4 IEnMin= 4 EnMin= -6012.46953151890     IErMin= 4 ErrMin= 1.86D-06
 ErrMax= 1.86D-06  0.00D+00 EMaxC= 1.00D-01 BMatC= 2.65D-08 BMatP= 1.70D-06
 IDIUse=1 WtCom= 1.00D+00 WtEn= 0.00D+00
 Coeff-Com: -0.647D-02 0.174D+00 0.124D+00 0.708D+00
 Coeff:     -0.647D-02 0.174D+00 0.124D+00 0.708D+00
 Gap=     0.210 Goal=   None    Shift=    0.000
 Gap=     0.210 Goal=   None    Shift=    0.000
 RMSDP=1.90D-07 MaxDP=9.44D-06 DE=-1.13D-06 OVMax= 2.37D-05

 Cycle  13  Pass 1  IDiag  1:
 RMSU=  1.60D-07    CP:  1.00D+00  1.05D+00  6.84D-01  1.05D+00
 E= -6012.46953152943     Delta-E=       -0.000000010534 Rises=F Damp=F
 DIIS: error= 1.28D-06 at cycle   5 NSaved=   5.
 NSaved= 5 IEnMin= 5 EnMin= -6012.46953152943     IErMin= 5 ErrMin= 1.28D-06
 ErrMax= 1.28D-06  0.00D+00 EMaxC= 1.00D-01 BMatC= 1.18D-08 BMatP= 2.65D-08
 IDIUse=1 WtCom= 1.00D+00 WtEn= 0.00D+00
 Coeff-Com:  0.246D-02-0.871D-01-0.416D-01 0.403D+00 0.723D+00
 Coeff:      0.246D-02-0.871D-01-0.416D-01 0.403D+00 0.723D+00
 Gap=     0.210 Goal=   None    Shift=    0.000
 Gap=     0.210 Goal=   None    Shift=    0.000
 RMSDP=1.32D-07 MaxDP=6.36D-06 DE=-1.05D-08 OVMax= 2.27D-05

 Cycle  14  Pass 1  IDiag  1:
 RMSU=  1.02D-07    CP:  1.00D+00  1.05D+00  7.03D-01  1.13D+00  1.02D+00
 E= -6012.46953153588     Delta-E=       -0.000000006446 Rises=F Damp=F
 DIIS: error= 5.49D-07 at cycle   6 NSaved=   6.
 NSaved= 6 IEnMin= 6 EnMin= -6012.46953153588     IErMin= 6 ErrMin= 5.49D-07
 ErrMax= 5.49D-07  0.00D+00 EMaxC= 1.00D-01 BMatC= 1.37D-09 BMatP= 1.18D-08
 IDIUse=1 WtCom= 1.00D+00 WtEn= 0.00D+00
 Coeff-Com:  0.183D-02-0.574D-01-0.326D-01 0.529D-01 0.296D+00 0.739D+00
 Coeff:      0.183D-02-0.574D-01-0.326D-01 0.529D-01 0.296D+00 0.739D+00
 Gap=     0.210 Goal=   None    Shift=    0.000
 Gap=     0.210 Goal=   None    Shift=    0.000
 RMSDP=4.83D-08 MaxDP=3.43D-06 DE=-6.45D-09 OVMax= 1.17D-05

 Cycle  15  Pass 1  IDiag  1:
 RMSU=  3.30D-08    CP:  1.00D+00  1.05D+00  7.06D-01  1.14D+00  1.19D+00
                    CP:  1.16D+00
 E= -6012.46953153616     Delta-E=       -0.000000000284 Rises=F Damp=F
 DIIS: error= 1.99D-07 at cycle   7 NSaved=   7.
 NSaved= 7 IEnMin= 7 EnMin= -6012.46953153616     IErMin= 7 ErrMin= 1.99D-07
 ErrMax= 1.99D-07  0.00D+00 EMaxC= 1.00D-01 BMatC= 2.99D-10 BMatP= 1.37D-09
 IDIUse=1 WtCom= 1.00D+00 WtEn= 0.00D+00
 Coeff-Com:  0.138D-03-0.165D-02-0.283D-02-0.892D-01-0.638D-01 0.322D+00
 Coeff-Com:  0.836D+00
 Coeff:      0.138D-03-0.165D-02-0.283D-02-0.892D-01-0.638D-01 0.322D+00
 Coeff:      0.836D+00
 Gap=     0.210 Goal=   None    Shift=    0.000
 Gap=     0.210 Goal=   None    Shift=    0.000
 RMSDP=2.73D-08 MaxDP=1.45D-06 DE=-2.84D-10 OVMax= 5.18D-06

 Cycle  16  Pass 1  IDiag  1:
 RMSU=  1.12D-08    CP:  1.00D+00  1.05D+00  7.07D-01  1.14D+00  1.27D+00
                    CP:  1.37D+00  1.00D+00
 E= -6012.46953153315     Delta-E=        0.000000003014 Rises=F Damp=F
 DIIS: error= 5.38D-08 at cycle   8 NSaved=   8.
 NSaved= 8 IEnMin= 7 EnMin= -6012.46953153616     IErMin= 8 ErrMin= 5.38D-08
 ErrMax= 5.38D-08  0.00D+00 EMaxC= 1.00D-01 BMatC= 4.51D-11 BMatP= 2.99D-10
 IDIUse=1 WtCom= 1.00D+00 WtEn= 0.00D+00
 Coeff-Com: -0.120D-03 0.511D-02 0.196D-02-0.522D-01-0.632D-01 0.882D-01
 Coeff-Com:  0.429D+00 0.591D+00
 Coeff:     -0.120D-03 0.511D-02 0.196D-02-0.522D-01-0.632D-01 0.882D-01
 Coeff:      0.429D+00 0.591D+00
 Gap=     0.210 Goal=   None    Shift=    0.000
 Gap=     0.210 Goal=   None    Shift=    0.000
 RMSDP=6.52D-09 MaxDP=3.79D-07 DE= 3.01D-09 OVMax= 1.01D-06

 Cycle  17  Pass 1  IDiag  1:
 RMSU=  4.22D-09    CP:  1.00D+00  1.05D+00  7.07D-01  1.14D+00  1.29D+00
                    CP:  1.40D+00  1.06D+00  8.66D-01
 E= -6012.46953153219     Delta-E=        0.000000000953 Rises=F Damp=F
 DIIS: error= 1.06D-08 at cycle   9 NSaved=   9.
 NSaved= 9 IEnMin= 7 EnMin= -6012.46953153616     IErMin= 9 ErrMin= 1.06D-08
 ErrMax= 1.06D-08  0.00D+00 EMaxC= 1.00D-01 BMatC= 2.38D-12 BMatP= 4.51D-11
 IDIUse=1 WtCom= 1.00D+00 WtEn= 0.00D+00
 Coeff-Com: -0.622D-04 0.236D-02 0.106D-02-0.170D-01-0.226D-01 0.193D-01
 Coeff-Com:  0.134D+00 0.257D+00 0.625D+00
 Coeff:     -0.622D-04 0.236D-02 0.106D-02-0.170D-01-0.226D-01 0.193D-01
 Coeff:      0.134D+00 0.257D+00 0.625D+00
 Gap=     0.210 Goal=   None    Shift=    0.000
 Gap=     0.210 Goal=   None    Shift=    0.000
 RMSDP=1.41D-09 MaxDP=8.54D-08 DE= 9.53D-10 OVMax= 1.86D-07

 SCF Done:  E(ULC-wPBE) =  -6012.46953153     A.U. after   17 cycles
            NFock= 17  Conv=0.14D-08     -V/T= 2.0032
 <Sx>= 0.0000 <Sy>= 0.0000 <Sz>= 0.0000 <S**2>=-0.0000 S=-0.0000
 <L.S>= 0.000000000000E+00
 KE= 5.993399238111D+03 PE=-2.956496392100D+04 EE= 9.881406331721D+03
 Annihilation of the first spin contaminant:
 S**2 before annihilation    -0.0000,   after     0.0000
 Leave Link  502 at Thu Jul 23 23:50:37 2020, MaxMem=  4026531840 cpu:            4322.6 elap:             551.9
 (Enter /opt/ohpc/pub/libs/gaussian/g16-A.03/sandybridge/g16/l601.exe)
 Copying SCF densities to generalized density rwf, IOpCl= 1 IROHF=0.

 **********************************************************************

            Population analysis using the SCF density.

 **********************************************************************

 Orbital symmetries:
 Alpha Orbitals:
       Occupied  (A) (A) (A) (A) (A) (A) (A) (A) (A) (A) (A) (A)
                 (A) (A) (A) (A) (A) (A) (A) (A) (A) (A) (A) (A)
                 (A) (A) (A) (A) (A) (A) (A) (A) (A) (A) (A) (A)
                 (A) (A) (A) (A) (A) (A) (A) (A) (A) (A) (A) (A)
                 (A) (A) (A) (A) (A) (A) (A) (A) (A) (A) (A) (A)
                 (A) (A) (A) (A) (A) (A) (A) (A) (A) (A) (A) (A)
                 (A) (A) (A) (A) (A) (A) (A) (A) (A) (A) (A) (A)
                 (A) (A) (A) (A) (A) (A) (A) (A) (A) (A) (A) (A)
                 (A) (A) (A) (A) (A) (A) (A) (A) (A) (A) (A) (A)
                 (A) (A) (A) (A) (A) (A) (A) (A) (A) (A) (A) (A)
                 (A) (A) (A) (A) (A) (A) (A) (A) (A) (A) (A) (A)
                 (A) (A) (A) (A) (A) (A) (A) (A) (A) (A) (A) (A)
                 (A) (A) (A) (A) (A) (A) (A) (A) (A) (A) (A) (A)
                 (A) (A) (A) (A) (A) (A) (A) (A) (A) (A) (A) (A)
                 (A) (A) (A) (A) (A) (A) (A) (A) (A) (A) (A) (A)
                 (A) (A) (A) (A) (A) (A) (A) (A) (A) (A) (A) (A)
                 (A) (A) (A) (A) (A) (A) (A) (A) (A) (A) (A) (A)
                 (A) (A) (A) (A) (A) (A) (A) (A) (A) (A) (A) (A)
                 (A) (A) (A) (A) (A) (A) (A) (A) (A) (A) (A) (A)
                 (A) (A) (A)
       Virtual   (A) (A) (A) (A) (A) (A) (A) (A) (A) (A) (A) (A)
                 (A) (A) (A) (A) (A) (A) (A) (A) (A) (A) (A) (A)
                 (A) (A) (A) (A) (A) (A) (A) (A) (A) (A) (A) (A)
                 (A) (A) (A) (A) (A) (A) (A) (A) (A) (A) (A) (A)
                 (A) (A) (A) (A) (A) (A) (A) (A) (A) (A) (A) (A)
                 (A) (A) (A) (A) (A) (A) (A) (A) (A) (A) (A) (A)
                 (A) (A) (A) (A) (A) (A) (A) (A) (A) (A) (A) (A)
                 (A) (A) (A) (A) (A) (A) (A) (A) (A) (A) (A) (A)
                 (A) (A) (A) (A) (A) (A) (A) (A) (A) (A) (A) (A)
                 (A) (A) (A) (A) (A) (A) (A) (A) (A) (A) (A) (A)
                 (A) (A) (A) (A) (A) (A) (A) (A) (A) (A) (A) (A)
                 (A) (A) (A) (A) (A) (A) (A) (A) (A) (A) (A) (A)
                 (A) (A) (A) (A) (A) (A) (A) (A) (A) (A) (A) (A)
                 (A) (A) (A) (A) (A) (A) (A) (A) (A) (A) (A) (A)
                 (A) (A) (A) (A) (A) (A) (A) (A) (A) (A) (A) (A)
                 (A) (A) (A) (A) (A) (A) (A) (A) (A) (A) (A) (A)
                 (A) (A) (A) (A) (A) (A) (A) (A) (A) (A) (A) (A)
                 (A) (A) (A) (A) (A) (A) (A) (A) (A) (A) (A) (A)
                 (A) (A) (A) (A) (A) (A) (A) (A) (A) (A) (A) (A)
                 (A) (A) (A) (A) (A) (A) (A) (A) (A) (A) (A) (A)
                 (A) (A) (A) (A) (A) (A) (A) (A) (A) (A) (A) (A)
                 (A) (A) (A) (A) (A) (A) (A) (A) (A) (A) (A) (A)
                 (A) (A) (A) (A) (A) (A) (A) (A) (A) (A) (A) (A)
                 (A) (A) (A) (A) (A) (A) (A) (A) (A) (A) (A) (A)
                 (A) (A) (A) (A) (A) (A) (A) (A) (A) (A) (A) (A)
                 (A) (A) (A) (A) (A) (A) (A) (A) (A) (A) (A) (A)
                 (A) (A) (A) (A) (A) (A) (A) (A) (A) (A) (A) (A)
                 (A) (A) (A) (A) (A) (A) (A) (A) (A) (A) (A) (A)
                 (A) (A) (A) (A) (A) (A) (A) (A) (A) (A) (A) (A)
                 (A) (A) (A) (A) (A) (A) (A) (A) (A) (A) (A) (A)
                 (A) (A) (A) (A) (A) (A) (A) (A) (A) (A) (A) (A)
                 (A) (A) (A) (A) (A) (A) (A) (A) (A) (A) (A) (A)
                 (A) (A) (A) (A) (A) (A) (A) (A) (A) (A) (A) (A)
                 (A) (A) (A) (A) (A) (A) (A) (A) (A) (A) (A) (A)
                 (A) (A) (A) (A) (A) (A) (A) (A) (A) (A) (A) (A)
                 (A) (A) (A) (A) (A) (A) (A) (A) (A) (A) (A) (A)
                 (A) (A) (A) (A) (A) (A) (A) (A) (A) (A) (A) (A)
                 (A) (A) (A) (A) (A) (A) (A) (A) (A) (A) (A) (A)
                 (A) (A) (A) (A) (A) (A) (A) (A) (A) (A) (A) (A)
                 (A) (A) (A) (A) (A) (A) (A) (A) (A) (A) (A) (A)
                 (A) (A) (A) (A) (A) (A) (A) (A) (A) (A) (A) (A)
                 (A) (A) (A) (A) (A) (A) (A) (A) (A) (A) (A) (A)
                 (A) (A) (A) (A) (A) (A) (A) (A) (A) (A) (A) (A)
                 (A) (A) (A) (A) (A) (A) (A) (A) (A) (A) (A) (A)
                 (A) (A) (A) (A) (A) (A) (A) (A) (A) (A) (A) (A)
                 (A) (A) (A) (A) (A) (A) (A) (A) (A) (A) (A) (A)
                 (A) (A) (A) (A) (A) (A) (A) (A) (A) (A) (A) (A)
                 (A) (A) (A) (A) (A) (A) (A) (A) (A) (A) (A) (A)
                 (A) (A) (A) (A) (A) (A) (A) (A) (A) (A) (A) (A)
                 (A) (A) (A) (A) (A) (A) (A) (A) (A) (A) (A) (A)
                 (A) (A) (A) (A) (A) (A) (A) (A) (A) (A) (A) (A)
                 (A) (A) (A) (A) (A) (A) (A) (A) (A) (A) (A) (A)
                 (A) (A) (A) (A) (A) (A) (A) (A) (A) (A) (A) (A)
[...]
 
              Baa    -0.0000    -0.000    -0.000    -0.000  0.9793  0.1138  0.1672
    11 S(33)  Bbb     0.0000     0.000     0.000     0.000 -0.2009  0.4517  0.8693
              Bcc     0.0000     0.000     0.000     0.000 -0.0234  0.8849 -0.4652
 
              Baa    -0.0000    -0.000    -0.000    -0.000  0.3442  0.1147  0.9319
    12 C(13)  Bbb    -0.0000    -0.000    -0.000    -0.000  0.9388 -0.0278 -0.3433
              Bcc     0.0000     0.000     0.000     0.000 -0.0135  0.9930 -0.1173
 
              Baa    -0.0000    -0.000    -0.000    -0.000 -0.0178  0.2513  0.9677
    13 C(13)  Bbb     0.0000     0.000     0.000     0.000  0.8120  0.5684 -0.1326
              Bcc     0.0000     0.000     0.000     0.000 -0.5834  0.7834 -0.2142
 
              Baa    -0.0000    -0.000    -0.000    -0.000 -0.0222  0.1497  0.9885
    14 C(13)  Bbb    -0.0000    -0.000    -0.000    -0.000 -0.4908  0.8597 -0.1413
              Bcc     0.0000     0.000     0.000     0.000  0.8710  0.4883 -0.0544
 
              Baa    -0.0000    -0.000    -0.000    -0.000  0.9123 -0.3952  0.1073
    15 C(13)  Bbb    -0.0000    -0.000    -0.000    -0.000  0.4076  0.9017 -0.1444
              Bcc     0.0000     0.000     0.000     0.000 -0.0397  0.1754  0.9837
 
              Baa    -0.0000    -0.000    -0.000    -0.000  0.9961  0.0478  0.0741
    16 S(33)  Bbb     0.0000     0.000     0.000     0.000 -0.0108  0.9001 -0.4355
              Bcc     0.0000     0.000     0.000     0.000 -0.0875  0.4330  0.8971
 
              Baa    -0.0000    -0.000    -0.000    -0.000 -0.6402  0.7642  0.0783
    17 C(13)  Bbb    -0.0000    -0.000    -0.000    -0.000 -0.0854 -0.1721  0.9814
              Bcc     0.0000     0.000     0.000     0.000  0.7635  0.6215  0.1755
 
              Baa    -0.0000    -0.000    -0.000    -0.000 -0.3480  0.9152  0.2031
    18 C(13)  Bbb    -0.0000    -0.000    -0.000    -0.000  0.0607 -0.1942  0.9791
              Bcc     0.0000     0.000     0.000     0.000  0.9355  0.3530  0.0121
 
              Baa    -0.0000    -0.000    -0.000    -0.000  0.7265  0.6743 -0.1324
    19 F(19)  Bbb    -0.0000    -0.000    -0.000    -0.000 -0.6844  0.7273 -0.0516
              Bcc     0.0000     0.000     0.000     0.000  0.0615  0.1282  0.9898
 
              Baa    -0.0000    -0.000    -0.000    -0.000  0.0879  0.3014  0.9494
    20 C(13)  Bbb     0.0000     0.000     0.000     0.000  0.9543  0.2478 -0.1670
              Bcc     0.0000     0.000     0.000     0.000 -0.2856  0.9207 -0.2659
 
              Baa    -0.0000    -0.000    -0.000    -0.000  0.6869  0.6790 -0.2589
    21 C(13)  Bbb     0.0000     0.000     0.000     0.000  0.3202  0.0370  0.9466
              Bcc     0.0000     0.000     0.000     0.000 -0.6524  0.7332  0.1920
 
              Baa    -0.0000    -0.000    -0.000    -0.000  0.1956 -0.6661  0.7197
    22 S(33)  Bbb    -0.0000    -0.000    -0.000    -0.000  0.7611  0.5659  0.3169
              Bcc     0.0000     0.000     0.000     0.000  0.6184 -0.4858 -0.6177
 
              Baa    -0.0000    -0.000    -0.000    -0.000  0.8167  0.5611  0.1350
    23 C(13)  Bbb     0.0000     0.000     0.000     0.000 -0.5771  0.7967  0.1795
              Bcc     0.0000     0.000     0.000     0.000 -0.0068 -0.2245  0.9745
 
              Baa    -0.0000    -0.000    -0.000    -0.000  0.8006  0.5988 -0.0206
    24 C(13)  Bbb     0.0000     0.000     0.000     0.000 -0.4976  0.6837  0.5338
              Bcc     0.0000     0.000     0.000     0.000  0.3338 -0.4171  0.8453
 
              Baa    -0.0000    -0.000    -0.000    -0.000  0.9860 -0.1632 -0.0354
    25 C(13)  Bbb     0.0000     0.000     0.000     0.000  0.1377  0.6745  0.7253
              Bcc     0.0000     0.000     0.000     0.000  0.0945  0.7200 -0.6875
 
              Baa    -0.0000    -0.000    -0.000    -0.000  0.7019  0.6910  0.1729
    26 C(13)  Bbb    -0.0000    -0.000    -0.000    -0.000  0.0349 -0.2758  0.9606
              Bcc     0.0000     0.000     0.000     0.000  0.7114 -0.6682 -0.2177
 
              Baa    -0.0000    -0.000    -0.000    -0.000  0.9226 -0.1951 -0.3327
    27 S(33)  Bbb    -0.0000    -0.000    -0.000    -0.000  0.2684 -0.2946  0.9171
              Bcc     0.0000     0.000     0.000     0.000  0.2769  0.9355  0.2195
 
              Baa    -0.0000    -0.000    -0.000    -0.000 -0.0241 -0.2532  0.9671
    28 C(13)  Bbb    -0.0000    -0.000    -0.000    -0.000  0.5690  0.7919  0.2214
              Bcc     0.0000     0.000     0.000     0.000  0.8220 -0.5557 -0.1250
 
              Baa    -0.0000    -0.000    -0.000    -0.000  0.0755 -0.2782  0.9576
    29 C(13)  Bbb    -0.0000    -0.000    -0.000    -0.000  0.8013  0.5885  0.1078
              Bcc     0.0000     0.000     0.000     0.000 -0.5935  0.7591  0.2673
 
              Baa    -0.0000    -0.000    -0.000    -0.000  0.9008 -0.4023 -0.1637
    30 F(19)  Bbb     0.0000     0.000     0.000     0.000  0.0753 -0.2265  0.9711
              Bcc     0.0000     0.000     0.000     0.000  0.4277  0.8870  0.1738
 
              Baa    -0.0000    -0.000    -0.000    -0.000 -0.4702  0.8726  0.1319
    31 C(13)  Bbb    -0.0000    -0.000    -0.000    -0.000  0.8825  0.4670  0.0563
              Bcc     0.0000     0.000     0.000     0.000  0.0124 -0.1429  0.9897
 
              Baa    -0.0000    -0.000    -0.000    -0.000 -0.0283 -0.0980  0.9948
    32 C(13)  Bbb    -0.0000    -0.000    -0.000    -0.000 -0.3515  0.9326  0.0818
              Bcc     0.0000     0.000     0.000     0.000  0.9358  0.3474  0.0608
 
              Baa    -0.0000    -0.000    -0.000    -0.000  0.9680  0.1044 -0.2282
    33 S(33)  Bbb    -0.0000    -0.000    -0.000    -0.000  0.2397 -0.1154  0.9640
              Bcc     0.0000     0.000     0.000     0.000 -0.0743  0.9878  0.1368
 
              Baa    -0.0000    -0.000    -0.000    -0.000  0.0272  0.2143  0.9764
    34 C(13)  Bbb    -0.0000    -0.000    -0.000    -0.000 -0.5347  0.8284 -0.1669
              Bcc     0.0000     0.000     0.000     0.000  0.8446  0.5175 -0.1371
 
              Baa    -0.0000    -0.000    -0.000    -0.000 -0.4566  0.8201  0.3449
    35 C(13)  Bbb    -0.0000    -0.000    -0.000    -0.000  0.0848 -0.3458  0.9345
              Bcc     0.0000     0.000     0.000     0.000  0.8856  0.4560  0.0883
 
              Baa    -0.0000    -0.000    -0.000    -0.000 -0.0605  0.2789  0.9584
    36 C(13)  Bbb     0.0000     0.000     0.000     0.000  0.8455 -0.4961  0.1977
              Bcc     0.0000     0.000     0.000     0.000  0.5306  0.8223 -0.2058
 
              Baa    -0.0000    -0.000    -0.000    -0.000  0.9683 -0.1976  0.1526
    37 C(13)  Bbb     0.0000     0.000     0.000     0.000  0.2014  0.9795 -0.0095
              Bcc     0.0000     0.000     0.000     0.000 -0.1476  0.0399  0.9882
 
              Baa    -0.0000    -0.000    -0.000    -0.000 -0.1561 -0.0547  0.9862
    38 S(33)  Bbb    -0.0000    -0.000    -0.000    -0.000  0.9828  0.0913  0.1606
              Bcc     0.0000     0.000     0.000     0.000 -0.0988  0.9943  0.0395
 
              Baa    -0.0000    -0.000    -0.000    -0.000  0.0056  0.2390  0.9710
    39 C(13)  Bbb    -0.0000    -0.000    -0.000    -0.000  0.9862  0.1594 -0.0449
              Bcc     0.0000     0.000     0.000     0.000 -0.1655  0.9579 -0.2348
 
              Baa    -0.0000    -0.000    -0.000    -0.000  0.8173  0.5632 -0.1220
    40 C(13)  Bbb     0.0000     0.000     0.000     0.000  0.0813  0.0970  0.9920
              Bcc     0.0000     0.000     0.000     0.000 -0.5705  0.8206 -0.0335
 
              Baa    -0.0000    -0.000    -0.000    -0.000  0.9333 -0.3416  0.1105
    41 F(19)  Bbb     0.0000     0.000     0.000     0.000 -0.1131  0.0126  0.9935
              Bcc     0.0000     0.000     0.000     0.000  0.3407  0.9398  0.0269
 
              Baa    -0.0000    -0.000    -0.000    -0.000  0.7750 -0.6193 -0.1256
    42 C(13)  Bbb    -0.0000    -0.000    -0.000    -0.000  0.2534  0.1224  0.9596
              Bcc     0.0000     0.000     0.000     0.000  0.5789  0.7756 -0.2518
 
              Baa    -0.0000    -0.000    -0.000    -0.000 -0.3794  0.9201 -0.0972
    43 C(13)  Bbb    -0.0000    -0.000    -0.000    -0.000  0.0300  0.1172  0.9926
              Bcc     0.0000     0.000     0.000     0.000  0.9248  0.3737 -0.0721
 
              Baa    -0.0000    -0.000    -0.000    -0.000 -0.0944  0.3780  0.9210
    44 S(33)  Bbb     0.0000     0.000     0.000     0.000  0.0223  0.9257 -0.3777
              Bcc     0.0000     0.000     0.000     0.000  0.9953  0.0152  0.0958
 
              Baa    -0.0000    -0.000    -0.000    -0.000  0.0839 -0.1859  0.9790
    45 C(13)  Bbb    -0.0000    -0.000    -0.000    -0.000 -0.0668  0.9792  0.1916
              Bcc     0.0000     0.000     0.000     0.000  0.9942  0.0815 -0.0698
 
              Baa    -0.0000    -0.000    -0.000    -0.000  0.7239  0.6766  0.1352
    46 C(13)  Bbb     0.0000     0.000     0.000     0.000  0.0049 -0.2010  0.9796
              Bcc     0.0000     0.000     0.000     0.000 -0.6899  0.7084  0.1488
 
              Baa    -0.0000    -0.000    -0.000    -0.000  0.7105  0.6974  0.0939
    47 C(13)  Bbb     0.0000     0.000     0.000     0.000  0.3111 -0.4310  0.8470
              Bcc     0.0000     0.000     0.000     0.000  0.6312 -0.5726 -0.5232
 
              Baa    -0.0000    -0.000    -0.000    -0.000  0.9839  0.1786 -0.0001
    48 C(13)  Bbb    -0.0000    -0.000    -0.000    -0.000  0.0173 -0.0944  0.9954
              Bcc     0.0000     0.000     0.000     0.000 -0.1777  0.9794  0.0960
 
              Baa    -0.0000    -0.000    -0.000    -0.000  0.0554 -0.2322  0.9711
    49 S(33)  Bbb    -0.0000    -0.000    -0.000    -0.000  0.7459 -0.6369 -0.1949
              Bcc     0.0000     0.000     0.000     0.000  0.6637  0.7351  0.1379
 
              Baa    -0.0000    -0.000    -0.000    -0.000  0.0585 -0.0347  0.9977
    50 C(13)  Bbb    -0.0000    -0.000    -0.000    -0.000 -0.3074  0.9502  0.0511
              Bcc     0.0000     0.000     0.000     0.000  0.9498  0.3097 -0.0449
 
              Baa    -0.0000    -0.000    -0.000    -0.000 -0.2581  0.9639 -0.0658
    51 C(13)  Bbb    -0.0000    -0.000    -0.000    -0.000 -0.0628  0.0513  0.9967
              Bcc     0.0000     0.000     0.000     0.000  0.9641  0.2614  0.0473
 
              Baa    -0.0000    -0.000    -0.000    -0.000  0.9629  0.2567 -0.0838
    52 F(19)  Bbb     0.0000     0.000     0.000     0.000  0.1069 -0.0775  0.9912
              Bcc     0.0000     0.000     0.000     0.000 -0.2479  0.9634  0.1020
 
              Baa    -0.0000    -0.000    -0.000    -0.000  0.9893  0.1224 -0.0801
    53 C(13)  Bbb     0.0000     0.000     0.000     0.000 -0.1196  0.9921  0.0386
              Bcc     0.0000     0.000     0.000     0.000  0.0841 -0.0286  0.9960
 
              Baa    -0.0000    -0.000    -0.000    -0.000  0.0595  0.0302  0.9978
    54 C(13)  Bbb     0.0000     0.000     0.000     0.000 -0.3109  0.9504 -0.0102
              Bcc     0.0000     0.000     0.000     0.000  0.9486  0.3096 -0.0659
 
              Baa    -0.0000    -0.000    -0.000    -0.000  0.0182 -0.0036  0.9998
    55 S(33)  Bbb    -0.0000    -0.000    -0.000    -0.000  0.8499  0.5267 -0.0136
              Bcc     0.0000     0.000     0.000     0.000 -0.5266  0.8500  0.0126
 
              Baa    -0.0000    -0.000    -0.000    -0.000  0.2367  0.1046  0.9659
    56 H(1)   Bbb    -0.0000    -0.000    -0.000    -0.000  0.7915  0.5558 -0.2541
              Bcc     0.0000     0.000     0.000     0.000 -0.5635  0.8247  0.0488
 
              Baa    -0.0000    -0.000    -0.000    -0.000  0.9901  0.0946  0.1033
    57 H(1)   Bbb    -0.0000    -0.000    -0.000    -0.000 -0.0616 -0.3689  0.9274
              Bcc     0.0000     0.000     0.000     0.000 -0.1259  0.9247  0.3594
 
              Baa    -0.0000    -0.000    -0.000    -0.000  0.1586 -0.1528  0.9755
    58 H(1)   Bbb    -0.0000    -0.000    -0.000    -0.000  0.9751 -0.1308 -0.1790
              Bcc     0.0000     0.000     0.000     0.000  0.1549  0.9796  0.1282
 
              Baa    -0.0000    -0.000    -0.000    -0.000 -0.2225  0.9723  0.0710
    59 H(1)   Bbb    -0.0000    -0.000    -0.000    -0.000 -0.0159 -0.0765  0.9969
              Bcc     0.0000     0.000     0.000     0.000  0.9748  0.2207  0.0324
 
              Baa    -0.0000    -0.000    -0.000    -0.000  0.8308  0.5377 -0.1442
    60 H(1)   Bbb    -0.0000    -0.000    -0.000    -0.000 -0.0048  0.2659  0.9640
              Bcc     0.0000     0.000     0.000     0.000 -0.5566  0.8001 -0.2235
 
              Baa    -0.0000    -0.000    -0.000    -0.000  0.1664  0.1550  0.9738
    61 H(1)   Bbb    -0.0000    -0.000    -0.000    -0.000  0.9559 -0.2675 -0.1208
              Bcc     0.0000     0.000     0.000     0.000  0.2418  0.9510 -0.1927
 
              Baa    -0.0000    -0.000    -0.000    -0.000  0.1888  0.4160  0.8896
    62 H(1)   Bbb    -0.0000    -0.000    -0.000    -0.000  0.8603  0.3667 -0.3540
              Bcc     0.0000     0.000     0.000     0.000 -0.4735  0.8322 -0.2886
 
              Baa    -0.0000    -0.000    -0.000    -0.000  0.9553  0.1367  0.2620
    63 H(1)   Bbb     0.0000     0.000     0.000     0.000 -0.2658  0.0102  0.9640
              Bcc     0.0000     0.000     0.000     0.000 -0.1291  0.9906 -0.0461
 
              Baa    -0.0000    -0.000    -0.000    -0.000  0.9980  0.0547 -0.0315
    64 H(1)   Bbb     0.0000     0.000     0.000     0.000  0.0233  0.1434  0.9894
              Bcc     0.0000     0.000     0.000     0.000 -0.0587  0.9882 -0.1418
 
              Baa    -0.0000    -0.000    -0.000    -0.000 -0.0117 -0.2179  0.9759
    65 H(1)   Bbb    -0.0000    -0.000    -0.000    -0.000  0.5804  0.7933  0.1841
              Bcc     0.0000     0.000     0.000     0.000  0.8143 -0.5685 -0.1172
 
              Baa    -0.0000    -0.000    -0.000    -0.000 -0.0115  0.2339  0.9722
    66 H(1)   Bbb    -0.0000    -0.000    -0.000    -0.000  0.8152  0.5652 -0.1264
              Bcc     0.0000     0.000     0.000     0.000 -0.5791  0.7911 -0.1971
 
              Baa    -0.0000    -0.000    -0.000    -0.000 -0.0306  0.2113  0.9769
    67 H(1)   Bbb    -0.0000    -0.000    -0.000    -0.000  0.8554 -0.5000  0.1350
              Bcc     0.0000     0.000     0.000     0.000  0.5170  0.8398 -0.1655
 
              Baa    -0.0000    -0.000    -0.000    -0.000 -0.1642 -0.2348  0.9581
    68 H(1)   Bbb    -0.0000    -0.000    -0.000    -0.000  0.5094  0.8116  0.2861
              Bcc     0.0000     0.000     0.000     0.000  0.8447 -0.5350  0.0136
 
              Baa    -0.0000    -0.000    -0.000    -0.000 -0.6136  0.7580  0.2212
    69 H(1)   Bbb     0.0000     0.000     0.000     0.000  0.7626  0.6415 -0.0829
              Bcc     0.0000     0.000     0.000     0.000  0.2047 -0.1178  0.9717
 
              Baa    -0.0000    -0.000    -0.000    -0.000  0.6186  0.7717  0.1479
    70 H(1)   Bbb     0.0000     0.000     0.000     0.000  0.7445 -0.5155 -0.4242
              Bcc     0.0000     0.000     0.000     0.000  0.2511 -0.3725  0.8934
 
              Baa    -0.0000    -0.000    -0.000    -0.000  0.7707  0.6283 -0.1060
    71 H(1)   Bbb     0.0000     0.000     0.000     0.000  0.1258  0.0130  0.9920
              Bcc     0.0000     0.000     0.000     0.000 -0.6247  0.7778  0.0690
 
              Baa    -0.0000    -0.000    -0.000    -0.000 -0.0468  0.9989  0.0040
    72 H(1)   Bbb     0.0000     0.000     0.000     0.000  0.9528  0.0434  0.3004
              Bcc     0.0000     0.000     0.000     0.000 -0.2999 -0.0178  0.9538
 

 ---------------------------------------------------------------------------------

 No NMR shielding tensors so no spin-rotation constants.
 Leave Link  601 at Fri Jul 24 05:05:07 2020, MaxMem=  4026531840 cpu:               9.8 elap:               1.3
 (Enter /opt/ohpc/pub/libs/gaussian/g16-A.03/sandybridge/g16/l9999.exe)

 Test job not archived.
 1\1\GINC-SKYLAKE032\FOpt\ULC-wPBE\CC-pVDZ\C40H17F5S10\RDU230\24-Jul-20
 20\0\\#P uLC-wPBE/cc-pVDZ iop(3/107=0193800000, 3/108=0193800000) opt\
 \H17 C40 S10 F5\\0,1\C,18.9312241512,-0.4411540363,-0.1439816409\C,18.
 3842057999,-1.6872802701,-0.3399350987\C,16.9614590335,-1.6751801484,-
 0.2745298318\C,16.4368100243,-0.4170745827,-0.0290593755\S,17.71959366
 82,0.7621199644,0.1227888493\C,15.0388394611,-0.0357470487,0.097364059
 7\C,14.4871115403,1.2022210706,0.3642389006\F,15.2483211721,2.30094645
 31,0.5540239254\C,13.0721916952,1.2461802518,0.4400335109\C,12.5110868
 088,0.0029919771,0.2215364618\S,13.7454172818,-1.1962085171,-0.0914131
 334\C,11.1060937171,-0.379014392,0.2168213982\C,10.5457601159,-1.62604
 02679,0.4314414763\C,9.128992371,-1.622797793,0.3537101649\C,8.5963585
 106,-0.372355534,0.0830002888\S,9.8697845719,0.8123486193,-0.09658979\
 C,7.1987638708,-0.0014189396,-0.0509791184\C,6.642642368,1.2299785534,
 -0.3418093286\F,7.4012813122,2.3264198119,-0.5513490069\C,5.2284114839
 ,1.2671836063,-0.4202160812\C,4.6718799435,0.0255589607,-0.1795308108\
 S,5.9093998884,-1.1636532963,0.1578386386\C,3.2686570402,-0.3615342515
 ,-0.1701338134\C,2.714287388,-1.6162090952,-0.3542144681\C,1.297428857
 6,-1.6166418343,-0.282848635\C,0.758805887,-0.361453479,-0.0473615294\
 S,2.0263694586,0.8329029513,0.1058029579\C,-0.6406089966,0.0072688012,
 0.0716074785\C,-1.2021928649,1.244763278,0.3236856202\F,-0.4480973042,
 2.3496110392,0.5024404463\C,-2.6166855498,1.2788545585,0.3967312048\C,
 -3.1675978746,0.0282601822,0.1918270701\S,-1.924746754,-1.1658416653,-
 0.105873951\C,-4.5693053587,-0.3643568636,0.1897009989\C,-5.1196137887
 ,-1.6146327797,0.4119112743\C,-6.5361358582,-1.6228281614,0.3352938054
 \C,-7.078427351,-0.3778740799,0.0575661546\S,-5.8148730252,0.815845388
 7,-0.1291306183\C,-8.4787351986,-0.0185091446,-0.0786566563\C,-9.04367
 09412,1.2078167659,-0.3740015105\F,-8.2930087765,2.3089665712,-0.58662
 06988\C,-10.4580128616,1.2340611552,-0.4535448675\C,-11.004842958,-0.0
 110943171,-0.209042291\S,-9.7592451108,-1.1898608847,0.1333770874\C,-1
 2.4046208016,-0.4100577379,-0.1999400615\C,-12.9538479289,-1.665477721
 8,-0.3898797267\C,-14.372316171,-1.6789500367,-0.3218690916\C,-14.9173
 967436,-0.427807611,-0.0820528475\S,-13.6581917988,0.7703741967,0.0887
 738766\C,-16.3224489462,-0.0683386096,0.0417853103\C,-17.4127158796,-0
 .9137868571,0.1441648776\F,-17.2947803728,-2.2584215979,0.1410790872\C
 ,-18.6757385394,-0.272051701,0.2578261213\C,-18.5393519553,1.093998799
 1,0.2402997951\S,-16.8884339027,1.5842015622,0.0787175605\H,19.9871841
 423,-0.1553661349,-0.1395377071\H,18.9808941149,-2.5871983053,-0.52499
 94942\H,16.3364634347,-2.5667070731,-0.4030259091\H,12.506305452,2.154
 647757,0.669422991\H,11.1426249965,-2.5162821457,0.660321129\H,8.50988
 11598,-2.5149744974,0.5023420941\H,4.6592692883,2.1688794852,-0.667292
 112\H,3.3152786325,-2.5100332991,-0.5569831317\H,0.6824591111,-2.51484
 11548,-0.410598139\H,-3.1900694368,2.1852751967,0.6149522245\H,-4.5161
 678216,-2.4992085267,0.6456047402\H,-7.1481719923,-2.5188734983,0.4894
 645567\H,-11.0339870222,2.1302838106,-0.7045693708\H,-12.3460396512,-2
 .553387789,-0.5991409479\H,-14.987351226,-2.5727303887,-0.4584764706\H
 ,-19.6237090917,-0.8110706824,0.3487489585\H,-19.3229728989,1.85339398
 31,0.3092991699\\Version=EM64L-G16RevA.03\State=1-A\HF=-6012.5962054\S
 2=0.\S2-1=0.\S2A=0.\RMSD=6.922e-09\RMSF=3.171e-06\Dipole=-2.6116574,-1
 .0826229,-0.0009248\Quadrupole=42.7518652,-8.21067,-34.5411951,-21.439
 4171,-1.6316682,0.6275779\PG=C01 [X(C40H17F5S10)]\\@


 THE DIFFICULTY IN SCIENCE IS OFTEN NOT SO MUCH HOW
 TO MAKE A DISCOVERY BUT RATHER TO KNOW ONE HAS MADE IT.

                                                   -- J. D. BERNAL
 Job cpu time:       1 days 18 hours 18 minutes  6.8 seconds.
 Elapsed time:       0 days  5 hours 23 minutes 49.5 seconds.
 File lengths (MBytes):  RWF=    932 Int=      0 D2E=      0 Chk=     84 Scr=      8
 Normal termination of Gaussian 16 at Fri Jul 24 05:05:07 2020.
