 Entering Gaussian System, Link 0=g16
 Input=mols_55_1_00_C-C_opt_0.gjf
 Output=mols_55_1_00_C-C_opt_0.log
 Initial command:
 /opt/ohpc/pub/libs/gaussian/g16-A.03/sandybridge/g16/l1.exe "/mnt/gpfs2_4m/scratch/rdu230/ondemand/projects/dihedral_energies/7trial/wtuning/mols_55_1_00_C-C/Gau-256441.inp" -scrdir="/mnt/gpfs2_4m/scratch/rdu230/ondemand/projects/dihedral_energies/7trial/wtuning/mols_55_1_00_C-C/"
 Entering Link 1 = /opt/ohpc/pub/libs/gaussian/g16-A.03/sandybridge/g16/l1.exe PID=    256442.
  
 Copyright (c) 1988,1990,1992,1993,1995,1998,2003,2009,2016,
            Gaussian, Inc.  All Rights Reserved.
  
 This is part of the Gaussian(R) 16 program.  It is based on
 the Gaussian(R) 09 system (copyright 2009, Gaussian, Inc.),
 the Gaussian(R) 03 system (copyright 2003, Gaussian, Inc.),
 the Gaussian(R) 98 system (copyright 1998, Gaussian, Inc.),
 the Gaussian(R) 94 system (copyright 1995, Gaussian, Inc.),
 the Gaussian 92(TM) system (copyright 1992, Gaussian, Inc.),
 the Gaussian 90(TM) system (copyright 1990, Gaussian, Inc.),
 the Gaussian 88(TM) system (copyright 1988, Gaussian, Inc.),
 the Gaussian 86(TM) system (copyright 1986, Carnegie Mellon
 University), and the Gaussian 82(TM) system (copyright 1983,
 Carnegie Mellon University). Gaussian is a federally registered
 trademark of Gaussian, Inc.
  
 This software contains proprietary and confidential information,
 including trade secrets, belonging to Gaussian, Inc.
  
 This software is provided under written license and may be
 used, copied, transmitted, or stored only in accord with that
 written license.
  
 The following legend is applicable only to US Government
 contracts under FAR:
  
                    RESTRICTED RIGHTS LEGEND
  
 Use, reproduction and disclosure by the US Government is
 subject to restrictions as set forth in subparagraphs (a)
 and (c) of the Commercial Computer Software - Restricted
 Rights clause in FAR 52.227-19.
  
 Gaussian, Inc.
 340 Quinnipiac St., Bldg. 40, Wallingford CT 06492
  
  
 ---------------------------------------------------------------
 Warning -- This program may not be used in any manner that
 competes with the business of Gaussian, Inc. or will provide
 assistance to any competitor of Gaussian, Inc.  The licensee
 of this program is prohibited from giving any competitor of
 Gaussian, Inc. access to this program.  By using this program,
 the user acknowledges that Gaussian, Inc. is engaged in the
 business of creating and licensing software in the field of
 computational chemistry and represents and warrants to the
 licensee that it is not a competitor of Gaussian, Inc. and that
 it will not use this program in any manner prohibited above.
 ---------------------------------------------------------------
  

 Cite this work as:
 Gaussian 16, Revision A.03,
 M. J. Frisch, G. W. Trucks, H. B. Schlegel, G. E. Scuseria, 
 M. A. Robb, J. R. Cheeseman, G. Scalmani, V. Barone, 
 G. A. Petersson, H. Nakatsuji, X. Li, M. Caricato, A. V. Marenich, 
 J. Bloino, B. G. Janesko, R. Gomperts, B. Mennucci, H. P. Hratchian, 
 J. V. Ortiz, A. F. Izmaylov, J. L. Sonnenberg, D. Williams-Young, 
 F. Ding, F. Lipparini, F. Egidi, J. Goings, B. Peng, A. Petrone, 
 T. Henderson, D. Ranasinghe, V. G. Zakrzewski, J. Gao, N. Rega, 
 G. Zheng, W. Liang, M. Hada, M. Ehara, K. Toyota, R. Fukuda, 
 J. Hasegawa, M. Ishida, T. Nakajima, Y. Honda, O. Kitao, H. Nakai, 
 T. Vreven, K. Throssell, J. A. Montgomery, Jr., J. E. Peralta, 
 F. Ogliaro, M. J. Bearpark, J. J. Heyd, E. N. Brothers, K. N. Kudin, 
 V. N. Staroverov, T. A. Keith, R. Kobayashi, J. Normand, 
 K. Raghavachari, A. P. Rendell, J. C. Burant, S. S. Iyengar, 
 J. Tomasi, M. Cossi, J. M. Millam, M. Klene, C. Adamo, R. Cammi, 
 J. W. Ochterski, R. L. Martin, K. Morokuma, O. Farkas, 
 J. B. Foresman, and D. J. Fox, Gaussian, Inc., Wallingford CT, 2016.
 
 ******************************************
 Gaussian 16:  EM64L-G16RevA.03 25-Dec-2016
                23-Jul-2020 
 ******************************************
 %mem=30GB
 %nproc=8
 Will use up to    8 processors via shared memory.
 ---------------------------------------------------------------
 #P uLC-wPBE/cc-pVDZ iop(3/107=0313600000, 3/108=0313600000) opt
 ---------------------------------------------------------------
 1/18=20,19=15,26=3,38=1/1,3;
 2/9=110,12=2,17=6,18=5,40=1/2;
 3/5=16,11=2,25=1,30=1,71=1,74=-41,107=313600000,108=313600000,116=2/1,2,3;
 4//1;
 5/5=2,38=5/2;
 6/7=2,8=2,9=2,10=2,28=1/1;
 7//1,2,3,16;
 1/18=20,19=15,26=3/3(2);
 2/9=110/2;
 99//99;
 2/9=110/2;
 3/5=16,11=2,25=1,30=1,71=1,74=-41,107=313600000,108=313600000,116=2/1,2,3;
 4/5=5,16=3,69=1/1;
 5/5=2,38=5/2;
 7//1,2,3,16;
 1/18=20,19=15,26=3/3(-5);
 2/9=110/2;
 6/7=2,8=2,9=2,10=2,19=2,28=1/1;
 99/9=1/99;
 Leave Link    1 at Thu Jul 23 19:46:25 2020, MaxMem=  4026531840 cpu:               8.3 elap:               1.2
 (Enter /opt/ohpc/pub/libs/gaussian/g16-A.03/sandybridge/g16/l101.exe)
 --------
 H6 C8 S2
 --------
 Symbolic Z-matrix:
 Charge =  0 Multiplicity = 1
 C                    -3.19925   0.15115  -0.04861 
 C                    -2.78762  -1.15406  -0.03938 
 C                    -1.36715  -1.36086   0.01522 
 C                    -0.7042   -0.06419   0.00238 
 S                    -1.83408   1.19461  -0.0498 
 C                     0.69635   0.1351   -0.03958 
 C                     1.44329   1.33304  -0.00017 
 C                     2.77882   1.20571   0.01207 
 C                     3.16356  -0.13103   0.03908 
 S                     1.8425   -1.24278  -0.01698 
 H                    -4.18152   0.56623  -0.04817 
 H                    -3.55272  -2.0025   -0.0353 
 H                    -0.92532  -2.27544  -0.04297 
 H                     0.8821    2.33258  -0.00324 
 H                     3.53765   2.03819  -0.01065 
 H                     4.20467  -0.57682   0.04308 
 
 ITRead=  0  0  0  0  0  0  0  0  0  0  0  0  0  0  0  0
 MicOpt= -1 -1 -1 -1 -1 -1 -1 -1 -1 -1 -1 -1 -1 -1 -1 -1
 NAtoms=     16 NQM=       16 NQMF=       0 NMMI=      0 NMMIF=      0
                NMic=       0 NMicF=      0.
                    Isotopes and Nuclear Properties:
 (Nuclear quadrupole moments (NQMom) in fm**2, nuclear magnetic moments (NMagM)
  in nuclear magnetons)

  Atom         1           2           3           4           5           6           7           8           9          10
 IAtWgt=          12          12          12          12          32          12          12          12          12          32
 AtmWgt=  12.0000000  12.0000000  12.0000000  12.0000000  31.9720718  12.0000000  12.0000000  12.0000000  12.0000000  31.9720718
 NucSpn=           0           0           0           0           0           0           0           0           0           0
 AtZEff=  -0.0000000  -0.0000000  -0.0000000  -0.0000000  -0.0000000  -0.0000000  -0.0000000  -0.0000000  -0.0000000  -0.0000000
 NQMom=    0.0000000   0.0000000   0.0000000   0.0000000   0.0000000   0.0000000   0.0000000   0.0000000   0.0000000   0.0000000
 NMagM=    0.0000000   0.0000000   0.0000000   0.0000000   0.0000000   0.0000000   0.0000000   0.0000000   0.0000000   0.0000000
 AtZNuc=   6.0000000   6.0000000   6.0000000   6.0000000  16.0000000   6.0000000   6.0000000   6.0000000   6.0000000  16.0000000

  Atom        11          12          13          14          15          16
 IAtWgt=           1           1           1           1           1           1
 AtmWgt=   1.0078250   1.0078250   1.0078250   1.0078250   1.0078250   1.0078250
 NucSpn=           1           1           1           1           1           1
 AtZEff=  -0.0000000  -0.0000000  -0.0000000  -0.0000000  -0.0000000  -0.0000000
 NQMom=    0.0000000   0.0000000   0.0000000   0.0000000   0.0000000   0.0000000
 NMagM=    2.7928460   2.7928460   2.7928460   2.7928460   2.7928460   2.7928460
 AtZNuc=   1.0000000   1.0000000   1.0000000   1.0000000   1.0000000   1.0000000
 Leave Link  101 at Thu Jul 23 19:46:25 2020, MaxMem=  4026531840 cpu:               2.4 elap:               0.5
 (Enter /opt/ohpc/pub/libs/gaussian/g16-A.03/sandybridge/g16/l103.exe)

 GradGradGradGradGradGradGradGradGradGradGradGradGradGradGradGradGradGrad
 Berny optimization.
 Initialization pass.
                           ----------------------------
                           !    Initial Parameters    !
                           ! (Angstroms and Degrees)  !
 --------------------------                            --------------------------
 ! Name  Definition              Value          Derivative Info.                !
 --------------------------------------------------------------------------------
 ! R1    R(1,2)                  1.3686         estimate D2E/DX2                !
 ! R2    R(1,5)                  1.7183         estimate D2E/DX2                !
 ! R3    R(1,11)                 1.0664         estimate D2E/DX2                !
 ! R4    R(2,3)                  1.4365         estimate D2E/DX2                !
 ! R5    R(2,12)                 1.1425         estimate D2E/DX2                !
 ! R6    R(3,4)                  1.4564         estimate D2E/DX2                !
 ! R7    R(3,13)                 1.0174         estimate D2E/DX2                !
 ! R8    R(4,5)                  1.6923         estimate D2E/DX2                !
 ! R9    R(4,6)                  1.4153         estimate D2E/DX2                !
 ! R10   R(6,7)                  1.4123         estimate D2E/DX2                !
 ! R11   R(6,10)                 1.7924         estimate D2E/DX2                !
 ! R12   R(7,8)                  1.3416         estimate D2E/DX2                !
 ! R13   R(7,14)                 1.1463         estimate D2E/DX2                !
 ! R14   R(8,9)                  1.3913         estimate D2E/DX2                !
 ! R15   R(8,15)                 1.1267         estimate D2E/DX2                !
 ! R16   R(9,10)                 1.7275         estimate D2E/DX2                !
 ! R17   R(9,16)                 1.1325         estimate D2E/DX2                !
 ! A1    A(2,1,5)              109.888          estimate D2E/DX2                !
 ! A2    A(2,1,11)             130.4103         estimate D2E/DX2                !
 ! A3    A(5,1,11)             119.7002         estimate D2E/DX2                !
 ! A4    A(1,2,3)              115.7832         estimate D2E/DX2                !
 ! A5    A(1,2,12)             120.4536         estimate D2E/DX2                !
 ! A6    A(3,2,12)             123.7223         estimate D2E/DX2                !
 ! A7    A(2,3,4)              108.7608         estimate D2E/DX2                !
 ! A8    A(2,3,13)             123.8268         estimate D2E/DX2                !
 ! A9    A(4,3,13)             127.0271         estimate D2E/DX2                !
 ! A10   A(3,4,5)              111.0156         estimate D2E/DX2                !
 ! A11   A(3,4,6)              125.1768         estimate D2E/DX2                !
 ! A12   A(5,4,6)              123.7139         estimate D2E/DX2                !
 ! A13   A(1,5,4)               94.5148         estimate D2E/DX2                !
 ! A14   A(4,6,7)              129.9411         estimate D2E/DX2                !
 ! A15   A(4,6,10)             121.6127         estimate D2E/DX2                !
 ! A16   A(7,6,10)             108.2708         estimate D2E/DX2                !
 ! A17   A(6,7,8)              116.5024         estimate D2E/DX2                !
 ! A18   A(6,7,14)             118.7267         estimate D2E/DX2                !
 ! A19   A(8,7,14)             124.7576         estimate D2E/DX2                !
 ! A20   A(7,8,9)              111.5089         estimate D2E/DX2                !
 ! A21   A(7,8,15)             126.8804         estimate D2E/DX2                !
 ! A22   A(9,8,15)             121.6052         estimate D2E/DX2                !
 ! A23   A(8,9,10)             113.9677         estimate D2E/DX2                !
 ! A24   A(8,9,16)             129.2334         estimate D2E/DX2                !
 ! A25   A(10,9,16)            116.729          estimate D2E/DX2                !
 ! A26   A(6,10,9)              89.6956         estimate D2E/DX2                !
 ! D1    D(5,1,2,3)              2.1344         estimate D2E/DX2                !
 ! D2    D(5,1,2,12)           179.8927         estimate D2E/DX2                !
 ! D3    D(11,1,2,3)          -177.4076         estimate D2E/DX2                !
 ! D4    D(11,1,2,12)            0.3507         estimate D2E/DX2                !
 ! D5    D(2,1,5,4)             -1.3788         estimate D2E/DX2                !
 ! D6    D(11,1,5,4)           178.2197         estimate D2E/DX2                !
 ! D7    D(1,2,3,4)             -1.8968         estimate D2E/DX2                !
 ! D8    D(1,2,3,13)          -175.2073         estimate D2E/DX2                !
 ! D9    D(12,2,3,4)          -179.5734         estimate D2E/DX2                !
 ! D10   D(12,2,3,13)            7.1161         estimate D2E/DX2                !
 ! D11   D(2,3,4,5)              0.7731         estimate D2E/DX2                !
 ! D12   D(2,3,4,6)           -175.8052         estimate D2E/DX2                !
 ! D13   D(13,3,4,5)           173.811          estimate D2E/DX2                !
 ! D14   D(13,3,4,6)            -2.7673         estimate D2E/DX2                !
 ! D15   D(3,4,5,1)              0.3173         estimate D2E/DX2                !
 ! D16   D(6,4,5,1)            176.955          estimate D2E/DX2                !
 ! D17   D(3,4,6,7)           -177.0681         estimate D2E/DX2                !
 ! D18   D(3,4,6,10)            -2.4752         estimate D2E/DX2                !
 ! D19   D(5,4,6,7)              6.7724         estimate D2E/DX2                !
 ! D20   D(5,4,6,10)          -178.6347         estimate D2E/DX2                !
 ! D21   D(4,6,7,8)            176.6552         estimate D2E/DX2                !
 ! D22   D(4,6,7,14)            -4.6099         estimate D2E/DX2                !
 ! D23   D(10,6,7,8)             1.503          estimate D2E/DX2                !
 ! D24   D(10,6,7,14)         -179.7622         estimate D2E/DX2                !
 ! D25   D(4,6,10,9)          -175.6959         estimate D2E/DX2                !
 ! D26   D(7,6,10,9)            -0.0594         estimate D2E/DX2                !
 ! D27   D(6,7,8,9)             -2.5164         estimate D2E/DX2                !
 ! D28   D(6,7,8,15)           176.6372         estimate D2E/DX2                !
 ! D29   D(14,7,8,9)           178.834          estimate D2E/DX2                !
 ! D30   D(14,7,8,15)           -2.0124         estimate D2E/DX2                !
 ! D31   D(7,8,9,10)             2.4074         estimate D2E/DX2                !
 ! D32   D(7,8,9,16)           179.2297         estimate D2E/DX2                !
 ! D33   D(15,8,9,10)         -176.7977         estimate D2E/DX2                !
 ! D34   D(15,8,9,16)            0.0246         estimate D2E/DX2                !
 ! D35   D(8,9,10,6)            -1.3127         estimate D2E/DX2                !
 ! D36   D(16,9,10,6)         -178.5572         estimate D2E/DX2                !
 --------------------------------------------------------------------------------
 Trust Radius=3.00D-01 FncErr=1.00D-07 GrdErr=1.00D-06 EigMax=2.50D+02 EigMin=1.00D-04
 Number of steps in this run=     89 maximum allowed number of steps=    100.
 GradGradGradGradGradGradGradGradGradGradGradGradGradGradGradGradGradGrad

 Leave Link  103 at Thu Jul 23 19:46:25 2020, MaxMem=  4026531840 cpu:               0.3 elap:               0.1
 (Enter /opt/ohpc/pub/libs/gaussian/g16-A.03/sandybridge/g16/l202.exe)
                          Input orientation:                          
 ---------------------------------------------------------------------
 Center     Atomic      Atomic             Coordinates (Angstroms)
 Number     Number       Type             X           Y           Z
 ---------------------------------------------------------------------
      1          6           0       -3.199253    0.151149   -0.048611
      2          6           0       -2.787622   -1.154055   -0.039375
      3          6           0       -1.367147   -1.360860    0.015217
      4          6           0       -0.704199   -0.064191    0.002381
      5         16           0       -1.834075    1.194614   -0.049802
      6          6           0        0.696346    0.135098   -0.039582
      7          6           0        1.443286    1.333037   -0.000170
      8          6           0        2.778817    1.205710    0.012065
      9          6           0        3.163564   -0.131026    0.039081
     10         16           0        1.842504   -1.242779   -0.016976
     11          1           0       -4.181517    0.566227   -0.048169
     12          1           0       -3.552717   -2.002499   -0.035301
     13          1           0       -0.925322   -2.275440   -0.042967
     14          1           0        0.882097    2.332585   -0.003237
     15          1           0        3.537650    2.038192   -0.010648
     16          1           0        4.204665   -0.576818    0.043084
 ---------------------------------------------------------------------
                    Distance matrix (angstroms):
                    1          2          3          4          5
     1  C    0.000000
     2  C    1.368606   0.000000
     3  C    2.376312   1.436488   0.000000
     4  C    2.504848   2.351637   1.456371   0.000000
     5  S    1.718293   2.534878   2.598595   1.692316   0.000000
     6  C    3.895643   3.714828   2.549293   1.415275   2.743303
     7  C    4.790864   4.907927   3.893052   2.562020   3.280658
     8  C    6.070676   6.046187   4.876096   3.707309   4.613320
     9  C    6.369674   6.038987   4.694721   3.868514   5.171230
    10  S    5.230999   4.631030   3.211984   2.806268   4.411258
    11  H    1.066364   2.214134   3.411504   3.534363   2.430094
    12  H    2.182502   1.142473   2.278370   3.445651   3.629803
    13  H    3.325527   2.173863   1.017375   2.222740   3.587081
    14  H    4.627974   5.062095   4.324462   2.874178   2.945291
    15  H    6.996301   7.085219   5.967517   4.734286   5.437700
    16  H    7.440185   7.016558   5.626774   4.935726   6.293884
                    6          7          8          9         10
     6  C    0.000000
     7  C    1.412278   0.000000
     8  C    2.342128   1.341643   0.000000
     9  C    2.482776   2.259287   1.391267   0.000000
    10  S    1.792410   2.606623   2.621569   1.727523   0.000000
    11  H    4.896886   5.677034   6.989908   7.378617   6.289857
    12  H    4.756456   6.007252   7.098110   6.972544   5.448479
    13  H    2.905256   4.316624   5.083511   4.617817   2.954306
    14  H    2.205623   1.146315   2.206270   3.358015   3.702134
    15  H    3.419885   2.209913   1.126663   2.201799   3.693011
    16  H    3.580776   3.357772   2.282851   1.132536   2.454978
                   11         12         13         14         15
    11  H    0.000000
    12  H    2.644600   0.000000
    13  H    4.321794   2.641545   0.000000
    14  H    5.363043   6.201738   4.949973   0.000000
    15  H    7.858348   8.160949   6.206979   2.671832   0.000000
    16  H    8.464215   7.887692   5.404580   4.416586   2.699273
                   16
    16  H    0.000000
 Stoichiometry    C8H6S2
 Framework group  C1[X(C8H6S2)]
 Deg. of freedom    42
 Full point group                 C1      NOp   1
 Largest Abelian subgroup         C1      NOp   1
 Largest concise Abelian subgroup C1      NOp   1
                         Standard orientation:                         
 ---------------------------------------------------------------------
 Center     Atomic      Atomic             Coordinates (Angstroms)
 Number     Number       Type             X           Y           Z
 ---------------------------------------------------------------------
      1          6           0        3.202435   -0.146544   -0.001731
      2          6           0        2.788862    1.158078   -0.001072
      3          6           0        1.367660    1.362996    0.040036
      4          6           0        0.706718    0.065314    0.026134
      5         16           0        1.838824   -1.192013   -0.011220
      6          6           0       -0.693108   -0.136190   -0.027607
      7          6           0       -1.438648   -1.335071    0.009614
      8          6           0       -2.774416   -1.209664    0.009425
      9          6           0       -3.161311    0.126597    0.027985
     10         16           0       -1.841402    1.240074   -0.020422
     11          1           0        4.185251   -0.560172    0.009054
     12          1           0        3.552670    2.007656    0.006664
     13          1           0        0.925059    2.276701   -0.025527
     14          1           0       -0.876018   -2.333797    0.015315
     15          1           0       -3.531818   -2.043340   -0.016953
     16          1           0       -4.203046    0.570869    0.021004
 ---------------------------------------------------------------------
 Rotational constants (GHZ):           2.6317547           0.6588846           0.5270301
 Leave Link  202 at Thu Jul 23 19:46:25 2020, MaxMem=  4026531840 cpu:               0.3 elap:               0.1
 (Enter /opt/ohpc/pub/libs/gaussian/g16-A.03/sandybridge/g16/l301.exe)
 Standard basis: CC-pVDZ (5D, 7F)
 Ernie: Thresh=  0.10000D-02 Tol=  0.10000D-05 Strict=F.
 Ernie:  36 primitive shells out of 306 were deleted.
 There are   188 symmetry adapted cartesian basis functions of A   symmetry.
 There are   178 symmetry adapted basis functions of A   symmetry.
   178 basis functions,   448 primitive gaussians,   188 cartesian basis functions
    43 alpha electrons       43 beta electrons
       nuclear repulsion energy       630.3412794583 Hartrees.
 IExCor=32609 DFT=T Ex+Corr=LC-wPBE ExCW=0 ScaHFX=  1.000000
 ScaDFX=  1.000000  0.000000  1.000000  1.000000 ScalE2=  1.000000  1.000000
 IRadAn=      5 IRanWt=     -1 IRanGd=            0 ICorTp=0 IEmpDi=  4
 HFx  wShort=  0.000000 wLong=  0.313600 cFull=  0.000000 cShort=  0.000000 cLong=  1.000000
 DFx  wShort=  0.000000 wLong=  0.313600 cFull=  0.000000 cShort=  0.000000 cLong=  1.000000
 NAtoms=   16 NActive=   16 NUniq=   16 SFac= 1.00D+00 NAtFMM=   60 NAOKFM=F Big=F
 Integral buffers will be    131072 words long.
 Raffenetti 2 integral format.
 Two-electron integral symmetry is turned on.
 Leave Link  301 at Thu Jul 23 19:46:25 2020, MaxMem=  4026531840 cpu:               0.5 elap:               0.1
 (Enter /opt/ohpc/pub/libs/gaussian/g16-A.03/sandybridge/g16/l302.exe)
 NPDir=0 NMtPBC=     1 NCelOv=     1 NCel=       1 NClECP=     1 NCelD=      1
         NCelK=      1 NCelE2=     1 NClLst=     1 CellRange=     0.0.
 One-electron integrals computed using PRISM.
 One-electron integral symmetry used in STVInt
 NBasis=   178 RedAO= T EigKep=  5.28D-04  NBF=   178
 NBsUse=   178 1.00D-06 EigRej= -1.00D+00 NBFU=   178
 Precomputing XC quadrature grid using
 IXCGrd= 4 IRadAn=           5 IRanWt=          -1 IRanGd=           0 AccXCQ= 0.00D+00.
 Generated NRdTot=       0 NPtTot=           0 NUsed=           0 NTot=          32
 NSgBfM=   188   188   188   188   188 MxSgAt=    16 MxSgA2=    16.
 Leave Link  302 at Thu Jul 23 19:46:26 2020, MaxMem=  4026531840 cpu:               2.3 elap:               0.4
 (Enter /opt/ohpc/pub/libs/gaussian/g16-A.03/sandybridge/g16/l303.exe)
 DipDrv:  MaxL=1.
 Leave Link  303 at Thu Jul 23 19:46:26 2020, MaxMem=  4026531840 cpu:               0.4 elap:               0.1
 (Enter /opt/ohpc/pub/libs/gaussian/g16-A.03/sandybridge/g16/l401.exe)
 ExpMin= 1.22D-01 ExpMax= 1.11D+05 ExpMxC= 1.07D+03 IAcc=3 IRadAn=         5 AccDes= 0.00D+00
 Harris functional with IExCor=32609 and IRadAn=       5 diagonalized for initial guess.
 HarFok:  IExCor=32609 AccDes= 0.00D+00 IRadAn=         5 IDoV= 1 UseB2=F ITyADJ=14
 ICtDFT=  3500011 ScaDFX=  1.000000  1.000000  1.000000  1.000000
 FoFCou: FMM=F IPFlag=           0 FMFlag=      100000 FMFlg1=           0
         NFxFlg=           0 DoJE=T BraDBF=F KetDBF=T FulRan=T
         wScrn=  0.000000 ICntrl=       500 IOpCl=  0 I1Cent=   200000004 NGrid=           0
         NMat0=    1 NMatS0=      1 NMatT0=    0 NMatD0=    1 NMtDS0=    0 NMtDT0=    0
 Petite list used in FoFCou.
 Harris En= -1104.25180287450    
 JPrj=0 DoOrth=F DoCkMO=F.
 Initial guess <Sx>= 0.0000 <Sy>= 0.0000 <Sz>= 0.0000 <S**2>=-0.0000 S=-0.0000
 Leave Link  401 at Thu Jul 23 19:46:27 2020, MaxMem=  4026531840 cpu:               6.3 elap:               0.9
 (Enter /opt/ohpc/pub/libs/gaussian/g16-A.03/sandybridge/g16/l502.exe)
 Integral symmetry usage will be decided dynamically.
 UHF open shell SCF:
 Using DIIS extrapolation, IDIIS=  1040.
 NGot=  4026531840 LenX=  4026457624 LenY=  4026421839
 Requested convergence on RMS density matrix=1.00D-08 within 128 cycles.
 Requested convergence on MAX density matrix=1.00D-06.
 Requested convergence on             energy=1.00D-06.
 No special actions if energy rises.
 Fock matrices will be formed incrementally for  20 cycles.
 Integral accuracy reduced to 1.0D-05 until final iterations.

 Cycle   1  Pass 0  IDiag  1:
 FoFJK:  IHMeth= 1 ICntrl=       0 DoSepK=T KAlg= 0 I1Cent=           0 FoldK=F
 IRaf=         1 NMat=       1 IRICut=       1 DoRegI=T DoRafI=F ISym2E= 0 IDoP0=0 IntGTp=1.
 FoFCou: FMM=F IPFlag=           0 FMFlag=      100000 FMFlg1=           0
         NFxFlg=           0 DoJE=T BraDBF=F KetDBF=F FulRan=T
         wScrn=  0.000000 ICntrl=       500 IOpCl=  0 I1Cent=           0 NGrid=           0
         NMat0=    1 NMatS0=      1 NMatT0=    0 NMatD0=    1 NMtDS0=    0 NMtDT0=    0
 Symmetry not used in FoFCou.
 E= -1103.95761733785    
 DIIS: error= 3.10D-02 at cycle   1 NSaved=   1.
 NSaved= 1 IEnMin= 1 EnMin= -1103.95761733785     IErMin= 1 ErrMin= 3.10D-02
 ErrMax= 3.10D-02  0.00D+00 EMaxC= 1.00D-01 BMatC= 1.21D+00 BMatP= 1.21D+00
 IDIUse=3 WtCom= 6.90D-01 WtEn= 3.10D-01
 Coeff-Com:  0.100D+01
 Coeff-En:   0.100D+01
 Coeff:      0.100D+01
 Gap=     0.256 Goal=   None    Shift=    0.000
 Gap=     0.256 Goal=   None    Shift=    0.000
 GapD=    0.256 DampG=1.000 DampE=0.500 DampFc=0.5000 IDamp=-1.
 Damping current iteration by 5.00D-01
 RMSDP=6.33D-03 MaxDP=1.57D-01              OVMax= 2.26D-01

 Cycle   2  Pass 0  IDiag  1:
 RMSU=  3.13D-03    CP:  9.86D-01
 E= -1104.13897793340     Delta-E=       -0.181360595550 Rises=F Damp=T
 DIIS: error= 4.72D-03 at cycle   2 NSaved=   2.
 NSaved= 2 IEnMin= 2 EnMin= -1104.13897793340     IErMin= 2 ErrMin= 4.72D-03
 ErrMax= 4.72D-03  0.00D+00 EMaxC= 1.00D-01 BMatC= 2.82D-02 BMatP= 1.21D+00
 IDIUse=3 WtCom= 9.53D-01 WtEn= 4.72D-02
 Coeff-Com: -0.618D-03 0.100D+01
 Coeff-En:   0.000D+00 0.100D+01
 Coeff:     -0.588D-03 0.100D+01
 Gap=     0.278 Goal=   None    Shift=    0.000
 Gap=     0.278 Goal=   None    Shift=    0.000
 RMSDP=1.34D-03 MaxDP=2.76D-02 DE=-1.81D-01 OVMax= 1.33D-01

 Cycle   3  Pass 0  IDiag  1:
 RMSU=  1.30D-03    CP:  9.79D-01  1.07D+00
 E= -1104.32083014066     Delta-E=       -0.181852207259 Rises=F Damp=F
 DIIS: error= 2.29D-03 at cycle   3 NSaved=   3.
 NSaved= 3 IEnMin= 3 EnMin= -1104.32083014066     IErMin= 3 ErrMin= 2.29D-03
 ErrMax= 2.29D-03  0.00D+00 EMaxC= 1.00D-01 BMatC= 4.66D-03 BMatP= 2.82D-02
 IDIUse=3 WtCom= 9.77D-01 WtEn= 2.29D-02
 Coeff-Com:  0.600D-02 0.158D+00 0.836D+00
 Coeff-En:   0.000D+00 0.000D+00 0.100D+01
 Coeff:      0.586D-02 0.154D+00 0.840D+00
 Gap=     0.285 Goal=   None    Shift=    0.000
 Gap=     0.285 Goal=   None    Shift=    0.000
 RMSDP=3.05D-04 MaxDP=6.60D-03 DE=-1.82D-01 OVMax= 1.93D-02

 Cycle   4  Pass 0  IDiag  1:
 RMSU=  2.96D-04    CP:  9.78D-01  1.08D+00  1.04D+00
 E= -1104.32220432967     Delta-E=       -0.001374189011 Rises=F Damp=F
 DIIS: error= 1.22D-03 at cycle   4 NSaved=   4.
 NSaved= 4 IEnMin= 4 EnMin= -1104.32220432967     IErMin= 4 ErrMin= 1.22D-03
 ErrMax= 1.22D-03  0.00D+00 EMaxC= 1.00D-01 BMatC= 1.96D-03 BMatP= 4.66D-03
 IDIUse=3 WtCom= 9.88D-01 WtEn= 1.22D-02
 Coeff-Com:  0.960D-02-0.549D-01 0.358D+00 0.687D+00
 Coeff-En:   0.000D+00 0.000D+00 0.000D+00 0.100D+01
 Coeff:      0.948D-02-0.542D-01 0.354D+00 0.691D+00
 Gap=     0.287 Goal=   None    Shift=    0.000
 Gap=     0.287 Goal=   None    Shift=    0.000
 RMSDP=1.65D-04 MaxDP=3.43D-03 DE=-1.37D-03 OVMax= 7.32D-03

 Cycle   5  Pass 0  IDiag  1:
 RMSU=  1.34D-04    CP:  9.78D-01  1.08D+00  1.11D+00  9.46D-01
 E= -1104.32286371586     Delta-E=       -0.000659386188 Rises=F Damp=F
 DIIS: error= 5.74D-04 at cycle   5 NSaved=   5.
 NSaved= 5 IEnMin= 5 EnMin= -1104.32286371586     IErMin= 5 ErrMin= 5.74D-04
 ErrMax= 5.74D-04  0.00D+00 EMaxC= 1.00D-01 BMatC= 1.65D-04 BMatP= 1.96D-03
 IDIUse=3 WtCom= 9.94D-01 WtEn= 5.74D-03
 Coeff-Com:  0.443D-02-0.388D-01-0.296D-01 0.165D+00 0.899D+00
 Coeff-En:   0.000D+00 0.000D+00 0.000D+00 0.000D+00 0.100D+01
 Coeff:      0.441D-02-0.386D-01-0.294D-01 0.164D+00 0.899D+00
 Gap=     0.288 Goal=   None    Shift=    0.000
 Gap=     0.288 Goal=   None    Shift=    0.000
 RMSDP=8.08D-05 MaxDP=2.14D-03 DE=-6.59D-04 OVMax= 5.33D-03

 Cycle   6  Pass 0  IDiag  1:
 RMSU=  5.00D-05    CP:  9.77D-01  1.07D+00  1.14D+00  1.10D+00  1.14D+00
 E= -1104.32297129657     Delta-E=       -0.000107580709 Rises=F Damp=F
 DIIS: error= 2.32D-04 at cycle   6 NSaved=   6.
 NSaved= 6 IEnMin= 6 EnMin= -1104.32297129657     IErMin= 6 ErrMin= 2.32D-04
 ErrMax= 2.32D-04  0.00D+00 EMaxC= 1.00D-01 BMatC= 3.46D-05 BMatP= 1.65D-04
 IDIUse=3 WtCom= 9.98D-01 WtEn= 2.32D-03
 Coeff-Com:  0.124D-02-0.992D-02-0.499D-01-0.232D-01 0.308D+00 0.774D+00
 Coeff-En:   0.000D+00 0.000D+00 0.000D+00 0.000D+00 0.000D+00 0.100D+01
 Coeff:      0.124D-02-0.989D-02-0.498D-01-0.232D-01 0.307D+00 0.775D+00
 Gap=     0.288 Goal=   None    Shift=    0.000
 Gap=     0.288 Goal=   None    Shift=    0.000
 RMSDP=3.42D-05 MaxDP=8.84D-04 DE=-1.08D-04 OVMax= 2.45D-03

 Cycle   7  Pass 0  IDiag  1:
 RMSU=  2.33D-05    CP:  9.77D-01  1.07D+00  1.15D+00  1.13D+00  1.28D+00
                    CP:  1.18D+00
 E= -1104.32299231383     Delta-E=       -0.000021017262 Rises=F Damp=F
 DIIS: error= 1.39D-04 at cycle   7 NSaved=   7.
 NSaved= 7 IEnMin= 7 EnMin= -1104.32299231383     IErMin= 7 ErrMin= 1.39D-04
 ErrMax= 1.39D-04  0.00D+00 EMaxC= 1.00D-01 BMatC= 1.08D-05 BMatP= 3.46D-05
 IDIUse=3 WtCom= 9.99D-01 WtEn= 1.39D-03
 Coeff-Com: -0.380D-03 0.579D-02-0.139D-01-0.608D-01-0.125D+00 0.380D+00
 Coeff-Com:  0.814D+00
 Coeff-En:   0.000D+00 0.000D+00 0.000D+00 0.000D+00 0.000D+00 0.000D+00
 Coeff-En:   0.100D+01
 Coeff:     -0.379D-03 0.579D-02-0.138D-01-0.607D-01-0.124D+00 0.380D+00
 Coeff:      0.814D+00
 Gap=     0.288 Goal=   None    Shift=    0.000
 Gap=     0.288 Goal=   None    Shift=    0.000
 RMSDP=2.24D-05 MaxDP=5.45D-04 DE=-2.10D-05 OVMax= 1.57D-03

 Cycle   8  Pass 0  IDiag  1:
 RMSU=  8.80D-06    CP:  9.77D-01  1.07D+00  1.16D+00  1.16D+00  1.36D+00
                    CP:  1.49D+00  1.03D+00
 E= -1104.32299943093     Delta-E=       -0.000007117098 Rises=F Damp=F
 DIIS: error= 3.50D-05 at cycle   8 NSaved=   8.
 NSaved= 8 IEnMin= 8 EnMin= -1104.32299943093     IErMin= 8 ErrMin= 3.50D-05
 ErrMax= 3.50D-05  0.00D+00 EMaxC= 1.00D-01 BMatC= 9.38D-07 BMatP= 1.08D-05
 IDIUse=1 WtCom= 1.00D+00 WtEn= 0.00D+00
 Coeff-Com: -0.912D-04 0.213D-02 0.191D-02-0.113D-01-0.601D-01-0.690D-02
 Coeff-Com:  0.212D+00 0.862D+00
 Coeff:     -0.912D-04 0.213D-02 0.191D-02-0.113D-01-0.601D-01-0.690D-02
 Coeff:      0.212D+00 0.862D+00
 Gap=     0.288 Goal=   None    Shift=    0.000
 Gap=     0.288 Goal=   None    Shift=    0.000
 RMSDP=6.96D-06 MaxDP=1.40D-04 DE=-7.12D-06 OVMax= 4.58D-04

 Initial convergence to 1.0D-05 achieved.  Increase integral accuracy.
 Cycle   9  Pass 1  IDiag  1:
 E= -1104.32287996919     Delta-E=        0.000119461741 Rises=F Damp=F
 DIIS: error= 5.65D-05 at cycle   1 NSaved=   1.
 NSaved= 1 IEnMin= 1 EnMin= -1104.32287996919     IErMin= 1 ErrMin= 5.65D-05
 ErrMax= 5.65D-05  0.00D+00 EMaxC= 1.00D-01 BMatC= 9.09D-07 BMatP= 9.09D-07
 IDIUse=1 WtCom= 1.00D+00 WtEn= 0.00D+00
 Coeff-Com:  0.100D+01
 Coeff:      0.100D+01
 Gap=     0.288 Goal=   None    Shift=    0.000
 Gap=     0.288 Goal=   None    Shift=    0.000
 RMSDP=6.96D-06 MaxDP=1.40D-04 DE= 1.19D-04 OVMax= 2.16D-04

 Cycle  10  Pass 1  IDiag  1:
 RMSU=  2.66D-05    CP:  1.00D+00
 E= -1104.32288017787     Delta-E=       -0.000000208682 Rises=F Damp=F
 DIIS: error= 1.59D-05 at cycle   2 NSaved=   2.
 NSaved= 2 IEnMin= 2 EnMin= -1104.32288017787     IErMin= 2 ErrMin= 1.59D-05
 ErrMax= 1.59D-05  0.00D+00 EMaxC= 1.00D-01 BMatC= 2.50D-07 BMatP= 9.09D-07
 IDIUse=1 WtCom= 1.00D+00 WtEn= 0.00D+00
 Coeff-Com:  0.274D+00 0.726D+00
 Coeff:      0.274D+00 0.726D+00
 Gap=     0.288 Goal=   None    Shift=    0.000
 Gap=     0.288 Goal=   None    Shift=    0.000
 RMSDP=2.33D-06 MaxDP=5.53D-05 DE=-2.09D-07 OVMax= 1.21D-04

 Cycle  11  Pass 1  IDiag  1:
 RMSU=  2.14D-06    CP:  1.00D+00  1.03D+00
 E= -1104.32288023188     Delta-E=       -0.000000054011 Rises=F Damp=F
 DIIS: error= 1.01D-05 at cycle   3 NSaved=   3.
 NSaved= 3 IEnMin= 3 EnMin= -1104.32288023188     IErMin= 3 ErrMin= 1.01D-05
 ErrMax= 1.01D-05  0.00D+00 EMaxC= 1.00D-01 BMatC= 9.25D-08 BMatP= 2.50D-07
 IDIUse=1 WtCom= 1.00D+00 WtEn= 0.00D+00
 Coeff-Com: -0.293D-01 0.366D+00 0.663D+00
 Coeff:     -0.293D-01 0.366D+00 0.663D+00
 Gap=     0.288 Goal=   None    Shift=    0.000
 Gap=     0.288 Goal=   None    Shift=    0.000
 RMSDP=1.16D-06 MaxDP=2.49D-05 DE=-5.40D-08 OVMax= 7.11D-05

 Cycle  12  Pass 1  IDiag  1:
 RMSU=  7.86D-07    CP:  1.00D+00  1.06D+00  7.39D-01
 E= -1104.32288026157     Delta-E=       -0.000000029692 Rises=F Damp=F
 DIIS: error= 2.69D-06 at cycle   4 NSaved=   4.
 NSaved= 4 IEnMin= 4 EnMin= -1104.32288026157     IErMin= 4 ErrMin= 2.69D-06
 ErrMax= 2.69D-06  0.00D+00 EMaxC= 1.00D-01 BMatC= 6.14D-09 BMatP= 9.25D-08
 IDIUse=1 WtCom= 1.00D+00 WtEn= 0.00D+00
 Coeff-Com: -0.263D-01 0.113D+00 0.269D+00 0.644D+00
 Coeff:     -0.263D-01 0.113D+00 0.269D+00 0.644D+00
 Gap=     0.288 Goal=   None    Shift=    0.000
 Gap=     0.288 Goal=   None    Shift=    0.000
 RMSDP=3.32D-07 MaxDP=1.01D-05 DE=-2.97D-08 OVMax= 2.26D-05

 Cycle  13  Pass 1  IDiag  1:
 RMSU=  2.54D-07    CP:  1.00D+00  1.06D+00  8.04D-01  1.19D+00
 E= -1104.32288026474     Delta-E=       -0.000000003174 Rises=F Damp=F
 DIIS: error= 1.85D-06 at cycle   5 NSaved=   5.
 NSaved= 5 IEnMin= 5 EnMin= -1104.32288026474     IErMin= 5 ErrMin= 1.85D-06
 ErrMax= 1.85D-06  0.00D+00 EMaxC= 1.00D-01 BMatC= 1.23D-09 BMatP= 6.14D-09
 IDIUse=1 WtCom= 1.00D+00 WtEn= 0.00D+00
 Coeff-Com:  0.777D-02-0.146D+00-0.250D+00 0.928D-01 0.130D+01
 Coeff:      0.777D-02-0.146D+00-0.250D+00 0.928D-01 0.130D+01
 Gap=     0.288 Goal=   None    Shift=    0.000
 Gap=     0.288 Goal=   None    Shift=    0.000
 RMSDP=4.42D-07 MaxDP=1.02D-05 DE=-3.17D-09 OVMax= 3.35D-05

 Cycle  14  Pass 1  IDiag  1:
 RMSU=  1.44D-07    CP:  1.00D+00  1.06D+00  8.62D-01  1.67D+00  1.47D+00
 E= -1104.32288026655     Delta-E=       -0.000000001804 Rises=F Damp=F
 DIIS: error= 5.45D-07 at cycle   6 NSaved=   6.
 NSaved= 6 IEnMin= 6 EnMin= -1104.32288026655     IErMin= 6 ErrMin= 5.45D-07
 ErrMax= 5.45D-07  0.00D+00 EMaxC= 1.00D-01 BMatC= 2.92D-10 BMatP= 1.23D-09
 IDIUse=1 WtCom= 1.00D+00 WtEn= 0.00D+00
 Coeff-Com:  0.636D-02-0.841D-01-0.152D+00-0.212D-01 0.661D+00 0.591D+00
 Coeff:      0.636D-02-0.841D-01-0.152D+00-0.212D-01 0.661D+00 0.591D+00
 Gap=     0.288 Goal=   None    Shift=    0.000
 Gap=     0.288 Goal=   None    Shift=    0.000
 RMSDP=8.34D-08 MaxDP=1.69D-06 DE=-1.80D-09 OVMax= 5.90D-06

 Cycle  15  Pass 1  IDiag  1:
 RMSU=  5.11D-08    CP:  1.00D+00  1.06D+00  8.69D-01  1.74D+00  1.62D+00
                    CP:  9.55D-01
 E= -1104.32288026665     Delta-E=       -0.000000000101 Rises=F Damp=F
 DIIS: error= 1.36D-07 at cycle   7 NSaved=   7.
 NSaved= 7 IEnMin= 7 EnMin= -1104.32288026665     IErMin= 7 ErrMin= 1.36D-07
 ErrMax= 1.36D-07  0.00D+00 EMaxC= 1.00D-01 BMatC= 1.13D-11 BMatP= 2.92D-10
 IDIUse=1 WtCom= 1.00D+00 WtEn= 0.00D+00
 Coeff-Com:  0.321D-04 0.437D-02 0.573D-02-0.151D-01-0.482D-01 0.114D+00
 Coeff-Com:  0.940D+00
 Coeff:      0.321D-04 0.437D-02 0.573D-02-0.151D-01-0.482D-01 0.114D+00
 Coeff:      0.940D+00
 Gap=     0.288 Goal=   None    Shift=    0.000
 Gap=     0.288 Goal=   None    Shift=    0.000
 RMSDP=2.36D-08 MaxDP=6.40D-07 DE=-1.01D-10 OVMax= 1.72D-06

 Cycle  16  Pass 1  IDiag  1:
 RMSU=  1.34D-08    CP:  1.00D+00  1.06D+00  8.70D-01  1.75D+00  1.64D+00
                    CP:  1.06D+00  1.05D+00
 E= -1104.32288026667     Delta-E=       -0.000000000018 Rises=F Damp=F
 DIIS: error= 2.47D-08 at cycle   8 NSaved=   8.
 NSaved= 8 IEnMin= 8 EnMin= -1104.32288026667     IErMin= 8 ErrMin= 2.47D-08
 ErrMax= 2.47D-08  0.00D+00 EMaxC= 1.00D-01 BMatC= 1.50D-12 BMatP= 1.13D-11
 IDIUse=1 WtCom= 1.00D+00 WtEn= 0.00D+00
 Coeff-Com: -0.714D-03 0.111D-01 0.192D-01-0.345D-02-0.917D-01-0.299D-01
 Coeff-Com:  0.276D+00 0.820D+00
 Coeff:     -0.714D-03 0.111D-01 0.192D-01-0.345D-02-0.917D-01-0.299D-01
 Coeff:      0.276D+00 0.820D+00
 Gap=     0.288 Goal=   None    Shift=    0.000
 Gap=     0.288 Goal=   None    Shift=    0.000
 RMSDP=8.22D-09 MaxDP=2.47D-07 DE=-1.77D-11 OVMax= 4.53D-07

 SCF Done:  E(ULC-wPBE) =  -1104.32288027     A.U. after   16 cycles
            NFock= 16  Conv=0.82D-08     -V/T= 2.0037
 <Sx>= 0.0000 <Sy>= 0.0000 <Sz>= 0.0000 <S**2>=-0.0000 S=-0.0000
 <L.S>= 0.000000000000E+00
 KE= 1.100240839357D+03 PE=-3.867723828485D+03 EE= 1.032818829403D+03
 Annihilation of the first spin contaminant:
 S**2 before annihilation    -0.0000,   after    -0.0000
 Leave Link  502 at Thu Jul 23 19:47:00 2020, MaxMem=  4026531840 cpu:             264.4 elap:              33.3
 (Enter /opt/ohpc/pub/libs/gaussian/g16-A.03/sandybridge/g16/l601.exe)
 Copying SCF densities to generalized density rwf, IOpCl= 1 IROHF=0.

 **********************************************************************

            Population analysis using the SCF density.

 **********************************************************************

 Orbital symmetries:
 Alpha Orbitals:
       Occupied  (A) (A) (A) (A) (A) (A) (A) (A) (A) (A) (A) (A)
                 (A) (A) (A) (A) (A) (A) (A) (A) (A) (A) (A) (A)
                 (A) (A) (A) (A) (A) (A) (A) (A) (A) (A) (A) (A)
                 (A) (A) (A) (A) (A) (A) (A)
       Virtual   (A) (A) (A) (A) (A) (A) (A) (A) (A) (A) (A) (A)
                 (A) (A) (A) (A) (A) (A) (A) (A) (A) (A) (A) (A)
                 (A) (A) (A) (A) (A) (A) (A) (A) (A) (A) (A) (A)
                 (A) (A) (A) (A) (A) (A) (A) (A) (A) (A) (A) (A)
                 (A) (A) (A) (A) (A) (A) (A) (A) (A) (A) (A) (A)
                 (A) (A) (A) (A) (A) (A) (A) (A) (A) (A) (A) (A)
                 (A) (A) (A) (A) (A) (A) (A) (A) (A) (A) (A) (A)
                 (A) (A) (A) (A) (A) (A) (A) (A) (A) (A) (A) (A)
                 (A) (A) (A) (A) (A) (A) (A) (A) (A) (A) (A) (A)
                 (A) (A) (A) (A) (A) (A) (A) (A) (A) (A) (A) (A)
                 (A) (A) (A) (A) (A) (A) (A) (A) (A) (A) (A) (A)
                 (A) (A) (A)
 Beta  Orbitals:
       Occupied  (A) (A) (A) (A) (A) (A) (A) (A) (A) (A) (A) (A)
                 (A) (A) (A) (A) (A) (A) (A) (A) (A) (A) (A) (A)
                 (A) (A) (A) (A) (A) (A) (A) (A) (A) (A) (A) (A)
                 (A) (A) (A) (A) (A) (A) (A)
       Virtual   (A) (A) (A) (A) (A) (A) (A) (A) (A) (A) (A) (A)
                 (A) (A) (A) (A) (A) (A) (A) (A) (A) (A) (A) (A)
                 (A) (A) (A) (A) (A) (A) (A) (A) (A) (A) (A) (A)
                 (A) (A) (A) (A) (A) (A) (A) (A) (A) (A) (A) (A)
                 (A) (A) (A) (A) (A) (A) (A) (A) (A) (A) (A) (A)
                 (A) (A) (A) (A) (A) (A) (A) (A) (A) (A) (A) (A)
                 (A) (A) (A) (A) (A) (A) (A) (A) (A) (A) (A) (A)
                 (A) (A) (A) (A) (A) (A) (A) (A) (A) (A) (A) (A)
                 (A) (A) (A) (A) (A) (A) (A) (A) (A) (A) (A) (A)
                 (A) (A) (A) (A) (A) (A) (A) (A) (A) (A) (A) (A)
                 (A) (A) (A) (A) (A) (A) (A) (A) (A) (A) (A) (A)
                 (A) (A) (A)
 The electronic state is 1-A.
 Alpha  occ. eigenvalues --  -88.28099 -88.27682 -10.11999 -10.11895 -10.11079
 Alpha  occ. eigenvalues --  -10.09879 -10.08641 -10.08479 -10.08307 -10.08044
 Alpha  occ. eigenvalues --   -7.88551  -7.88349  -5.90334  -5.90128  -5.89872
 Alpha  occ. eigenvalues --   -5.89604  -5.89479  -5.89275  -1.00567  -0.98285
 Alpha  occ. eigenvalues --   -0.87559  -0.85768  -0.84086  -0.79564  -0.70632
 Alpha  occ. eigenvalues --   -0.67760  -0.64716  -0.62731  -0.62208  -0.56923
 Alpha  occ. eigenvalues --   -0.51797  -0.51407  -0.50721  -0.48972  -0.48470
 Alpha  occ. eigenvalues --   -0.48035  -0.45848  -0.44551  -0.42969  -0.37780
 Alpha  occ. eigenvalues --   -0.35816  -0.34494  -0.27964
 Alpha virt. eigenvalues --    0.00844   0.09262   0.10385   0.12254   0.13704
 Alpha virt. eigenvalues --    0.15097   0.15601   0.16899   0.17003   0.19186
 Alpha virt. eigenvalues --    0.20448   0.20988   0.24514   0.26868   0.30947
 Alpha virt. eigenvalues --    0.33782   0.35126   0.36729   0.42677   0.45047
 Alpha virt. eigenvalues --    0.46781   0.48234   0.51019   0.53269   0.53851
 Alpha virt. eigenvalues --    0.54203   0.55437   0.55833   0.55992   0.56903
 Alpha virt. eigenvalues --    0.57170   0.57451   0.57801   0.58718   0.59184
 Alpha virt. eigenvalues --    0.60723   0.61185   0.62244   0.63240   0.64346
 Alpha virt. eigenvalues --    0.66019   0.67264   0.68006   0.70737   0.72496
 Alpha virt. eigenvalues --    0.73460   0.74714   0.75712   0.76128   0.76882
 Alpha virt. eigenvalues --    0.78088   0.78688   0.80677   0.83862   0.85169
 Alpha virt. eigenvalues --    0.86026   0.86531   0.92116   0.94359   0.96121
 Alpha virt. eigenvalues --    0.98300   1.01339   1.01564   1.03151   1.04245
 Alpha virt. eigenvalues --    1.05973   1.07338   1.07609   1.08919   1.10518
 Alpha virt. eigenvalues --    1.11714   1.12666   1.14248   1.16508   1.19854
 Alpha virt. eigenvalues --    1.20744   1.21871   1.25793   1.28710   1.36533
 Alpha virt. eigenvalues --    1.37215   1.38107   1.42277   1.43399   1.45963
 Alpha virt. eigenvalues --    1.48932   1.50426   1.56174   1.57215   1.57813
 Alpha virt. eigenvalues --    1.58621   1.61119   1.61843   1.63348   1.68926
 Alpha virt. eigenvalues --    1.70250   1.70543   1.72754   1.73203   1.76438
 Alpha virt. eigenvalues --    1.77388   1.78776   1.79119   1.83060   1.83815
 Alpha virt. eigenvalues --    1.84594   1.89892   1.91738   1.92341   1.95252
 Alpha virt. eigenvalues --    1.98600   2.00192   2.02585   2.03962   2.04517
 Alpha virt. eigenvalues --    2.07784   2.13618   2.14935   2.18011   2.19299
 Alpha virt. eigenvalues --    2.24130   2.26310   2.32762   2.40765   2.44611
 Alpha virt. eigenvalues --    2.47892   2.49193   2.52851   2.58135   2.66245
 Alpha virt. eigenvalues --    2.67267   2.73441   2.80848   3.20472   3.25790
  Beta  occ. eigenvalues --  -88.28099 -88.27682 -10.11999 -10.11895 -10.11079
  Beta  occ. eigenvalues --  -10.09879 -10.08641 -10.08479 -10.08307 -10.08044
  Beta  occ. eigenvalues --   -7.88551  -7.88349  -5.90334  -5.90128  -5.89872
  Beta  occ. eigenvalues --   -5.89604  -5.89479  -5.89275  -1.00567  -0.98285
  Beta  occ. eigenvalues --   -0.87559  -0.85768  -0.84086  -0.79564  -0.70632
  Beta  occ. eigenvalues --   -0.67760  -0.64716  -0.62731  -0.62208  -0.56923
  Beta  occ. eigenvalues --   -0.51797  -0.51407  -0.50721  -0.48972  -0.48470
  Beta  occ. eigenvalues --   -0.48035  -0.45848  -0.44551  -0.42969  -0.37780
  Beta  occ. eigenvalues --   -0.35816  -0.34494  -0.27964
  Beta virt. eigenvalues --    0.00844   0.09262   0.10385   0.12254   0.13704
  Beta virt. eigenvalues --    0.15097   0.15601   0.16899   0.17003   0.19186
  Beta virt. eigenvalues --    0.20448   0.20988   0.24514   0.26868   0.30947
  Beta virt. eigenvalues --    0.33782   0.35126   0.36729   0.42677   0.45047
  Beta virt. eigenvalues --    0.46781   0.48234   0.51019   0.53269   0.53851
  Beta virt. eigenvalues --    0.54203   0.55437   0.55833   0.55992   0.56903
  Beta virt. eigenvalues --    0.57170   0.57451   0.57801   0.58718   0.59184
  Beta virt. eigenvalues --    0.60723   0.61185   0.62244   0.63240   0.64346
  Beta virt. eigenvalues --    0.66019   0.67264   0.68006   0.70737   0.72496
  Beta virt. eigenvalues --    0.73460   0.74714   0.75712   0.76128   0.76882
  Beta virt. eigenvalues --    0.78088   0.78688   0.80677   0.83862   0.85169
  Beta virt. eigenvalues --    0.86026   0.86531   0.92116   0.94359   0.96121
  Beta virt. eigenvalues --    0.98300   1.01339   1.01564   1.03151   1.04245
  Beta virt. eigenvalues --    1.05973   1.07338   1.07609   1.08919   1.10518
  Beta virt. eigenvalues --    1.11714   1.12666   1.14248   1.16508   1.19854
  Beta virt. eigenvalues --    1.20744   1.21871   1.25793   1.28710   1.36533
  Beta virt. eigenvalues --    1.37215   1.38107   1.42277   1.43399   1.45963
  Beta virt. eigenvalues --    1.48932   1.50426   1.56174   1.57215   1.57813
  Beta virt. eigenvalues --    1.58621   1.61119   1.61843   1.63348   1.68926
  Beta virt. eigenvalues --    1.70250   1.70543   1.72754   1.73203   1.76438
  Beta virt. eigenvalues --    1.77388   1.78776   1.79119   1.83060   1.83815
  Beta virt. eigenvalues --    1.84594   1.89892   1.91738   1.92341   1.95252
  Beta virt. eigenvalues --    1.98600   2.00192   2.02585   2.03962   2.04517
  Beta virt. eigenvalues --    2.07784   2.13618   2.14935   2.18011   2.19299
  Beta virt. eigenvalues --    2.24130   2.26310   2.32762   2.40765   2.44611
  Beta virt. eigenvalues --    2.47892   2.49193   2.52851   2.58135   2.66245
  Beta virt. eigenvalues --    2.67267   2.73441   2.80848   3.20472   3.25790
          Condensed to atoms (all electrons):
               1          2          3          4          5          6
     1  C    4.951484   0.560286  -0.041247  -0.094366   0.366712   0.004335
     2  C    0.560286   4.707290   0.496695  -0.028424  -0.087641   0.006627
     3  C   -0.041247   0.496695   4.758111   0.507952  -0.102987  -0.051824
     4  C   -0.094366  -0.028424   0.507952   5.170884   0.396853   0.323019
     5  S    0.366712  -0.087641  -0.102987   0.396853  15.357964  -0.068653
     6  C    0.004335   0.006627  -0.051824   0.323019  -0.068653   5.201831
     7  C    0.000213  -0.000298   0.006180  -0.056933  -0.008627   0.541436
     8  C   -0.000003   0.000010  -0.000321   0.006603  -0.000033  -0.032375
     9  C    0.000001  -0.000005   0.000287   0.003893  -0.000051  -0.108906
    10  S   -0.000042   0.000034  -0.010303  -0.062288   0.003298   0.368783
    11  H    0.407284  -0.022295   0.008192   0.000678  -0.039850  -0.000282
    12  H   -0.049564   0.402627  -0.039603   0.006864   0.007993  -0.000320
    13  H    0.008411  -0.038281   0.420503  -0.047041   0.006250  -0.016369
    14  H    0.000059  -0.000026   0.000362  -0.016209   0.006361  -0.045687
    15  H   -0.000000  -0.000000   0.000001  -0.000254  -0.000002   0.008187
    16  H   -0.000000   0.000000   0.000001  -0.000244   0.000003   0.001847
               7          8          9         10         11         12
     1  C    0.000213  -0.000003   0.000001  -0.000042   0.407284  -0.049564
     2  C   -0.000298   0.000010  -0.000005   0.000034  -0.022295   0.402627
     3  C    0.006180  -0.000321   0.000287  -0.010303   0.008192  -0.039603
     4  C   -0.056933   0.006603   0.003893  -0.062288   0.000678   0.006864
     5  S   -0.008627  -0.000033  -0.000051   0.003298  -0.039850   0.007993
     6  C    0.541436  -0.032375  -0.108906   0.368783  -0.000282  -0.000320
     7  C    4.768556   0.513375  -0.033810  -0.091882   0.000002   0.000001
     8  C    0.513375   4.653401   0.532535  -0.078743   0.000000   0.000000
     9  C   -0.033810   0.532535   5.047962   0.374687  -0.000000  -0.000000
    10  S   -0.091882  -0.078743   0.374687  15.356993   0.000003  -0.000002
    11  H    0.000002   0.000000  -0.000000   0.000003   0.633083  -0.008002
    12  H    0.000001   0.000000  -0.000000  -0.000002  -0.008002   0.668149
    13  H    0.000363  -0.000023   0.000048   0.005178  -0.000108  -0.006526
    14  H    0.404350  -0.041098   0.008936   0.006016  -0.000002  -0.000000
    15  H   -0.039826   0.408013  -0.049886   0.005963  -0.000000   0.000000
    16  H    0.007475  -0.021500   0.395205  -0.039018   0.000000  -0.000000
              13         14         15         16
     1  C    0.008411   0.000059  -0.000000  -0.000000
     2  C   -0.038281  -0.000026  -0.000000   0.000000
     3  C    0.420503   0.000362   0.000001   0.000001
     4  C   -0.047041  -0.016209  -0.000254  -0.000244
     5  S    0.006250   0.006361  -0.000002   0.000003
     6  C   -0.016369  -0.045687   0.008187   0.001847
     7  C    0.000363   0.404350  -0.039826   0.007475
     8  C   -0.000023  -0.041098   0.408013  -0.021500
     9  C    0.000048   0.008936  -0.049886   0.395205
    10  S    0.005178   0.006016   0.005963  -0.039018
    11  H   -0.000108  -0.000002  -0.000000   0.000000
    12  H   -0.006526  -0.000000   0.000000  -0.000000
    13  H    0.697851  -0.000006  -0.000000  -0.000003
    14  H   -0.000006   0.660482  -0.007322  -0.000144
    15  H   -0.000000  -0.007322   0.663969  -0.006339
    16  H   -0.000003  -0.000144  -0.006339   0.611196
          Atomic-Atomic Spin Densities.
               1          2          3          4          5          6
     1  C    0.000000  -0.000000   0.000000  -0.000000  -0.000000  -0.000000
     2  C   -0.000000   0.000000  -0.000000   0.000000  -0.000000   0.000000
     3  C    0.000000  -0.000000   0.000000  -0.000000   0.000000  -0.000000
     4  C   -0.000000   0.000000  -0.000000  -0.000000   0.000000  -0.000000
     5  S   -0.000000  -0.000000   0.000000   0.000000   0.000000  -0.000000
     6  C   -0.000000   0.000000  -0.000000  -0.000000  -0.000000   0.000000
     7  C    0.000000  -0.000000   0.000000  -0.000000  -0.000000  -0.000000
     8  C   -0.000000  -0.000000   0.000000  -0.000000   0.000000  -0.000000
     9  C    0.000000  -0.000000   0.000000   0.000000  -0.000000   0.000000
    10  S   -0.000000   0.000000  -0.000000   0.000000   0.000000  -0.000000
    11  H    0.000000  -0.000000   0.000000  -0.000000  -0.000000  -0.000000
    12  H   -0.000000   0.000000  -0.000000   0.000000  -0.000000   0.000000
    13  H    0.000000  -0.000000   0.000000  -0.000000  -0.000000  -0.000000
    14  H   -0.000000   0.000000  -0.000000   0.000000   0.000000   0.000000
    15  H   -0.000000   0.000000  -0.000000  -0.000000   0.000000  -0.000000
    16  H    0.000000   0.000000   0.000000   0.000000  -0.000000   0.000000
               7          8          9         10         11         12
     1  C    0.000000  -0.000000   0.000000  -0.000000   0.000000  -0.000000
     2  C   -0.000000  -0.000000  -0.000000   0.000000  -0.000000   0.000000
     3  C    0.000000   0.000000   0.000000  -0.000000   0.000000  -0.000000
     4  C   -0.000000  -0.000000   0.000000   0.000000  -0.000000   0.000000
     5  S   -0.000000   0.000000  -0.000000   0.000000  -0.000000  -0.000000
     6  C   -0.000000  -0.000000   0.000000  -0.000000  -0.000000   0.000000
     7  C    0.000000   0.000000   0.000000  -0.000000   0.000000  -0.000000
     8  C    0.000000  -0.000000   0.000000   0.000000  -0.000000   0.000000
     9  C    0.000000   0.000000  -0.000000  -0.000000  -0.000000  -0.000000
    10  S   -0.000000   0.000000  -0.000000   0.000000   0.000000   0.000000
    11  H    0.000000  -0.000000  -0.000000   0.000000   0.000000  -0.000000
    12  H   -0.000000   0.000000  -0.000000   0.000000  -0.000000   0.000000
    13  H    0.000000  -0.000000   0.000000  -0.000000   0.000000  -0.000000
    14  H   -0.000000   0.000000  -0.000000  -0.000000  -0.000000   0.000000
    15  H   -0.000000  -0.000000   0.000000   0.000000  -0.000000   0.000000
    16  H   -0.000000   0.000000  -0.000000   0.000000  -0.000000   0.000000
              13         14         15         16
     1  C    0.000000  -0.000000  -0.000000   0.000000
     2  C   -0.000000   0.000000   0.000000   0.000000
     3  C    0.000000  -0.000000  -0.000000   0.000000
     4  C   -0.000000   0.000000  -0.000000   0.000000
     5  S   -0.000000   0.000000   0.000000  -0.000000
     6  C   -0.000000   0.000000  -0.000000   0.000000
     7  C    0.000000  -0.000000  -0.000000  -0.000000
     8  C   -0.000000   0.000000  -0.000000   0.000000
     9  C    0.000000  -0.000000   0.000000  -0.000000
    10  S   -0.000000  -0.000000   0.000000   0.000000
    11  H    0.000000  -0.000000  -0.000000  -0.000000
    12  H   -0.000000   0.000000   0.000000   0.000000
    13  H    0.000000  -0.000000  -0.000000  -0.000000
    14  H   -0.000000  -0.000000   0.000000  -0.000000
    15  H   -0.000000   0.000000   0.000000   0.000000
    16  H   -0.000000  -0.000000   0.000000  -0.000000
 Mulliken charges and spin densities:
               1          2
     1  C   -0.113562  -0.000000
     2  C    0.003401   0.000000
     3  C    0.048000  -0.000000
     4  C   -0.110988  -0.000000
     5  S    0.162411  -0.000000
     6  C   -0.131648  -0.000000
     7  C   -0.010574   0.000000
     8  C    0.060157  -0.000000
     9  C   -0.170897  -0.000000
    10  S    0.161323   0.000000
    11  H    0.021296   0.000000
    12  H    0.018384   0.000000
    13  H   -0.030246   0.000000
    14  H    0.023928  -0.000000
    15  H    0.017494   0.000000
    16  H    0.051520  -0.000000
 Sum of Mulliken charges =  -0.00000  -0.00000
 Mulliken charges and spin densities with hydrogens summed into heavy atoms:
               1          2
     1  C   -0.092266   0.000000
     2  C    0.021785   0.000000
     3  C    0.017755  -0.000000
     4  C   -0.110988  -0.000000
     5  S    0.162411  -0.000000
     6  C   -0.131648  -0.000000
     7  C    0.013355   0.000000
     8  C    0.077650  -0.000000
     9  C   -0.119377  -0.000000
    10  S    0.161323   0.000000
 Electronic spatial extent (au):  <R**2>=           2007.6825
 Charge=             -0.0000 electrons
 Dipole moment (field-independent basis, Debye):
    X=             -0.1507    Y=             -0.1028    Z=             -0.0728  Tot=              0.1964
 Quadrupole moment (field-independent basis, Debye-Ang):
   XX=            -59.3571   YY=            -66.1530   ZZ=            -77.2286
   XY=              0.9497   XZ=              0.0151   YZ=             -0.0847
 Traceless Quadrupole moment (field-independent basis, Debye-Ang):
   XX=              8.2225   YY=              1.4265   ZZ=             -9.6490
   XY=              0.9497   XZ=              0.0151   YZ=             -0.0847
 Octapole moment (field-independent basis, Debye-Ang**2):
  XXX=             -0.1995  YYY=              0.4377  ZZZ=             -0.3238  XYY=             -1.1082
  XXY=             -1.7704  XXZ=             -0.1542  XZZ=              0.1085  YZZ=             -0.2284
  YYZ=             -0.4536  XYZ=             -0.2482
 Hexadecapole moment (field-independent basis, Debye-Ang**3):
 XXXX=          -1812.7792 YYYY=           -553.5972 ZZZZ=            -89.6615 XXXY=            -25.2719
 XXXZ=              1.1207 YYYX=             14.8221 YYYZ=             -0.5219 ZZZX=              0.1092
 ZZZY=             -0.2156 XXYY=           -404.4620 XXZZ=           -404.7078 YYZZ=           -120.2075
 XXYZ=              0.8118 YYXZ=             -0.0924 ZZXY=             -8.4808
 N-N= 6.303412794583D+02 E-N=-3.867723821133D+03  KE= 1.100240839357D+03
                          Isotropic Fermi Contact Couplings
        Atom                 a.u.       MegaHertz       Gauss      10(-4) cm-1
     1  C(13)             -0.00000      -0.00000      -0.00000      -0.00000
     2  C(13)             -0.00000      -0.00000      -0.00000      -0.00000
     3  C(13)             -0.00000      -0.00000      -0.00000      -0.00000
     4  C(13)             -0.00000      -0.00000      -0.00000      -0.00000
     5  S(33)              0.00000       0.00000       0.00000       0.00000
     6  C(13)              0.00000       0.00000       0.00000       0.00000
     7  C(13)              0.00000       0.00000       0.00000       0.00000
     8  C(13)             -0.00000      -0.00000      -0.00000      -0.00000
     9  C(13)             -0.00000      -0.00000      -0.00000      -0.00000
    10  S(33)             -0.00000      -0.00000      -0.00000      -0.00000
    11  H(1)               0.00000       0.00000       0.00000       0.00000
    12  H(1)              -0.00000      -0.00000      -0.00000      -0.00000
    13  H(1)               0.00000       0.00000       0.00000       0.00000
    14  H(1)              -0.00000      -0.00000      -0.00000      -0.00000
    15  H(1)               0.00000       0.00000       0.00000       0.00000
    16  H(1)               0.00000       0.00000       0.00000       0.00000
 --------------------------------------------------------
       Center         ----  Spin Dipole Couplings  ----
                      3XX-RR        3YY-RR        3ZZ-RR
 --------------------------------------------------------
     1   Atom        0.000000      0.000000     -0.000000
     2   Atom        0.000000      0.000000     -0.000000
     3   Atom        0.000000      0.000000     -0.000000
     4   Atom        0.000000     -0.000000     -0.000000
     5   Atom        0.000000     -0.000000      0.000000
     6   Atom       -0.000000      0.000000     -0.000000
     7   Atom        0.000000     -0.000000     -0.000000
     8   Atom        0.000000     -0.000000      0.000000
     9   Atom        0.000000      0.000000     -0.000000
    10   Atom        0.000000     -0.000000     -0.000000
    11   Atom        0.000000     -0.000000     -0.000000
    12   Atom        0.000000      0.000000     -0.000000
    13   Atom        0.000000      0.000000     -0.000000
    14   Atom       -0.000000     -0.000000      0.000000
    15   Atom       -0.000000      0.000000     -0.000000
    16   Atom       -0.000000      0.000000      0.000000
 --------------------------------------------------------
                        XY            XZ            YZ
 --------------------------------------------------------
     1   Atom       -0.000000      0.000000      0.000000
     2   Atom        0.000000     -0.000000      0.000000
     3   Atom        0.000000     -0.000000     -0.000000
     4   Atom       -0.000000      0.000000     -0.000000
     5   Atom       -0.000000     -0.000000      0.000000
     6   Atom        0.000000     -0.000000      0.000000
     7   Atom       -0.000000      0.000000     -0.000000
     8   Atom       -0.000000     -0.000000     -0.000000
     9   Atom        0.000000      0.000000      0.000000
    10   Atom        0.000000     -0.000000      0.000000
    11   Atom        0.000000      0.000000      0.000000
    12   Atom        0.000000      0.000000      0.000000
    13   Atom       -0.000000      0.000000     -0.000000
    14   Atom        0.000000     -0.000000      0.000000
    15   Atom        0.000000      0.000000      0.000000
    16   Atom        0.000000      0.000000      0.000000
 --------------------------------------------------------


 ---------------------------------------------------------------------------------
              Anisotropic Spin Dipole Couplings in Principal Axis System
 ---------------------------------------------------------------------------------

       Atom             a.u.   MegaHertz   Gauss  10(-4) cm-1        Axes

              Baa    -0.0000    -0.000    -0.000    -0.000 -0.0453 -0.0686  0.9966
     1 C(13)  Bbb    -0.0000    -0.000    -0.000    -0.000  0.9413  0.3311  0.0656
              Bcc     0.0000     0.000     0.000     0.000 -0.3344  0.9411  0.0496
 
              Baa    -0.0000    -0.000    -0.000    -0.000  0.0299 -0.0084  0.9995
     2 C(13)  Bbb    -0.0000    -0.000    -0.000    -0.000  0.9142 -0.4041 -0.0308
              Bcc     0.0000     0.000     0.000     0.000  0.4042  0.9147 -0.0044
 
              Baa    -0.0000    -0.000    -0.000    -0.000 -0.7044  0.7096  0.0151
     3 C(13)  Bbb    -0.0000    -0.000    -0.000    -0.000  0.0764  0.0547  0.9956
              Bcc     0.0000     0.000     0.000     0.000  0.7057  0.7025 -0.0928
 
              Baa    -0.0000    -0.000    -0.000    -0.000  0.4862  0.7702 -0.4127
     4 C(13)  Bbb    -0.0000    -0.000    -0.000    -0.000  0.1802  0.3738  0.9098
              Bcc     0.0000     0.000     0.000     0.000  0.8551 -0.5167  0.0430
 
              Baa    -0.0000    -0.000    -0.000    -0.000  0.3009  0.9525 -0.0461
     5 S(33)  Bbb     0.0000     0.000     0.000     0.000  0.0754  0.0245  0.9969
              Bcc     0.0000     0.000     0.000     0.000  0.9507 -0.3034 -0.0644
 
              Baa    -0.0000    -0.000    -0.000    -0.000  0.8112 -0.3791  0.4452
     6 C(13)  Bbb    -0.0000    -0.000    -0.000    -0.000 -0.4046  0.1858  0.8954
              Bcc     0.0000     0.000     0.000     0.000  0.4221  0.9065  0.0027
 
              Baa    -0.0000    -0.000    -0.000    -0.000  0.0058  0.1089  0.9940
     7 C(13)  Bbb    -0.0000    -0.000    -0.000    -0.000  0.3519  0.9302 -0.1039
              Bcc     0.0000     0.000     0.000     0.000  0.9360 -0.3504  0.0329
 
              Baa    -0.0000    -0.000    -0.000    -0.000  0.4337  0.8995  0.0522
     8 C(13)  Bbb     0.0000     0.000     0.000     0.000  0.1897 -0.1477  0.9707
              Bcc     0.0000     0.000     0.000     0.000  0.8809 -0.4111 -0.2347
 
              Baa    -0.0000    -0.000    -0.000    -0.000 -0.1340 -0.0229  0.9907
     9 C(13)  Bbb     0.0000     0.000     0.000     0.000 -0.5978  0.7992 -0.0624
              Bcc     0.0000     0.000     0.000     0.000  0.7904  0.6006  0.1208
 
              Baa    -0.0000    -0.000    -0.000    -0.000 -0.4068  0.9110 -0.0685
    10 S(33)  Bbb    -0.0000    -0.000    -0.000    -0.000  0.0178  0.0829  0.9964
              Bcc     0.0000     0.000     0.000     0.000  0.9134  0.4041 -0.0499
 
              Baa    -0.0000    -0.000    -0.000    -0.000 -0.0243 -0.0566  0.9981
    11 H(1)   Bbb    -0.0000    -0.000    -0.000    -0.000 -0.0957  0.9939  0.0540
              Bcc     0.0000     0.000     0.000     0.000  0.9951  0.0942  0.0296
 
              Baa    -0.0000    -0.000    -0.000    -0.000 -0.0638  0.0607  0.9961
    12 H(1)   Bbb    -0.0000    -0.000    -0.000    -0.000 -0.5980  0.7968 -0.0868
              Bcc     0.0000     0.000     0.000     0.000  0.7989  0.6012  0.0145
 
              Baa    -0.0000    -0.000    -0.000    -0.000 -0.0233  0.1823  0.9830
    13 H(1)   Bbb    -0.0000    -0.000    -0.000    -0.000  0.6210  0.7732 -0.1287
              Bcc     0.0000     0.000     0.000     0.000  0.7835 -0.6074  0.1312
 
              Baa    -0.0000    -0.000    -0.000    -0.000  0.7155 -0.6982  0.0254
    14 H(1)   Bbb     0.0000     0.000     0.000     0.000 -0.0862 -0.0521  0.9949
              Bcc     0.0000     0.000     0.000     0.000  0.6933  0.7140  0.0975
 
              Baa    -0.0000    -0.000    -0.000    -0.000  0.8281 -0.5477 -0.1196
    15 H(1)   Bbb    -0.0000    -0.000    -0.000    -0.000  0.0861 -0.0866  0.9925
              Bcc     0.0000     0.000     0.000     0.000  0.5540  0.8322  0.0246
 
              Baa    -0.0000    -0.000    -0.000    -0.000  0.8582 -0.5129 -0.0200
    16 H(1)   Bbb     0.0000     0.000     0.000     0.000  0.4786  0.8137 -0.3299
              Bcc     0.0000     0.000     0.000     0.000  0.1855  0.2736  0.9438
 

 ---------------------------------------------------------------------------------

 No NMR shielding tensors so no spin-rotation constants.
 Leave Link  601 at Thu Jul 23 19:47:01 2020, MaxMem=  4026531840 cpu:               5.3 elap:               0.8
 (Enter /opt/ohpc/pub/libs/gaussian/g16-A.03/sandybridge/g16/l701.exe)
 ... and contract with generalized density number  0.
 Compute integral first derivatives.
 Leave Link  701 at Thu Jul 23 19:47:01 2020, MaxMem=  4026531840 cpu:               1.0 elap:               0.1
 (Enter /opt/ohpc/pub/libs/gaussian/g16-A.03/sandybridge/g16/l702.exe)
 L702 exits ... SP integral derivatives will be done elsewhere.
 Leave Link  702 at Thu Jul 23 19:47:01 2020, MaxMem=  4026531840 cpu:               0.2 elap:               0.0
 (Enter /opt/ohpc/pub/libs/gaussian/g16-A.03/sandybridge/g16/l703.exe)
 Integral derivatives from FoFJK, PRISM(SPDF).
 Compute integral first derivatives, UseDBF=F ICtDFT=           0.
 Calling FoFJK, ICntrl=      2127 FMM=F ISym2X=0 I1Cent= 0 IOpClX= 1 NMat=1 NMatS=1 NMatT=0.
 FoFJK:  IHMeth= 1 ICntrl=    2127 DoSepK=T KAlg= 0 I1Cent=           0 FoldK=F
 IRaf=         1 NMat=       1 IRICut=       1 DoRegI=T DoRafI=F ISym2E= 0 IDoP0=0 IntGTp=1.
 FoFCou: FMM=F IPFlag=           0 FMFlag=      100000 FMFlg1=         800
         NFxFlg=           0 DoJE=F BraDBF=F KetDBF=F FulRan=T
         wScrn=  0.000000 ICntrl=      2527 IOpCl=  0 I1Cent=           0 NGrid=           0
         NMat0=    1 NMatS0=      1 NMatT0=    0 NMatD0=    1 NMtDS0=    0 NMtDT0=    0
 Symmetry not used in FoFCou.
 Leave Link  703 at Thu Jul 23 19:47:09 2020, MaxMem=  4026531840 cpu:              57.1 elap:               7.3
 (Enter /opt/ohpc/pub/libs/gaussian/g16-A.03/sandybridge/g16/l716.exe)
 Dipole        =-5.92893206D-02-4.04512227D-02-2.86592531D-02
 ***** Axes restored to original set *****
 -------------------------------------------------------------------
 Center     Atomic                   Forces (Hartrees/Bohr)
 Number     Number              X              Y              Z
 -------------------------------------------------------------------
      1        6           0.027623611   -0.007308774   -0.000894436
      2        6          -0.014774337   -0.031597653    0.005361763
      3        6          -0.033160692    0.118377000   -0.004853032
      4        6          -0.036556080   -0.074085435   -0.002548230
      5       16          -0.008895484    0.016488103    0.001644381
      6        6           0.059307325    0.009387136    0.006593191
      7        6          -0.107999389    0.017900528   -0.005562970
      8        6           0.086723523   -0.018198992    0.001748743
      9        6           0.024825899   -0.008760993   -0.003759965
     10       16          -0.011149423    0.035739005    0.001271194
     11        1          -0.016716912    0.005129760   -0.000585180
     12        1           0.021113187    0.019767891   -0.000525168
     13        1           0.031769428   -0.055325766   -0.000190021
     14        1           0.016375034   -0.025596334    0.000346869
     15        1          -0.016483163   -0.015268646    0.002054211
     16        1          -0.022002529    0.013353170   -0.000101351
 -------------------------------------------------------------------
 Cartesian Forces:  Max     0.118377000 RMS     0.034557365
 Leave Link  716 at Thu Jul 23 19:47:09 2020, MaxMem=  4026531840 cpu:               0.3 elap:               0.1
 (Enter /opt/ohpc/pub/libs/gaussian/g16-A.03/sandybridge/g16/l103.exe)

 GradGradGradGradGradGradGradGradGradGradGradGradGradGradGradGradGradGrad
 Berny optimization.
 FormGI is forming the generalized inverse of G from B-inverse, IUseBI=4.
 Internal  Forces:  Max     0.071327080 RMS     0.015785705
 Search for a local minimum.
 Step number   1 out of a maximum of   89
 All quantities printed in internal units (Hartrees-Bohrs-Radians)
 RMS Force = .15786D-01 SwitMx=.10000D-02 MixMth= 1
 Mixed Optimization -- RFO/linear search
 Second derivative matrix not updated -- first step.
 ITU=  0
     Eigenvalues ---    0.01394   0.01470   0.01563   0.01667   0.01714
     Eigenvalues ---    0.01887   0.01952   0.01968   0.02013   0.02254
     Eigenvalues ---    0.02348   0.02364   0.02605   0.15825   0.15980
     Eigenvalues ---    0.15987   0.15995   0.15998   0.16000   0.22118
     Eigenvalues ---    0.22118   0.23691   0.23844   0.24901   0.24952
     Eigenvalues ---    0.26453   0.29039   0.29390   0.30326   0.30898
     Eigenvalues ---    0.31924   0.32710   0.35325   0.36630   0.37693
     Eigenvalues ---    0.39219   0.41722   0.43180   0.44760   0.45588
     Eigenvalues ---    0.49353   0.54819
 RFO step:  Lambda=-4.51790443D-02 EMin= 1.39410318D-02
 Linear search not attempted -- first point.
 Maximum step size (   0.300) exceeded in Quadratic search.
    -- Step size scaled by   0.914
 Iteration  1 RMS(Cart)=  0.03163892 RMS(Int)=  0.00079284
 Iteration  2 RMS(Cart)=  0.00111780 RMS(Int)=  0.00023617
 Iteration  3 RMS(Cart)=  0.00000107 RMS(Int)=  0.00023617
 Iteration  4 RMS(Cart)=  0.00000000 RMS(Int)=  0.00023617
 ITry= 1 IFail=0 DXMaxC= 9.72D-02 DCOld= 1.00D+10 DXMaxT= 3.00D-01 DXLimC= 3.00D+00 Rises=F
 Variable       Old X    -DE/DX   Delta X   Delta X   Delta X     New X
                                 (Linear)    (Quad)   (Total)
    R1        2.58629  -0.00296   0.00000  -0.00395  -0.00394   2.58235
    R2        3.24710  -0.00188   0.00000  -0.00085  -0.00103   3.24607
    R3        2.01514   0.01740   0.00000   0.03768   0.03768   2.05282
    R4        2.71457  -0.01559   0.00000  -0.03413  -0.03395   2.68062
    R5        2.15896  -0.02882   0.00000  -0.07772  -0.07772   2.08124
    R6        2.75214  -0.05059   0.00000  -0.11332  -0.11318   2.63896
    R7        1.92256   0.06354   0.00000   0.11791   0.11791   2.04047
    R8        3.19801   0.01480   0.00000   0.03294   0.03286   3.23087
    R9        2.67448   0.03042   0.00000   0.05831   0.05831   2.73279
   R10        2.66882  -0.02911   0.00000  -0.05400  -0.05407   2.61475
   R11        3.38716  -0.02089   0.00000  -0.06621  -0.06602   3.32115
   R12        2.53534   0.07133   0.00000   0.10948   0.10925   2.64459
   R13        2.16622  -0.03034   0.00000  -0.08267  -0.08267   2.08356
   R14        2.62911  -0.01941   0.00000  -0.03249  -0.03262   2.59650
   R15        2.12908  -0.02243   0.00000  -0.05790  -0.05790   2.07119
   R16        3.26455  -0.00806   0.00000  -0.02285  -0.02271   3.24184
   R17        2.14018  -0.02548   0.00000  -0.06687  -0.06687   2.07331
    A1        1.91791   0.00115   0.00000   0.00981   0.00966   1.92757
    A2        2.27609  -0.00237   0.00000  -0.01293  -0.01288   2.26321
    A3        2.08916   0.00121   0.00000   0.00303   0.00308   2.09224
    A4        2.02080  -0.00772   0.00000  -0.02917  -0.02900   1.99180
    A5        2.10231   0.00647   0.00000   0.02638   0.02626   2.12857
    A6        2.15936   0.00128   0.00000   0.00325   0.00312   2.16249
    A7        1.89823   0.01591   0.00000   0.04603   0.04614   1.94438
    A8        2.16119  -0.00344   0.00000  -0.00119  -0.00153   2.15965
    A9        2.21704  -0.01215   0.00000  -0.04052  -0.04099   2.17605
   A10        1.93759   0.00128   0.00000  -0.00076  -0.00071   1.93688
   A11        2.18475   0.00604   0.00000   0.02150   0.02142   2.20616
   A12        2.15921  -0.00725   0.00000  -0.01978  -0.01989   2.13932
   A13        1.64959  -0.01057   0.00000  -0.02511  -0.02554   1.62406
   A14        2.26790  -0.00108   0.00000  -0.00220  -0.00226   2.26564
   A15        2.12254   0.00074   0.00000   0.00329   0.00321   2.12576
   A16        1.88968   0.00043   0.00000   0.00011   0.00013   1.88981
   A17        2.03335  -0.00995   0.00000  -0.02338  -0.02372   2.00963
   A18        2.07217   0.00689   0.00000   0.02034   0.02049   2.09266
   A19        2.17743   0.00307   0.00000   0.00326   0.00340   2.18083
   A20        1.94620   0.00102   0.00000   0.01623   0.01583   1.96203
   A21        2.21448  -0.00250   0.00000  -0.01700  -0.01680   2.19768
   A22        2.12241   0.00148   0.00000   0.00070   0.00088   2.12329
   A23        1.98911  -0.01280   0.00000  -0.04255  -0.04265   1.94646
   A24        2.25555   0.00255   0.00000   0.00445   0.00442   2.25997
   A25        2.03731   0.01031   0.00000   0.03898   0.03895   2.07625
   A26        1.56548   0.02137   0.00000   0.05059   0.05112   1.61661
    D1        0.03725  -0.00174   0.00000  -0.02327  -0.02315   0.01410
    D2        3.13972  -0.00079   0.00000  -0.01062  -0.01065   3.12907
    D3       -3.09635  -0.00085   0.00000  -0.01102  -0.01089  -3.10723
    D4        0.00612   0.00010   0.00000   0.00164   0.00162   0.00774
    D5       -0.02407   0.00099   0.00000   0.01451   0.01476  -0.00931
    D6        3.11052   0.00019   0.00000   0.00367   0.00378   3.11430
    D7       -0.03311   0.00144   0.00000   0.02043   0.02048  -0.01263
    D8       -3.05794  -0.00063   0.00000  -0.01438  -0.01513  -3.07307
    D9       -3.13415   0.00033   0.00000   0.00677   0.00714  -3.12701
   D10        0.12420  -0.00174   0.00000  -0.02804  -0.02847   0.09573
   D11        0.01349  -0.00059   0.00000  -0.00822  -0.00831   0.00518
   D12       -3.06838  -0.00159   0.00000  -0.02490  -0.02507  -3.09344
   D13        3.03357   0.00240   0.00000   0.03166   0.03114   3.06472
   D14       -0.04830   0.00140   0.00000   0.01499   0.01438  -0.03391
   D15        0.00554  -0.00011   0.00000  -0.00309  -0.00329   0.00224
   D16        3.08845   0.00141   0.00000   0.01497   0.01436   3.10280
   D17       -3.09042   0.00006   0.00000   0.00043   0.00041  -3.09001
   D18       -0.04320   0.00140   0.00000   0.01892   0.01878  -0.02442
   D19        0.11820  -0.00142   0.00000  -0.01915  -0.01901   0.09919
   D20       -3.11776  -0.00008   0.00000  -0.00067  -0.00064  -3.11841
   D21        3.08322   0.00039   0.00000   0.00875   0.00877   3.09198
   D22       -0.08046   0.00115   0.00000   0.01886   0.01903  -0.06142
   D23        0.02623  -0.00084   0.00000  -0.00799  -0.00783   0.01841
   D24       -3.13744  -0.00008   0.00000   0.00213   0.00244  -3.13500
   D25       -3.06647  -0.00156   0.00000  -0.02082  -0.02075  -3.08723
   D26       -0.00104  -0.00056   0.00000  -0.00606  -0.00606  -0.00710
   D27       -0.04392   0.00137   0.00000   0.02012   0.02044  -0.02348
   D28        3.08290   0.00101   0.00000   0.01468   0.01495   3.09785
   D29        3.12124   0.00052   0.00000   0.00911   0.00937   3.13061
   D30       -0.03512   0.00016   0.00000   0.00367   0.00388  -0.03125
   D31        0.04202  -0.00201   0.00000  -0.02537  -0.02506   0.01696
   D32        3.12815  -0.00046   0.00000  -0.00451  -0.00452   3.12362
   D33       -3.08570  -0.00164   0.00000  -0.02007  -0.01966  -3.10536
   D34        0.00043  -0.00009   0.00000   0.00078   0.00088   0.00131
   D35       -0.02291   0.00095   0.00000   0.01722   0.01730  -0.00561
   D36       -3.11641  -0.00025   0.00000  -0.00008   0.00002  -3.11639
         Item               Value     Threshold  Converged?
 Maximum Force            0.071327     0.000450     NO 
 RMS     Force            0.015786     0.000300     NO 
 Maximum Displacement     0.097240     0.001800     NO 
 RMS     Displacement     0.031877     0.001200     NO 
 Predicted change in Energy=-2.465370D-02
 Lowest energy point so far.  Saving SCF results.
 GradGradGradGradGradGradGradGradGradGradGradGradGradGradGradGradGradGrad

 Leave Link  103 at Thu Jul 23 19:47:09 2020, MaxMem=  4026531840 cpu:               3.9 elap:               0.7
 (Enter /opt/ohpc/pub/libs/gaussian/g16-A.03/sandybridge/g16/l202.exe)
                          Input orientation:                          
 ---------------------------------------------------------------------
 Center     Atomic      Atomic             Coordinates (Angstroms)
 Number     Number       Type             X           Y           Z
 ---------------------------------------------------------------------
      1          6           0       -3.208677    0.146942   -0.058053
      2          6           0       -2.790883   -1.153869   -0.031228
      3          6           0       -1.381410   -1.309403    0.006273
      4          6           0       -0.731682   -0.073376   -0.009240
      5         16           0       -1.859708    1.210392   -0.060048
      6          6           0        0.697667    0.144580   -0.036686
      7          6           0        1.414320    1.327577    0.001496
      8          6           0        2.805791    1.179490    0.020266
      9          6           0        3.192345   -0.139008    0.026390
     10         16           0        1.838732   -1.191963   -0.018079
     11          1           0       -4.216779    0.551645   -0.059815
     12          1           0       -3.502335   -1.994399   -0.013767
     13          1           0       -0.882447   -2.266260   -0.030663
     14          1           0        0.881754    2.292995    0.003591
     15          1           0        3.539226    1.993901    0.011539
     16          1           0        4.201165   -0.570302    0.025014
 ---------------------------------------------------------------------
                    Distance matrix (angstroms):
                    1          2          3          4          5
     1  C    0.000000
     2  C    1.366521   0.000000
     3  C    2.337516   1.418525   0.000000
     4  C    2.487253   2.325566   1.396477   0.000000
     5  S    1.717746   2.541190   2.565645   1.709703   0.000000
     6  C    3.906404   3.722362   2.537415   1.446132   2.770680
     7  C    4.771746   4.882866   3.843149   2.562833   3.276702
     8  C    6.102960   6.063825   4.871081   3.752900   4.666292
     9  C    6.407963   6.068961   4.721172   3.924738   5.229874
    10  S    5.222126   4.629791   3.222375   2.803274   4.410388
    11  H    1.086304   2.223235   3.392224   3.541060   2.447393
    12  H    2.161836   1.101344   2.228888   3.371478   3.601535
    13  H    3.351960   2.208969   1.079770   2.198165   3.611511
    14  H    4.619630   5.036899   4.254314   2.864097   2.948167
    15  H    6.996449   7.069693   5.926593   4.744968   5.455959
    16  H    7.444938   7.016585   5.631320   4.957933   6.317617
                    6          7          8          9         10
     6  C    0.000000
     7  C    1.383666   0.000000
     8  C    2.349142   1.399454   0.000000
     9  C    2.511537   2.304965   1.374008   0.000000
    10  S    1.757476   2.555110   2.561339   1.715506   0.000000
    11  H    4.931330   5.684638   7.051035   7.441744   6.301676
    12  H    4.713361   5.933739   7.061670   6.947145   5.401011
    13  H    2.882524   4.265189   5.047661   4.596998   2.925592
    14  H    2.156663   1.102571   2.223081   3.354696   3.614029
    15  H    3.390689   2.226951   1.096024   2.160983   3.611410
    16  H    3.576222   3.371795   2.238049   1.097149   2.443238
                   11         12         13         14         15
    11  H    0.000000
    12  H    2.644786   0.000000
    13  H    4.365685   2.634009   0.000000
    14  H    5.388076   6.132070   4.888802   0.000000
    15  H    7.889284   8.092636   6.140191   2.674261   0.000000
    16  H    8.492806   7.834122   5.359337   4.383767   2.648298
                   16
    16  H    0.000000
 Stoichiometry    C8H6S2
 Framework group  C1[X(C8H6S2)]
 Deg. of freedom    42
 Full point group                 C1      NOp   1
 RotChk:  IX=0 Diff= 3.05D-03
 Largest Abelian subgroup         C1      NOp   1
 Largest concise Abelian subgroup C1      NOp   1
                         Standard orientation:                         
 ---------------------------------------------------------------------
 Center     Atomic      Atomic             Coordinates (Angstroms)
 Number     Number       Type             X           Y           Z
 ---------------------------------------------------------------------
      1          6           0        3.205463   -0.124605   -0.005386
      2          6           0        2.783262    1.174952    0.011247
      3          6           0        1.373000    1.326079    0.034329
      4          6           0        0.727417    0.087888    0.018338
      5         16           0        1.859991   -1.192431   -0.015462
      6          6           0       -0.700892   -0.134838   -0.021954
[...]
  Beta virt. eigenvalues --    2.25746   2.27267   2.30796   2.42794   2.46468
  Beta virt. eigenvalues --    2.48269   2.50466   2.54063   2.58629   2.67745
  Beta virt. eigenvalues --    2.72768   2.74162   2.74721   3.23392   3.24439
          Condensed to atoms (all electrons):
               1          2          3          4          5          6
     1  C    4.985369   0.555357  -0.033630  -0.099550   0.367518   0.004284
     2  C    0.555357   4.664520   0.491628  -0.033493  -0.087789   0.006489
     3  C   -0.033630   0.491628   4.767383   0.542836  -0.101836  -0.054114
     4  C   -0.099550  -0.033493   0.542836   5.178960   0.381263   0.312671
     5  S    0.367518  -0.087789  -0.101836   0.381263  15.367063  -0.065785
     6  C    0.004284   0.006489  -0.054114   0.312671  -0.065785   5.178947
     7  C    0.000202  -0.000298   0.006249  -0.054119  -0.006477   0.542843
     8  C   -0.000002   0.000006  -0.000298   0.006489  -0.000021  -0.033492
     9  C    0.000001  -0.000002   0.000202   0.004284  -0.000071  -0.099548
    10  S   -0.000071  -0.000021  -0.006478  -0.065786   0.003031   0.381256
    11  H    0.401956  -0.021727   0.007849   0.001147  -0.038440  -0.000229
    12  H   -0.052562   0.411645  -0.040835   0.008105   0.007419  -0.000311
    13  H    0.008391  -0.040401   0.414632  -0.048469   0.007051  -0.014658
    14  H   -0.000027  -0.000026   0.000361  -0.014659   0.005538  -0.048469
    15  H   -0.000000   0.000000   0.000001  -0.000311  -0.000001   0.008106
    16  H   -0.000000   0.000000  -0.000000  -0.000229   0.000002   0.001147
               7          8          9         10         11         12
     1  C    0.000202  -0.000002   0.000001  -0.000071   0.401956  -0.052562
     2  C   -0.000298   0.000006  -0.000002  -0.000021  -0.021727   0.411645
     3  C    0.006249  -0.000298   0.000202  -0.006478   0.007849  -0.040835
     4  C   -0.054119   0.006489   0.004284  -0.065786   0.001147   0.008105
     5  S   -0.006477  -0.000021  -0.000071   0.003031  -0.038440   0.007419
     6  C    0.542843  -0.033492  -0.099548   0.381256  -0.000229  -0.000311
     7  C    4.767387   0.491624  -0.033627  -0.101835  -0.000000   0.000001
     8  C    0.491624   4.664521   0.555356  -0.087790   0.000000   0.000000
     9  C   -0.033627   0.555356   4.985369   0.367514  -0.000000  -0.000000
    10  S   -0.101835  -0.087790   0.367514  15.367082   0.000002  -0.000001
    11  H   -0.000000   0.000000  -0.000000   0.000002   0.624386  -0.007792
    12  H    0.000001   0.000000  -0.000000  -0.000001  -0.007792   0.680513
    13  H    0.000361  -0.000026  -0.000027   0.005539  -0.000113  -0.006817
    14  H    0.414632  -0.040402   0.008391   0.007052  -0.000001  -0.000001
    15  H   -0.040834   0.411646  -0.052563   0.007419  -0.000000   0.000000
    16  H    0.007849  -0.021728   0.401956  -0.038440   0.000000  -0.000000
              13         14         15         16
     1  C    0.008391  -0.000027  -0.000000  -0.000000
     2  C   -0.040401  -0.000026   0.000000   0.000000
     3  C    0.414632   0.000361   0.000001  -0.000000
     4  C   -0.048469  -0.014659  -0.000311  -0.000229
     5  S    0.007051   0.005538  -0.000001   0.000002
     6  C   -0.014658  -0.048469   0.008106   0.001147
     7  C    0.000361   0.414632  -0.040834   0.007849
     8  C   -0.000026  -0.040402   0.411646  -0.021728
     9  C   -0.000027   0.008391  -0.052563   0.401956
    10  S    0.005539   0.007052   0.007419  -0.038440
    11  H   -0.000113  -0.000001  -0.000000   0.000000
    12  H   -0.006817  -0.000001   0.000000  -0.000000
    13  H    0.673467  -0.000019  -0.000001  -0.000001
    14  H   -0.000019   0.673472  -0.006818  -0.000113
    15  H   -0.000001  -0.006818   0.680514  -0.007792
    16  H   -0.000001  -0.000113  -0.007792   0.624385
          Atomic-Atomic Spin Densities.
               1          2          3          4          5          6
     1  C   -0.000000  -0.000000   0.000000  -0.000000   0.000000  -0.000000
     2  C   -0.000000   0.000000  -0.000000   0.000000  -0.000000   0.000000
     3  C    0.000000  -0.000000   0.000000  -0.000000   0.000000  -0.000000
     4  C   -0.000000   0.000000  -0.000000   0.000000   0.000000  -0.000000
     5  S    0.000000  -0.000000   0.000000   0.000000  -0.000000   0.000000
     6  C   -0.000000   0.000000  -0.000000  -0.000000   0.000000   0.000000
     7  C    0.000000  -0.000000   0.000000  -0.000000   0.000000  -0.000000
     8  C   -0.000000   0.000000  -0.000000   0.000000  -0.000000   0.000000
     9  C   -0.000000  -0.000000   0.000000  -0.000000   0.000000  -0.000000
    10  S   -0.000000  -0.000000   0.000000  -0.000000  -0.000000   0.000000
    11  H    0.000000  -0.000000   0.000000  -0.000000   0.000000  -0.000000
    12  H   -0.000000   0.000000  -0.000000   0.000000  -0.000000   0.000000
    13  H    0.000000  -0.000000   0.000000  -0.000000   0.000000  -0.000000
    14  H   -0.000000  -0.000000   0.000000  -0.000000   0.000000  -0.000000
    15  H   -0.000000   0.000000  -0.000000  -0.000000  -0.000000   0.000000
    16  H    0.000000  -0.000000   0.000000   0.000000  -0.000000  -0.000000
               7          8          9         10         11         12
     1  C    0.000000  -0.000000  -0.000000  -0.000000   0.000000  -0.000000
     2  C   -0.000000   0.000000  -0.000000  -0.000000  -0.000000   0.000000
     3  C    0.000000  -0.000000   0.000000   0.000000   0.000000  -0.000000
     4  C   -0.000000   0.000000  -0.000000  -0.000000  -0.000000   0.000000
     5  S    0.000000  -0.000000   0.000000  -0.000000   0.000000  -0.000000
     6  C   -0.000000   0.000000  -0.000000   0.000000  -0.000000   0.000000
     7  C    0.000000  -0.000000   0.000000  -0.000000   0.000000  -0.000000
     8  C   -0.000000   0.000000  -0.000000   0.000000  -0.000000   0.000000
     9  C    0.000000  -0.000000   0.000000  -0.000000   0.000000  -0.000000
    10  S   -0.000000   0.000000  -0.000000   0.000000  -0.000000  -0.000000
    11  H    0.000000  -0.000000   0.000000  -0.000000  -0.000000  -0.000000
    12  H   -0.000000   0.000000  -0.000000  -0.000000  -0.000000   0.000000
    13  H    0.000000  -0.000000   0.000000  -0.000000   0.000000  -0.000000
    14  H    0.000000  -0.000000   0.000000  -0.000000  -0.000000  -0.000000
    15  H   -0.000000   0.000000  -0.000000   0.000000  -0.000000   0.000000
    16  H    0.000000  -0.000000   0.000000  -0.000000   0.000000  -0.000000
              13         14         15         16
     1  C    0.000000  -0.000000  -0.000000   0.000000
     2  C   -0.000000  -0.000000   0.000000  -0.000000
     3  C    0.000000   0.000000  -0.000000   0.000000
     4  C   -0.000000  -0.000000  -0.000000   0.000000
     5  S    0.000000   0.000000  -0.000000  -0.000000
     6  C   -0.000000  -0.000000   0.000000  -0.000000
     7  C    0.000000   0.000000  -0.000000   0.000000
     8  C   -0.000000  -0.000000   0.000000  -0.000000
     9  C    0.000000   0.000000  -0.000000   0.000000
    10  S   -0.000000  -0.000000   0.000000  -0.000000
    11  H    0.000000  -0.000000  -0.000000   0.000000
    12  H   -0.000000  -0.000000   0.000000  -0.000000
    13  H    0.000000   0.000000  -0.000000   0.000000
    14  H    0.000000   0.000000  -0.000000   0.000000
    15  H   -0.000000  -0.000000   0.000000  -0.000000
    16  H    0.000000   0.000000  -0.000000   0.000000
 Mulliken charges and spin densities:
               1          2
     1  C   -0.137236  -0.000000
     2  C    0.054112   0.000000
     3  C    0.006050  -0.000000
     4  C   -0.119142   0.000000
     5  S    0.161535  -0.000000
     6  C   -0.119139  -0.000000
     7  C    0.006042   0.000000
     8  C    0.054117  -0.000000
     9  C   -0.137236   0.000000
    10  S    0.161526  -0.000000
    11  H    0.032961  -0.000000
    12  H    0.000635   0.000000
    13  H    0.001090   0.000000
    14  H    0.001088   0.000000
    15  H    0.000634   0.000000
    16  H    0.032963   0.000000
 Sum of Mulliken charges =  -0.00000   0.00000
 Mulliken charges and spin densities with hydrogens summed into heavy atoms:
               1          2
     1  C   -0.104276  -0.000000
     2  C    0.054747   0.000000
     3  C    0.007140  -0.000000
     4  C   -0.119142   0.000000
     5  S    0.161535  -0.000000
     6  C   -0.119139  -0.000000
     7  C    0.007130   0.000000
     8  C    0.054751  -0.000000
     9  C   -0.104273   0.000000
    10  S    0.161526  -0.000000
 Electronic spatial extent (au):  <R**2>=           2001.6022
 Charge=             -0.0000 electrons
 Dipole moment (field-independent basis, Debye):
    X=              0.0000    Y=             -0.0000    Z=              0.2612  Tot=              0.2612
 Quadrupole moment (field-independent basis, Debye-Ang):
   XX=            -59.2214   YY=            -67.0682   ZZ=            -76.1730
   XY=              1.2103   XZ=             -0.0002   YZ=              0.0000
 Traceless Quadrupole moment (field-independent basis, Debye-Ang):
   XX=              8.2662   YY=              0.4193   ZZ=             -8.6855
   XY=              1.2103   XZ=             -0.0002   YZ=              0.0000
 Octapole moment (field-independent basis, Debye-Ang**2):
  XXX=              0.0003  YYY=             -0.0002  ZZZ=             -2.7137  XYY=             -0.0001
  XXY=              0.0006  XXZ=             -3.0102  XZZ=              0.0000  YZZ=              0.0000
  YYZ=              4.1397  XYZ=              6.3295
 Hexadecapole moment (field-independent basis, Debye-Ang**3):
 XXXX=          -1813.2679 YYYY=           -515.8929 ZZZZ=           -125.0067 XXXY=            -22.5137
 XXXZ=             -0.0034 YYYX=             13.2529 YYYZ=              0.0001 ZZZX=             -0.0003
 ZZZY=              0.0002 XXYY=           -403.9926 XXZZ=           -403.8624 YYZZ=           -112.4657
 XXYZ=             -0.0015 YYXZ=             -0.0002 ZZXY=             -5.4019
 N-N= 6.319660398337D+02 E-N=-3.871270876652D+03  KE= 1.100436804607D+03
                          Isotropic Fermi Contact Couplings
        Atom                 a.u.       MegaHertz       Gauss      10(-4) cm-1
     1  C(13)              0.00000       0.00000       0.00000       0.00000
     2  C(13)              0.00000       0.00000       0.00000       0.00000
     3  C(13)              0.00000       0.00000       0.00000       0.00000
     4  C(13)              0.00000       0.00000       0.00000       0.00000
     5  S(33)             -0.00000      -0.00000      -0.00000      -0.00000
     6  C(13)             -0.00000      -0.00000      -0.00000      -0.00000
     7  C(13)              0.00000       0.00000       0.00000       0.00000
     8  C(13)              0.00000       0.00000       0.00000       0.00000
     9  C(13)             -0.00000      -0.00000      -0.00000      -0.00000
    10  S(33)             -0.00000      -0.00000      -0.00000      -0.00000
    11  H(1)               0.00000       0.00000       0.00000       0.00000
    12  H(1)              -0.00000      -0.00000      -0.00000      -0.00000
    13  H(1)               0.00000       0.00000       0.00000       0.00000
    14  H(1)               0.00000       0.00000       0.00000       0.00000
    15  H(1)               0.00000       0.00000       0.00000       0.00000
    16  H(1)              -0.00000      -0.00000      -0.00000      -0.00000
 --------------------------------------------------------
       Center         ----  Spin Dipole Couplings  ----
                      3XX-RR        3YY-RR        3ZZ-RR
 --------------------------------------------------------
     1   Atom        0.000000      0.000000     -0.000000
     2   Atom        0.000000      0.000000     -0.000000
     3   Atom       -0.000000      0.000000     -0.000000
     4   Atom        0.000000     -0.000000     -0.000000
     5   Atom       -0.000000      0.000000     -0.000000
     6   Atom        0.000000      0.000000     -0.000000
     7   Atom       -0.000000      0.000000     -0.000000
     8   Atom        0.000000      0.000000     -0.000000
     9   Atom        0.000000     -0.000000     -0.000000
    10   Atom       -0.000000      0.000000      0.000000
    11   Atom       -0.000000      0.000000     -0.000000
    12   Atom       -0.000000      0.000000     -0.000000
    13   Atom        0.000000      0.000000     -0.000000
    14   Atom       -0.000000      0.000000     -0.000000
    15   Atom       -0.000000      0.000000     -0.000000
    16   Atom        0.000000     -0.000000     -0.000000
 --------------------------------------------------------
                        XY            XZ            YZ
 --------------------------------------------------------
     1   Atom       -0.000000      0.000000      0.000000
     2   Atom        0.000000      0.000000      0.000000
     3   Atom        0.000000     -0.000000      0.000000
     4   Atom        0.000000      0.000000      0.000000
     5   Atom       -0.000000     -0.000000      0.000000
     6   Atom        0.000000     -0.000000     -0.000000
     7   Atom        0.000000      0.000000     -0.000000
     8   Atom        0.000000     -0.000000     -0.000000
     9   Atom       -0.000000      0.000000      0.000000
    10   Atom       -0.000000     -0.000000      0.000000
    11   Atom       -0.000000     -0.000000      0.000000
    12   Atom        0.000000      0.000000      0.000000
    13   Atom       -0.000000     -0.000000      0.000000
    14   Atom       -0.000000      0.000000     -0.000000
    15   Atom        0.000000      0.000000     -0.000000
    16   Atom       -0.000000      0.000000     -0.000000
 --------------------------------------------------------


 ---------------------------------------------------------------------------------
              Anisotropic Spin Dipole Couplings in Principal Axis System
 ---------------------------------------------------------------------------------

       Atom             a.u.   MegaHertz   Gauss  10(-4) cm-1        Axes

              Baa    -0.0000    -0.000    -0.000    -0.000 -0.1057 -0.1078  0.9885
     1 C(13)  Bbb    -0.0000    -0.000    -0.000    -0.000  0.8093  0.5682  0.1486
              Bcc     0.0000     0.000     0.000     0.000 -0.5777  0.8158  0.0272
 
              Baa    -0.0000    -0.000    -0.000    -0.000 -0.0601 -0.1312  0.9895
     2 C(13)  Bbb     0.0000     0.000     0.000     0.000  0.8372 -0.5464 -0.0215
              Bcc     0.0000     0.000     0.000     0.000  0.5435  0.8272  0.1427
 
              Baa    -0.0000    -0.000    -0.000    -0.000  0.3012 -0.2114  0.9298
     3 C(13)  Bbb    -0.0000    -0.000    -0.000    -0.000  0.9522  0.0146 -0.3052
              Bcc     0.0000     0.000     0.000     0.000  0.0510  0.9773  0.2057
 
              Baa    -0.0000    -0.000    -0.000    -0.000 -0.0048 -0.1995  0.9799
     4 C(13)  Bbb    -0.0000    -0.000    -0.000    -0.000 -0.3146  0.9304  0.1879
              Bcc     0.0000     0.000     0.000     0.000  0.9492  0.3074  0.0673
 
              Baa    -0.0000    -0.000    -0.000    -0.000  0.6975  0.0563  0.7144
     5 S(33)  Bbb    -0.0000    -0.000    -0.000    -0.000 -0.6163 -0.4616  0.6381
              Bcc     0.0000     0.000     0.000     0.000 -0.3657  0.8853  0.2872
 
              Baa    -0.0000    -0.000    -0.000    -0.000 -0.1340  0.2745  0.9522
     6 C(13)  Bbb    -0.0000    -0.000    -0.000    -0.000  0.7271 -0.6256  0.2826
              Bcc     0.0000     0.000     0.000     0.000  0.6733  0.7303 -0.1157
 
              Baa    -0.0000    -0.000    -0.000    -0.000 -0.1273  0.3145  0.9407
     7 C(13)  Bbb    -0.0000    -0.000    -0.000    -0.000  0.9915  0.0142  0.1294
              Bcc     0.0000     0.000     0.000     0.000  0.0274  0.9492 -0.3136
 
              Baa    -0.0000    -0.000    -0.000    -0.000  0.1408  0.1096  0.9840
     8 C(13)  Bbb    -0.0000    -0.000    -0.000    -0.000  0.7309 -0.6819 -0.0286
              Bcc     0.0000     0.000     0.000     0.000  0.6678  0.7232 -0.1761
 
              Baa    -0.0000    -0.000    -0.000    -0.000  0.1380  0.8228 -0.5513
     9 C(13)  Bbb     0.0000     0.000     0.000     0.000 -0.0531  0.5620  0.8254
              Bcc     0.0000     0.000     0.000     0.000  0.9890 -0.0846  0.1213
 
              Baa    -0.0000    -0.000    -0.000    -0.000  0.7908  0.6083  0.0675
    10 S(33)  Bbb     0.0000     0.000     0.000     0.000  0.2007 -0.3621  0.9103
              Bcc     0.0000     0.000     0.000     0.000 -0.5782  0.7063  0.4084
 
              Baa    -0.0000    -0.000    -0.000    -0.000  0.7638  0.4765  0.4354
    11 H(1)   Bbb    -0.0000    -0.000    -0.000    -0.000 -0.1732 -0.4985  0.8494
              Bcc     0.0000     0.000     0.000     0.000 -0.6218  0.7242  0.2982
 
              Baa    -0.0000    -0.000    -0.000    -0.000 -0.2710 -0.1993  0.9417
    12 H(1)   Bbb    -0.0000    -0.000    -0.000    -0.000  0.8460 -0.5161  0.1343
              Bcc     0.0000     0.000     0.000     0.000  0.4592  0.8330  0.3084
 
              Baa    -0.0000    -0.000    -0.000    -0.000  0.0019 -0.3429  0.9394
    13 H(1)   Bbb    -0.0000    -0.000    -0.000    -0.000  0.7799  0.5885  0.2132
              Bcc     0.0000     0.000     0.000     0.000 -0.6259  0.7322  0.2685
 
              Baa    -0.0000    -0.000    -0.000    -0.000 -0.1854  0.1537  0.9706
    14 H(1)   Bbb    -0.0000    -0.000    -0.000    -0.000  0.8453  0.5286  0.0777
              Bcc     0.0000     0.000     0.000     0.000 -0.5011  0.8349 -0.2279
 
              Baa    -0.0000    -0.000    -0.000    -0.000 -0.0822  0.2041  0.9755
    15 H(1)   Bbb    -0.0000    -0.000    -0.000    -0.000  0.9965  0.0028  0.0834
              Bcc     0.0000     0.000     0.000     0.000  0.0143  0.9789 -0.2036
 
              Baa    -0.0000    -0.000    -0.000    -0.000 -0.2157 -0.0180  0.9763
    16 H(1)   Bbb    -0.0000    -0.000    -0.000    -0.000  0.3103  0.9467  0.0860
              Bcc     0.0000     0.000     0.000     0.000  0.9258 -0.3215  0.1986
 

 ---------------------------------------------------------------------------------

 No NMR shielding tensors so no spin-rotation constants.
 Leave Link  601 at Thu Jul 23 20:00:43 2020, MaxMem=  4026531840 cpu:               3.4 elap:               0.5
 (Enter /opt/ohpc/pub/libs/gaussian/g16-A.03/sandybridge/g16/l9999.exe)

 Test job not archived.
 1\1\GINC-SKYLAKE026\FOpt\ULC-wPBE\CC-pVDZ\C8H6S2\RDU230\23-Jul-2020\0\
 \#P uLC-wPBE/cc-pVDZ iop(3/107=0313600000, 3/108=0313600000) opt\\H6 C
 8 S2\\0,1\C,-3.1858546256,0.1302869736,-0.2767488776\C,-2.8119752516,-
 1.1343685601,0.081435593\C,-1.3980029377,-1.2744552158,0.190961477\C,-
 0.7212609523,-0.112626152,-0.0883617592\S,-1.8256217412,1.1574948675,-
 0.5000731685\C,0.722120972,0.1307827515,-0.0760654731\C,1.3937586703,1
 .2947816293,0.2064582054\C,2.8094947768,1.1538779914,0.1240314113\C,3.
 1897426885,-0.1135380086,-0.2172704705\S,1.8337232057,-1.1425198951,-0
 .457441388\H,-4.1942566095,0.5186851077,-0.4255544433\H,-3.5229658668,
 -1.9417070311,0.2703507644\H,-0.8934860762,-2.1979066905,0.4856123927\
 H,0.8840206012,2.2205290949,0.484468024\H,3.5169757908,1.9626972693,0.
 3196586485\H,4.2006643556,-0.5030701318,-0.3444709362\\Version=EM64L-G
 16RevA.03\State=1-A\HF=-1104.3518124\S2=0.\S2-1=0.\S2A=0.\RMSD=9.478e-
 09\RMSF=3.086e-06\Dipole=-0.000953,0.0004147,0.1027726\Quadrupole=6.12
 99686,0.3263583,-6.4563269,0.9464467,0.1119557,-0.0180241\PG=C01 [X(C8
 H6S2)]\\@


 IT IS BY EATING THE LIGHT OF A STAR THAT WE EXIST, 
 IN THE FINAL ANALYSIS, 
 JUST AS IT IS BY PERCEIVING THE LIGHT OF STARS
 THAT WE DEFINE THE WORLD AROUND US.

                                    -- GILBERT GROSVENOR
 Job cpu time:       0 days  1 hours 48 minutes  3.3 seconds.
 Elapsed time:       0 days  0 hours 14 minutes 17.6 seconds.
 File lengths (MBytes):  RWF=     96 Int=      0 D2E=      0 Chk=      8 Scr=      8
 Normal termination of Gaussian 16 at Thu Jul 23 20:00:43 2020.
