 Entering Gaussian System, Link 0=g16
 Input=mols_65_1_18_n-n-CF_opt_0.gjf
 Output=mols_65_1_18_n-n-CF_opt_0.log
 Initial command:
 /opt/ohpc/pub/libs/gaussian/g16-A.03/sandybridge/g16/l1.exe "/mnt/gpfs2_4m/scratch/rdu230/ondemand/projects/dihedral_energies/7trial/wtuning/mols_65_1_18_n-n-CF/Gau-213586.inp" -scrdir="/mnt/gpfs2_4m/scratch/rdu230/ondemand/projects/dihedral_energies/7trial/wtuning/mols_65_1_18_n-n-CF/"
 Entering Link 1 = /opt/ohpc/pub/libs/gaussian/g16-A.03/sandybridge/g16/l1.exe PID=    213595.
  
 Copyright (c) 1988,1990,1992,1993,1995,1998,2003,2009,2016,
            Gaussian, Inc.  All Rights Reserved.
  
 This is part of the Gaussian(R) 16 program.  It is based on
 the Gaussian(R) 09 system (copyright 2009, Gaussian, Inc.),
 the Gaussian(R) 03 system (copyright 2003, Gaussian, Inc.),
 the Gaussian(R) 98 system (copyright 1998, Gaussian, Inc.),
 the Gaussian(R) 94 system (copyright 1995, Gaussian, Inc.),
 the Gaussian 92(TM) system (copyright 1992, Gaussian, Inc.),
 the Gaussian 90(TM) system (copyright 1990, Gaussian, Inc.),
 the Gaussian 88(TM) system (copyright 1988, Gaussian, Inc.),
 the Gaussian 86(TM) system (copyright 1986, Carnegie Mellon
 University), and the Gaussian 82(TM) system (copyright 1983,
 Carnegie Mellon University). Gaussian is a federally registered
 trademark of Gaussian, Inc.
  
 This software contains proprietary and confidential information,
 including trade secrets, belonging to Gaussian, Inc.
  
 This software is provided under written license and may be
 used, copied, transmitted, or stored only in accord with that
 written license.
  
 The following legend is applicable only to US Government
 contracts under FAR:
  
                    RESTRICTED RIGHTS LEGEND
  
 Use, reproduction and disclosure by the US Government is
 subject to restrictions as set forth in subparagraphs (a)
 and (c) of the Commercial Computer Software - Restricted
 Rights clause in FAR 52.227-19.
  
 Gaussian, Inc.
 340 Quinnipiac St., Bldg. 40, Wallingford CT 06492
  
  
 ---------------------------------------------------------------
 Warning -- This program may not be used in any manner that
 competes with the business of Gaussian, Inc. or will provide
 assistance to any competitor of Gaussian, Inc.  The licensee
 of this program is prohibited from giving any competitor of
 Gaussian, Inc. access to this program.  By using this program,
 the user acknowledges that Gaussian, Inc. is engaged in the
 business of creating and licensing software in the field of
 computational chemistry and represents and warrants to the
 licensee that it is not a competitor of Gaussian, Inc. and that
 it will not use this program in any manner prohibited above.
 ---------------------------------------------------------------
  

 Cite this work as:
 Gaussian 16, Revision A.03,
 M. J. Frisch, G. W. Trucks, H. B. Schlegel, G. E. Scuseria, 
 M. A. Robb, J. R. Cheeseman, G. Scalmani, V. Barone, 
 G. A. Petersson, H. Nakatsuji, X. Li, M. Caricato, A. V. Marenich, 
 J. Bloino, B. G. Janesko, R. Gomperts, B. Mennucci, H. P. Hratchian, 
 J. V. Ortiz, A. F. Izmaylov, J. L. Sonnenberg, D. Williams-Young, 
 F. Ding, F. Lipparini, F. Egidi, J. Goings, B. Peng, A. Petrone, 
 T. Henderson, D. Ranasinghe, V. G. Zakrzewski, J. Gao, N. Rega, 
 G. Zheng, W. Liang, M. Hada, M. Ehara, K. Toyota, R. Fukuda, 
 J. Hasegawa, M. Ishida, T. Nakajima, Y. Honda, O. Kitao, H. Nakai, 
 T. Vreven, K. Throssell, J. A. Montgomery, Jr., J. E. Peralta, 
 F. Ogliaro, M. J. Bearpark, J. J. Heyd, E. N. Brothers, K. N. Kudin, 
 V. N. Staroverov, T. A. Keith, R. Kobayashi, J. Normand, 
 K. Raghavachari, A. P. Rendell, J. C. Burant, S. S. Iyengar, 
 J. Tomasi, M. Cossi, J. M. Millam, M. Klene, C. Adamo, R. Cammi, 
 J. W. Ochterski, R. L. Martin, K. Morokuma, O. Farkas, 
 J. B. Foresman, and D. J. Fox, Gaussian, Inc., Wallingford CT, 2016.
 
 ******************************************
 Gaussian 16:  EM64L-G16RevA.03 25-Dec-2016
                24-Jul-2020 
 ******************************************
 %mem=30GB
 %nproc=8
 Will use up to    8 processors via shared memory.
 ---------------------------------------------------------------
 #P uLC-wPBE/cc-pVDZ iop(3/107=0492900000, 3/108=0492900000) opt
 ---------------------------------------------------------------
 1/18=20,19=15,26=3,38=1/1,3;
 2/9=110,12=2,17=6,18=5,40=1/2;
 3/5=16,11=2,25=1,30=1,71=1,74=-41,107=492900000,108=492900000,116=2/1,2,3;
 4//1;
 5/5=2,38=5/2;
 6/7=2,8=2,9=2,10=2,28=1/1;
 7//1,2,3,16;
 1/18=20,19=15,26=3/3(2);
 2/9=110/2;
 99//99;
 2/9=110/2;
 3/5=16,11=2,25=1,30=1,71=1,74=-41,107=492900000,108=492900000,116=2/1,2,3;
 4/5=5,16=3,69=1/1;
 5/5=2,38=5/2;
 7//1,2,3,16;
 1/18=20,19=15,26=3/3(-5);
 2/9=110/2;
 6/7=2,8=2,9=2,10=2,19=2,28=1/1;
 99/9=1/99;
 Leave Link    1 at Fri Jul 24 12:11:57 2020, MaxMem=  4026531840 cpu:               1.9 elap:               0.3
 (Enter /opt/ohpc/pub/libs/gaussian/g16-A.03/sandybridge/g16/l101.exe)
 --------------
 H5 C8 S1 N2 F1
 --------------
 Symbolic Z-matrix:
 Charge =  0 Multiplicity = 1
 C                    -3.56343  -0.08794   0.01761 
 C                    -2.75174  -1.25918   0.0057 
 N                    -1.44166  -1.26143  -0.04981 
 C                    -0.85924  -0.07145   0.03114 
 N                    -1.47032   1.16157  -0.02573 
 C                    -2.78317   1.07455  -0.044 
 C                     0.61231  -0.0098   -0.0164 
 C                     1.5341    1.04628   0.03655 
 F                     1.08564   2.29253   0.04282 
 C                     2.90983   0.71065  -0.02778 
 C                     3.03051  -0.69098  -0.04524 
 S                     1.58614  -1.47797  -0.01565 
 H                    -4.59158  -0.09956  -0.03352 
 H                    -3.28956  -2.17539  -0.04192 
 H                    -3.22839   2.08879  -0.0041 
 H                     3.7194    1.38159   0.03808 
 H                     3.94159  -1.20033   0.00066 
 
 ITRead=  0  0  0  0  0  0  0  0  0  0  0  0  0  0  0  0  0
 MicOpt= -1 -1 -1 -1 -1 -1 -1 -1 -1 -1 -1 -1 -1 -1 -1 -1 -1
 NAtoms=     17 NQM=       17 NQMF=       0 NMMI=      0 NMMIF=      0
                NMic=       0 NMicF=      0.
                    Isotopes and Nuclear Properties:
 (Nuclear quadrupole moments (NQMom) in fm**2, nuclear magnetic moments (NMagM)
  in nuclear magnetons)

  Atom         1           2           3           4           5           6           7           8           9          10
 IAtWgt=          12          12          14          12          14          12          12          12          19          12
 AtmWgt=  12.0000000  12.0000000  14.0030740  12.0000000  14.0030740  12.0000000  12.0000000  12.0000000  18.9984033  12.0000000
 NucSpn=           0           0           2           0           2           0           0           0           1           0
 AtZEff=  -0.0000000  -0.0000000  -0.0000000  -0.0000000  -0.0000000  -0.0000000  -0.0000000  -0.0000000  -0.0000000  -0.0000000
 NQMom=    0.0000000   0.0000000   2.0440000   0.0000000   2.0440000   0.0000000   0.0000000   0.0000000   0.0000000   0.0000000
 NMagM=    0.0000000   0.0000000   0.4037610   0.0000000   0.4037610   0.0000000   0.0000000   0.0000000   2.6288670   0.0000000
 AtZNuc=   6.0000000   6.0000000   7.0000000   6.0000000   7.0000000   6.0000000   6.0000000   6.0000000   9.0000000   6.0000000

  Atom        11          12          13          14          15          16          17
 IAtWgt=          12          32           1           1           1           1           1
 AtmWgt=  12.0000000  31.9720718   1.0078250   1.0078250   1.0078250   1.0078250   1.0078250
 NucSpn=           0           0           1           1           1           1           1
 AtZEff=  -0.0000000  -0.0000000  -0.0000000  -0.0000000  -0.0000000  -0.0000000  -0.0000000
 NQMom=    0.0000000   0.0000000   0.0000000   0.0000000   0.0000000   0.0000000   0.0000000
 NMagM=    0.0000000   0.0000000   2.7928460   2.7928460   2.7928460   2.7928460   2.7928460
 AtZNuc=   6.0000000  16.0000000   1.0000000   1.0000000   1.0000000   1.0000000   1.0000000
 Leave Link  101 at Fri Jul 24 12:11:57 2020, MaxMem=  4026531840 cpu:               2.8 elap:               0.4
 (Enter /opt/ohpc/pub/libs/gaussian/g16-A.03/sandybridge/g16/l103.exe)

 GradGradGradGradGradGradGradGradGradGradGradGradGradGradGradGradGradGrad
 Berny optimization.
 Initialization pass.
                           ----------------------------
                           !    Initial Parameters    !
                           ! (Angstroms and Degrees)  !
 --------------------------                            --------------------------
 ! Name  Definition              Value          Derivative Info.                !
 --------------------------------------------------------------------------------
 ! R1    R(1,2)                  1.425          estimate D2E/DX2                !
 ! R2    R(1,6)                  1.4014         estimate D2E/DX2                !
 ! R3    R(1,13)                 1.0295         estimate D2E/DX2                !
 ! R4    R(2,3)                  1.3113         estimate D2E/DX2                !
 ! R5    R(2,14)                 1.0635         estimate D2E/DX2                !
 ! R6    R(3,4)                  1.3273         estimate D2E/DX2                !
 ! R7    R(4,5)                  1.3773         estimate D2E/DX2                !
 ! R8    R(4,7)                  1.4736         estimate D2E/DX2                !
 ! R9    R(5,6)                  1.3159         estimate D2E/DX2                !
 ! R10   R(6,15)                 1.1084         estimate D2E/DX2                !
 ! R11   R(7,8)                  1.4028         estimate D2E/DX2                !
 ! R12   R(7,12)                 1.7618         estimate D2E/DX2                !
 ! R13   R(8,9)                  1.3245         estimate D2E/DX2                !
 ! R14   R(8,10)                 1.4175         estimate D2E/DX2                !
 ! R15   R(10,11)                1.4069         estimate D2E/DX2                !
 ! R16   R(10,16)                1.0535         estimate D2E/DX2                !
 ! R17   R(11,12)                1.6451         estimate D2E/DX2                !
 ! R18   R(11,17)                1.0448         estimate D2E/DX2                !
 ! A1    A(2,1,6)              111.3629         estimate D2E/DX2                !
 ! A2    A(2,1,13)             123.9975         estimate D2E/DX2                !
 ! A3    A(6,1,13)             124.2785         estimate D2E/DX2                !
 ! A4    A(1,2,3)              124.8086         estimate D2E/DX2                !
 ! A5    A(1,2,14)             114.8608         estimate D2E/DX2                !
 ! A6    A(3,2,14)             120.1249         estimate D2E/DX2                !
 ! A7    A(2,3,4)              115.7394         estimate D2E/DX2                !
 ! A8    A(3,4,5)              127.2571         estimate D2E/DX2                !
 ! A9    A(3,4,7)              118.2759         estimate D2E/DX2                !
 ! A10   A(5,4,7)              113.8456         estimate D2E/DX2                !
 ! A11   A(4,5,6)              112.5833         estimate D2E/DX2                !
 ! A12   A(1,6,5)              127.5708         estimate D2E/DX2                !
 ! A13   A(1,6,15)             122.2642         estimate D2E/DX2                !
 ! A14   A(5,6,15)             109.8618         estimate D2E/DX2                !
 ! A15   A(4,7,8)              133.3518         estimate D2E/DX2                !
 ! A16   A(4,7,12)             121.1383         estimate D2E/DX2                !
 ! A17   A(8,7,12)             105.3157         estimate D2E/DX2                !
 ! A18   A(7,8,9)              119.0813         estimate D2E/DX2                !
 ! A19   A(7,8,10)             117.2436         estimate D2E/DX2                !
 ! A20   A(9,8,10)             123.4769         estimate D2E/DX2                !
 ! A21   A(8,10,11)            108.6443         estimate D2E/DX2                !
 ! A22   A(8,10,16)            126.31           estimate D2E/DX2                !
 ! A23   A(11,10,16)           124.7026         estimate D2E/DX2                !
 ! A24   A(10,11,12)           113.643          estimate D2E/DX2                !
 ! A25   A(10,11,17)           124.0511         estimate D2E/DX2                !
 ! A26   A(12,11,17)           122.1137         estimate D2E/DX2                !
 ! A27   A(7,12,11)             94.9706         estimate D2E/DX2                !
 ! D1    D(6,1,2,3)              0.2709         estimate D2E/DX2                !
 ! D2    D(6,1,2,14)          -174.4996         estimate D2E/DX2                !
 ! D3    D(13,1,2,3)           173.6195         estimate D2E/DX2                !
 ! D4    D(13,1,2,14)           -1.151          estimate D2E/DX2                !
 ! D5    D(2,1,6,5)             -4.4465         estimate D2E/DX2                !
 ! D6    D(2,1,6,15)          -177.4642         estimate D2E/DX2                !
 ! D7    D(13,1,6,5)          -177.7728         estimate D2E/DX2                !
 ! D8    D(13,1,6,15)            9.2094         estimate D2E/DX2                !
 ! D9    D(1,2,3,4)              6.164          estimate D2E/DX2                !
 ! D10   D(14,2,3,4)          -179.3225         estimate D2E/DX2                !
 ! D11   D(2,3,4,5)            -10.0398         estimate D2E/DX2                !
 ! D12   D(2,3,4,7)            179.5992         estimate D2E/DX2                !
 ! D13   D(3,4,5,6)              6.3297         estimate D2E/DX2                !
 ! D14   D(7,4,5,6)            177.0519         estimate D2E/DX2                !
 ! D15   D(3,4,7,8)            179.756          estimate D2E/DX2                !
 ! D16   D(3,4,7,12)            -6.1166         estimate D2E/DX2                !
 ! D17   D(5,4,7,8)              8.1343         estimate D2E/DX2                !
 ! D18   D(5,4,7,12)          -177.7383         estimate D2E/DX2                !
 ! D19   D(4,5,6,1)              1.5608         estimate D2E/DX2                !
 ! D20   D(4,5,6,15)           175.2862         estimate D2E/DX2                !
 ! D21   D(4,7,8,9)             -5.4848         estimate D2E/DX2                !
 ! D22   D(4,7,8,10)           179.4527         estimate D2E/DX2                !
 ! D23   D(12,7,8,9)           179.7248         estimate D2E/DX2                !
 ! D24   D(12,7,8,10)            4.6623         estimate D2E/DX2                !
 ! D25   D(4,7,12,11)         -178.8617         estimate D2E/DX2                !
 ! D26   D(8,7,12,11)           -3.2858         estimate D2E/DX2                !
 ! D27   D(7,8,10,11)           -3.9052         estimate D2E/DX2                !
 ! D28   D(7,8,10,16)         -177.4023         estimate D2E/DX2                !
 ! D29   D(9,8,10,11)         -178.7314         estimate D2E/DX2                !
 ! D30   D(9,8,10,16)            7.7716         estimate D2E/DX2                !
 ! D31   D(8,10,11,12)           1.0693         estimate D2E/DX2                !
 ! D32   D(8,10,11,17)        -173.974          estimate D2E/DX2                !
 ! D33   D(16,10,11,12)        174.6958         estimate D2E/DX2                !
 ! D34   D(16,10,11,17)         -0.3476         estimate D2E/DX2                !
 ! D35   D(10,11,12,7)           1.3412         estimate D2E/DX2                !
 ! D36   D(17,11,12,7)         176.4928         estimate D2E/DX2                !
 --------------------------------------------------------------------------------
 Trust Radius=3.00D-01 FncErr=1.00D-07 GrdErr=1.00D-06 EigMax=2.50D+02 EigMin=1.00D-04
 Number of steps in this run=     91 maximum allowed number of steps=    102.
 GradGradGradGradGradGradGradGradGradGradGradGradGradGradGradGradGradGrad

 Leave Link  103 at Fri Jul 24 12:11:57 2020, MaxMem=  4026531840 cpu:               0.1 elap:               0.0
 (Enter /opt/ohpc/pub/libs/gaussian/g16-A.03/sandybridge/g16/l202.exe)
                          Input orientation:                          
 ---------------------------------------------------------------------
 Center     Atomic      Atomic             Coordinates (Angstroms)
 Number     Number       Type             X           Y           Z
 ---------------------------------------------------------------------
      1          6           0       -3.563426   -0.087943    0.017610
      2          6           0       -2.751742   -1.259175    0.005703
      3          7           0       -1.441660   -1.261425   -0.049808
      4          6           0       -0.859236   -0.071451    0.031142
      5          7           0       -1.470320    1.161573   -0.025731
      6          6           0       -2.783167    1.074545   -0.044000
      7          6           0        0.612307   -0.009804   -0.016397
      8          6           0        1.534104    1.046277    0.036549
      9          9           0        1.085637    2.292530    0.042818
     10          6           0        2.909825    0.710652   -0.027783
     11          6           0        3.030514   -0.690980   -0.045235
     12         16           0        1.586135   -1.477969   -0.015650
     13          1           0       -4.591579   -0.099558   -0.033521
     14          1           0       -3.289556   -2.175395   -0.041923
     15          1           0       -3.228394    2.088786   -0.004098
     16          1           0        3.719395    1.381593    0.038080
     17          1           0        3.941587   -1.200325    0.000660
 ---------------------------------------------------------------------
                    Distance matrix (angstroms):
                    1          2          3          4          5
     1  C    0.000000
     2  C    1.425046   0.000000
     3  N    2.425592   1.311259   0.000000
     4  C    2.704274   2.234483   1.327331   0.000000
     5  N    2.438086   2.739170   2.423287   1.377319   0.000000
     6  C    1.401420   2.334461   2.693776   2.240639   1.315855
     7  C    4.176602   3.588627   2.405504   1.473601   2.389466
     8  C    5.222224   4.866676   3.766712   2.641481   3.007280
     9  F    5.223129   5.228907   4.361927   3.061221   2.795832
    10  C    6.522484   5.994554   4.777551   3.849802   4.403295
    11  C    6.621756   5.810329   4.508411   3.939518   4.867221
    12  S    5.333972   4.343444   3.035721   2.821404   4.038465
    13  H    1.029489   2.175144   3.357408   3.733009   3.366418
    14  H    2.106183   1.063471   2.061583   3.215334   3.800689
    15  H    2.202468   3.381736   3.797160   3.206365   1.987716
    16  H    7.429632   6.989300   5.799117   4.803670   5.194769
    17  H    7.587022   6.693590   5.383830   4.931854   5.904913
                    6          7          8          9         10
     6  C    0.000000
     7  C    3.564522   0.000000
     8  C    4.318115   1.402790   0.000000
     9  F    4.056929   2.351231   1.324503   0.000000
    10  C    5.704633   2.407857   1.417530   2.415571   0.000000
    11  C    6.075851   2.512480   2.294339   3.562532   1.406927
    12  S    5.060329   1.761775   2.525322   3.804021   2.557805
    13  H    2.156150   5.204688   6.232322   6.161063   7.545034
    14  H    3.289156   4.462619   5.801123   6.253947   6.838259
    15  H    1.108379   4.376667   4.875435   4.319094   6.291069
    16  H    6.510325   3.404842   2.210868   2.786846   1.053520
    17  H    7.099250   3.535779   3.293096   4.512013   2.171906
                   11         12         13         14         15
    11  C    0.000000
    12  S    1.645132   0.000000
    13  H    7.645013   6.329651   0.000000
    14  H    6.492055   4.925389   2.450395   0.000000
    15  H    6.848556   5.991791   2.578369   4.264787   0.000000
    16  H    2.185648   3.568022   8.442229   7.860277   6.983815
    17  H    1.044793   2.371815   8.603940   7.296712   7.888403
                   16         17
    16  H    0.000000
    17  H    2.591731   0.000000
 Stoichiometry    C8H5FN2S
 Framework group  C1[X(C8H5FN2S)]
 Deg. of freedom    45
 Full point group                 C1      NOp   1
 Largest Abelian subgroup         C1      NOp   1
 Largest concise Abelian subgroup C1      NOp   1
                         Standard orientation:                         
 ---------------------------------------------------------------------
 Center     Atomic      Atomic             Coordinates (Angstroms)
 Number     Number       Type             X           Y           Z
 ---------------------------------------------------------------------
      1          6           0        3.564818   -0.076282   -0.028475
      2          6           0        2.758862   -1.251523   -0.028827
      3          7           0        1.448847   -1.260776    0.027520
      4          6           0        0.860571   -0.072847   -0.040043
      5          7           0        1.465677    1.162452    0.029892
      6          6           0        2.778945    1.081640    0.046344
      7          6           0       -0.611221   -0.018908    0.009137
      8          6           0       -1.538193    1.033175   -0.031663
      9          9           0       -1.095811    2.281597   -0.024614
     10          6           0       -2.912215    0.690155    0.029906
     11          6           0       -3.026057   -0.712157    0.032127
     12         16           0       -1.577880   -1.491714   -0.007005
     13          1           0        4.593052   -0.083435    0.021849
     14          1           0        3.301170   -2.165572    0.008434
     15          1           0        3.219194    2.098418    0.017229
     16          1           0       -3.725093    1.357814   -0.028091
     17          1           0       -3.934669   -1.225413   -0.018729
 ---------------------------------------------------------------------
 Rotational constants (GHZ):           1.7955850           0.6132353           0.4572333
 Leave Link  202 at Fri Jul 24 12:11:58 2020, MaxMem=  4026531840 cpu:               0.3 elap:               0.1
 (Enter /opt/ohpc/pub/libs/gaussian/g16-A.03/sandybridge/g16/l301.exe)
 Standard basis: CC-pVDZ (5D, 7F)
 Ernie: Thresh=  0.10000D-02 Tol=  0.10000D-05 Strict=F.
 Ernie:  32 primitive shells out of 317 were deleted.
 There are   209 symmetry adapted cartesian basis functions of A   symmetry.
 There are   197 symmetry adapted basis functions of A   symmetry.
   197 basis functions,   469 primitive gaussians,   209 cartesian basis functions
    46 alpha electrons       46 beta electrons
       nuclear repulsion energy       736.8596584556 Hartrees.
 IExCor=32609 DFT=T Ex+Corr=LC-wPBE ExCW=0 ScaHFX=  1.000000
 ScaDFX=  1.000000  0.000000  1.000000  1.000000 ScalE2=  1.000000  1.000000
 IRadAn=      5 IRanWt=     -1 IRanGd=            0 ICorTp=0 IEmpDi=  4
 HFx  wShort=  0.000000 wLong=  0.492900 cFull=  0.000000 cShort=  0.000000 cLong=  1.000000
 DFx  wShort=  0.000000 wLong=  0.492900 cFull=  0.000000 cShort=  0.000000 cLong=  1.000000
 NAtoms=   17 NActive=   17 NUniq=   17 SFac= 1.00D+00 NAtFMM=   60 NAOKFM=F Big=F
 Integral buffers will be    131072 words long.
 Raffenetti 2 integral format.
 Two-electron integral symmetry is turned on.
 Leave Link  301 at Fri Jul 24 12:11:58 2020, MaxMem=  4026531840 cpu:               0.5 elap:               0.1
 (Enter /opt/ohpc/pub/libs/gaussian/g16-A.03/sandybridge/g16/l302.exe)
 NPDir=0 NMtPBC=     1 NCelOv=     1 NCel=       1 NClECP=     1 NCelD=      1
         NCelK=      1 NCelE2=     1 NClLst=     1 CellRange=     0.0.
 One-electron integrals computed using PRISM.
 One-electron integral symmetry used in STVInt
 NBasis=   197 RedAO= T EigKep=  7.25D-04  NBF=   197
 NBsUse=   197 1.00D-06 EigRej= -1.00D+00 NBFU=   197
 Precomputing XC quadrature grid using
 IXCGrd= 4 IRadAn=           5 IRanWt=          -1 IRanGd=           0 AccXCQ= 0.00D+00.
 Generated NRdTot=       0 NPtTot=           0 NUsed=           0 NTot=          32
 NSgBfM=   209   209   209   209   209 MxSgAt=    17 MxSgA2=    17.
 Leave Link  302 at Fri Jul 24 12:11:58 2020, MaxMem=  4026531840 cpu:               1.7 elap:               0.3
 (Enter /opt/ohpc/pub/libs/gaussian/g16-A.03/sandybridge/g16/l303.exe)
 DipDrv:  MaxL=1.
 Leave Link  303 at Fri Jul 24 12:11:58 2020, MaxMem=  4026531840 cpu:               0.4 elap:               0.1
 (Enter /opt/ohpc/pub/libs/gaussian/g16-A.03/sandybridge/g16/l401.exe)
 ExpMin= 1.22D-01 ExpMax= 1.11D+05 ExpMxC= 1.07D+03 IAcc=3 IRadAn=         5 AccDes= 0.00D+00
 Harris functional with IExCor=32609 and IRadAn=       5 diagonalized for initial guess.
 HarFok:  IExCor=32609 AccDes= 0.00D+00 IRadAn=         5 IDoV= 1 UseB2=F ITyADJ=14
 ICtDFT=  3500011 ScaDFX=  1.000000  1.000000  1.000000  1.000000
 FoFCou: FMM=F IPFlag=           0 FMFlag=      100000 FMFlg1=           0
         NFxFlg=           0 DoJE=T BraDBF=F KetDBF=T FulRan=T
         wScrn=  0.000000 ICntrl=       500 IOpCl=  0 I1Cent=   200000004 NGrid=           0
         NMat0=    1 NMatS0=      1 NMatT0=    0 NMatD0=    1 NMtDS0=    0 NMtDT0=    0
 Petite list used in FoFCou.
 Harris En= -914.759165801135    
 JPrj=0 DoOrth=F DoCkMO=F.
 Initial guess <Sx>= 0.0000 <Sy>= 0.0000 <Sz>= 0.0000 <S**2>=-0.0000 S=-0.0000
 Leave Link  401 at Fri Jul 24 12:11:59 2020, MaxMem=  4026531840 cpu:               7.7 elap:               1.0
 (Enter /opt/ohpc/pub/libs/gaussian/g16-A.03/sandybridge/g16/l502.exe)
 Integral symmetry usage will be decided dynamically.
 UHF open shell SCF:
 Using DIIS extrapolation, IDIIS=  1040.
 NGot=  4026531840 LenX=  4026440601 LenY=  4026396479
 Requested convergence on RMS density matrix=1.00D-08 within 128 cycles.
 Requested convergence on MAX density matrix=1.00D-06.
 Requested convergence on             energy=1.00D-06.
 No special actions if energy rises.
 Fock matrices will be formed incrementally for  20 cycles.
 Integral accuracy reduced to 1.0D-05 until final iterations.

 Cycle   1  Pass 0  IDiag  1:
 FoFJK:  IHMeth= 1 ICntrl=       0 DoSepK=T KAlg= 0 I1Cent=           0 FoldK=F
 IRaf=         1 NMat=       1 IRICut=       1 DoRegI=T DoRafI=F ISym2E= 0 IDoP0=0 IntGTp=1.
 FoFCou: FMM=F IPFlag=           0 FMFlag=      100000 FMFlg1=           0
         NFxFlg=           0 DoJE=T BraDBF=F KetDBF=F FulRan=T
         wScrn=  0.000000 ICntrl=       500 IOpCl=  0 I1Cent=           0 NGrid=           0
         NMat0=    1 NMatS0=      1 NMatT0=    0 NMatD0=    1 NMtDS0=    0 NMtDT0=    0
 Symmetry not used in FoFCou.
 E= -914.699117316763    
 DIIS: error= 2.12D-02 at cycle   1 NSaved=   1.
 NSaved= 1 IEnMin= 1 EnMin= -914.699117316763     IErMin= 1 ErrMin= 2.12D-02
 ErrMax= 2.12D-02  0.00D+00 EMaxC= 1.00D-01 BMatC= 8.13D-01 BMatP= 8.13D-01
 IDIUse=3 WtCom= 7.88D-01 WtEn= 2.12D-01
 Coeff-Com:  0.100D+01
 Coeff-En:   0.100D+01
 Coeff:      0.100D+01
 Gap=     0.396 Goal=   None    Shift=    0.000
 Gap=     0.396 Goal=   None    Shift=    0.000
 GapD=    0.396 DampG=1.000 DampE=0.500 DampFc=0.5000 IDamp=-1.
 Damping current iteration by 5.00D-01
 RMSDP=3.99D-03 MaxDP=1.22D-01              OVMax= 1.45D-01

 Cycle   2  Pass 0  IDiag  1:
 RMSU=  1.98D-03    CP:  9.91D-01
 E= -914.815870862057     Delta-E=       -0.116753545294 Rises=F Damp=T
 DIIS: error= 7.70D-03 at cycle   2 NSaved=   2.
 NSaved= 2 IEnMin= 2 EnMin= -914.815870862057     IErMin= 2 ErrMin= 7.70D-03
 ErrMax= 7.70D-03  0.00D+00 EMaxC= 1.00D-01 BMatC= 5.55D-02 BMatP= 8.13D-01
 IDIUse=3 WtCom= 9.23D-01 WtEn= 7.70D-02
 Coeff-Com: -0.171D+00 0.117D+01
 Coeff-En:   0.000D+00 0.100D+01
 Coeff:     -0.157D+00 0.116D+01
 Gap=     0.351 Goal=   None    Shift=    0.000
 Gap=     0.351 Goal=   None    Shift=    0.000
 RMSDP=1.33D-03 MaxDP=2.37D-02 DE=-1.17D-01 OVMax= 9.34D-02

 Cycle   3  Pass 0  IDiag  1:
 RMSU=  1.10D-03    CP:  9.84D-01  1.37D+00
 E= -914.919013939236     Delta-E=       -0.103143077179 Rises=F Damp=F
 DIIS: error= 3.15D-03 at cycle   3 NSaved=   3.
 NSaved= 3 IEnMin= 3 EnMin= -914.919013939236     IErMin= 3 ErrMin= 3.15D-03
 ErrMax= 3.15D-03  0.00D+00 EMaxC= 1.00D-01 BMatC= 8.20D-03 BMatP= 5.55D-02
 IDIUse=3 WtCom= 9.68D-01 WtEn= 3.15D-02
 Coeff-Com: -0.643D-01 0.296D+00 0.768D+00
 Coeff-En:   0.000D+00 0.000D+00 0.100D+01
 Coeff:     -0.623D-01 0.287D+00 0.776D+00
 Gap=     0.347 Goal=   None    Shift=    0.000
 Gap=     0.347 Goal=   None    Shift=    0.000
 RMSDP=3.42D-04 MaxDP=9.82D-03 DE=-1.03D-01 OVMax= 2.29D-02

 Cycle   4  Pass 0  IDiag  1:
 RMSU=  3.18D-04    CP:  9.84D-01  1.41D+00  9.09D-01
 E= -914.921165122732     Delta-E=       -0.002151183496 Rises=F Damp=F
 DIIS: error= 1.81D-03 at cycle   4 NSaved=   4.
 NSaved= 4 IEnMin= 4 EnMin= -914.921165122732     IErMin= 4 ErrMin= 1.81D-03
 ErrMax= 1.81D-03  0.00D+00 EMaxC= 1.00D-01 BMatC= 2.36D-03 BMatP= 8.20D-03
 IDIUse=3 WtCom= 9.82D-01 WtEn= 1.81D-02
 Coeff-Com:  0.639D-03-0.214D-01 0.323D+00 0.697D+00
 Coeff-En:   0.000D+00 0.000D+00 0.000D+00 0.100D+01
 Coeff:      0.628D-03-0.210D-01 0.317D+00 0.703D+00
 Gap=     0.347 Goal=   None    Shift=    0.000
 Gap=     0.347 Goal=   None    Shift=    0.000
 RMSDP=1.44D-04 MaxDP=4.63D-03 DE=-2.15D-03 OVMax= 9.31D-03

 Cycle   5  Pass 0  IDiag  1:
 RMSU=  1.10D-04    CP:  9.83D-01  1.41D+00  9.89D-01  9.22D-01
 E= -914.921918764107     Delta-E=       -0.000753641376 Rises=F Damp=F
 DIIS: error= 5.49D-04 at cycle   5 NSaved=   5.
 NSaved= 5 IEnMin= 5 EnMin= -914.921918764107     IErMin= 5 ErrMin= 5.49D-04
 ErrMax= 5.49D-04  0.00D+00 EMaxC= 1.00D-01 BMatC= 1.71D-04 BMatP= 2.36D-03
 IDIUse=3 WtCom= 9.95D-01 WtEn= 5.49D-03
 Coeff-Com:  0.109D-01-0.427D-01-0.276D-01 0.136D+00 0.924D+00
 Coeff-En:   0.000D+00 0.000D+00 0.000D+00 0.000D+00 0.100D+01
 Coeff:      0.108D-01-0.424D-01-0.275D-01 0.135D+00 0.924D+00
 Gap=     0.348 Goal=   None    Shift=    0.000
 Gap=     0.348 Goal=   None    Shift=    0.000
 RMSDP=7.08D-05 MaxDP=2.52D-03 DE=-7.54D-04 OVMax= 5.94D-03

 Cycle   6  Pass 0  IDiag  1:
 RMSU=  4.38D-05    CP:  9.83D-01  1.42D+00  1.01D+00  1.05D+00  1.24D+00
 E= -914.922048784890     Delta-E=       -0.000130020783 Rises=F Damp=F
 DIIS: error= 2.10D-04 at cycle   6 NSaved=   6.
 NSaved= 6 IEnMin= 6 EnMin= -914.922048784890     IErMin= 6 ErrMin= 2.10D-04
 ErrMax= 2.10D-04  0.00D+00 EMaxC= 1.00D-01 BMatC= 3.31D-05 BMatP= 1.71D-04
 IDIUse=3 WtCom= 9.98D-01 WtEn= 2.10D-03
 Coeff-Com:  0.353D-02-0.845D-02-0.508D-01-0.716D-01 0.155D+00 0.973D+00
 Coeff-En:   0.000D+00 0.000D+00 0.000D+00 0.000D+00 0.000D+00 0.100D+01
 Coeff:      0.352D-02-0.844D-02-0.507D-01-0.715D-01 0.154D+00 0.973D+00
 Gap=     0.349 Goal=   None    Shift=    0.000
 Gap=     0.349 Goal=   None    Shift=    0.000
 RMSDP=4.09D-05 MaxDP=1.66D-03 DE=-1.30D-04 OVMax= 4.55D-03

 Cycle   7  Pass 0  IDiag  1:
 RMSU=  1.85D-05    CP:  9.83D-01  1.42D+00  1.02D+00  1.10D+00  1.48D+00
                    CP:  1.37D+00
 E= -914.922085285024     Delta-E=       -0.000036500134 Rises=F Damp=F
 DIIS: error= 1.49D-04 at cycle   7 NSaved=   7.
 NSaved= 7 IEnMin= 7 EnMin= -914.922085285024     IErMin= 7 ErrMin= 1.49D-04
 ErrMax= 1.49D-04  0.00D+00 EMaxC= 1.00D-01 BMatC= 8.45D-06 BMatP= 3.31D-05
 IDIUse=3 WtCom= 9.99D-01 WtEn= 1.49D-03
 Coeff-Com: -0.104D-02 0.652D-02-0.320D-02-0.444D-01-0.206D+00 0.234D+00
 Coeff-Com:  0.101D+01
 Coeff-En:   0.000D+00 0.000D+00 0.000D+00 0.000D+00 0.000D+00 0.000D+00
 Coeff-En:   0.100D+01
 Coeff:     -0.104D-02 0.651D-02-0.320D-02-0.443D-01-0.206D+00 0.233D+00
 Coeff:      0.101D+01
 Gap=     0.349 Goal=   None    Shift=    0.000
 Gap=     0.349 Goal=   None    Shift=    0.000
 RMSDP=2.51D-05 MaxDP=9.12D-04 DE=-3.65D-05 OVMax= 2.45D-03

 Cycle   8  Pass 0  IDiag  1:
 RMSU=  7.52D-06    CP:  9.83D-01  1.42D+00  1.02D+00  1.13D+00  1.60D+00
                    CP:  1.74D+00  1.32D+00
 E= -914.922094383407     Delta-E=       -0.000009098384 Rises=F Damp=F
 DIIS: error= 4.04D-05 at cycle   8 NSaved=   8.
 NSaved= 8 IEnMin= 8 EnMin= -914.922094383407     IErMin= 8 ErrMin= 4.04D-05
 ErrMax= 4.04D-05  0.00D+00 EMaxC= 1.00D-01 BMatC= 1.19D-06 BMatP= 8.45D-06
 IDIUse=1 WtCom= 1.00D+00 WtEn= 0.00D+00
 Coeff-Com: -0.547D-03 0.276D-02 0.644D-02-0.116D-02-0.830D-01-0.644D-01
 Coeff-Com:  0.280D+00 0.860D+00
 Coeff:     -0.547D-03 0.276D-02 0.644D-02-0.116D-02-0.830D-01-0.644D-01
 Coeff:      0.280D+00 0.860D+00
 Gap=     0.349 Goal=   None    Shift=    0.000
 Gap=     0.349 Goal=   None    Shift=    0.000
 RMSDP=7.53D-06 MaxDP=2.60D-04 DE=-9.10D-06 OVMax= 7.66D-04

 Initial convergence to 1.0D-05 achieved.  Increase integral accuracy.
 Cycle   9  Pass 1  IDiag  1:
 E= -914.921987011012     Delta-E=        0.000107372395 Rises=F Damp=F
 DIIS: error= 2.74D-05 at cycle   1 NSaved=   1.
 NSaved= 1 IEnMin= 1 EnMin= -914.921987011012     IErMin= 1 ErrMin= 2.74D-05
 ErrMax= 2.74D-05  0.00D+00 EMaxC= 1.00D-01 BMatC= 8.51D-07 BMatP= 8.51D-07
 IDIUse=1 WtCom= 1.00D+00 WtEn= 0.00D+00
 Coeff-Com:  0.100D+01
 Coeff:      0.100D+01
 Gap=     0.349 Goal=   None    Shift=    0.000
 Gap=     0.349 Goal=   None    Shift=    0.000
 RMSDP=7.53D-06 MaxDP=2.60D-04 DE= 1.07D-04 OVMax= 1.39D-04

 Cycle  10  Pass 1  IDiag  1:
 RMSU=  1.80D-05    CP:  1.00D+00
 E= -914.921987179254     Delta-E=       -0.000000168241 Rises=F Damp=F
 DIIS: error= 1.14D-05 at cycle   2 NSaved=   2.
 NSaved= 2 IEnMin= 2 EnMin= -914.921987179254     IErMin= 2 ErrMin= 1.14D-05
 ErrMax= 1.14D-05  0.00D+00 EMaxC= 1.00D-01 BMatC= 8.28D-08 BMatP= 8.51D-07
 IDIUse=1 WtCom= 1.00D+00 WtEn= 0.00D+00
 Coeff-Com:  0.942D-01 0.906D+00
 Coeff:      0.942D-01 0.906D+00
 Gap=     0.349 Goal=   None    Shift=    0.000
 Gap=     0.349 Goal=   None    Shift=    0.000
 RMSDP=1.68D-06 MaxDP=3.68D-05 DE=-1.68D-07 OVMax= 9.34D-05

 Cycle  11  Pass 1  IDiag  1:
 RMSU=  1.33D-06    CP:  1.00D+00  1.06D+00
 E= -914.921987211179     Delta-E=       -0.000000031925 Rises=F Damp=F
 DIIS: error= 8.71D-06 at cycle   3 NSaved=   3.
 NSaved= 3 IEnMin= 3 EnMin= -914.921987211179     IErMin= 3 ErrMin= 8.71D-06
 ErrMax= 8.71D-06  0.00D+00 EMaxC= 1.00D-01 BMatC= 5.14D-08 BMatP= 8.28D-08
 IDIUse=1 WtCom= 1.00D+00 WtEn= 0.00D+00
 Coeff-Com: -0.439D-01 0.424D+00 0.620D+00
 Coeff:     -0.439D-01 0.424D+00 0.620D+00
 Gap=     0.349 Goal=   None    Shift=    0.000
 Gap=     0.349 Goal=   None    Shift=    0.000
 RMSDP=6.71D-07 MaxDP=1.66D-05 DE=-3.19D-08 OVMax= 3.80D-05

 Cycle  12  Pass 1  IDiag  1:
 RMSU=  6.20D-07    CP:  1.00D+00  1.07D+00  9.91D-01
 E= -914.921987183026     Delta-E=        0.000000028152 Rises=F Damp=F
 DIIS: error= 3.25D-06 at cycle   4 NSaved=   4.
 NSaved= 4 IEnMin= 3 EnMin= -914.921987211179     IErMin= 4 ErrMin= 3.25D-06
 ErrMax= 3.25D-06  0.00D+00 EMaxC= 1.00D-01 BMatC= 4.00D-09 BMatP= 5.14D-08
 IDIUse=1 WtCom= 1.00D+00 WtEn= 0.00D+00
 Coeff-Com: -0.574D-02-0.204D+00-0.178D+00 0.139D+01
 Coeff:     -0.574D-02-0.204D+00-0.178D+00 0.139D+01
 Gap=     0.349 Goal=   None    Shift=    0.000
 Gap=     0.349 Goal=   None    Shift=    0.000
 RMSDP=6.41D-07 MaxDP=2.12D-05 DE= 2.82D-08 OVMax= 5.94D-05

 Cycle  13  Pass 1  IDiag  1:
 RMSU=  2.19D-07    CP:  1.00D+00  1.08D+00  1.30D+00  1.69D+00
 E= -914.921987189563     Delta-E=       -0.000000006537 Rises=F Damp=F
 DIIS: error= 1.52D-06 at cycle   5 NSaved=   5.
 NSaved= 5 IEnMin= 3 EnMin= -914.921987211179     IErMin= 5 ErrMin= 1.52D-06
 ErrMax= 1.52D-06  0.00D+00 EMaxC= 1.00D-01 BMatC= 1.23D-09 BMatP= 4.00D-09
 IDIUse=1 WtCom= 1.00D+00 WtEn= 0.00D+00
 Coeff-Com:  0.909D-02-0.188D+00-0.252D+00 0.538D+00 0.892D+00
 Coeff:      0.909D-02-0.188D+00-0.252D+00 0.538D+00 0.892D+00
 Gap=     0.349 Goal=   None    Shift=    0.000
 Gap=     0.349 Goal=   None    Shift=    0.000
 RMSDP=3.12D-07 MaxDP=9.64D-06 DE=-6.54D-09 OVMax= 2.91D-05

 Cycle  14  Pass 1  IDiag  1:
 RMSU=  9.62D-08    CP:  1.00D+00  1.08D+00  1.42D+00  2.08D+00  1.21D+00
 E= -914.921987190749     Delta-E=       -0.000000001186 Rises=F Damp=F
 DIIS: error= 2.94D-07 at cycle   6 NSaved=   6.
 NSaved= 6 IEnMin= 3 EnMin= -914.921987211179     IErMin= 6 ErrMin= 2.94D-07
 ErrMax= 2.94D-07  0.00D+00 EMaxC= 1.00D-01 BMatC= 9.51D-11 BMatP= 1.23D-09
 IDIUse=1 WtCom= 1.00D+00 WtEn= 0.00D+00
 Coeff-Com:  0.281D-02-0.347D-01-0.584D-01 0.500D-01 0.270D+00 0.770D+00
 Coeff:      0.281D-02-0.347D-01-0.584D-01 0.500D-01 0.270D+00 0.770D+00
 Gap=     0.349 Goal=   None    Shift=    0.000
 Gap=     0.349 Goal=   None    Shift=    0.000
 RMSDP=4.78D-08 MaxDP=1.27D-06 DE=-1.19D-09 OVMax= 4.07D-06

 Cycle  15  Pass 1  IDiag  1:
 RMSU=  3.25D-08    CP:  1.00D+00  1.08D+00  1.43D+00  2.12D+00  1.33D+00
                    CP:  1.07D+00
 E= -914.921987190785     Delta-E=       -0.000000000036 Rises=F Damp=F
 DIIS: error= 1.37D-07 at cycle   7 NSaved=   7.
 NSaved= 7 IEnMin= 3 EnMin= -914.921987211179     IErMin= 7 ErrMin= 1.37D-07
 ErrMax= 1.37D-07  0.00D+00 EMaxC= 1.00D-01 BMatC= 1.93D-11 BMatP= 9.51D-11
 IDIUse=1 WtCom= 1.00D+00 WtEn= 0.00D+00
 Coeff-Com: -0.170D-02 0.421D-01 0.500D-01-0.141D+00-0.158D+00 0.229D+00
 Coeff-Com:  0.980D+00
 Coeff:     -0.170D-02 0.421D-01 0.500D-01-0.141D+00-0.158D+00 0.229D+00
 Coeff:      0.980D+00
 Gap=     0.349 Goal=   None    Shift=    0.000
 Gap=     0.349 Goal=   None    Shift=    0.000
 RMSDP=3.35D-08 MaxDP=1.02D-06 DE=-3.59D-11 OVMax= 2.58D-06

 Cycle  16  Pass 1  IDiag  1:
 RMSU=  1.44D-08    CP:  1.00D+00  1.08D+00  1.43D+00  2.14D+00  1.41D+00
                    CP:  1.26D+00  1.21D+00
 E= -914.921987190811     Delta-E=       -0.000000000026 Rises=F Damp=F
 DIIS: error= 2.79D-08 at cycle   8 NSaved=   8.
 NSaved= 8 IEnMin= 3 EnMin= -914.921987211179     IErMin= 8 ErrMin= 2.79D-08
 ErrMax= 2.79D-08  0.00D+00 EMaxC= 1.00D-01 BMatC= 7.63D-13 BMatP= 1.93D-11
 IDIUse=1 WtCom= 1.00D+00 WtEn= 0.00D+00
 Coeff-Com: -0.346D-03 0.634D-02 0.810D-02-0.164D-01-0.297D-01-0.349D-01
 Coeff-Com:  0.802D-01 0.987D+00
 Coeff:     -0.346D-03 0.634D-02 0.810D-02-0.164D-01-0.297D-01-0.349D-01
 Coeff:      0.802D-01 0.987D+00
 Gap=     0.349 Goal=   None    Shift=    0.000
 Gap=     0.349 Goal=   None    Shift=    0.000
 RMSDP=6.82D-09 MaxDP=1.58D-07 DE=-2.57D-11 OVMax= 6.12D-07

 SCF Done:  E(ULC-wPBE) =  -914.921987191     A.U. after   16 cycles
            NFock= 16  Conv=0.68D-08     -V/T= 2.0046
 <Sx>= 0.0000 <Sy>= 0.0000 <Sz>= 0.0000 <S**2>=-0.0000 S=-0.0000
 <L.S>= 0.000000000000E+00
 KE= 9.107348622513D+02 PE=-3.627314914674D+03 EE= 1.064798406777D+03
 Annihilation of the first spin contaminant:
 S**2 before annihilation    -0.0000,   after    -0.0000
 Leave Link  502 at Fri Jul 24 12:12:42 2020, MaxMem=  4026531840 cpu:             340.7 elap:              42.8
 (Enter /opt/ohpc/pub/libs/gaussian/g16-A.03/sandybridge/g16/l601.exe)
 Copying SCF densities to generalized density rwf, IOpCl= 1 IROHF=0.

 **********************************************************************

            Population analysis using the SCF density.

 **********************************************************************

 Orbital symmetries:
 Alpha Orbitals:
       Occupied  (A) (A) (A) (A) (A) (A) (A) (A) (A) (A) (A) (A)
                 (A) (A) (A) (A) (A) (A) (A) (A) (A) (A) (A) (A)
                 (A) (A) (A) (A) (A) (A) (A) (A) (A) (A) (A) (A)
                 (A) (A) (A) (A) (A) (A) (A) (A) (A) (A)
       Virtual   (A) (A) (A) (A) (A) (A) (A) (A) (A) (A) (A) (A)
                 (A) (A) (A) (A) (A) (A) (A) (A) (A) (A) (A) (A)
                 (A) (A) (A) (A) (A) (A) (A) (A) (A) (A) (A) (A)
                 (A) (A) (A) (A) (A) (A) (A) (A) (A) (A) (A) (A)
                 (A) (A) (A) (A) (A) (A) (A) (A) (A) (A) (A) (A)
                 (A) (A) (A) (A) (A) (A) (A) (A) (A) (A) (A) (A)
                 (A) (A) (A) (A) (A) (A) (A) (A) (A) (A) (A) (A)
                 (A) (A) (A) (A) (A) (A) (A) (A) (A) (A) (A) (A)
                 (A) (A) (A) (A) (A) (A) (A) (A) (A) (A) (A) (A)
                 (A) (A) (A) (A) (A) (A) (A) (A) (A) (A) (A) (A)
                 (A) (A) (A) (A) (A) (A) (A) (A) (A) (A) (A) (A)
                 (A) (A) (A) (A) (A) (A) (A) (A) (A) (A) (A) (A)
                 (A) (A) (A) (A) (A) (A) (A)
 Beta  Orbitals:
       Occupied  (A) (A) (A) (A) (A) (A) (A) (A) (A) (A) (A) (A)
                 (A) (A) (A) (A) (A) (A) (A) (A) (A) (A) (A) (A)
                 (A) (A) (A) (A) (A) (A) (A) (A) (A) (A) (A) (A)
                 (A) (A) (A) (A) (A) (A) (A) (A) (A) (A)
       Virtual   (A) (A) (A) (A) (A) (A) (A) (A) (A) (A) (A) (A)
                 (A) (A) (A) (A) (A) (A) (A) (A) (A) (A) (A) (A)
                 (A) (A) (A) (A) (A) (A) (A) (A) (A) (A) (A) (A)
                 (A) (A) (A) (A) (A) (A) (A) (A) (A) (A) (A) (A)
                 (A) (A) (A) (A) (A) (A) (A) (A) (A) (A) (A) (A)
                 (A) (A) (A) (A) (A) (A) (A) (A) (A) (A) (A) (A)
                 (A) (A) (A) (A) (A) (A) (A) (A) (A) (A) (A) (A)
                 (A) (A) (A) (A) (A) (A) (A) (A) (A) (A) (A) (A)
                 (A) (A) (A) (A) (A) (A) (A) (A) (A) (A) (A) (A)
                 (A) (A) (A) (A) (A) (A) (A) (A) (A) (A) (A) (A)
                 (A) (A) (A) (A) (A) (A) (A) (A) (A) (A) (A) (A)
                 (A) (A) (A) (A) (A) (A) (A) (A) (A) (A) (A) (A)
                 (A) (A) (A) (A) (A) (A) (A)
 The electronic state is 1-A.
 Alpha  occ. eigenvalues --  -88.38180 -24.54678 -14.28088 -14.27619 -10.27343
 Alpha  occ. eigenvalues --  -10.27129 -10.23572 -10.23061 -10.21643 -10.21117
 Alpha  occ. eigenvalues --  -10.18971 -10.18806  -7.99157  -6.00215  -5.99648
 Alpha  occ. eigenvalues --   -5.99349  -1.39762  -1.19212  -1.09358  -1.08484
 Alpha  occ. eigenvalues --   -0.99358  -0.92603  -0.92057  -0.83712  -0.82709
 Alpha  occ. eigenvalues --   -0.74924  -0.74111  -0.71035  -0.66874  -0.66168
 Alpha  occ. eigenvalues --   -0.62814  -0.62674  -0.60049  -0.59299  -0.58241
 Alpha  occ. eigenvalues --   -0.55751  -0.53599  -0.52681  -0.51967  -0.47232
 Alpha  occ. eigenvalues --   -0.45623  -0.45070  -0.42373  -0.38863  -0.36584
 Alpha  occ. eigenvalues --   -0.33495
 Alpha virt. eigenvalues --    0.01412   0.05297   0.09696   0.14464   0.17058
 Alpha virt. eigenvalues --    0.17081   0.17862   0.20489   0.21486   0.23123
 Alpha virt. eigenvalues --    0.24200   0.26020   0.29294   0.32785   0.33757
 Alpha virt. eigenvalues --    0.35379   0.39285   0.42596   0.44589   0.45440
 Alpha virt. eigenvalues --    0.45813   0.50024   0.53979   0.55745   0.56042
 Alpha virt. eigenvalues --    0.57213   0.58262   0.58691   0.59265   0.60133
 Alpha virt. eigenvalues --    0.61087   0.62531   0.62586   0.64007   0.64078
 Alpha virt. eigenvalues --    0.65106   0.65787   0.66634   0.67533   0.68605
 Alpha virt. eigenvalues --    0.69915   0.71754   0.73379   0.73627   0.76779
 Alpha virt. eigenvalues --    0.77538   0.79557   0.80684   0.81554   0.82229
 Alpha virt. eigenvalues --    0.83281   0.84885   0.87433   0.87702   0.93159
 Alpha virt. eigenvalues --    0.95800   0.97722   0.98769   1.00276   1.00827
 Alpha virt. eigenvalues --    1.03214   1.05228   1.06374   1.07321   1.09053
 Alpha virt. eigenvalues --    1.09689   1.11538   1.11813   1.15833   1.16031
 Alpha virt. eigenvalues --    1.17193   1.18222   1.18607   1.20825   1.21936
 Alpha virt. eigenvalues --    1.25477   1.29007   1.29634   1.32278   1.33996
 Alpha virt. eigenvalues --    1.37857   1.41520   1.42502   1.44864   1.46683
 Alpha virt. eigenvalues --    1.48257   1.51662   1.53706   1.56414   1.59006
 Alpha virt. eigenvalues --    1.61176   1.63877   1.65255   1.67220   1.68762
 Alpha virt. eigenvalues --    1.69741   1.72222   1.73499   1.76880   1.77797
 Alpha virt. eigenvalues --    1.78084   1.79117   1.81374   1.83754   1.85751
 Alpha virt. eigenvalues --    1.86730   1.88402   1.91022   1.92669   1.93076
 Alpha virt. eigenvalues --    1.95277   1.95383   1.99488   2.04450   2.05365
 Alpha virt. eigenvalues --    2.07987   2.11237   2.12712   2.13275   2.17266
 Alpha virt. eigenvalues --    2.20928   2.21599   2.23558   2.26133   2.32028
 Alpha virt. eigenvalues --    2.33491   2.35577   2.40502   2.48822   2.49923
 Alpha virt. eigenvalues --    2.52076   2.60048   2.60966   2.64084   2.64772
 Alpha virt. eigenvalues --    2.69080   2.70777   2.74949   2.76607   2.86884
 Alpha virt. eigenvalues --    2.91580   3.01795   3.08906   3.15013   3.20315
 Alpha virt. eigenvalues --    3.50022   3.71766   3.74305   3.93436   4.13119
 Alpha virt. eigenvalues --    4.31813
  Beta  occ. eigenvalues --  -88.38180 -24.54678 -14.28088 -14.27619 -10.27343
  Beta  occ. eigenvalues --  -10.27129 -10.23572 -10.23061 -10.21643 -10.21117
  Beta  occ. eigenvalues --  -10.18971 -10.18806  -7.99157  -6.00215  -5.99648
  Beta  occ. eigenvalues --   -5.99349  -1.39762  -1.19212  -1.09358  -1.08484
  Beta  occ. eigenvalues --   -0.99358  -0.92603  -0.92057  -0.83712  -0.82709
  Beta  occ. eigenvalues --   -0.74924  -0.74111  -0.71035  -0.66874  -0.66168
  Beta  occ. eigenvalues --   -0.62814  -0.62674  -0.60049  -0.59299  -0.58241
  Beta  occ. eigenvalues --   -0.55751  -0.53599  -0.52681  -0.51967  -0.47232
  Beta  occ. eigenvalues --   -0.45623  -0.45070  -0.42373  -0.38863  -0.36584
  Beta  occ. eigenvalues --   -0.33495
  Beta virt. eigenvalues --    0.01412   0.05297   0.09696   0.14464   0.17058
  Beta virt. eigenvalues --    0.17081   0.17862   0.20489   0.21486   0.23123
  Beta virt. eigenvalues --    0.24200   0.26020   0.29294   0.32785   0.33757
  Beta virt. eigenvalues --    0.35379   0.39285   0.42596   0.44589   0.45440
  Beta virt. eigenvalues --    0.45813   0.50024   0.53979   0.55745   0.56042
  Beta virt. eigenvalues --    0.57213   0.58262   0.58691   0.59265   0.60133
  Beta virt. eigenvalues --    0.61087   0.62531   0.62586   0.64007   0.64078
  Beta virt. eigenvalues --    0.65106   0.65787   0.66634   0.67533   0.68605
  Beta virt. eigenvalues --    0.69915   0.71754   0.73379   0.73627   0.76779
  Beta virt. eigenvalues --    0.77538   0.79557   0.80684   0.81554   0.82229
  Beta virt. eigenvalues --    0.83281   0.84885   0.87433   0.87702   0.93159
  Beta virt. eigenvalues --    0.95800   0.97722   0.98769   1.00276   1.00827
  Beta virt. eigenvalues --    1.03214   1.05228   1.06374   1.07321   1.09053
  Beta virt. eigenvalues --    1.09689   1.11538   1.11813   1.15833   1.16031
  Beta virt. eigenvalues --    1.17193   1.18222   1.18607   1.20825   1.21936
  Beta virt. eigenvalues --    1.25477   1.29007   1.29634   1.32278   1.33996
  Beta virt. eigenvalues --    1.37857   1.41520   1.42502   1.44864   1.46683
  Beta virt. eigenvalues --    1.48257   1.51662   1.53706   1.56414   1.59006
  Beta virt. eigenvalues --    1.61176   1.63877   1.65255   1.67220   1.68762
  Beta virt. eigenvalues --    1.69741   1.72222   1.73499   1.76880   1.77797
  Beta virt. eigenvalues --    1.78084   1.79117   1.81374   1.83754   1.85751
  Beta virt. eigenvalues --    1.86730   1.88402   1.91022   1.92669   1.93076
  Beta virt. eigenvalues --    1.95277   1.95383   1.99488   2.04450   2.05365
  Beta virt. eigenvalues --    2.07987   2.11237   2.12712   2.13275   2.17266
  Beta virt. eigenvalues --    2.20928   2.21599   2.23558   2.26133   2.32028
  Beta virt. eigenvalues --    2.33491   2.35577   2.40502   2.48822   2.49923
  Beta virt. eigenvalues --    2.52076   2.60048   2.60966   2.64084   2.64772
  Beta virt. eigenvalues --    2.69080   2.70777   2.74949   2.76607   2.86884
  Beta virt. eigenvalues --    2.91580   3.01795   3.08906   3.15013   3.20315
  Beta virt. eigenvalues --    3.50022   3.71766   3.74305   3.93436   4.13119
  Beta virt. eigenvalues --    4.31813
          Condensed to atoms (all electrons):
               1          2          3          4          5          6
     1  C    4.915423   0.508903  -0.040818  -0.035102  -0.031883   0.472516
     2  C    0.508903   4.567566   0.574470  -0.102885  -0.029559  -0.043240
     3  N   -0.040818   0.574470   6.282224   0.566670  -0.062674  -0.025249
     4  C   -0.035102  -0.102885   0.566670   4.706269   0.547994  -0.102148
     5  N   -0.031883  -0.029559  -0.062674   0.547994   6.319970   0.578696
     6  C    0.472516  -0.043240  -0.025249  -0.102148   0.578696   4.636396
     7  C    0.002314   0.000901  -0.074390   0.269926  -0.082106   0.002032
     8  C    0.000012  -0.000172   0.002791  -0.058756   0.007057   0.000722
     9  F   -0.000012   0.000001   0.000022  -0.002314  -0.001335  -0.000012
    10  C   -0.000001   0.000005  -0.000038   0.007902   0.000339   0.000030
    11  C    0.000001   0.000013   0.000527   0.002807  -0.000009   0.000000
    12  S    0.000071   0.000452   0.012335  -0.053564   0.002311  -0.000241
    13  H    0.417672  -0.032595   0.003954   0.001488   0.003678  -0.035434
    14  H   -0.058127   0.419831  -0.022592   0.000383  -0.000572   0.006668
    15  H   -0.062174   0.005750  -0.000661   0.004165  -0.029585   0.418725
    16  H    0.000000  -0.000000   0.000001  -0.000112   0.000009   0.000000
    17  H    0.000000   0.000000   0.000004  -0.000192   0.000001  -0.000000
               7          8          9         10         11         12
     1  C    0.002314   0.000012  -0.000012  -0.000001   0.000001   0.000071
     2  C    0.000901  -0.000172   0.000001   0.000005   0.000013   0.000452
     3  N   -0.074390   0.002791   0.000022  -0.000038   0.000527   0.012335
     4  C    0.269926  -0.058756  -0.002314   0.007902   0.002807  -0.053564
     5  N   -0.082106   0.007057  -0.001335   0.000339  -0.000009   0.002311
     6  C    0.002032   0.000722  -0.000012   0.000030   0.000000  -0.000241
     7  C    5.733664   0.337464  -0.073741  -0.091558  -0.085442   0.327288
     8  C    0.337464   4.742103   0.458683   0.465146  -0.030624  -0.061101
     9  F   -0.073741   0.458683   8.773505  -0.050190   0.002795   0.002605
    10  C   -0.091558   0.465146  -0.050190   4.849765   0.518621  -0.096369
    11  C   -0.085442  -0.030624   0.002795   0.518621   4.940167   0.391084
    12  S    0.327288  -0.061101   0.002605  -0.096369   0.391084  15.271276
    13  H    0.000114  -0.000002  -0.000000  -0.000000  -0.000000  -0.000003
    14  H   -0.000586   0.000014  -0.000000   0.000000  -0.000001  -0.000069
    15  H   -0.000645  -0.000075   0.000059  -0.000000  -0.000000   0.000011
    16  H    0.009616  -0.029071   0.000586   0.411195  -0.041024   0.005188
    17  H    0.001744   0.005591  -0.000031  -0.017345   0.411691  -0.037497
              13         14         15         16         17
     1  C    0.417672  -0.058127  -0.062174   0.000000   0.000000
     2  C   -0.032595   0.419831   0.005750  -0.000000   0.000000
     3  N    0.003954  -0.022592  -0.000661   0.000001   0.000004
     4  C    0.001488   0.000383   0.004165  -0.000112  -0.000192
     5  N    0.003678  -0.000572  -0.029585   0.000009   0.000001
     6  C   -0.035434   0.006668   0.418725   0.000000  -0.000000
     7  C    0.000114  -0.000586  -0.000645   0.009616   0.001744
     8  C   -0.000002   0.000014  -0.000075  -0.029071   0.005591
     9  F   -0.000000  -0.000000   0.000059   0.000586  -0.000031
    10  C   -0.000000   0.000000  -0.000000   0.411195  -0.017345
    11  C   -0.000000  -0.000001  -0.000000  -0.041024   0.411691
    12  S   -0.000003  -0.000069   0.000011   0.005188  -0.037497
    13  H    0.646930  -0.008306  -0.006734  -0.000000  -0.000000
    14  H   -0.008306   0.632538  -0.000161   0.000000  -0.000000
    15  H   -0.006734  -0.000161   0.625706  -0.000000   0.000000
    16  H   -0.000000   0.000000  -0.000000   0.624900  -0.006966
    17  H   -0.000000  -0.000000   0.000000  -0.006966   0.596495
          Atomic-Atomic Spin Densities.
               1          2          3          4          5          6
     1  C   -0.000000  -0.000000  -0.000000   0.000000   0.000000   0.000000
     2  C   -0.000000   0.000000  -0.000000  -0.000000  -0.000000   0.000000
     3  N   -0.000000  -0.000000  -0.000000   0.000000  -0.000000  -0.000000
     4  C    0.000000  -0.000000   0.000000  -0.000000   0.000000  -0.000000
     5  N    0.000000  -0.000000  -0.000000   0.000000  -0.000000   0.000000
     6  C    0.000000   0.000000  -0.000000  -0.000000   0.000000   0.000000
     7  C    0.000000  -0.000000  -0.000000   0.000000  -0.000000  -0.000000
     8  C   -0.000000  -0.000000   0.000000   0.000000   0.000000  -0.000000
     9  F    0.000000  -0.000000  -0.000000  -0.000000   0.000000   0.000000
    10  C   -0.000000   0.000000  -0.000000   0.000000   0.000000   0.000000
    11  C    0.000000  -0.000000   0.000000  -0.000000  -0.000000  -0.000000
    12  S   -0.000000  -0.000000  -0.000000   0.000000   0.000000   0.000000
    13  H    0.000000  -0.000000   0.000000   0.000000   0.000000  -0.000000
    14  H   -0.000000   0.000000   0.000000  -0.000000   0.000000   0.000000
    15  H    0.000000   0.000000  -0.000000  -0.000000   0.000000   0.000000
    16  H   -0.000000   0.000000   0.000000   0.000000  -0.000000  -0.000000
    17  H   -0.000000  -0.000000  -0.000000   0.000000   0.000000   0.000000
               7          8          9         10         11         12
     1  C    0.000000  -0.000000   0.000000  -0.000000   0.000000  -0.000000
     2  C   -0.000000  -0.000000  -0.000000   0.000000  -0.000000  -0.000000
     3  N   -0.000000   0.000000  -0.000000  -0.000000   0.000000  -0.000000
     4  C    0.000000   0.000000  -0.000000   0.000000  -0.000000   0.000000
     5  N   -0.000000   0.000000   0.000000   0.000000  -0.000000   0.000000
     6  C   -0.000000  -0.000000   0.000000   0.000000  -0.000000   0.000000
     7  C   -0.000000  -0.000000   0.000000   0.000000  -0.000000   0.000000
     8  C   -0.000000   0.000000   0.000000  -0.000000   0.000000  -0.000000
     9  F    0.000000   0.000000  -0.000000  -0.000000  -0.000000   0.000000
    10  C    0.000000  -0.000000  -0.000000   0.000000   0.000000   0.000000
    11  C   -0.000000   0.000000  -0.000000   0.000000   0.000000  -0.000000
    12  S    0.000000  -0.000000   0.000000   0.000000  -0.000000   0.000000
    13  H    0.000000  -0.000000  -0.000000   0.000000  -0.000000  -0.000000
    14  H    0.000000   0.000000  -0.000000  -0.000000   0.000000  -0.000000
    15  H    0.000000   0.000000  -0.000000   0.000000   0.000000   0.000000
    16  H   -0.000000  -0.000000   0.000000  -0.000000   0.000000  -0.000000
    17  H    0.000000  -0.000000  -0.000000  -0.000000   0.000000   0.000000
              13         14         15         16         17
     1  C    0.000000  -0.000000   0.000000  -0.000000  -0.000000
     2  C   -0.000000   0.000000   0.000000   0.000000  -0.000000
     3  N    0.000000   0.000000  -0.000000   0.000000  -0.000000
     4  C    0.000000  -0.000000  -0.000000   0.000000   0.000000
     5  N    0.000000   0.000000   0.000000  -0.000000   0.000000
     6  C   -0.000000   0.000000   0.000000  -0.000000   0.000000
     7  C    0.000000   0.000000   0.000000  -0.000000   0.000000
     8  C   -0.000000   0.000000   0.000000  -0.000000  -0.000000
     9  F   -0.000000  -0.000000  -0.000000   0.000000  -0.000000
    10  C    0.000000  -0.000000   0.000000  -0.000000  -0.000000
    11  C   -0.000000   0.000000   0.000000   0.000000   0.000000
    12  S   -0.000000  -0.000000   0.000000  -0.000000   0.000000
    13  H    0.000000  -0.000000  -0.000000   0.000000  -0.000000
    14  H   -0.000000   0.000000   0.000000  -0.000000   0.000000
    15  H   -0.000000   0.000000  -0.000000  -0.000000   0.000000
    16  H    0.000000  -0.000000  -0.000000   0.000000   0.000000
    17  H   -0.000000   0.000000   0.000000   0.000000   0.000000
 Mulliken charges and spin densities:
               1          2
     1  C   -0.088794  -0.000000
     2  C    0.130559  -0.000000
     3  N   -0.216576  -0.000000
     4  C    0.247467   0.000000
     5  N   -0.222332  -0.000000
     6  C    0.090539   0.000000
     7  C   -0.276596  -0.000000
     8  C    0.160219   0.000000
     9  F   -0.110620  -0.000000
    10  C    0.002500   0.000000
    11  C   -0.110606   0.000000
    12  S    0.236223  -0.000000
    13  H    0.009239   0.000000
    14  H    0.030979   0.000000
    15  H    0.045620   0.000000
    16  H    0.025677   0.000000
    17  H    0.046504   0.000000
 Sum of Mulliken charges =  -0.00000   0.00000
 Mulliken charges and spin densities with hydrogens summed into heavy atoms:
               1          2
     1  C   -0.079555  -0.000000
     2  C    0.161538   0.000000
     3  N   -0.216576  -0.000000
     4  C    0.247467   0.000000
     5  N   -0.222332  -0.000000
     6  C    0.136159   0.000000
     7  C   -0.276596  -0.000000
     8  C    0.160219   0.000000
     9  F   -0.110620  -0.000000
    10  C    0.028177   0.000000
    11  C   -0.064102   0.000000
    12  S    0.236223  -0.000000
 Electronic spatial extent (au):  <R**2>=           2262.1651
 Charge=             -0.0000 electrons
 Dipole moment (field-independent basis, Debye):
    X=              0.6725    Y=             -0.9167    Z=             -0.2002  Tot=              1.1544
 Quadrupole moment (field-independent basis, Debye-Ang):
   XX=            -50.1581   YY=            -75.6074   ZZ=            -76.3221
   XY=              0.3920   XZ=              0.4943   YZ=              0.0275
 Traceless Quadrupole moment (field-independent basis, Debye-Ang):
   XX=             17.2044   YY=             -8.2449   ZZ=             -8.9595
   XY=              0.3920   XZ=              0.4943   YZ=              0.0275
 Octapole moment (field-independent basis, Debye-Ang**2):
  XXX=              6.4448  YYY=              8.9285  ZZZ=             -0.3425  XYY=              0.8361
  XXY=             -2.1611  XXZ=             -0.4473  XZZ=             -0.7390  YZZ=              5.6988
  YYZ=             -0.4409  XYZ=              0.0994
 Hexadecapole moment (field-independent basis, Debye-Ang**3):
 XXXX=          -1815.5363 YYYY=           -691.6121 ZZZZ=            -79.9369 XXXY=            -12.6382
 XXXZ=             10.2582 YYYX=             -8.4477 YYYZ=             -0.2675 ZZZX=              1.7120
 ZZZY=             -0.5567 XXYY=           -414.7304 XXZZ=           -416.1966 YYZZ=           -129.6804
 XXYZ=             -0.5274 YYXZ=              0.9011 ZZXY=             -5.9077
 N-N= 7.368596584556D+02 E-N=-3.627314914241D+03  KE= 9.107348622513D+02
                          Isotropic Fermi Contact Couplings
        Atom                 a.u.       MegaHertz       Gauss      10(-4) cm-1
     1  C(13)              0.00000       0.00000       0.00000       0.00000
     2  C(13)              0.00000       0.00000       0.00000       0.00000
     3  N(14)              0.00000       0.00000       0.00000       0.00000
     4  C(13)             -0.00000      -0.00000      -0.00000      -0.00000
     5  N(14)              0.00000       0.00000       0.00000       0.00000
     6  C(13)              0.00000       0.00000       0.00000       0.00000
     7  C(13)              0.00000       0.00000       0.00000       0.00000
     8  C(13)              0.00000       0.00000       0.00000       0.00000
     9  F(19)              0.00000       0.00000       0.00000       0.00000
    10  C(13)             -0.00000      -0.00000      -0.00000      -0.00000
    11  C(13)              0.00000       0.00000       0.00000       0.00000
    12  S(33)              0.00000       0.00000       0.00000       0.00000
    13  H(1)              -0.00000      -0.00000      -0.00000      -0.00000
    14  H(1)               0.00000       0.00000       0.00000       0.00000
    15  H(1)               0.00000       0.00000       0.00000       0.00000
    16  H(1)               0.00000       0.00000       0.00000       0.00000
    17  H(1)               0.00000       0.00000       0.00000       0.00000
 --------------------------------------------------------
       Center         ----  Spin Dipole Couplings  ----
                      3XX-RR        3YY-RR        3ZZ-RR
 --------------------------------------------------------
     1   Atom        0.000000     -0.000000     -0.000000
     2   Atom        0.000000     -0.000000     -0.000000
     3   Atom       -0.000000      0.000000      0.000000
     4   Atom       -0.000000      0.000000     -0.000000
     5   Atom       -0.000000      0.000000      0.000000
     6   Atom       -0.000000      0.000000     -0.000000
     7   Atom       -0.000000      0.000000     -0.000000
     8   Atom       -0.000000      0.000000      0.000000
     9   Atom       -0.000000      0.000000     -0.000000
    10   Atom       -0.000000     -0.000000      0.000000
    11   Atom       -0.000000     -0.000000      0.000000
    12   Atom        0.000000     -0.000000      0.000000
    13   Atom        0.000000     -0.000000     -0.000000
    14   Atom       -0.000000     -0.000000      0.000000
    15   Atom       -0.000000      0.000000     -0.000000
    16   Atom       -0.000000      0.000000      0.000000
    17   Atom       -0.000000      0.000000      0.000000
 --------------------------------------------------------
                        XY            XZ            YZ
 --------------------------------------------------------
     1   Atom       -0.000000      0.000000      0.000000
     2   Atom        0.000000     -0.000000     -0.000000
     3   Atom        0.000000      0.000000     -0.000000
     4   Atom       -0.000000     -0.000000      0.000000
     5   Atom        0.000000      0.000000     -0.000000
     6   Atom        0.000000      0.000000      0.000000
     7   Atom        0.000000      0.000000     -0.000000
     8   Atom       -0.000000      0.000000      0.000000
     9   Atom        0.000000     -0.000000     -0.000000
    10   Atom        0.000000     -0.000000     -0.000000
    11   Atom       -0.000000      0.000000     -0.000000
    12   Atom        0.000000      0.000000     -0.000000
    13   Atom       -0.000000      0.000000      0.000000
    14   Atom        0.000000     -0.000000      0.000000
    15   Atom       -0.000000      0.000000     -0.000000
    16   Atom        0.000000     -0.000000      0.000000
    17   Atom       -0.000000     -0.000000      0.000000
 --------------------------------------------------------


 ---------------------------------------------------------------------------------
              Anisotropic Spin Dipole Couplings in Principal Axis System
 ---------------------------------------------------------------------------------

       Atom             a.u.   MegaHertz   Gauss  10(-4) cm-1        Axes

              Baa    -0.0000    -0.000    -0.000    -0.000 -0.1501 -0.1754  0.9730
     1 C(13)  Bbb    -0.0000    -0.000    -0.000    -0.000  0.3353  0.9168  0.2170
              Bcc     0.0000     0.000     0.000     0.000  0.9301 -0.3588  0.0788
 
              Baa    -0.0000    -0.000    -0.000    -0.000 -0.0314  0.9804  0.1945
     2 C(13)  Bbb    -0.0000    -0.000    -0.000    -0.000  0.0194 -0.1939  0.9808
              Bcc     0.0000     0.000     0.000     0.000  0.9993  0.0346 -0.0129
 
              Baa    -0.0000    -0.000    -0.000    -0.000  0.9581 -0.1646 -0.2344
     3 N(14)  Bbb     0.0000     0.000     0.000     0.000  0.2487  0.0725  0.9659
              Bcc     0.0000     0.000     0.000     0.000  0.1420  0.9837 -0.1104
 
              Baa    -0.0000    -0.000    -0.000    -0.000 -0.0090 -0.0861  0.9962
     4 C(13)  Bbb    -0.0000    -0.000    -0.000    -0.000  0.9975  0.0685  0.0149
              Bcc     0.0000     0.000     0.000     0.000 -0.0695  0.9939  0.0853
 
              Baa    -0.0000    -0.000    -0.000    -0.000  0.9151 -0.3985 -0.0622
     5 N(14)  Bbb     0.0000     0.000     0.000     0.000  0.0232 -0.1019  0.9945
              Bcc     0.0000     0.000     0.000     0.000  0.4026  0.9115  0.0840
 
              Baa    -0.0000    -0.000    -0.000    -0.000  0.9428 -0.3126 -0.1162
     6 C(13)  Bbb    -0.0000    -0.000    -0.000    -0.000  0.0846 -0.1127  0.9900
              Bcc     0.0000     0.000     0.000     0.000  0.3225  0.9432  0.0798
 
              Baa    -0.0000    -0.000    -0.000    -0.000  0.9501 -0.0872 -0.2995
     7 C(13)  Bbb    -0.0000    -0.000    -0.000    -0.000  0.3064  0.0799  0.9486
              Bcc     0.0000     0.000     0.000     0.000  0.0588  0.9930 -0.1027
 
              Baa    -0.0000    -0.000    -0.000    -0.000  0.9545  0.2980 -0.0109
     8 C(13)  Bbb     0.0000     0.000     0.000     0.000  0.0107  0.0023  0.9999
              Bcc     0.0000     0.000     0.000     0.000 -0.2980  0.9546  0.0010
 
              Baa    -0.0000    -0.000    -0.000    -0.000  0.8975 -0.4253  0.1167
     9 F(19)  Bbb    -0.0000    -0.000    -0.000    -0.000 -0.0887  0.0853  0.9924
              Bcc     0.0000     0.000     0.000     0.000  0.4320  0.9010 -0.0388
 
              Baa    -0.0000    -0.000    -0.000    -0.000  0.9537 -0.2976  0.0430
    10 C(13)  Bbb    -0.0000    -0.000    -0.000    -0.000  0.2941  0.9531  0.0719
              Bcc     0.0000     0.000     0.000     0.000 -0.0623 -0.0559  0.9965
 
              Baa    -0.0000    -0.000    -0.000    -0.000  0.9438  0.3270 -0.0473
    11 C(13)  Bbb     0.0000     0.000     0.000     0.000 -0.3203  0.9407  0.1119
              Bcc     0.0000     0.000     0.000     0.000  0.0811 -0.0904  0.9926
 
              Baa    -0.0000    -0.000    -0.000    -0.000 -0.5766  0.8169  0.0120
    12 S(33)  Bbb     0.0000     0.000     0.000     0.000  0.0131 -0.0055  0.9999
              Bcc     0.0000     0.000     0.000     0.000  0.8169  0.5767 -0.0075
 
              Baa    -0.0000    -0.000    -0.000    -0.000  0.0977  0.9870 -0.1276
    13 H(1)   Bbb    -0.0000    -0.000    -0.000    -0.000 -0.0287  0.1309  0.9910
              Bcc     0.0000     0.000     0.000     0.000  0.9948 -0.0932  0.0412
 
              Baa    -0.0000    -0.000    -0.000    -0.000  0.7378 -0.6745  0.0256
    14 H(1)   Bbb     0.0000     0.000     0.000     0.000  0.0394  0.0809  0.9959
              Bcc     0.0000     0.000     0.000     0.000  0.6739  0.7338 -0.0863
 
              Baa    -0.0000    -0.000    -0.000    -0.000  0.8728  0.4876  0.0230
    15 H(1)   Bbb    -0.0000    -0.000    -0.000    -0.000 -0.0781  0.0929  0.9926
              Bcc     0.0000     0.000     0.000     0.000 -0.4818  0.8681 -0.1192
 
              Baa    -0.0000    -0.000    -0.000    -0.000  0.8626 -0.5051  0.0290
    16 H(1)   Bbb     0.0000     0.000     0.000     0.000 -0.2512 -0.3779  0.8911
              Bcc     0.0000     0.000     0.000     0.000  0.4391  0.7759  0.4529
 
              Baa    -0.0000    -0.000    -0.000    -0.000  0.9541  0.2990  0.0158
    17 H(1)   Bbb     0.0000     0.000     0.000     0.000 -0.2968  0.9516 -0.0801
              Bcc     0.0000     0.000     0.000     0.000 -0.0390  0.0717  0.9967
 

 ---------------------------------------------------------------------------------

 No NMR shielding tensors so no spin-rotation constants.
 Leave Link  601 at Fri Jul 24 12:12:42 2020, MaxMem=  4026531840 cpu:               1.8 elap:               0.3
 (Enter /opt/ohpc/pub/libs/gaussian/g16-A.03/sandybridge/g16/l701.exe)
 ... and contract with generalized density number  0.
 Compute integral first derivatives.
 Leave Link  701 at Fri Jul 24 12:12:42 2020, MaxMem=  4026531840 cpu:               1.0 elap:               0.1
 (Enter /opt/ohpc/pub/libs/gaussian/g16-A.03/sandybridge/g16/l702.exe)
 L702 exits ... SP integral derivatives will be done elsewhere.
 Leave Link  702 at Fri Jul 24 12:12:43 2020, MaxMem=  4026531840 cpu:               0.2 elap:               0.1
 (Enter /opt/ohpc/pub/libs/gaussian/g16-A.03/sandybridge/g16/l703.exe)
 Integral derivatives from FoFJK, PRISM(SPDF).
 Compute integral first derivatives, UseDBF=F ICtDFT=           0.
 Calling FoFJK, ICntrl=      2127 FMM=F ISym2X=0 I1Cent= 0 IOpClX= 1 NMat=1 NMatS=1 NMatT=0.
 FoFJK:  IHMeth= 1 ICntrl=    2127 DoSepK=T KAlg= 0 I1Cent=           0 FoldK=F
 IRaf=         1 NMat=       1 IRICut=       1 DoRegI=T DoRafI=F ISym2E= 0 IDoP0=0 IntGTp=1.
 FoFCou: FMM=F IPFlag=           0 FMFlag=      100000 FMFlg1=         800
         NFxFlg=           0 DoJE=F BraDBF=F KetDBF=F FulRan=T
         wScrn=  0.000000 ICntrl=      2527 IOpCl=  0 I1Cent=           0 NGrid=           0
         NMat0=    1 NMatS0=      1 NMatT0=    0 NMatD0=    1 NMtDS0=    0 NMtDT0=    0
 Symmetry not used in FoFCou.
 Leave Link  703 at Fri Jul 24 12:12:52 2020, MaxMem=  4026531840 cpu:              76.8 elap:               9.6
 (Enter /opt/ohpc/pub/libs/gaussian/g16-A.03/sandybridge/g16/l716.exe)
 Dipole        = 2.64595563D-01-3.60646945D-01-7.87585163D-02
 ***** Axes restored to original set *****
 -------------------------------------------------------------------
 Center     Atomic                   Forces (Hartrees/Bohr)
 Number     Number              X              Y              Z
 -------------------------------------------------------------------
      1        6           0.101173788   -0.013050375   -0.005058866
      2        6          -0.041940632    0.042339381   -0.008296498
      3        7           0.010541227    0.006931258    0.015073259
      4        6           0.010085730    0.042614168   -0.026078228
      5        7           0.012948479   -0.058038281    0.008723809
      6        6          -0.024823694    0.026677909    0.013750703
      7        6           0.042731865   -0.012452124    0.013078386
      8        6          -0.029458398   -0.011583970   -0.014320568
      9        9           0.010454468    0.003471002    0.003104992
     10        6          -0.032276539   -0.055974810    0.006564480
     11        6          -0.007878858    0.074530211    0.003262940
     12       16          -0.041998686   -0.005726531   -0.002847085
     13        1          -0.046408620   -0.000715055    0.001471547
     14        1          -0.001491472   -0.024783884    0.000983272
     15        1          -0.005792350   -0.012524812   -0.006618974
     16        1           0.016676080    0.017318007   -0.001255257
     17        1           0.027457610   -0.019032095   -0.001537912
 -------------------------------------------------------------------
 Cartesian Forces:  Max     0.101173788 RMS     0.028701478
 Leave Link  716 at Fri Jul 24 12:12:52 2020, MaxMem=  4026531840 cpu:               0.2 elap:               0.0
 (Enter /opt/ohpc/pub/libs/gaussian/g16-A.03/sandybridge/g16/l103.exe)

 GradGradGradGradGradGradGradGradGradGradGradGradGradGradGradGradGradGrad
 Berny optimization.
 FormGI is forming the generalized inverse of G from B-inverse, IUseBI=4.
 GSVD:  received Info=                   1 from GESDD.
 Internal  Forces:  Max     0.046283350 RMS     0.013473550
 Search for a local minimum.
 Step number   1 out of a maximum of   91
 All quantities printed in internal units (Hartrees-Bohrs-Radians)
 RMS Force = .13474D-01 SwitMx=.10000D-02 MixMth= 1
 Mixed Optimization -- RFO/linear search
 Second derivative matrix not updated -- first step.
 ITU=  0
     Eigenvalues ---    0.01115   0.01493   0.01698   0.01880   0.01920
     Eigenvalues ---    0.01931   0.01989   0.02024   0.02069   0.02160
     Eigenvalues ---    0.02187   0.02268   0.02391   0.02631   0.15845
     Eigenvalues ---    0.15853   0.15953   0.15955   0.15966   0.22088
     Eigenvalues ---    0.22561   0.23114   0.24697   0.24744   0.24855
     Eigenvalues ---    0.24866   0.24917   0.28873   0.32772   0.35313
     Eigenvalues ---    0.38068   0.39393   0.40039   0.40222   0.40607
     Eigenvalues ---    0.41643   0.42858   0.43558   0.43827   0.44745
     Eigenvalues ---    0.48263   0.57575   0.60452   0.60823   0.63640
 RFO step:  Lambda=-4.06880835D-02 EMin= 1.11515926D-02
 Linear search not attempted -- first point.
 Maximum step size (   0.300) exceeded in Quadratic search.
    -- Step size scaled by   0.945
 Iteration  1 RMS(Cart)=  0.04984550 RMS(Int)=  0.00190425
 Iteration  2 RMS(Cart)=  0.00238277 RMS(Int)=  0.00083997
 Iteration  3 RMS(Cart)=  0.00000349 RMS(Int)=  0.00083997
 Iteration  4 RMS(Cart)=  0.00000001 RMS(Int)=  0.00083997
 ITry= 1 IFail=0 DXMaxC= 1.49D-01 DCOld= 1.00D+10 DXMaxT= 3.00D-01 DXLimC= 3.00D+00 Rises=F
 Variable       Old X    -DE/DX   Delta X   Delta X   Delta X     New X
                                 (Linear)    (Quad)   (Total)
    R1        2.69295  -0.03526   0.00000  -0.07271  -0.07267   2.62027
    R2        2.64830  -0.01633   0.00000  -0.03127  -0.03092   2.61738
    R3        1.94545   0.04628   0.00000   0.09323   0.09323   2.03868
    R4        2.47792   0.00909   0.00000   0.01269   0.01241   2.49033
    R5        2.00967   0.02206   0.00000   0.04950   0.04950   2.05916
    R6        2.50829  -0.00582   0.00000  -0.00853  -0.00885   2.49944
    R7        2.60275  -0.03609   0.00000  -0.06364  -0.06372   2.53904
    R8        2.78470  -0.01486   0.00000  -0.03568  -0.03568   2.74903
    R9        2.48661   0.00863   0.00000   0.01206   0.01235   2.49896
   R10        2.09453  -0.00937   0.00000  -0.02405  -0.02405   2.07048
   R11        2.65089  -0.02892   0.00000  -0.05743  -0.05721   2.59368
   R12        3.32927  -0.02303   0.00000  -0.06230  -0.06212   3.26715
   R13        2.50295  -0.00026   0.00000  -0.00038  -0.00038   2.50257
   R14        2.67874  -0.01406   0.00000  -0.03157  -0.03157   2.64718
   R15        2.65871  -0.03756   0.00000  -0.07359  -0.07383   2.58488
   R16        1.99086   0.02377   0.00000   0.05169   0.05169   2.04255
   R17        3.10885   0.02460   0.00000   0.05174   0.05157   3.16042
   R18        1.97437   0.03315   0.00000   0.07015   0.07015   2.04452
    A1        1.94365   0.01482   0.00000   0.05562   0.05582   1.99947
    A2        2.16417  -0.00763   0.00000  -0.02756  -0.02804   2.13612
    A3        2.16907  -0.00692   0.00000  -0.02388  -0.02427   2.14480
    A4        2.17832  -0.00783   0.00000  -0.02607  -0.02676   2.15157
    A5        2.00470   0.01538   0.00000   0.06871   0.06840   2.07310
    A6        2.09658  -0.00726   0.00000  -0.03819  -0.03859   2.05799
    A7        2.02003   0.00417   0.00000   0.01591   0.01514   2.03517
    A8        2.22105  -0.00687   0.00000  -0.01738  -0.01981   2.20125
    A9        2.06430  -0.00806   0.00000  -0.02261  -0.02438   2.03992
   A10        1.98698   0.01597   0.00000   0.05588   0.05422   2.04120
   A11        1.96495   0.01377   0.00000   0.04534   0.04563   2.01058
   A12        2.22653  -0.01719   0.00000  -0.06068  -0.06078   2.16575
   A13        2.13391  -0.00172   0.00000  -0.01612  -0.01708   2.11684
   A14        1.91745   0.01930   0.00000   0.08328   0.08240   1.99985
   A15        2.32743  -0.00872   0.00000  -0.02714  -0.02744   2.29999
   A16        2.11426  -0.00849   0.00000  -0.02642  -0.02675   2.08751
   A17        1.83811   0.01734   0.00000   0.05581   0.05608   1.89418
   A18        2.07836   0.01735   0.00000   0.06192   0.06152   2.13988
   A19        2.04629  -0.00715   0.00000  -0.03083  -0.03100   2.01528
   A20        2.15508  -0.00997   0.00000  -0.02723  -0.02771   2.12736
   A21        1.89620   0.00758   0.00000   0.02043   0.01994   1.91614
   A22        2.20453  -0.00611   0.00000  -0.01991  -0.02005   2.18448
   A23        2.17647  -0.00119   0.00000   0.00360   0.00352   2.17999
   A24        1.98344   0.00010   0.00000   0.00347   0.00284   1.98628
   A25        2.16510   0.00326   0.00000   0.01495   0.01494   2.18004
   A26        2.13129  -0.00318   0.00000  -0.01543  -0.01546   2.11583
   A27        1.65755  -0.01765   0.00000  -0.04521  -0.04524   1.61231
    D1        0.00473   0.00074   0.00000   0.00460   0.00380   0.00853
    D2       -3.04559  -0.00269   0.00000  -0.05030  -0.05180  -3.09740
    D3        3.03023   0.00289   0.00000   0.04193   0.04179   3.07202
    D4       -0.02009  -0.00054   0.00000  -0.01297  -0.01382  -0.03390
    D5       -0.07761   0.00279   0.00000   0.03955   0.03880  -0.03881
    D6       -3.09733  -0.00309   0.00000  -0.04040  -0.03917  -3.13650
    D7       -3.10272   0.00068   0.00000   0.00236   0.00086  -3.10186
    D8        0.16073  -0.00520   0.00000  -0.07758  -0.07710   0.08363
    D9        0.10758  -0.00401   0.00000  -0.06153  -0.06147   0.04611
   D10       -3.12977   0.00067   0.00000   0.00128  -0.00109  -3.13086
   D11       -0.17523   0.00680   0.00000   0.09582   0.09454  -0.08069
   D12        3.13460  -0.00268   0.00000  -0.03166  -0.02893   3.10567
   D13        0.11047  -0.00447   0.00000  -0.05950  -0.05789   0.05258
   D14        3.09014   0.00279   0.00000   0.05709   0.05925  -3.13380
   D15        3.13733   0.00191   0.00000   0.03536   0.03605  -3.10980
   D16       -0.10675   0.00465   0.00000   0.07235   0.07236  -0.03439
   D17        0.14197  -0.00450   0.00000  -0.06960  -0.06962   0.07235
   D18       -3.10212  -0.00176   0.00000  -0.03261  -0.03331  -3.13542
   D19        0.02724  -0.00158   0.00000  -0.01695  -0.01602   0.01123
   D20        3.05932   0.00281   0.00000   0.05039   0.05224   3.11157
   D21       -0.09573   0.00133   0.00000   0.03018   0.03118  -0.06455
   D22        3.13204  -0.00098   0.00000  -0.01631  -0.01651   3.11553
   D23        3.13679  -0.00020   0.00000   0.00024   0.00094   3.13773
   D24        0.08137  -0.00251   0.00000  -0.04625  -0.04675   0.03462
   D25       -3.12173   0.00072   0.00000   0.00889   0.00894  -3.11279
   D26       -0.05735   0.00178   0.00000   0.03354   0.03411  -0.02323
   D27       -0.06816   0.00259   0.00000   0.03878   0.03817  -0.02999
   D28       -3.09625  -0.00007   0.00000  -0.00083  -0.00125  -3.09751
   D29       -3.11945  -0.00130   0.00000  -0.01471  -0.01395  -3.13340
   D30        0.13564  -0.00396   0.00000  -0.05431  -0.05337   0.08227
   D31        0.01866  -0.00064   0.00000  -0.00782  -0.00792   0.01074
   D32       -3.03642  -0.00282   0.00000  -0.04531  -0.04569  -3.08211
   D33        3.04902   0.00157   0.00000   0.02907   0.02948   3.07849
   D34       -0.00607  -0.00062   0.00000  -0.00841  -0.00829  -0.01436
   D35        0.02341  -0.00099   0.00000  -0.01635  -0.01616   0.00725
   D36        3.08038   0.00151   0.00000   0.02199   0.02172   3.10210
         Item               Value     Threshold  Converged?
 Maximum Force            0.046283     0.000450     NO 
 RMS     Force            0.013474     0.000300     NO 
 Maximum Displacement     0.149147     0.001800     NO 
 RMS     Displacement     0.050001     0.001200     NO 
 Predicted change in Energy=-2.336347D-02
 Lowest energy point so far.  Saving SCF results.
 GradGradGradGradGradGradGradGradGradGradGradGradGradGradGradGradGradGrad

 Leave Link  103 at Fri Jul 24 12:12:52 2020, MaxMem=  4026531840 cpu:               0.3 elap:               0.1
 (Enter /opt/ohpc/pub/libs/gaussian/g16-A.03/sandybridge/g16/l202.exe)
                          Input orientation:                          
 ---------------------------------------------------------------------
 Center     Atomic      Atomic             Coordinates (Angstroms)
 Number     Number       Type             X           Y           Z
 ---------------------------------------------------------------------
      1          6           0       -3.501813   -0.091518    0.024598
      2          6           0       -2.722345   -1.237841   -0.007080
      3          7           0       -1.405875   -1.215741   -0.062578
      4          6           0       -0.831668   -0.024595   -0.033429
      5          7           0       -1.464967    1.160374   -0.040383
      6          6           0       -2.785451    1.093146   -0.017554
      7          6           0        0.622682    0.004969   -0.047812
      8          6           0        1.516774    1.044922    0.006070
      9          9           0        1.136278    2.313348    0.016073
     10          6           0        2.868648    0.677866    0.001506
     11          6           0        2.978238   -0.685437   -0.019387
     12         16           0        1.507210   -1.480531   -0.049243
     13          1           0       -4.579967   -0.125091    0.006685
     14          1           0       -3.217213   -2.208573   -0.019323
     15          1           0       -3.290971    2.064912    0.006435
     16          1           0        3.700222    1.364085    0.078139
[...]
     9  F   -0.071227   0.464345   8.762572  -0.052798   0.003815   0.002347
    10  C   -0.088805   0.463786  -0.052798   4.839198   0.523779  -0.101754
    11  C   -0.098282  -0.024925   0.003815   0.523779   4.998401   0.377463
    12  S    0.331435  -0.061188   0.002347  -0.101754   0.377463  15.305550
    13  H    0.000127  -0.000003   0.000000  -0.000000  -0.000000  -0.000004
    14  H   -0.000582   0.000021  -0.000000   0.000000  -0.000001  -0.000098
    15  H   -0.000619  -0.000069   0.000041  -0.000000  -0.000000   0.000011
    16  H    0.011562  -0.029120   0.000919   0.406743  -0.045730   0.005352
    17  H    0.001160   0.006164  -0.000027  -0.018046   0.407339  -0.034875
              13         14         15         16         17
     1  C    0.410233  -0.058412  -0.060616   0.000000   0.000000
     2  C   -0.036187   0.422210   0.005830  -0.000000   0.000000
     3  N    0.004304  -0.023990  -0.000724   0.000002   0.000003
     4  C    0.001337   0.001552   0.001321  -0.000187  -0.000222
     5  N    0.004124  -0.000694  -0.025343   0.000012   0.000001
     6  C   -0.035617   0.005607   0.424738   0.000000  -0.000000
     7  C    0.000127  -0.000582  -0.000619   0.011562   0.001160
     8  C   -0.000003   0.000021  -0.000069  -0.029120   0.006164
     9  F    0.000000  -0.000000   0.000041   0.000919  -0.000027
    10  C   -0.000000   0.000000  -0.000000   0.406743  -0.018046
    11  C   -0.000000  -0.000001  -0.000000  -0.045730   0.407339
    12  S   -0.000004  -0.000098   0.000011   0.005352  -0.034875
    13  H    0.634288  -0.007738  -0.007697  -0.000000  -0.000000
    14  H   -0.007738   0.618843  -0.000126   0.000000  -0.000000
    15  H   -0.007697  -0.000126   0.620514  -0.000000   0.000000
    16  H   -0.000000   0.000000  -0.000000   0.622380  -0.006479
    17  H   -0.000000  -0.000000   0.000000  -0.006479   0.585179
          Atomic-Atomic Spin Densities.
               1          2          3          4          5          6
     1  C    0.000000  -0.000000  -0.000000   0.000000   0.000000  -0.000000
     2  C   -0.000000   0.000000   0.000000   0.000000  -0.000000   0.000000
     3  N   -0.000000   0.000000   0.000000  -0.000000  -0.000000   0.000000
     4  C    0.000000   0.000000  -0.000000  -0.000000  -0.000000   0.000000
     5  N    0.000000  -0.000000  -0.000000  -0.000000   0.000000  -0.000000
     6  C   -0.000000   0.000000   0.000000   0.000000  -0.000000   0.000000
     7  C    0.000000  -0.000000   0.000000  -0.000000   0.000000  -0.000000
     8  C   -0.000000  -0.000000   0.000000   0.000000   0.000000  -0.000000
     9  F   -0.000000   0.000000  -0.000000   0.000000  -0.000000   0.000000
    10  C   -0.000000   0.000000  -0.000000   0.000000  -0.000000   0.000000
    11  C    0.000000   0.000000   0.000000  -0.000000  -0.000000  -0.000000
    12  S    0.000000  -0.000000  -0.000000   0.000000   0.000000  -0.000000
    13  H    0.000000  -0.000000  -0.000000   0.000000   0.000000  -0.000000
    14  H   -0.000000   0.000000  -0.000000  -0.000000  -0.000000   0.000000
    15  H   -0.000000   0.000000   0.000000  -0.000000  -0.000000   0.000000
    16  H    0.000000  -0.000000   0.000000  -0.000000   0.000000  -0.000000
    17  H    0.000000  -0.000000   0.000000  -0.000000   0.000000  -0.000000
               7          8          9         10         11         12
     1  C    0.000000  -0.000000  -0.000000  -0.000000   0.000000   0.000000
     2  C   -0.000000  -0.000000   0.000000   0.000000   0.000000  -0.000000
     3  N    0.000000   0.000000  -0.000000  -0.000000   0.000000  -0.000000
     4  C   -0.000000   0.000000   0.000000   0.000000  -0.000000   0.000000
     5  N    0.000000   0.000000  -0.000000  -0.000000  -0.000000   0.000000
     6  C   -0.000000  -0.000000   0.000000   0.000000  -0.000000  -0.000000
     7  C    0.000000  -0.000000   0.000000  -0.000000  -0.000000   0.000000
     8  C   -0.000000  -0.000000   0.000000  -0.000000  -0.000000  -0.000000
     9  F    0.000000   0.000000  -0.000000  -0.000000  -0.000000  -0.000000
    10  C   -0.000000  -0.000000  -0.000000   0.000000  -0.000000  -0.000000
    11  C   -0.000000  -0.000000  -0.000000  -0.000000  -0.000000   0.000000
    12  S    0.000000  -0.000000  -0.000000  -0.000000   0.000000  -0.000000
    13  H    0.000000  -0.000000   0.000000  -0.000000   0.000000   0.000000
    14  H   -0.000000   0.000000   0.000000   0.000000  -0.000000  -0.000000
    15  H   -0.000000   0.000000   0.000000   0.000000  -0.000000  -0.000000
    16  H   -0.000000   0.000000   0.000000  -0.000000   0.000000  -0.000000
    17  H    0.000000  -0.000000   0.000000   0.000000  -0.000000   0.000000
              13         14         15         16         17
     1  C    0.000000  -0.000000  -0.000000   0.000000   0.000000
     2  C   -0.000000   0.000000   0.000000  -0.000000  -0.000000
     3  N   -0.000000  -0.000000   0.000000   0.000000   0.000000
     4  C    0.000000  -0.000000  -0.000000  -0.000000  -0.000000
     5  N    0.000000  -0.000000  -0.000000   0.000000   0.000000
     6  C   -0.000000   0.000000   0.000000  -0.000000  -0.000000
     7  C    0.000000  -0.000000  -0.000000  -0.000000   0.000000
     8  C   -0.000000   0.000000   0.000000   0.000000  -0.000000
     9  F    0.000000   0.000000   0.000000   0.000000   0.000000
    10  C   -0.000000   0.000000   0.000000  -0.000000   0.000000
    11  C    0.000000  -0.000000  -0.000000   0.000000  -0.000000
    12  S    0.000000  -0.000000  -0.000000  -0.000000   0.000000
    13  H    0.000000  -0.000000  -0.000000   0.000000   0.000000
    14  H   -0.000000   0.000000   0.000000  -0.000000  -0.000000
    15  H   -0.000000   0.000000   0.000000  -0.000000  -0.000000
    16  H    0.000000  -0.000000  -0.000000  -0.000000   0.000000
    17  H    0.000000  -0.000000  -0.000000   0.000000  -0.000000
 Mulliken charges and spin densities:
               1          2
     1  C   -0.125387  -0.000000
     2  C    0.121997   0.000000
     3  N   -0.236630   0.000000
     4  C    0.249479  -0.000000
     5  N   -0.212726   0.000000
     6  C    0.115925  -0.000000
     7  C   -0.245636   0.000000
     8  C    0.139125  -0.000000
     9  F   -0.108168  -0.000000
    10  C    0.018641   0.000000
    11  C   -0.146129  -0.000000
    12  S    0.216177  -0.000000
    13  H    0.032834   0.000000
    14  H    0.043411   0.000000
    15  H    0.042740   0.000000
    16  H    0.034544   0.000000
    17  H    0.059803   0.000000
 Sum of Mulliken charges =  -0.00000  -0.00000
 Mulliken charges and spin densities with hydrogens summed into heavy atoms:
               1          2
     1  C   -0.092552   0.000000
     2  C    0.165407   0.000000
     3  N   -0.236630   0.000000
     4  C    0.249479  -0.000000
     5  N   -0.212726   0.000000
     6  C    0.158664  -0.000000
     7  C   -0.245636   0.000000
     8  C    0.139125  -0.000000
     9  F   -0.108168  -0.000000
    10  C    0.053185   0.000000
    11  C   -0.086325  -0.000000
    12  S    0.216177  -0.000000
 Electronic spatial extent (au):  <R**2>=           2219.5722
 Charge=              0.0000 electrons
 Dipole moment (field-independent basis, Debye):
    X=              1.1008    Y=             -0.7510    Z=             -0.0007  Tot=              1.3326
 Quadrupole moment (field-independent basis, Debye-Ang):
   XX=            -50.6362   YY=            -75.0237   ZZ=            -76.1072
   XY=              0.7979   XZ=              0.0008   YZ=             -0.0004
 Traceless Quadrupole moment (field-independent basis, Debye-Ang):
   XX=             16.6195   YY=             -7.7680   ZZ=             -8.8515
   XY=              0.7979   XZ=              0.0008   YZ=             -0.0004
 Octapole moment (field-independent basis, Debye-Ang**2):
  XXX=             10.1763  YYY=              7.8061  ZZZ=             -0.0035  XYY=              2.5649
  XXY=              0.2030  XXZ=             -0.0124  XZZ=             -0.4835  YZZ=              6.3912
  YYZ=             -0.0035  XYZ=              0.0070
 Hexadecapole moment (field-independent basis, Debye-Ang**3):
 XXXX=          -1782.8747 YYYY=           -687.2470 ZZZZ=            -79.0390 XXXY=             -1.6461
 XXXZ=              0.0218 YYYX=             -8.8815 YYYZ=             -0.0034 ZZZX=              0.0086
 ZZZY=             -0.0099 XXYY=           -399.9469 XXZZ=           -405.0659 YYZZ=           -129.9902
 XXYZ=              0.0140 YYXZ=             -0.0008 ZZXY=             -7.0011
 N-N= 7.426707044377D+02 E-N=-3.639318400512D+03  KE= 9.109772260186D+02
                          Isotropic Fermi Contact Couplings
        Atom                 a.u.       MegaHertz       Gauss      10(-4) cm-1
     1  C(13)              0.00000       0.00000       0.00000       0.00000
     2  C(13)              0.00000       0.00000       0.00000       0.00000
     3  N(14)             -0.00000      -0.00000      -0.00000      -0.00000
     4  C(13)             -0.00000      -0.00000      -0.00000      -0.00000
     5  N(14)              0.00000       0.00000       0.00000       0.00000
     6  C(13)              0.00000       0.00000       0.00000       0.00000
     7  C(13)              0.00000       0.00000       0.00000       0.00000
     8  C(13)             -0.00000      -0.00000      -0.00000      -0.00000
     9  F(19)             -0.00000      -0.00000      -0.00000      -0.00000
    10  C(13)              0.00000       0.00000       0.00000       0.00000
    11  C(13)             -0.00000      -0.00000      -0.00000      -0.00000
    12  S(33)             -0.00000      -0.00000      -0.00000      -0.00000
    13  H(1)               0.00000       0.00000       0.00000       0.00000
    14  H(1)               0.00000       0.00000       0.00000       0.00000
    15  H(1)              -0.00000      -0.00000      -0.00000      -0.00000
    16  H(1)              -0.00000      -0.00000      -0.00000      -0.00000
    17  H(1)               0.00000       0.00000       0.00000       0.00000
 --------------------------------------------------------
       Center         ----  Spin Dipole Couplings  ----
                      3XX-RR        3YY-RR        3ZZ-RR
 --------------------------------------------------------
     1   Atom       -0.000000     -0.000000      0.000000
     2   Atom       -0.000000      0.000000      0.000000
     3   Atom       -0.000000     -0.000000      0.000000
     4   Atom       -0.000000      0.000000     -0.000000
     5   Atom       -0.000000      0.000000     -0.000000
     6   Atom        0.000000     -0.000000     -0.000000
     7   Atom        0.000000     -0.000000     -0.000000
     8   Atom        0.000000     -0.000000      0.000000
     9   Atom       -0.000000      0.000000      0.000000
    10   Atom       -0.000000      0.000000      0.000000
    11   Atom        0.000000     -0.000000     -0.000000
    12   Atom        0.000000      0.000000     -0.000000
    13   Atom       -0.000000      0.000000     -0.000000
    14   Atom        0.000000     -0.000000      0.000000
    15   Atom        0.000000     -0.000000     -0.000000
    16   Atom        0.000000     -0.000000      0.000000
    17   Atom        0.000000     -0.000000     -0.000000
 --------------------------------------------------------
                        XY            XZ            YZ
 --------------------------------------------------------
     1   Atom        0.000000      0.000000     -0.000000
     2   Atom        0.000000     -0.000000     -0.000000
     3   Atom       -0.000000      0.000000      0.000000
     4   Atom        0.000000      0.000000     -0.000000
     5   Atom        0.000000      0.000000     -0.000000
     6   Atom        0.000000      0.000000      0.000000
     7   Atom       -0.000000     -0.000000      0.000000
     8   Atom        0.000000      0.000000      0.000000
     9   Atom        0.000000      0.000000      0.000000
    10   Atom       -0.000000      0.000000     -0.000000
    11   Atom       -0.000000      0.000000     -0.000000
    12   Atom        0.000000      0.000000      0.000000
    13   Atom        0.000000      0.000000     -0.000000
    14   Atom        0.000000     -0.000000     -0.000000
    15   Atom       -0.000000      0.000000      0.000000
    16   Atom        0.000000      0.000000     -0.000000
    17   Atom        0.000000      0.000000     -0.000000
 --------------------------------------------------------


 ---------------------------------------------------------------------------------
              Anisotropic Spin Dipole Couplings in Principal Axis System
 ---------------------------------------------------------------------------------

       Atom             a.u.   MegaHertz   Gauss  10(-4) cm-1        Axes

              Baa    -0.0000    -0.000    -0.000    -0.000  0.9551 -0.2962 -0.0038
     1 C(13)  Bbb    -0.0000    -0.000    -0.000    -0.000  0.2962  0.9551  0.0012
              Bcc     0.0000     0.000     0.000     0.000  0.0033 -0.0023  1.0000
 
              Baa    -0.0000    -0.000    -0.000    -0.000  0.8028 -0.5955  0.0293
     2 C(13)  Bbb     0.0000     0.000     0.000     0.000 -0.0068  0.0400  0.9992
              Bcc     0.0000     0.000     0.000     0.000  0.5962  0.8024 -0.0281
 
              Baa    -0.0000    -0.000    -0.000    -0.000  0.7196  0.6944 -0.0012
     3 N(14)  Bbb     0.0000     0.000     0.000     0.000  0.0377 -0.0373  0.9986
              Bcc     0.0000     0.000     0.000     0.000 -0.6934  0.7186  0.0530
 
              Baa    -0.0000    -0.000    -0.000    -0.000 -0.0259  0.0085  0.9996
     4 C(13)  Bbb    -0.0000    -0.000    -0.000    -0.000  0.9862 -0.1635  0.0270
              Bcc     0.0000     0.000     0.000     0.000  0.1637  0.9865 -0.0041
 
              Baa    -0.0000    -0.000    -0.000    -0.000  0.8836 -0.4681 -0.0109
     5 N(14)  Bbb    -0.0000    -0.000    -0.000    -0.000  0.0098 -0.0046  0.9999
              Bcc     0.0000     0.000     0.000     0.000  0.4682  0.8836 -0.0005
 
              Baa    -0.0000    -0.000    -0.000    -0.000 -0.2862  0.9581 -0.0132
     6 C(13)  Bbb    -0.0000    -0.000    -0.000    -0.000 -0.0076  0.0114  0.9999
              Bcc     0.0000     0.000     0.000     0.000  0.9581  0.2862  0.0040
 
              Baa    -0.0000    -0.000    -0.000    -0.000  0.0023 -0.0002  1.0000
     7 C(13)  Bbb    -0.0000    -0.000    -0.000    -0.000  0.0383  0.9993  0.0001
              Bcc     0.0000     0.000     0.000     0.000  0.9993 -0.0383 -0.0023
 
              Baa    -0.0000    -0.000    -0.000    -0.000 -0.0244  0.9997 -0.0022
     8 C(13)  Bbb     0.0000     0.000     0.000     0.000  0.9997  0.0244 -0.0071
              Bcc     0.0000     0.000     0.000     0.000  0.0071  0.0024  1.0000
 
              Baa    -0.0000    -0.000    -0.000    -0.000  0.9944 -0.1056 -0.0021
     9 F(19)  Bbb     0.0000     0.000     0.000     0.000  0.0010 -0.0108  0.9999
              Bcc     0.0000     0.000     0.000     0.000  0.1056  0.9943  0.0106
 
              Baa    -0.0000    -0.000    -0.000    -0.000  0.9940  0.1087 -0.0124
    10 C(13)  Bbb     0.0000     0.000     0.000     0.000  0.0107  0.0171  0.9998
              Bcc     0.0000     0.000     0.000     0.000 -0.1089  0.9939 -0.0158
 
              Baa    -0.0000    -0.000    -0.000    -0.000  0.5099  0.8602  0.0112
    11 C(13)  Bbb    -0.0000    -0.000    -0.000    -0.000 -0.0134 -0.0051  0.9999
              Bcc     0.0000     0.000     0.000     0.000  0.8601 -0.5100  0.0089
 
              Baa    -0.0000    -0.000    -0.000    -0.000 -0.0024 -0.0141  0.9999
    12 S(33)  Bbb     0.0000     0.000     0.000     0.000 -0.5821  0.8131  0.0100
              Bcc     0.0000     0.000     0.000     0.000  0.8131  0.5820  0.0101
 
              Baa    -0.0000    -0.000    -0.000    -0.000  0.9803 -0.1826 -0.0749
    13 H(1)   Bbb    -0.0000    -0.000    -0.000    -0.000  0.0738 -0.0131  0.9972
              Bcc     0.0000     0.000     0.000     0.000  0.1831  0.9831 -0.0007
 
              Baa    -0.0000    -0.000    -0.000    -0.000 -0.3024  0.9531  0.0077
    14 H(1)   Bbb     0.0000     0.000     0.000     0.000  0.0260  0.0002  0.9997
              Bcc     0.0000     0.000     0.000     0.000  0.9528  0.3025 -0.0249
 
              Baa    -0.0000    -0.000    -0.000    -0.000 -0.0090 -0.0457  0.9989
    15 H(1)   Bbb    -0.0000    -0.000    -0.000    -0.000  0.2730  0.9609  0.0464
              Bcc     0.0000     0.000     0.000     0.000  0.9620 -0.2732 -0.0038
 
              Baa    -0.0000    -0.000    -0.000    -0.000 -0.4486  0.8937  0.0005
    16 H(1)   Bbb     0.0000     0.000     0.000     0.000  0.0029  0.0009  1.0000
              Bcc     0.0000     0.000     0.000     0.000  0.8937  0.4486 -0.0030
 
              Baa    -0.0000    -0.000    -0.000    -0.000 -0.0105  0.0185  0.9998
    17 H(1)   Bbb    -0.0000    -0.000    -0.000    -0.000 -0.4544  0.8905 -0.0213
              Bcc     0.0000     0.000     0.000     0.000  0.8907  0.4545  0.0010
 

 ---------------------------------------------------------------------------------

 No NMR shielding tensors so no spin-rotation constants.
 Leave Link  601 at Fri Jul 24 12:18:31 2020, MaxMem=  4026531840 cpu:               1.5 elap:               0.2
 (Enter /opt/ohpc/pub/libs/gaussian/g16-A.03/sandybridge/g16/l9999.exe)

 Test job not archived.
 1\1\GINC-SKYLAKE038\FOpt\ULC-wPBE\CC-pVDZ\C8H5F1N2S1\RDU230\24-Jul-202
 0\0\\#P uLC-wPBE/cc-pVDZ iop(3/107=0492900000, 3/108=0492900000) opt\\
 H5 C8 S1 N2 F1\\0,1\C,-3.4905827003,-0.0857159974,-0.0179922072\C,-2.7
 271784336,-1.2377802076,-0.0269759852\N,-1.4062000741,-1.2120546949,-0
 .0235963524\C,-0.8336378832,-0.0110575406,-0.0106525886\N,-1.466417813
 3,1.155778909,-0.0008116561\C,-2.7876655846,1.1043164834,-0.0047413689
 \C,0.6278668621,-0.0032487324,-0.0063741158\C,1.4999194891,1.043275064
 4,0.0071707418\F,1.14638609,2.3177869788,0.0194162881\C,2.8646462204,0
 .6668667427,0.0071224587\C,2.9935764683,-0.6822582818,-0.0065162202\S,
 1.4948949581,-1.4892926954,-0.0191572675\H,-4.5755891444,-0.113752782,
 -0.0211515206\H,-3.1922987663,-2.2241668698,-0.0380516646\H,-3.3064513
 48,2.0637837489,0.0033435529\H,3.6816588152,1.3796906017,0.0170150335\
 H,3.9174968447,-1.250239727,-0.0096311279\\Version=EM64L-G16RevA.03\St
 ate=1-A\HF=-914.9481336\S2=0.\S2-1=0.\S2A=0.\RMSD=9.563e-09\RMSF=3.198
 e-05\Dipole=-0.4314758,-0.297787,-0.0039225\Quadrupole=12.3619122,-5.7
 812596,-6.5806526,-0.4953052,0.0475118,0.0070423\PG=C01 [X(C8H5F1N2S1)
 ]\\@


 EXPERIMENTALISTS THINK SILICON IS REALLY FUN TO USE
     ITS PLACE IN NOVEL COMPOUNDS IS CERTAIN TO AMUSE
 THEY SIT ALL DAY IN LABORATORIES MAKING ALL THIS SLUDGE
     "LOADED WITH THE SILICON THEY SAY", TO ME IT LOOKS LIKE FUDGE.
 FOR HAPPY THOUGH THEY BE WITH CRUD, I'D LIKE TO KNOW A LITTLE
      ABOUT THE PI BONDS ON THE EDGE AND SIGMAS IN THE MIDDLE.

 SO LETS DERIVE A WAVEFUNCTION.....6-31G*
     USE AN OPTIMAL GEOMETRY AND SEE WHERE ELECTRONS ARE.
 BUT WHAT OF CORRELATION?  ASKS THE WIRY LITTLE SKEPTIC.
     WE'LL THROW IN PERTURBATION AS AN ELECTRON ANTISEPTIC.
 AND WHEN THE PROGRAM GIVES US ANSWERS IN THEM WE CAN TRUST
     SINCE NOBODY CAN MAKE THE STUFF, WE HAVE NO CHOICE, WE MUST.

 SO THEORY GUYS HAVE GOT IT MADE, IN ROOMS FREE OF POLLUTION.
     INSTEAD OF PROBLEMS WITH THE REFLUX, THEY HAVE ONLY SOLUTIONS.
 AND WHEN THE FEDS ANNOUNCE THE LIST OF CARCINOGENIC TERRORS,
     THE THEORISTS SIT SAFELY AT THEIR TERMINALS FIXING ERRORS.
 IN OTHER WORDS, EXPERIMENTALISTS WILL LIKELY DIE OF CANCER
     FROM WORKING HARD YET FRUITLESSLY...TILL THEORY GIVES THE ANSWER.
          -- THOMAS A. HOLME, 1983
 Job cpu time:       0 days  0 hours 51 minutes 31.6 seconds.
 Elapsed time:       0 days  0 hours  6 minutes 33.4 seconds.
 File lengths (MBytes):  RWF=    100 Int=      0 D2E=      0 Chk=     12 Scr=      8
 Normal termination of Gaussian 16 at Fri Jul 24 12:18:31 2020.
