 Entering Gaussian System, Link 0=g16
 Input=mols_66_1_11_n-n-cF-cF_opt_0.gjf
 Output=mols_66_1_11_n-n-cF-cF_opt_0.log
 Initial command:
 /opt/ohpc/pub/libs/gaussian/g16-A.03/sandybridge/g16/l1.exe "/mnt/gpfs2_4m/scratch/rdu230/ondemand/projects/dihedral_energies/7trial/wtuning/redos_512cycles/mols_66_1_11_n-n-cF-cF/Gau-50214.inp" -scrdir="/mnt/gpfs2_4m/scratch/rdu230/ondemand/projects/dihedral_energies/7trial/wtuning/redos_512cycles/mols_66_1_11_n-n-cF-cF/"
 Entering Link 1 = /opt/ohpc/pub/libs/gaussian/g16-A.03/sandybridge/g16/l1.exe PID=     50216.
  
 Copyright (c) 1988,1990,1992,1993,1995,1998,2003,2009,2016,
            Gaussian, Inc.  All Rights Reserved.
  
 This is part of the Gaussian(R) 16 program.  It is based on
 the Gaussian(R) 09 system (copyright 2009, Gaussian, Inc.),
 the Gaussian(R) 03 system (copyright 2003, Gaussian, Inc.),
 the Gaussian(R) 98 system (copyright 1998, Gaussian, Inc.),
 the Gaussian(R) 94 system (copyright 1995, Gaussian, Inc.),
 the Gaussian 92(TM) system (copyright 1992, Gaussian, Inc.),
 the Gaussian 90(TM) system (copyright 1990, Gaussian, Inc.),
 the Gaussian 88(TM) system (copyright 1988, Gaussian, Inc.),
 the Gaussian 86(TM) system (copyright 1986, Carnegie Mellon
 University), and the Gaussian 82(TM) system (copyright 1983,
 Carnegie Mellon University). Gaussian is a federally registered
 trademark of Gaussian, Inc.
  
 This software contains proprietary and confidential information,
 including trade secrets, belonging to Gaussian, Inc.
  
 This software is provided under written license and may be
 used, copied, transmitted, or stored only in accord with that
 written license.
  
 The following legend is applicable only to US Government
 contracts under FAR:
  
                    RESTRICTED RIGHTS LEGEND
  
 Use, reproduction and disclosure by the US Government is
 subject to restrictions as set forth in subparagraphs (a)
 and (c) of the Commercial Computer Software - Restricted
 Rights clause in FAR 52.227-19.
  
 Gaussian, Inc.
 340 Quinnipiac St., Bldg. 40, Wallingford CT 06492
  
  
 ---------------------------------------------------------------
 Warning -- This program may not be used in any manner that
 competes with the business of Gaussian, Inc. or will provide
 assistance to any competitor of Gaussian, Inc.  The licensee
 of this program is prohibited from giving any competitor of
 Gaussian, Inc. access to this program.  By using this program,
 the user acknowledges that Gaussian, Inc. is engaged in the
 business of creating and licensing software in the field of
 computational chemistry and represents and warrants to the
 licensee that it is not a competitor of Gaussian, Inc. and that
 it will not use this program in any manner prohibited above.
 ---------------------------------------------------------------
  

 Cite this work as:
 Gaussian 16, Revision A.03,
 M. J. Frisch, G. W. Trucks, H. B. Schlegel, G. E. Scuseria, 
 M. A. Robb, J. R. Cheeseman, G. Scalmani, V. Barone, 
 G. A. Petersson, H. Nakatsuji, X. Li, M. Caricato, A. V. Marenich, 
 J. Bloino, B. G. Janesko, R. Gomperts, B. Mennucci, H. P. Hratchian, 
 J. V. Ortiz, A. F. Izmaylov, J. L. Sonnenberg, D. Williams-Young, 
 F. Ding, F. Lipparini, F. Egidi, J. Goings, B. Peng, A. Petrone, 
 T. Henderson, D. Ranasinghe, V. G. Zakrzewski, J. Gao, N. Rega, 
 G. Zheng, W. Liang, M. Hada, M. Ehara, K. Toyota, R. Fukuda, 
 J. Hasegawa, M. Ishida, T. Nakajima, Y. Honda, O. Kitao, H. Nakai, 
 T. Vreven, K. Throssell, J. A. Montgomery, Jr., J. E. Peralta, 
 F. Ogliaro, M. J. Bearpark, J. J. Heyd, E. N. Brothers, K. N. Kudin, 
 V. N. Staroverov, T. A. Keith, R. Kobayashi, J. Normand, 
 K. Raghavachari, A. P. Rendell, J. C. Burant, S. S. Iyengar, 
 J. Tomasi, M. Cossi, J. M. Millam, M. Klene, C. Adamo, R. Cammi, 
 J. W. Ochterski, R. L. Martin, K. Morokuma, O. Farkas, 
 J. B. Foresman, and D. J. Fox, Gaussian, Inc., Wallingford CT, 2016.
 
 ******************************************
 Gaussian 16:  EM64L-G16RevA.03 25-Dec-2016
                26-Jul-2020 
 ******************************************
 %mem=30GB
 %nproc=8
 Will use up to    8 processors via shared memory.
 ---------------------------------------------------------------
 #P uLC-wPBE/cc-pVDZ iop(3/107=0210400000, 3/108=0210400000) opt
 ---------------------------------------------------------------
 1/18=20,19=15,26=3,38=1/1,3;
 2/9=110,12=2,17=6,18=5,40=1/2;
 3/5=16,11=2,25=1,30=1,71=1,74=-41,107=210400000,108=210400000,116=2/1,2,3;
 4//1;
 5/5=2,38=5/2;
 6/7=2,8=2,9=2,10=2,28=1/1;
 7//1,2,3,16;
 1/18=20,19=15,26=3/3(2);
 2/9=110/2;
 99//99;
 2/9=110/2;
 3/5=16,11=2,25=1,30=1,71=1,74=-41,107=210400000,108=210400000,116=2/1,2,3;
 4/5=5,16=3,69=1/1;
 5/5=2,38=5/2;
 7//1,2,3,16;
 1/18=20,19=15,26=3/3(-5);
 2/9=110/2;
 6/7=2,8=2,9=2,10=2,19=2,28=1/1;
 99/9=1/99;
 Leave Link    1 at Sun Jul 26 12:21:38 2020, MaxMem=  4026531840 cpu:               1.4 elap:               0.2
 (Enter /opt/ohpc/pub/libs/gaussian/g16-A.03/sandybridge/g16/l101.exe)
 ------------
 H6 C10 N2 F2
 ------------
 Symbolic Z-matrix:
 Charge =  0 Multiplicity = 1
 C                    -3.52376   0.49559  -0.0114 
 C                    -3.03008  -0.82538   0.0235 
 C                    -1.56515  -1.01454  -0.02025 
 F                    -1.20289  -2.33039  -0.02017 
 C                    -0.6909    0.07433  -0.00794 
 N                    -1.26694   1.35586  -0.03878 
 C                    -2.62516   1.5067   -0.02967 
 C                     0.77605  -0.0314    0.00662 
 N                     1.27812  -1.36069  -0.02497 
 C                     2.60916  -1.47174  -0.02956 
 C                     3.52039  -0.49667  -0.01635 
 C                     2.99106   0.82971   0.04972 
 C                     1.60963   0.98357   0.00973 
 F                     1.15609   2.33889   0.02879 
 H                    -4.56656   0.68612   0.03171 
 H                    -3.68975  -1.66755  -0.0207 
 H                    -2.93083   2.57731  -0.02875 
 H                     2.96445  -2.55759   0.0094 
 H                     4.54453  -0.62238   0.04055 
 H                     3.68326   1.71422   0.02961 
 
 ITRead=  0  0  0  0  0  0  0  0  0  0  0  0  0  0  0  0  0  0  0  0
 MicOpt= -1 -1 -1 -1 -1 -1 -1 -1 -1 -1 -1 -1 -1 -1 -1 -1 -1 -1 -1 -1
 NAtoms=     20 NQM=       20 NQMF=       0 NMMI=      0 NMMIF=      0
                NMic=       0 NMicF=      0.
                    Isotopes and Nuclear Properties:
 (Nuclear quadrupole moments (NQMom) in fm**2, nuclear magnetic moments (NMagM)
  in nuclear magnetons)

  Atom         1           2           3           4           5           6           7           8           9          10
 IAtWgt=          12          12          12          19          12          14          12          12          14          12
 AtmWgt=  12.0000000  12.0000000  12.0000000  18.9984033  12.0000000  14.0030740  12.0000000  12.0000000  14.0030740  12.0000000
 NucSpn=           0           0           0           1           0           2           0           0           2           0
 AtZEff=  -0.0000000  -0.0000000  -0.0000000  -0.0000000  -0.0000000  -0.0000000  -0.0000000  -0.0000000  -0.0000000  -0.0000000
 NQMom=    0.0000000   0.0000000   0.0000000   0.0000000   0.0000000   2.0440000   0.0000000   0.0000000   2.0440000   0.0000000
 NMagM=    0.0000000   0.0000000   0.0000000   2.6288670   0.0000000   0.4037610   0.0000000   0.0000000   0.4037610   0.0000000
 AtZNuc=   6.0000000   6.0000000   6.0000000   9.0000000   6.0000000   7.0000000   6.0000000   6.0000000   7.0000000   6.0000000

  Atom        11          12          13          14          15          16          17          18          19          20
 IAtWgt=          12          12          12          19           1           1           1           1           1           1
 AtmWgt=  12.0000000  12.0000000  12.0000000  18.9984033   1.0078250   1.0078250   1.0078250   1.0078250   1.0078250   1.0078250
 NucSpn=           0           0           0           1           1           1           1           1           1           1
 AtZEff=  -0.0000000  -0.0000000  -0.0000000  -0.0000000  -0.0000000  -0.0000000  -0.0000000  -0.0000000  -0.0000000  -0.0000000
 NQMom=    0.0000000   0.0000000   0.0000000   0.0000000   0.0000000   0.0000000   0.0000000   0.0000000   0.0000000   0.0000000
 NMagM=    0.0000000   0.0000000   0.0000000   2.6288670   2.7928460   2.7928460   2.7928460   2.7928460   2.7928460   2.7928460
 AtZNuc=   6.0000000   6.0000000   6.0000000   9.0000000   1.0000000   1.0000000   1.0000000   1.0000000   1.0000000   1.0000000
 Leave Link  101 at Sun Jul 26 12:21:38 2020, MaxMem=  4026531840 cpu:               2.6 elap:               0.4
 (Enter /opt/ohpc/pub/libs/gaussian/g16-A.03/sandybridge/g16/l103.exe)

 GradGradGradGradGradGradGradGradGradGradGradGradGradGradGradGradGradGrad
 Berny optimization.
 Initialization pass.
                           ----------------------------
                           !    Initial Parameters    !
                           ! (Angstroms and Degrees)  !
 --------------------------                            --------------------------
 ! Name  Definition              Value          Derivative Info.                !
 --------------------------------------------------------------------------------
 ! R1    R(1,2)                  1.4106         estimate D2E/DX2                !
 ! R2    R(1,7)                  1.3528         estimate D2E/DX2                !
 ! R3    R(1,15)                 1.0609         estimate D2E/DX2                !
 ! R4    R(2,3)                  1.4777         estimate D2E/DX2                !
 ! R5    R(2,16)                 1.0707         estimate D2E/DX2                !
 ! R6    R(3,4)                  1.3648         estimate D2E/DX2                !
 ! R7    R(3,5)                  1.3965         estimate D2E/DX2                !
 ! R8    R(5,6)                  1.4054         estimate D2E/DX2                !
 ! R9    R(5,8)                  1.4708         estimate D2E/DX2                !
 ! R10   R(6,7)                  1.3666         estimate D2E/DX2                !
 ! R11   R(7,17)                 1.1134         estimate D2E/DX2                !
 ! R12   R(8,9)                  1.4213         estimate D2E/DX2                !
 ! R13   R(8,13)                 1.3134         estimate D2E/DX2                !
 ! R14   R(9,10)                 1.3357         estimate D2E/DX2                !
 ! R15   R(10,11)                1.3346         estimate D2E/DX2                !
 ! R16   R(10,18)                1.1432         estimate D2E/DX2                !
 ! R17   R(11,12)                1.4296         estimate D2E/DX2                !
 ! R18   R(11,19)                1.0334         estimate D2E/DX2                !
 ! R19   R(12,13)                1.3906         estimate D2E/DX2                !
 ! R20   R(12,20)                1.1233         estimate D2E/DX2                !
 ! R21   R(13,14)                1.4293         estimate D2E/DX2                !
 ! A1    A(2,1,7)              117.8894         estimate D2E/DX2                !
 ! A2    A(2,1,15)             120.7402         estimate D2E/DX2                !
 ! A3    A(7,1,15)             121.2791         estimate D2E/DX2                !
 ! A4    A(1,2,3)              117.7794         estimate D2E/DX2                !
 ! A5    A(1,2,16)             121.328          estimate D2E/DX2                !
 ! A6    A(3,2,16)             120.5882         estimate D2E/DX2                !
 ! A7    A(2,3,4)              112.7393         estimate D2E/DX2                !
 ! A8    A(2,3,5)              121.3691         estimate D2E/DX2                !
 ! A9    A(4,3,5)              125.8451         estimate D2E/DX2                !
 ! A10   A(3,5,6)              117.0147         estimate D2E/DX2                !
 ! A11   A(3,5,8)              124.6412         estimate D2E/DX2                !
 ! A12   A(6,5,8)              118.3313         estimate D2E/DX2                !
 ! A13   A(5,6,7)              120.5221         estimate D2E/DX2                !
 ! A14   A(1,7,6)              125.2932         estimate D2E/DX2                !
 ! A15   A(1,7,17)             122.4328         estimate D2E/DX2                !
 ! A16   A(6,7,17)             112.2715         estimate D2E/DX2                !
 ! A17   A(5,8,9)              114.7922         estimate D2E/DX2                !
 ! A18   A(5,8,13)             125.2726         estimate D2E/DX2                !
 ! A19   A(9,8,13)             119.9082         estimate D2E/DX2                !
 ! A20   A(8,9,10)             115.459          estimate D2E/DX2                !
 ! A21   A(9,10,11)            128.2869         estimate D2E/DX2                !
 ! A22   A(9,10,18)            112.8661         estimate D2E/DX2                !
 ! A23   A(11,10,18)           118.7786         estimate D2E/DX2                !
 ! A24   A(10,11,12)           115.1816         estimate D2E/DX2                !
 ! A25   A(10,11,19)           126.037          estimate D2E/DX2                !
 ! A26   A(12,11,19)           118.5063         estimate D2E/DX2                !
 ! A27   A(11,12,13)           117.9795         estimate D2E/DX2                !
 ! A28   A(11,12,20)           120.1024         estimate D2E/DX2                !
 ! A29   A(13,12,20)           121.6358         estimate D2E/DX2                !
 ! A30   A(8,13,12)            123.0293         estimate D2E/DX2                !
 ! A31   A(8,13,14)            122.1014         estimate D2E/DX2                !
 ! A32   A(12,13,14)           114.8197         estimate D2E/DX2                !
 ! D1    D(7,1,2,3)             -2.5408         estimate D2E/DX2                !
 ! D2    D(7,1,2,16)          -176.2392         estimate D2E/DX2                !
 ! D3    D(15,1,2,3)          -179.1107         estimate D2E/DX2                !
 ! D4    D(15,1,2,16)            7.1909         estimate D2E/DX2                !
 ! D5    D(2,1,7,6)              1.1154         estimate D2E/DX2                !
 ! D6    D(2,1,7,17)          -178.2578         estimate D2E/DX2                !
 ! D7    D(15,1,7,6)           177.6658         estimate D2E/DX2                !
 ! D8    D(15,1,7,17)           -1.7074         estimate D2E/DX2                !
 ! D9    D(1,2,3,4)           -178.2171         estimate D2E/DX2                !
 ! D10   D(1,2,3,5)              4.1243         estimate D2E/DX2                !
 ! D11   D(16,2,3,4)            -4.4699         estimate D2E/DX2                !
 ! D12   D(16,2,3,5)           177.8715         estimate D2E/DX2                !
 ! D13   D(2,3,5,6)             -3.9645         estimate D2E/DX2                !
 ! D14   D(2,3,5,8)            177.3641         estimate D2E/DX2                !
 ! D15   D(4,3,5,6)            178.6997         estimate D2E/DX2                !
 ! D16   D(4,3,5,8)              0.0282         estimate D2E/DX2                !
 ! D17   D(3,5,6,7)              2.3937         estimate D2E/DX2                !
 ! D18   D(8,5,6,7)           -178.848          estimate D2E/DX2                !
 ! D19   D(3,5,8,9)              1.4433         estimate D2E/DX2                !
 ! D20   D(3,5,8,13)           179.5428         estimate D2E/DX2                !
 ! D21   D(6,5,8,9)           -177.2121         estimate D2E/DX2                !
 ! D22   D(6,5,8,13)             0.8875         estimate D2E/DX2                !
 ! D23   D(5,6,7,1)             -1.008          estimate D2E/DX2                !
 ! D24   D(5,6,7,17)           178.4203         estimate D2E/DX2                !
 ! D25   D(5,8,9,10)           179.1749         estimate D2E/DX2                !
 ! D26   D(13,8,9,10)            0.9648         estimate D2E/DX2                !
 ! D27   D(5,8,13,12)          178.7212         estimate D2E/DX2                !
 ! D28   D(5,8,13,14)            1.4163         estimate D2E/DX2                !
 ! D29   D(9,8,13,12)           -3.2692         estimate D2E/DX2                !
 ! D30   D(9,8,13,14)          179.426          estimate D2E/DX2                !
 ! D31   D(8,9,10,11)           -0.4386         estimate D2E/DX2                !
 ! D32   D(8,9,10,18)          176.48           estimate D2E/DX2                !
 ! D33   D(9,10,11,12)           1.9614         estimate D2E/DX2                !
 ! D34   D(9,10,11,19)         175.8108         estimate D2E/DX2                !
 ! D35   D(18,10,11,12)       -174.7992         estimate D2E/DX2                !
 ! D36   D(18,10,11,19)         -0.9498         estimate D2E/DX2                !
 ! D37   D(10,11,12,13)         -3.8965         estimate D2E/DX2                !
 ! D38   D(10,11,12,20)       -177.8939         estimate D2E/DX2                !
 ! D39   D(19,11,12,13)       -178.2384         estimate D2E/DX2                !
 ! D40   D(19,11,12,20)          7.7641         estimate D2E/DX2                !
 ! D41   D(11,12,13,8)           4.7883         estimate D2E/DX2                !
 ! D42   D(11,12,13,14)       -177.727          estimate D2E/DX2                !
 ! D43   D(20,12,13,8)         178.6886         estimate D2E/DX2                !
 ! D44   D(20,12,13,14)         -3.8267         estimate D2E/DX2                !
 --------------------------------------------------------------------------------
 Trust Radius=3.00D-01 FncErr=1.00D-07 GrdErr=1.00D-06 EigMax=2.50D+02 EigMin=1.00D-04
 Number of steps in this run=    107 maximum allowed number of steps=    120.
 GradGradGradGradGradGradGradGradGradGradGradGradGradGradGradGradGradGrad

 Leave Link  103 at Sun Jul 26 12:21:38 2020, MaxMem=  4026531840 cpu:               0.1 elap:               0.0
 (Enter /opt/ohpc/pub/libs/gaussian/g16-A.03/sandybridge/g16/l202.exe)
                          Input orientation:                          
 ---------------------------------------------------------------------
 Center     Atomic      Atomic             Coordinates (Angstroms)
 Number     Number       Type             X           Y           Z
 ---------------------------------------------------------------------
      1          6           0       -3.523756    0.495589   -0.011400
      2          6           0       -3.030084   -0.825381    0.023501
      3          6           0       -1.565147   -1.014542   -0.020251
      4          9           0       -1.202894   -2.330387   -0.020174
      5          6           0       -0.690896    0.074325   -0.007943
      6          7           0       -1.266941    1.355859   -0.038784
      7          6           0       -2.625155    1.506695   -0.029666
      8          6           0        0.776051   -0.031403    0.006619
      9          7           0        1.278121   -1.360687   -0.024972
     10          6           0        2.609162   -1.471744   -0.029561
     11          6           0        3.520391   -0.496668   -0.016345
     12          6           0        2.991063    0.829710    0.049719
     13          6           0        1.609626    0.983571    0.009725
     14          9           0        1.156089    2.338893    0.028793
     15          1           0       -4.566555    0.686118    0.031711
     16          1           0       -3.689745   -1.667550   -0.020704
     17          1           0       -2.930829    2.577313   -0.028748
     18          1           0        2.964452   -2.557593    0.009404
     19          1           0        4.544533   -0.622375    0.040549
     20          1           0        3.683261    1.714218    0.029606
 ---------------------------------------------------------------------
                    Distance matrix (angstroms):
                    1          2          3          4          5
     1  C    0.000000
     2  C    1.410635   0.000000
     3  C    2.473201   1.477747   0.000000
     4  F    3.656859   2.367609   1.364799   0.000000
     5  C    2.864013   2.506444   1.396459   2.458644   0.000000
     6  N    2.415373   2.805416   2.389157   3.686849   1.405385
     7  C    1.352831   2.367567   2.735021   4.092202   2.406972
     8  C    4.332019   3.888104   2.539388   3.033524   1.470824
     9  N    5.148200   4.341605   2.864265   2.663790   2.436509
    10  C    6.440762   5.676416   4.199283   3.907573   3.644335
    11  C    7.113691   6.558839   5.111840   5.066751   4.249828
    12  C    6.523668   6.244536   4.915812   5.251702   3.759089
    13  C    5.156567   4.979900   3.751338   4.346663   2.473751
    14  F    5.029944   5.247543   4.318918   5.231575   2.922494
    15  H    1.060938   2.155328   3.450130   4.518430   3.923850
    16  H    2.169518   1.070680   2.222687   2.573671   3.468052
    17  H    2.164587   3.404542   3.842731   5.203014   3.358970
    18  H    7.170718   6.239809   4.785306   4.173640   4.504316
    19  H    8.145540   7.577356   6.122555   5.996158   5.281805
    20  H    7.309434   7.177646   5.915607   6.343171   4.671607
                    6          7          8          9         10
     6  N    0.000000
     7  C    1.366594   0.000000
     8  C    2.469893   3.732997   0.000000
     9  N    3.722520   4.843291   1.421291   0.000000
    10  C    4.797874   6.022389   2.331563   1.335674   0.000000
    11  C    5.133313   6.463852   2.783595   2.402994   1.334648
    12  C    4.291301   5.657430   2.376900   2.781652   2.334272
    13  C    2.900963   4.267151   1.313404   2.367836   2.651261
    14  F    2.615721   3.872180   2.400672   3.701983   4.078698
    15  H    3.367636   2.108589   5.390631   6.192969   7.493400
    16  H    3.874443   3.348024   4.756160   4.977336   6.301956
    17  H    2.064116   1.113400   4.532947   5.763950   6.861950
    18  H    5.763863   6.911127   3.342266   2.068206   1.143161
    19  H    6.139457   7.479458   3.814689   3.349454   2.114711
    20  H    4.963628   6.312107   3.391105   3.904192   3.362669
                   11         12         13         14         15
    11  C    0.000000
    12  C    1.429626   0.000000
    13  C    2.417191   1.390554   0.000000
    14  F    3.692204   2.375963   1.429321   0.000000
    15  H    8.173126   7.559003   6.183379   5.956537   0.000000
    16  H    7.304591   7.132634   5.925597   6.287777   2.512229
    17  H    7.146170   6.174875   4.812195   4.094271   2.501174
    18  H    2.134747   3.387647   3.791490   5.219782   8.199892
    19  H    1.033395   2.126477   3.345698   4.500089   9.204573
    20  H    2.217353   1.123342   2.198682   2.603232   8.313631
                   16         17         18         19         20
    16  H    0.000000
    17  H    4.312178   0.000000
    18  H    6.713525   7.818123   0.000000
    19  H    8.300571   8.131657   2.498539   0.000000
    20  H    8.111726   6.670422   4.331912   2.490296   0.000000
 Stoichiometry    C10H6F2N2
 Framework group  C1[X(C10H6F2N2)]
 Deg. of freedom    54
 Full point group                 C1      NOp   1
 Largest Abelian subgroup         C1      NOp   1
 Largest concise Abelian subgroup C1      NOp   1
                         Standard orientation:                         
 ---------------------------------------------------------------------
 Center     Atomic      Atomic             Coordinates (Angstroms)
 Number     Number       Type             X           Y           Z
 ---------------------------------------------------------------------
      1          6           0        3.528485   -0.462583    0.002011
      2          6           0        3.024156    0.854164    0.043510
      3          6           0        1.557905    1.031909   -0.003954
      4          9           0        1.185146    2.344797    0.003129
      5          6           0        0.692351   -0.063950   -0.001366
      6          7           0        1.278721   -1.340632   -0.038284
      7          6           0        2.638060   -1.480687   -0.025570
      8          6           0       -0.775434    0.029984    0.008954
      9          7           0       -1.288008    1.355395   -0.016013
     10          6           0       -2.619872    1.455862   -0.024356
     11          6           0       -3.523315    0.473487   -0.020273
     12          6           0       -2.983621   -0.849016    0.039276
     13          6           0       -1.600874   -0.991604    0.002937
     14          9           0       -1.136582   -2.343359    0.015058
     15          1           0        4.572626   -0.645057    0.047416
     16          1           0        3.677205    1.701827    0.006769
     17          1           0        2.952279   -2.548819   -0.030316
     18          1           0       -2.983958    2.538577    0.020201
     19          1           0       -4.548611    0.590665    0.033983
     20          1           0       -3.668656   -1.738872    0.011327
 ---------------------------------------------------------------------
 Rotational constants (GHZ):           1.3360294           0.5386061           0.3839138
 Leave Link  202 at Sun Jul 26 12:21:38 2020, MaxMem=  4026531840 cpu:               0.1 elap:               0.0
 (Enter /opt/ohpc/pub/libs/gaussian/g16-A.03/sandybridge/g16/l301.exe)
 Standard basis: CC-pVDZ (5D, 7F)
 Ernie: Thresh=  0.10000D-02 Tol=  0.10000D-05 Strict=F.
 Ernie:  28 primitive shells out of 338 were deleted.
 There are   240 symmetry adapted cartesian basis functions of A   symmetry.
 There are   226 symmetry adapted basis functions of A   symmetry.
   226 basis functions,   504 primitive gaussians,   240 cartesian basis functions
    49 alpha electrons       49 beta electrons
       nuclear repulsion energy       826.6018315787 Hartrees.
 IExCor=32609 DFT=T Ex+Corr=LC-wPBE ExCW=0 ScaHFX=  1.000000
 ScaDFX=  1.000000  0.000000  1.000000  1.000000 ScalE2=  1.000000  1.000000
 IRadAn=      5 IRanWt=     -1 IRanGd=            0 ICorTp=0 IEmpDi=  4
 HFx  wShort=  0.000000 wLong=  0.210400 cFull=  0.000000 cShort=  0.000000 cLong=  1.000000
 DFx  wShort=  0.000000 wLong=  0.210400 cFull=  0.000000 cShort=  0.000000 cLong=  1.000000
 NAtoms=   20 NActive=   20 NUniq=   20 SFac= 1.00D+00 NAtFMM=   60 NAOKFM=F Big=F
 Integral buffers will be    131072 words long.
 Raffenetti 2 integral format.
 Two-electron integral symmetry is turned on.
 Leave Link  301 at Sun Jul 26 12:21:38 2020, MaxMem=  4026531840 cpu:               0.4 elap:               0.1
 (Enter /opt/ohpc/pub/libs/gaussian/g16-A.03/sandybridge/g16/l302.exe)
 NPDir=0 NMtPBC=     1 NCelOv=     1 NCel=       1 NClECP=     1 NCelD=      1
         NCelK=      1 NCelE2=     1 NClLst=     1 CellRange=     0.0.
 One-electron integrals computed using PRISM.
 One-electron integral symmetry used in STVInt
 NBasis=   226 RedAO= T EigKep=  4.86D-04  NBF=   226
 NBsUse=   226 1.00D-06 EigRej= -1.00D+00 NBFU=   226
 Precomputing XC quadrature grid using
 IXCGrd= 4 IRadAn=           5 IRanWt=          -1 IRanGd=           0 AccXCQ= 0.00D+00.
 Generated NRdTot=       0 NPtTot=           0 NUsed=           0 NTot=          32
 NSgBfM=   239   239   239   239   239 MxSgAt=    20 MxSgA2=    20.
 Leave Link  302 at Sun Jul 26 12:21:38 2020, MaxMem=  4026531840 cpu:               2.2 elap:               0.3
 (Enter /opt/ohpc/pub/libs/gaussian/g16-A.03/sandybridge/g16/l303.exe)
 DipDrv:  MaxL=1.
 Leave Link  303 at Sun Jul 26 12:21:39 2020, MaxMem=  4026531840 cpu:               0.3 elap:               0.1
 (Enter /opt/ohpc/pub/libs/gaussian/g16-A.03/sandybridge/g16/l401.exe)
 ExpMin= 1.22D-01 ExpMax= 1.47D+04 ExpMxC= 5.03D+02 IAcc=3 IRadAn=         5 AccDes= 0.00D+00
 Harris functional with IExCor=32609 and IRadAn=       5 diagonalized for initial guess.
 HarFok:  IExCor=32609 AccDes= 0.00D+00 IRadAn=         5 IDoV= 1 UseB2=F ITyADJ=14
 ICtDFT=  3500011 ScaDFX=  1.000000  1.000000  1.000000  1.000000
 FoFCou: FMM=F IPFlag=           0 FMFlag=      100000 FMFlg1=           0
         NFxFlg=           0 DoJE=T BraDBF=F KetDBF=T FulRan=T
         wScrn=  0.000000 ICntrl=       500 IOpCl=  0 I1Cent=   200000004 NGrid=           0
         NMat0=    1 NMatS0=      1 NMatT0=    0 NMatD0=    1 NMtDS0=    0 NMtDT0=    0
 Petite list used in FoFCou.
 Harris En= -693.229735290046    
 JPrj=0 DoOrth=F DoCkMO=F.
 Initial guess <Sx>= 0.0000 <Sy>= 0.0000 <Sz>= 0.0000 <S**2>=-0.0000 S=-0.0000
 Leave Link  401 at Sun Jul 26 12:21:40 2020, MaxMem=  4026531840 cpu:               9.7 elap:               1.2
 (Enter /opt/ohpc/pub/libs/gaussian/g16-A.03/sandybridge/g16/l502.exe)
 Integral symmetry usage will be decided dynamically.
 UHF open shell SCF:
 Using DIIS extrapolation, IDIIS=  1040.
 NGot=  4026531840 LenX=  4026412200 LenY=  4026354159
 Requested convergence on RMS density matrix=1.00D-08 within 128 cycles.
 Requested convergence on MAX density matrix=1.00D-06.
 Requested convergence on             energy=1.00D-06.
 No special actions if energy rises.
 Fock matrices will be formed incrementally for  20 cycles.
 Integral accuracy reduced to 1.0D-05 until final iterations.

 Cycle   1  Pass 0  IDiag  1:
 FoFJK:  IHMeth= 1 ICntrl=       0 DoSepK=T KAlg= 0 I1Cent=           0 FoldK=F
 IRaf=         1 NMat=       1 IRICut=       1 DoRegI=T DoRafI=F ISym2E= 0 IDoP0=0 IntGTp=1.
 FoFCou: FMM=F IPFlag=           0 FMFlag=      100000 FMFlg1=           0
         NFxFlg=           0 DoJE=T BraDBF=F KetDBF=F FulRan=T
         wScrn=  0.000000 ICntrl=       500 IOpCl=  0 I1Cent=           0 NGrid=           0
         NMat0=    1 NMatS0=      1 NMatT0=    0 NMatD0=    1 NMtDS0=    0 NMtDT0=    0
 Symmetry not used in FoFCou.
 E= -693.112968531440    
 DIIS: error= 1.89D-02 at cycle   1 NSaved=   1.
 NSaved= 1 IEnMin= 1 EnMin= -693.112968531440     IErMin= 1 ErrMin= 1.89D-02
 ErrMax= 1.89D-02  0.00D+00 EMaxC= 1.00D-01 BMatC= 5.46D-01 BMatP= 5.46D-01
 IDIUse=3 WtCom= 8.11D-01 WtEn= 1.89D-01
 Coeff-Com:  0.100D+01
 Coeff-En:   0.100D+01
 Coeff:      0.100D+01
 Gap=     0.326 Goal=   None    Shift=    0.000
 Gap=     0.326 Goal=   None    Shift=    0.000
 GapD=    0.326 DampG=1.000 DampE=0.500 DampFc=0.5000 IDamp=-1.
 Damping current iteration by 5.00D-01
 RMSDP=3.55D-03 MaxDP=9.98D-02              OVMax= 1.50D-01

 Cycle   2  Pass 0  IDiag  1:
 RMSU=  1.77D-03    CP:  9.96D-01
 E= -693.184325704914     Delta-E=       -0.071357173474 Rises=F Damp=T
 DIIS: error= 4.89D-03 at cycle   2 NSaved=   2.
 NSaved= 2 IEnMin= 2 EnMin= -693.184325704914     IErMin= 2 ErrMin= 4.89D-03
 ErrMax= 4.89D-03  0.00D+00 EMaxC= 1.00D-01 BMatC= 3.92D-02 BMatP= 5.46D-01
 IDIUse=3 WtCom= 9.51D-01 WtEn= 4.89D-02
 Coeff-Com: -0.908D-02 0.101D+01
 Coeff-En:   0.000D+00 0.100D+01
 Coeff:     -0.863D-02 0.101D+01
 Gap=     0.316 Goal=   None    Shift=    0.000
 Gap=     0.316 Goal=   None    Shift=    0.000
 RMSDP=1.20D-03 MaxDP=2.39D-02 DE=-7.14D-02 OVMax= 1.05D-01

 Cycle   3  Pass 0  IDiag  1:
 RMSU=  1.07D-03    CP:  9.94D-01  1.31D+00
 E= -693.255878711837     Delta-E=       -0.071553006923 Rises=F Damp=F
 DIIS: error= 5.49D-03 at cycle   3 NSaved=   3.
 NSaved= 3 IEnMin= 3 EnMin= -693.255878711837     IErMin= 2 ErrMin= 4.89D-03
 ErrMax= 5.49D-03  0.00D+00 EMaxC= 1.00D-01 BMatC= 2.65D-02 BMatP= 3.92D-02
 IDIUse=3 WtCom= 9.45D-01 WtEn= 5.49D-02
 Coeff-Com: -0.672D-01 0.478D+00 0.590D+00
 Coeff-En:   0.000D+00 0.000D+00 0.100D+01
 Coeff:     -0.635D-01 0.451D+00 0.612D+00
 Gap=     0.295 Goal=   None    Shift=    0.000
 Gap=     0.295 Goal=   None    Shift=    0.000
 RMSDP=4.64D-04 MaxDP=1.49D-02 DE=-7.16D-02 OVMax= 3.28D-02

 Cycle   4  Pass 0  IDiag  1:
 RMSU=  3.10D-04    CP:  9.95D-01  1.36D+00  6.95D-01
 E= -693.262355751787     Delta-E=       -0.006477039950 Rises=F Damp=F
 DIIS: error= 1.82D-03 at cycle   4 NSaved=   4.
 NSaved= 4 IEnMin= 4 EnMin= -693.262355751787     IErMin= 4 ErrMin= 1.82D-03
 ErrMax= 1.82D-03  0.00D+00 EMaxC= 1.00D-01 BMatC= 2.81D-03 BMatP= 2.65D-02
 IDIUse=3 WtCom= 9.82D-01 WtEn= 1.82D-02
 Coeff-Com: -0.172D-01 0.108D+00 0.286D+00 0.623D+00
 Coeff-En:   0.000D+00 0.000D+00 0.140D-01 0.986D+00
 Coeff:     -0.169D-01 0.106D+00 0.281D+00 0.630D+00
 Gap=     0.296 Goal=   None    Shift=    0.000
 Gap=     0.296 Goal=   None    Shift=    0.000
 RMSDP=1.32D-04 MaxDP=4.76D-03 DE=-6.48D-03 OVMax= 7.06D-03

 Cycle   5  Pass 0  IDiag  1:
 RMSU=  7.35D-05    CP:  9.95D-01  1.35D+00  7.43D-01  7.07D-01
 E= -693.263015241248     Delta-E=       -0.000659489461 Rises=F Damp=F
 DIIS: error= 4.02D-04 at cycle   5 NSaved=   5.
 NSaved= 5 IEnMin= 5 EnMin= -693.263015241248     IErMin= 5 ErrMin= 4.02D-04
 ErrMax= 4.02D-04  0.00D+00 EMaxC= 1.00D-01 BMatC= 2.12D-04 BMatP= 2.81D-03
 IDIUse=3 WtCom= 9.96D-01 WtEn= 4.02D-03
 Coeff-Com: -0.611D-03 0.808D-02 0.850D-01 0.290D+00 0.618D+00
 Coeff-En:   0.000D+00 0.000D+00 0.000D+00 0.000D+00 0.100D+01
 Coeff:     -0.609D-03 0.804D-02 0.847D-01 0.288D+00 0.620D+00
 Gap=     0.296 Goal=   None    Shift=    0.000
 Gap=     0.296 Goal=   None    Shift=    0.000
 RMSDP=3.88D-05 MaxDP=1.09D-03 DE=-6.59D-04 OVMax= 1.92D-03

 Cycle   6  Pass 0  IDiag  1:
 RMSU=  3.02D-05    CP:  9.95D-01  1.35D+00  7.53D-01  7.63D-01  8.22D-01
 E= -693.263060171525     Delta-E=       -0.000044930277 Rises=F Damp=F
 DIIS: error= 1.16D-04 at cycle   6 NSaved=   6.
 NSaved= 6 IEnMin= 6 EnMin= -693.263060171525     IErMin= 6 ErrMin= 1.16D-04
 ErrMax= 1.16D-04  0.00D+00 EMaxC= 1.00D-01 BMatC= 1.74D-05 BMatP= 2.12D-04
 IDIUse=3 WtCom= 9.99D-01 WtEn= 1.16D-03
 Coeff-Com:  0.266D-02-0.107D-01 0.299D-02 0.440D-01 0.234D+00 0.727D+00
 Coeff-En:   0.000D+00 0.000D+00 0.000D+00 0.000D+00 0.000D+00 0.100D+01
 Coeff:      0.266D-02-0.107D-01 0.299D-02 0.439D-01 0.234D+00 0.727D+00
 Gap=     0.296 Goal=   None    Shift=    0.000
 Gap=     0.296 Goal=   None    Shift=    0.000
 RMSDP=1.26D-05 MaxDP=5.06D-04 DE=-4.49D-05 OVMax= 1.39D-03

 Cycle   7  Pass 0  IDiag  1:
 RMSU=  9.27D-06    CP:  9.95D-01  1.35D+00  7.55D-01  7.71D-01  9.30D-01
                    CP:  9.87D-01
 E= -693.263066036936     Delta-E=       -0.000005865411 Rises=F Damp=F
 DIIS: error= 5.39D-05 at cycle   7 NSaved=   7.
 NSaved= 7 IEnMin= 7 EnMin= -693.263066036936     IErMin= 7 ErrMin= 5.39D-05
 ErrMax= 5.39D-05  0.00D+00 EMaxC= 1.00D-01 BMatC= 3.43D-06 BMatP= 1.74D-05
 IDIUse=1 WtCom= 1.00D+00 WtEn= 0.00D+00
 Coeff-Com:  0.150D-02-0.622D-02-0.680D-02-0.113D-01 0.296D-01 0.330D+00
 Coeff-Com:  0.663D+00
 Coeff:      0.150D-02-0.622D-02-0.680D-02-0.113D-01 0.296D-01 0.330D+00
 Coeff:      0.663D+00
 Gap=     0.296 Goal=   None    Shift=    0.000
 Gap=     0.296 Goal=   None    Shift=    0.000
 RMSDP=6.00D-06 MaxDP=2.01D-04 DE=-5.87D-06 OVMax= 5.60D-04

 Initial convergence to 1.0D-05 achieved.  Increase integral accuracy.
 Cycle   8  Pass 1  IDiag  1:
 E= -693.262895347968     Delta-E=        0.000170688968 Rises=F Damp=F
 DIIS: error= 6.04D-05 at cycle   1 NSaved=   1.
 NSaved= 1 IEnMin= 1 EnMin= -693.262895347968     IErMin= 1 ErrMin= 6.04D-05
 ErrMax= 6.04D-05  0.00D+00 EMaxC= 1.00D-01 BMatC= 1.83D-06 BMatP= 1.83D-06
 IDIUse=1 WtCom= 1.00D+00 WtEn= 0.00D+00
 Coeff-Com:  0.100D+01
 Coeff:      0.100D+01
 Gap=     0.296 Goal=   None    Shift=    0.000
 Gap=     0.296 Goal=   None    Shift=    0.000
 RMSDP=6.00D-06 MaxDP=2.01D-04 DE= 1.71D-04 OVMax= 3.65D-04

 Cycle   9  Pass 1  IDiag  1:
 RMSU=  3.05D-05    CP:  1.00D+00
 E= -693.262895663718     Delta-E=       -0.000000315750 Rises=F Damp=F
 DIIS: error= 2.79D-05 at cycle   2 NSaved=   2.
 NSaved= 2 IEnMin= 2 EnMin= -693.262895663718     IErMin= 2 ErrMin= 2.79D-05
 ErrMax= 2.79D-05  0.00D+00 EMaxC= 1.00D-01 BMatC= 9.93D-07 BMatP= 1.83D-06
 IDIUse=1 WtCom= 1.00D+00 WtEn= 0.00D+00
 Coeff-Com:  0.393D+00 0.607D+00
 Coeff:      0.393D+00 0.607D+00
 Gap=     0.296 Goal=   None    Shift=    0.000
 Gap=     0.296 Goal=   None    Shift=    0.000
 RMSDP=3.13D-06 MaxDP=1.40D-04 DE=-3.16D-07 OVMax= 2.05D-04

 Cycle  10  Pass 1  IDiag  1:
 RMSU=  3.03D-06    CP:  1.00D+00  1.02D+00
 E= -693.262895877638     Delta-E=       -0.000000213920 Rises=F Damp=F
 DIIS: error= 1.85D-05 at cycle   3 NSaved=   3.
 NSaved= 3 IEnMin= 3 EnMin= -693.262895877638     IErMin= 3 ErrMin= 1.85D-05
 ErrMax= 1.85D-05  0.00D+00 EMaxC= 1.00D-01 BMatC= 3.20D-07 BMatP= 9.93D-07
 IDIUse=1 WtCom= 1.00D+00 WtEn= 0.00D+00
 Coeff-Com: -0.202D-01 0.354D+00 0.666D+00
 Coeff:     -0.202D-01 0.354D+00 0.666D+00
 Gap=     0.296 Goal=   None    Shift=    0.000
 Gap=     0.296 Goal=   None    Shift=    0.000
 RMSDP=1.60D-06 MaxDP=6.33D-05 DE=-2.14D-07 OVMax= 1.12D-04

 Cycle  11  Pass 1  IDiag  1:
 RMSU=  9.49D-07    CP:  1.00D+00  1.05D+00  7.09D-01
 E= -693.262895943868     Delta-E=       -0.000000066230 Rises=F Damp=F
 DIIS: error= 4.24D-06 at cycle   4 NSaved=   4.
 NSaved= 4 IEnMin= 4 EnMin= -693.262895943868     IErMin= 4 ErrMin= 4.24D-06
 ErrMax= 4.24D-06  0.00D+00 EMaxC= 1.00D-01 BMatC= 1.81D-08 BMatP= 3.20D-07
 IDIUse=1 WtCom= 1.00D+00 WtEn= 0.00D+00
 Coeff-Com: -0.301D-01 0.129D+00 0.298D+00 0.603D+00
 Coeff:     -0.301D-01 0.129D+00 0.298D+00 0.603D+00
 Gap=     0.296 Goal=   None    Shift=    0.000
 Gap=     0.296 Goal=   None    Shift=    0.000
 RMSDP=4.15D-07 MaxDP=9.08D-06 DE=-6.62D-08 OVMax= 3.79D-05

 Cycle  12  Pass 1  IDiag  1:
 RMSU=  3.58D-07    CP:  1.00D+00  1.06D+00  7.47D-01  1.15D+00
 E= -693.262895952052     Delta-E=       -0.000000008184 Rises=F Damp=F
 DIIS: error= 2.32D-06 at cycle   5 NSaved=   5.
 NSaved= 5 IEnMin= 5 EnMin= -693.262895952052     IErMin= 5 ErrMin= 2.32D-06
 ErrMax= 2.32D-06  0.00D+00 EMaxC= 1.00D-01 BMatC= 2.68D-09 BMatP= 1.81D-08
 IDIUse=1 WtCom= 1.00D+00 WtEn= 0.00D+00
 Coeff-Com:  0.285D-02-0.114D+00-0.208D+00 0.824D-01 0.124D+01
 Coeff:      0.285D-02-0.114D+00-0.208D+00 0.824D-01 0.124D+01
 Gap=     0.296 Goal=   None    Shift=    0.000
 Gap=     0.296 Goal=   None    Shift=    0.000
 RMSDP=4.60D-07 MaxDP=1.35D-05 DE=-8.18D-09 OVMax= 6.56D-05

 Cycle  13  Pass 1  IDiag  1:
 RMSU=  1.65D-07    CP:  1.00D+00  1.06D+00  7.73D-01  1.57D+00  1.37D+00
 E= -693.262895956073     Delta-E=       -0.000000004021 Rises=F Damp=F
 DIIS: error= 7.55D-07 at cycle   6 NSaved=   6.
 NSaved= 6 IEnMin= 6 EnMin= -693.262895956073     IErMin= 6 ErrMin= 7.55D-07
 ErrMax= 7.55D-07  0.00D+00 EMaxC= 1.00D-01 BMatC= 6.92D-10 BMatP= 2.68D-09
 IDIUse=1 WtCom= 1.00D+00 WtEn= 0.00D+00
 Coeff-Com:  0.472D-02-0.724D-01-0.139D+00-0.216D-01 0.633D+00 0.595D+00
 Coeff:      0.472D-02-0.724D-01-0.139D+00-0.216D-01 0.633D+00 0.595D+00
 Gap=     0.296 Goal=   None    Shift=    0.000
 Gap=     0.296 Goal=   None    Shift=    0.000
 RMSDP=9.74D-08 MaxDP=2.63D-06 DE=-4.02D-09 OVMax= 1.06D-05

 Cycle  14  Pass 1  IDiag  1:
 RMSU=  6.12D-08    CP:  1.00D+00  1.06D+00  7.77D-01  1.64D+00  1.49D+00
                    CP:  9.82D-01
 E= -693.262895956357     Delta-E=       -0.000000000284 Rises=F Damp=F
 DIIS: error= 3.41D-07 at cycle   7 NSaved=   7.
 NSaved= 7 IEnMin= 7 EnMin= -693.262895956357     IErMin= 7 ErrMin= 3.41D-07
 ErrMax= 3.41D-07  0.00D+00 EMaxC= 1.00D-01 BMatC= 6.20D-11 BMatP= 6.92D-10
 IDIUse=1 WtCom= 1.00D+00 WtEn= 0.00D+00
 Coeff-Com:  0.165D-02-0.182D-01-0.353D-01-0.141D-01 0.125D+00 0.249D+00
 Coeff-Com:  0.692D+00
 Coeff:      0.165D-02-0.182D-01-0.353D-01-0.141D-01 0.125D+00 0.249D+00
 Coeff:      0.692D+00
 Gap=     0.296 Goal=   None    Shift=    0.000
 Gap=     0.296 Goal=   None    Shift=    0.000
 RMSDP=2.98D-08 MaxDP=9.91D-07 DE=-2.84D-10 OVMax= 3.58D-06

 Cycle  15  Pass 1  IDiag  1:
 RMSU=  2.04D-08    CP:  1.00D+00  1.06D+00  7.78D-01  1.65D+00  1.50D+00
                    CP:  1.08D+00  9.90D-01
 E= -693.262895956404     Delta-E=       -0.000000000047 Rises=F Damp=F
 DIIS: error= 1.64D-07 at cycle   8 NSaved=   8.
 NSaved= 8 IEnMin= 8 EnMin= -693.262895956404     IErMin= 8 ErrMin= 1.64D-07
 ErrMax= 1.64D-07  0.00D+00 EMaxC= 1.00D-01 BMatC= 1.27D-11 BMatP= 6.20D-11
 IDIUse=1 WtCom= 1.00D+00 WtEn= 0.00D+00
 Coeff-Com: -0.691D-03 0.129D-01 0.251D-01 0.467D-02-0.133D+00-0.773D-01
 Coeff-Com:  0.269D+00 0.899D+00
 Coeff:     -0.691D-03 0.129D-01 0.251D-01 0.467D-02-0.133D+00-0.773D-01
 Coeff:      0.269D+00 0.899D+00
 Gap=     0.296 Goal=   None    Shift=    0.000
 Gap=     0.296 Goal=   None    Shift=    0.000
 RMSDP=1.89D-08 MaxDP=4.78D-07 DE=-4.71D-11 OVMax= 1.94D-06

 Cycle  16  Pass 1  IDiag  1:
 RMSU=  1.14D-08    CP:  1.00D+00  1.06D+00  7.78D-01  1.65D+00  1.51D+00
                    CP:  1.14D+00  1.16D+00  1.12D+00
 E= -693.262895956365     Delta-E=        0.000000000039 Rises=F Damp=F
 DIIS: error= 3.81D-08 at cycle   9 NSaved=   9.
 NSaved= 9 IEnMin= 8 EnMin= -693.262895956404     IErMin= 9 ErrMin= 3.81D-08
 ErrMax= 3.81D-08  0.00D+00 EMaxC= 1.00D-01 BMatC= 1.11D-12 BMatP= 1.27D-11
 IDIUse=1 WtCom= 1.00D+00 WtEn= 0.00D+00
 Coeff-Com: -0.400D-03 0.632D-02 0.123D-01 0.411D-02-0.605D-01-0.521D-01
 Coeff-Com:  0.432D-01 0.316D+00 0.731D+00
 Coeff:     -0.400D-03 0.632D-02 0.123D-01 0.411D-02-0.605D-01-0.521D-01
 Coeff:      0.432D-01 0.316D+00 0.731D+00
 Gap=     0.296 Goal=   None    Shift=    0.000
 Gap=     0.296 Goal=   None    Shift=    0.000
 RMSDP=4.65D-09 MaxDP=1.19D-07 DE= 3.93D-11 OVMax= 4.52D-07

 SCF Done:  E(ULC-wPBE) =  -693.262895956     A.U. after   16 cycles
            NFock= 16  Conv=0.47D-08     -V/T= 2.0062
 <Sx>= 0.0000 <Sy>= 0.0000 <Sz>= 0.0000 <S**2>=-0.0000 S=-0.0000
 <L.S>= 0.000000000000E+00
 KE= 6.889593557897D+02 PE=-3.277024261916D+03 EE= 1.068200178592D+03
 Annihilation of the first spin contaminant:
 S**2 before annihilation    -0.0000,   after     0.0000
 Leave Link  502 at Sun Jul 26 12:22:39 2020, MaxMem=  4026531840 cpu:             475.1 elap:              59.6
 (Enter /opt/ohpc/pub/libs/gaussian/g16-A.03/sandybridge/g16/l601.exe)
 Copying SCF densities to generalized density rwf, IOpCl= 1 IROHF=0.

 **********************************************************************

            Population analysis using the SCF density.

 **********************************************************************

 Orbital symmetries:
 Alpha Orbitals:
       Occupied  (A) (A) (A) (A) (A) (A) (A) (A) (A) (A) (A) (A)
                 (A) (A) (A) (A) (A) (A) (A) (A) (A) (A) (A) (A)
                 (A) (A) (A) (A) (A) (A) (A) (A) (A) (A) (A) (A)
                 (A) (A) (A) (A) (A) (A) (A) (A) (A) (A) (A) (A)
                 (A)
       Virtual   (A) (A) (A) (A) (A) (A) (A) (A) (A) (A) (A) (A)
                 (A) (A) (A) (A) (A) (A) (A) (A) (A) (A) (A) (A)
                 (A) (A) (A) (A) (A) (A) (A) (A) (A) (A) (A) (A)
                 (A) (A) (A) (A) (A) (A) (A) (A) (A) (A) (A) (A)
                 (A) (A) (A) (A) (A) (A) (A) (A) (A) (A) (A) (A)
                 (A) (A) (A) (A) (A) (A) (A) (A) (A) (A) (A) (A)
                 (A) (A) (A) (A) (A) (A) (A) (A) (A) (A) (A) (A)
                 (A) (A) (A) (A) (A) (A) (A) (A) (A) (A) (A) (A)
                 (A) (A) (A) (A) (A) (A) (A) (A) (A) (A) (A) (A)
                 (A) (A) (A) (A) (A) (A) (A) (A) (A) (A) (A) (A)
                 (A) (A) (A) (A) (A) (A) (A) (A) (A) (A) (A) (A)
                 (A) (A) (A) (A) (A) (A) (A) (A) (A) (A) (A) (A)
                 (A) (A) (A) (A) (A) (A) (A) (A) (A) (A) (A) (A)
                 (A) (A) (A) (A) (A) (A) (A) (A) (A) (A) (A) (A)
                 (A) (A) (A) (A) (A) (A) (A) (A) (A)
 Beta  Orbitals:
       Occupied  (A) (A) (A) (A) (A) (A) (A) (A) (A) (A) (A) (A)
                 (A) (A) (A) (A) (A) (A) (A) (A) (A) (A) (A) (A)
                 (A) (A) (A) (A) (A) (A) (A) (A) (A) (A) (A) (A)
                 (A) (A) (A) (A) (A) (A) (A) (A) (A) (A) (A) (A)
                 (A)
       Virtual   (A) (A) (A) (A) (A) (A) (A) (A) (A) (A) (A) (A)
                 (A) (A) (A) (A) (A) (A) (A) (A) (A) (A) (A) (A)
                 (A) (A) (A) (A) (A) (A) (A) (A) (A) (A) (A) (A)
                 (A) (A) (A) (A) (A) (A) (A) (A) (A) (A) (A) (A)
                 (A) (A) (A) (A) (A) (A) (A) (A) (A) (A) (A) (A)
                 (A) (A) (A) (A) (A) (A) (A) (A) (A) (A) (A) (A)
                 (A) (A) (A) (A) (A) (A) (A) (A) (A) (A) (A) (A)
                 (A) (A) (A) (A) (A) (A) (A) (A) (A) (A) (A) (A)
                 (A) (A) (A) (A) (A) (A) (A) (A) (A) (A) (A) (A)
                 (A) (A) (A) (A) (A) (A) (A) (A) (A) (A) (A) (A)
                 (A) (A) (A) (A) (A) (A) (A) (A) (A) (A) (A) (A)
                 (A) (A) (A) (A) (A) (A) (A) (A) (A) (A) (A) (A)
                 (A) (A) (A) (A) (A) (A) (A) (A) (A) (A) (A) (A)
                 (A) (A) (A) (A) (A) (A) (A) (A) (A) (A) (A) (A)
                 (A) (A) (A) (A) (A) (A) (A) (A) (A)
 The electronic state is 1-A.
 Alpha  occ. eigenvalues --  -24.40187 -24.38447 -14.13064 -14.12495 -10.11932
 Alpha  occ. eigenvalues --  -10.10479 -10.07647 -10.07134 -10.05697 -10.05568
 Alpha  occ. eigenvalues --  -10.05451 -10.05161 -10.03623 -10.03565  -1.23411
 Alpha  occ. eigenvalues --   -1.20066  -0.99698  -0.97265  -0.86487  -0.86026
 Alpha  occ. eigenvalues --   -0.84205  -0.81150  -0.73094  -0.71180  -0.67856
 Alpha  occ. eigenvalues --   -0.66841  -0.60895  -0.59258  -0.58441  -0.56703
 Alpha  occ. eigenvalues --   -0.55043  -0.54226  -0.52728  -0.52563  -0.50617
 Alpha  occ. eigenvalues --   -0.49253  -0.47274  -0.45863  -0.45590  -0.45343
 Alpha  occ. eigenvalues --   -0.44958  -0.42322  -0.41547  -0.38552  -0.35167
 Alpha  occ. eigenvalues --   -0.34125  -0.33292  -0.31495  -0.31297
 Alpha virt. eigenvalues --   -0.01666   0.01505   0.04052   0.08145   0.11326
 Alpha virt. eigenvalues --    0.13378   0.14836   0.17040   0.17565   0.17904
 Alpha virt. eigenvalues --    0.19095   0.19865   0.20160   0.23119   0.25544
 Alpha virt. eigenvalues --    0.28531   0.29525   0.32901   0.34779   0.37202
 Alpha virt. eigenvalues --    0.39163   0.40111   0.40869   0.43530   0.44714
 Alpha virt. eigenvalues --    0.47683   0.48632   0.50107   0.51400   0.51834
 Alpha virt. eigenvalues --    0.51981   0.52741   0.53752   0.55640   0.57064
 Alpha virt. eigenvalues --    0.57190   0.57647   0.58020   0.58475   0.58729
 Alpha virt. eigenvalues --    0.59508   0.60669   0.62158   0.64687   0.65137
 Alpha virt. eigenvalues --    0.65259   0.65799   0.71005   0.71301   0.71963
 Alpha virt. eigenvalues --    0.73095   0.74110   0.74483   0.74954   0.75324
 Alpha virt. eigenvalues --    0.80887   0.81429   0.86653   0.88167   0.88486
 Alpha virt. eigenvalues --    0.90500   0.91082   0.92561   0.93629   0.95174
 Alpha virt. eigenvalues --    0.95426   0.96738   0.98854   0.99069   1.01642
 Alpha virt. eigenvalues --    1.03119   1.03534   1.05209   1.05943   1.07163
 Alpha virt. eigenvalues --    1.07657   1.09315   1.10142   1.13299   1.15385
 Alpha virt. eigenvalues --    1.17533   1.17878   1.20646   1.21448   1.25878
 Alpha virt. eigenvalues --    1.26683   1.27263   1.29249   1.33187   1.35668
 Alpha virt. eigenvalues --    1.37078   1.38870   1.41218   1.43950   1.45113
 Alpha virt. eigenvalues --    1.46065   1.50686   1.51784   1.52769   1.53384
 Alpha virt. eigenvalues --    1.53945   1.55731   1.56165   1.57743   1.61053
 Alpha virt. eigenvalues --    1.62218   1.62891   1.64894   1.66487   1.66977
 Alpha virt. eigenvalues --    1.67912   1.68529   1.69208   1.70806   1.71986
 Alpha virt. eigenvalues --    1.73026   1.76048   1.76302   1.78308   1.80071
 Alpha virt. eigenvalues --    1.81867   1.82748   1.84318   1.85494   1.87185
 Alpha virt. eigenvalues --    1.88544   1.91446   1.91901   1.93269   1.94904
 Alpha virt. eigenvalues --    1.95818   2.00148   2.00832   2.02169   2.03910
 Alpha virt. eigenvalues --    2.06292   2.06995   2.07559   2.07839   2.15799
 Alpha virt. eigenvalues --    2.20922   2.27013   2.29832   2.32824   2.33203
 Alpha virt. eigenvalues --    2.36636   2.38513   2.40910   2.42139   2.45411
 Alpha virt. eigenvalues --    2.48525   2.51475   2.51579   2.54371   2.57130
 Alpha virt. eigenvalues --    2.59340   2.61611   2.65879   2.70526   2.74541
 Alpha virt. eigenvalues --    2.76237   2.82232   2.88794   2.94798   3.04184
 Alpha virt. eigenvalues --    3.33184   3.40573   3.58666   3.60404   3.62240
 Alpha virt. eigenvalues --    3.64032   3.74142   3.76642   3.93780   3.96320
 Alpha virt. eigenvalues --    4.15922   4.19074
  Beta  occ. eigenvalues --  -24.40187 -24.38447 -14.13064 -14.12495 -10.11932
  Beta  occ. eigenvalues --  -10.10479 -10.07647 -10.07134 -10.05697 -10.05568
  Beta  occ. eigenvalues --  -10.05451 -10.05161 -10.03623 -10.03565  -1.23411
  Beta  occ. eigenvalues --   -1.20066  -0.99698  -0.97265  -0.86487  -0.86026
  Beta  occ. eigenvalues --   -0.84205  -0.81150  -0.73094  -0.71180  -0.67856
  Beta  occ. eigenvalues --   -0.66841  -0.60895  -0.59258  -0.58441  -0.56703
  Beta  occ. eigenvalues --   -0.55043  -0.54226  -0.52728  -0.52563  -0.50617
  Beta  occ. eigenvalues --   -0.49253  -0.47274  -0.45863  -0.45590  -0.45343
  Beta  occ. eigenvalues --   -0.44958  -0.42322  -0.41547  -0.38552  -0.35167
  Beta  occ. eigenvalues --   -0.34125  -0.33292  -0.31495  -0.31297
  Beta virt. eigenvalues --   -0.01666   0.01505   0.04052   0.08145   0.11326
  Beta virt. eigenvalues --    0.13378   0.14836   0.17040   0.17565   0.17904
  Beta virt. eigenvalues --    0.19095   0.19865   0.20160   0.23119   0.25544
  Beta virt. eigenvalues --    0.28531   0.29525   0.32901   0.34779   0.37202
  Beta virt. eigenvalues --    0.39163   0.40111   0.40869   0.43530   0.44714
  Beta virt. eigenvalues --    0.47683   0.48632   0.50107   0.51400   0.51834
  Beta virt. eigenvalues --    0.51981   0.52741   0.53752   0.55640   0.57064
  Beta virt. eigenvalues --    0.57190   0.57647   0.58020   0.58475   0.58729
  Beta virt. eigenvalues --    0.59508   0.60669   0.62158   0.64687   0.65137
  Beta virt. eigenvalues --    0.65259   0.65799   0.71005   0.71301   0.71963
  Beta virt. eigenvalues --    0.73095   0.74110   0.74483   0.74954   0.75324
  Beta virt. eigenvalues --    0.80887   0.81429   0.86653   0.88167   0.88486
  Beta virt. eigenvalues --    0.90500   0.91082   0.92561   0.93629   0.95174
  Beta virt. eigenvalues --    0.95426   0.96738   0.98854   0.99069   1.01642
  Beta virt. eigenvalues --    1.03119   1.03534   1.05209   1.05943   1.07163
  Beta virt. eigenvalues --    1.07657   1.09315   1.10142   1.13299   1.15385
  Beta virt. eigenvalues --    1.17533   1.17878   1.20646   1.21448   1.25878
  Beta virt. eigenvalues --    1.26683   1.27263   1.29249   1.33187   1.35668
  Beta virt. eigenvalues --    1.37078   1.38870   1.41218   1.43950   1.45113
  Beta virt. eigenvalues --    1.46065   1.50686   1.51784   1.52769   1.53384
  Beta virt. eigenvalues --    1.53945   1.55731   1.56165   1.57743   1.61053
  Beta virt. eigenvalues --    1.62218   1.62891   1.64894   1.66487   1.66977
  Beta virt. eigenvalues --    1.67912   1.68529   1.69208   1.70806   1.71986
  Beta virt. eigenvalues --    1.73026   1.76048   1.76302   1.78308   1.80071
  Beta virt. eigenvalues --    1.81867   1.82748   1.84318   1.85494   1.87185
  Beta virt. eigenvalues --    1.88544   1.91446   1.91901   1.93269   1.94904
  Beta virt. eigenvalues --    1.95818   2.00148   2.00832   2.02169   2.03910
  Beta virt. eigenvalues --    2.06292   2.06995   2.07559   2.07839   2.15799
  Beta virt. eigenvalues --    2.20922   2.27013   2.29832   2.32824   2.33203
  Beta virt. eigenvalues --    2.36636   2.38513   2.40910   2.42139   2.45411
  Beta virt. eigenvalues --    2.48525   2.51475   2.51579   2.54371   2.57130
  Beta virt. eigenvalues --    2.59340   2.61611   2.65879   2.70526   2.74541
  Beta virt. eigenvalues --    2.76237   2.82232   2.88794   2.94798   3.04184
  Beta virt. eigenvalues --    3.33184   3.40573   3.58666   3.60404   3.62240
  Beta virt. eigenvalues --    3.64032   3.74142   3.76642   3.93780   3.96320
  Beta virt. eigenvalues --    4.15922   4.19074
          Condensed to atoms (all electrons):
               1          2          3          4          5          6
     1  C    4.843016   0.451676   0.010891   0.003926  -0.038257  -0.032825
     2  C    0.451676   4.866095   0.444595  -0.047636  -0.053250  -0.037236
     3  C    0.010891   0.444595   5.069498   0.400223   0.142017  -0.040643
     4  F    0.003926  -0.047636   0.400223   8.811632  -0.049080   0.001074
     5  C   -0.038257  -0.053250   0.142017  -0.049080   5.419773   0.530551
     6  N   -0.032825  -0.037236  -0.040643   0.001074   0.530551   6.325905
     7  C    0.441885  -0.022956  -0.055836   0.000104  -0.073937   0.561467
     8  C    0.000274   0.005088  -0.095484  -0.003017   0.247240  -0.068934
     9  N   -0.000006   0.000662   0.012411  -0.003459  -0.072156   0.000931
    10  C   -0.000001   0.000014  -0.000731  -0.000006   0.005184  -0.000083
    11  C    0.000000  -0.000000   0.000176  -0.000019   0.000675  -0.000000
    12  C   -0.000000   0.000006  -0.000296  -0.000006   0.005669   0.000788
    13  C    0.000171  -0.000253   0.018696   0.000044  -0.114985   0.009855
    14  F   -0.000018  -0.000007   0.000123   0.000000  -0.001418  -0.005712
    15  H    0.388157  -0.042468   0.008359  -0.000037   0.000310   0.005546
    16  H   -0.043672   0.387871  -0.036937   0.001904   0.011040  -0.000280
    17  H   -0.063348   0.006767   0.000534   0.000005   0.003796  -0.033275
    18  H   -0.000000  -0.000001  -0.000087   0.000122  -0.000615   0.000003
    19  H    0.000000  -0.000000  -0.000003   0.000000   0.000086  -0.000000
    20  H    0.000000   0.000000   0.000008  -0.000000  -0.000290   0.000022
               7          8          9         10         11         12
     1  C    0.441885   0.000274  -0.000006  -0.000001   0.000000  -0.000000
     2  C   -0.022956   0.005088   0.000662   0.000014  -0.000000   0.000006
     3  C   -0.055836  -0.095484   0.012411  -0.000731   0.000176  -0.000296
     4  F    0.000104  -0.003017  -0.003459  -0.000006  -0.000019  -0.000006
     5  C   -0.073937   0.247240  -0.072156   0.005184   0.000675   0.005669
     6  N    0.561467  -0.068934   0.000931  -0.000083  -0.000000   0.000788
     7  C    4.701998   0.005347  -0.000065   0.000005  -0.000001   0.000020
     8  C    0.005347   5.491425   0.530147  -0.071234  -0.057047  -0.050539
     9  N   -0.000065   0.530147   6.307261   0.574987  -0.028493  -0.041871
    10  C    0.000005  -0.071234   0.574987   4.707382   0.440429  -0.016627
    11  C   -0.000001  -0.057047  -0.028493   0.440429   4.818512   0.451544
    12  C    0.000020  -0.050539  -0.041871  -0.016627   0.451544   4.903473
    13  C   -0.000788   0.018516  -0.038784  -0.064747   0.023995   0.431201
    14  F   -0.000102  -0.067473   0.001048   0.000038   0.003595  -0.051934
    15  H   -0.039649   0.000078  -0.000000   0.000000  -0.000000  -0.000000
    16  H    0.008679  -0.000268   0.000019   0.000000   0.000000   0.000000
    17  H    0.402551  -0.000583   0.000003  -0.000000  -0.000000  -0.000001
    18  H   -0.000000   0.004217  -0.035032   0.397568  -0.067730   0.007121
    19  H    0.000000   0.000732   0.005404  -0.045665   0.394586  -0.039587
    20  H    0.000000   0.013495  -0.000267   0.008856  -0.044635   0.378334
              13         14         15         16         17         18
     1  C    0.000171  -0.000018   0.388157  -0.043672  -0.063348  -0.000000
     2  C   -0.000253  -0.000007  -0.042468   0.387871   0.006767  -0.000001
     3  C    0.018696   0.000123   0.008359  -0.036937   0.000534  -0.000087
     4  F    0.000044   0.000000  -0.000037   0.001904   0.000005   0.000122
     5  C   -0.114985  -0.001418   0.000310   0.011040   0.003796  -0.000615
     6  N    0.009855  -0.005712   0.005546  -0.000280  -0.033275   0.000003
     7  C   -0.000788  -0.000102  -0.039649   0.008679   0.402551  -0.000000
     8  C    0.018516  -0.067473   0.000078  -0.000268  -0.000583   0.004217
     9  N   -0.038784   0.001048  -0.000000   0.000019   0.000003  -0.035032
    10  C   -0.064747   0.000038   0.000000   0.000000  -0.000000   0.397568
    11  C    0.023995   0.003595  -0.000000   0.000000  -0.000000  -0.067730
    12  C    0.431201  -0.051934  -0.000000   0.000000  -0.000001   0.007121
    13  C    5.195632   0.414535  -0.000003   0.000007  -0.000071   0.000975
    14  F    0.414535   8.865303   0.000000  -0.000000   0.000158   0.000006
    15  H   -0.000003   0.000000   0.721357  -0.013424  -0.009637   0.000000
    16  H    0.000007  -0.000000  -0.013424   0.680683  -0.000226  -0.000000
    17  H   -0.000071   0.000158  -0.009637  -0.000226   0.678573  -0.000000
    18  H    0.000975   0.000006   0.000000  -0.000000  -0.000000   0.687822
    19  H    0.009958  -0.000037   0.000000  -0.000000   0.000000  -0.010393
    20  H   -0.035251   0.001228  -0.000000   0.000000  -0.000000  -0.000233
              19         20
     1  C    0.000000   0.000000
     2  C   -0.000000   0.000000
     3  C   -0.000003   0.000008
     4  F    0.000000  -0.000000
     5  C    0.000086  -0.000290
     6  N   -0.000000   0.000022
     7  C    0.000000   0.000000
     8  C    0.000732   0.013495
     9  N    0.005404  -0.000267
    10  C   -0.045665   0.008856
    11  C    0.394586  -0.044635
    12  C   -0.039587   0.378334
    13  C    0.009958  -0.035251
    14  F   -0.000037   0.001228
    15  H    0.000000  -0.000000
    16  H   -0.000000   0.000000
    17  H    0.000000  -0.000000
    18  H   -0.010393  -0.000233
    19  H    0.729316  -0.013596
    20  H   -0.013596   0.665193
          Atomic-Atomic Spin Densities.
               1          2          3          4          5          6
     1  C    0.000000  -0.000000  -0.000000  -0.000000   0.000000  -0.000000
     2  C   -0.000000   0.000000   0.000000  -0.000000  -0.000000   0.000000
     3  C   -0.000000   0.000000  -0.000000  -0.000000   0.000000   0.000000
     4  F   -0.000000  -0.000000  -0.000000   0.000000  -0.000000  -0.000000
     5  C    0.000000  -0.000000   0.000000  -0.000000   0.000000  -0.000000
     6  N   -0.000000   0.000000   0.000000  -0.000000  -0.000000   0.000000
     7  C   -0.000000   0.000000   0.000000   0.000000  -0.000000   0.000000
     8  C    0.000000  -0.000000   0.000000   0.000000   0.000000   0.000000
     9  N    0.000000  -0.000000  -0.000000   0.000000   0.000000   0.000000
    10  C    0.000000  -0.000000   0.000000  -0.000000  -0.000000  -0.000000
    11  C   -0.000000  -0.000000  -0.000000   0.000000   0.000000   0.000000
    12  C   -0.000000  -0.000000   0.000000  -0.000000  -0.000000  -0.000000
    13  C   -0.000000   0.000000  -0.000000  -0.000000   0.000000  -0.000000
    14  F   -0.000000   0.000000  -0.000000   0.000000  -0.000000   0.000000
    15  H    0.000000  -0.000000   0.000000  -0.000000   0.000000   0.000000
    16  H   -0.000000   0.000000   0.000000  -0.000000   0.000000  -0.000000
    17  H   -0.000000   0.000000  -0.000000   0.000000  -0.000000  -0.000000
    18  H    0.000000   0.000000   0.000000   0.000000  -0.000000   0.000000
    19  H   -0.000000   0.000000  -0.000000   0.000000   0.000000   0.000000
    20  H    0.000000  -0.000000   0.000000  -0.000000  -0.000000  -0.000000
               7          8          9         10         11         12
     1  C   -0.000000   0.000000   0.000000   0.000000  -0.000000  -0.000000
     2  C    0.000000  -0.000000  -0.000000  -0.000000  -0.000000  -0.000000
     3  C    0.000000   0.000000  -0.000000   0.000000  -0.000000   0.000000
     4  F    0.000000   0.000000   0.000000  -0.000000   0.000000  -0.000000
     5  C   -0.000000   0.000000   0.000000  -0.000000   0.000000  -0.000000
     6  N    0.000000   0.000000   0.000000  -0.000000   0.000000  -0.000000
     7  C    0.000000  -0.000000   0.000000  -0.000000   0.000000   0.000000
     8  C   -0.000000  -0.000000  -0.000000  -0.000000   0.000000  -0.000000
     9  N    0.000000  -0.000000  -0.000000   0.000000   0.000000   0.000000
    10  C   -0.000000  -0.000000   0.000000  -0.000000   0.000000  -0.000000
    11  C    0.000000   0.000000   0.000000   0.000000  -0.000000   0.000000
    12  C    0.000000  -0.000000   0.000000  -0.000000   0.000000  -0.000000
    13  C    0.000000   0.000000  -0.000000   0.000000  -0.000000   0.000000
    14  F    0.000000   0.000000  -0.000000   0.000000  -0.000000   0.000000
    15  H   -0.000000  -0.000000  -0.000000  -0.000000  -0.000000   0.000000
    16  H    0.000000  -0.000000   0.000000  -0.000000   0.000000   0.000000
    17  H    0.000000  -0.000000   0.000000  -0.000000   0.000000  -0.000000
    18  H   -0.000000  -0.000000   0.000000  -0.000000  -0.000000  -0.000000
    19  H    0.000000   0.000000  -0.000000   0.000000  -0.000000   0.000000
    20  H   -0.000000  -0.000000   0.000000  -0.000000   0.000000  -0.000000
              13         14         15         16         17         18
     1  C   -0.000000  -0.000000   0.000000  -0.000000  -0.000000   0.000000
     2  C    0.000000   0.000000  -0.000000   0.000000   0.000000   0.000000
     3  C   -0.000000  -0.000000   0.000000   0.000000  -0.000000   0.000000
     4  F   -0.000000   0.000000  -0.000000  -0.000000   0.000000   0.000000
     5  C    0.000000  -0.000000   0.000000   0.000000  -0.000000  -0.000000
     6  N   -0.000000   0.000000   0.000000  -0.000000  -0.000000   0.000000
     7  C    0.000000   0.000000  -0.000000   0.000000   0.000000  -0.000000
     8  C    0.000000   0.000000  -0.000000  -0.000000  -0.000000  -0.000000
     9  N   -0.000000  -0.000000  -0.000000   0.000000   0.000000   0.000000
    10  C    0.000000   0.000000  -0.000000  -0.000000  -0.000000  -0.000000
    11  C   -0.000000  -0.000000  -0.000000   0.000000   0.000000  -0.000000
    12  C    0.000000   0.000000   0.000000   0.000000  -0.000000  -0.000000
    13  C   -0.000000  -0.000000   0.000000   0.000000  -0.000000   0.000000
    14  F   -0.000000   0.000000  -0.000000   0.000000   0.000000   0.000000
    15  H    0.000000  -0.000000   0.000000  -0.000000  -0.000000   0.000000
    16  H    0.000000   0.000000  -0.000000   0.000000   0.000000  -0.000000
    17  H   -0.000000   0.000000  -0.000000   0.000000   0.000000  -0.000000
    18  H    0.000000   0.000000   0.000000  -0.000000  -0.000000   0.000000
    19  H   -0.000000  -0.000000  -0.000000   0.000000   0.000000   0.000000
    20  H   -0.000000   0.000000   0.000000  -0.000000  -0.000000  -0.000000
              19         20
     1  C   -0.000000   0.000000
     2  C    0.000000  -0.000000
     3  C   -0.000000   0.000000
     4  F    0.000000  -0.000000
     5  C    0.000000  -0.000000
     6  N    0.000000  -0.000000
     7  C    0.000000  -0.000000
     8  C    0.000000  -0.000000
     9  N   -0.000000   0.000000
    10  C    0.000000  -0.000000
    11  C   -0.000000   0.000000
    12  C    0.000000  -0.000000
    13  C   -0.000000  -0.000000
    14  F   -0.000000   0.000000
    15  H   -0.000000   0.000000
    16  H    0.000000  -0.000000
    17  H    0.000000  -0.000000
    18  H    0.000000  -0.000000
    19  H   -0.000000   0.000000
    20  H    0.000000  -0.000000
 Mulliken charges and spin densities:
               1          2
     1  C    0.038131  -0.000000
     2  C    0.041034   0.000000
     3  C    0.122485  -0.000000
     4  F   -0.115774   0.000000
     5  C    0.037648   0.000000
     6  N   -0.217153   0.000000
     7  C    0.071276   0.000000
     8  C    0.098021  -0.000000
     9  N   -0.212740   0.000000
    10  C    0.064631  -0.000000
    11  C    0.064415   0.000000
    12  C    0.022703  -0.000000
    13  C    0.131297   0.000000
    14  F   -0.159332   0.000000
    15  H   -0.018589  -0.000000
    16  H    0.004603   0.000000
    17  H    0.014754  -0.000000
    18  H    0.016255   0.000000
    19  H   -0.030802  -0.000000
    20  H    0.027135  -0.000000
 Sum of Mulliken charges =  -0.00000   0.00000
 Mulliken charges and spin densities with hydrogens summed into heavy atoms:
               1          2
     1  C    0.019542  -0.000000
     2  C    0.045637   0.000000
     3  C    0.122485  -0.000000
     4  F   -0.115774   0.000000
     5  C    0.037648   0.000000
     6  N   -0.217153   0.000000
     7  C    0.086031   0.000000
     8  C    0.098021  -0.000000
     9  N   -0.212740   0.000000
    10  C    0.080887  -0.000000
    11  C    0.033612   0.000000
    12  C    0.049838  -0.000000
    13  C    0.131297   0.000000
    14  F   -0.159332   0.000000
 Electronic spatial extent (au):  <R**2>=           2671.8189
 Charge=             -0.0000 electrons
 Dipole moment (field-independent basis, Debye):
    X=             -0.2536    Y=              0.2187    Z=              0.0787  Tot=              0.3440
 Quadrupole moment (field-independent basis, Debye-Ang):
   XX=            -52.2918   YY=            -81.1958   ZZ=            -79.2264
   XY=             -0.8163   XZ=             -0.0933   YZ=              0.0106
 Traceless Quadrupole moment (field-independent basis, Debye-Ang):
   XX=             18.6128   YY=            -10.2911   ZZ=             -8.3217
   XY=             -0.8163   XZ=             -0.0933   YZ=              0.0106
 Octapole moment (field-independent basis, Debye-Ang**2):
  XXX=             -3.9950  YYY=              1.0868  ZZZ=              0.0506  XYY=              1.5425
  XXY=             -1.5514  XXZ=              1.1687  XZZ=             -0.5779  YZZ=              0.0973
  YYZ=              0.2653  XYZ=             -0.4331
 Hexadecapole moment (field-independent basis, Debye-Ang**3):
 XXXX=          -2100.8883 YYYY=           -856.1622 ZZZZ=            -77.3720 XXXY=             31.3719
 XXXZ=             -1.3561 YYYX=             10.8106 YYYZ=              0.3517 ZZZX=             -0.4296
 ZZZY=             -0.2006 XXYY=           -494.2664 XXZZ=           -469.4301 YYZZ=           -156.5785
 XXYZ=              0.4077 YYXZ=             -0.7269 ZZXY=             14.9316
 N-N= 8.266018315787D+02 E-N=-3.277024266428D+03  KE= 6.889593557897D+02
                          Isotropic Fermi Contact Couplings
        Atom                 a.u.       MegaHertz       Gauss      10(-4) cm-1
     1  C(13)              0.00000       0.00000       0.00000       0.00000
     2  C(13)              0.00000       0.00000       0.00000       0.00000
     3  C(13)             -0.00000      -0.00000      -0.00000      -0.00000
     4  F(19)              0.00000       0.00000       0.00000       0.00000
     5  C(13)             -0.00000      -0.00000      -0.00000      -0.00000
     6  N(14)              0.00000       0.00000       0.00000       0.00000
     7  C(13)             -0.00000      -0.00000      -0.00000      -0.00000
     8  C(13)             -0.00000      -0.00000      -0.00000      -0.00000
     9  N(14)              0.00000       0.00000       0.00000       0.00000
    10  C(13)              0.00000       0.00000       0.00000       0.00000
    11  C(13)              0.00000       0.00000       0.00000       0.00000
    12  C(13)             -0.00000      -0.00000      -0.00000      -0.00000
    13  C(13)             -0.00000      -0.00000      -0.00000      -0.00000
    14  F(19)             -0.00000      -0.00000      -0.00000      -0.00000
    15  H(1)               0.00000       0.00000       0.00000       0.00000
    16  H(1)               0.00000       0.00000       0.00000       0.00000
    17  H(1)              -0.00000      -0.00000      -0.00000      -0.00000
    18  H(1)               0.00000       0.00000       0.00000       0.00000
    19  H(1)              -0.00000      -0.00000      -0.00000      -0.00000
    20  H(1)              -0.00000      -0.00000      -0.00000      -0.00000
 --------------------------------------------------------
       Center         ----  Spin Dipole Couplings  ----
                      3XX-RR        3YY-RR        3ZZ-RR
 --------------------------------------------------------
     1   Atom        0.000000     -0.000000     -0.000000
     2   Atom        0.000000     -0.000000     -0.000000
     3   Atom        0.000000     -0.000000      0.000000
     4   Atom        0.000000     -0.000000     -0.000000
     5   Atom        0.000000     -0.000000     -0.000000
     6   Atom        0.000000     -0.000000     -0.000000
     7   Atom        0.000000     -0.000000     -0.000000
     8   Atom       -0.000000      0.000000     -0.000000
     9   Atom        0.000000     -0.000000      0.000000
    10   Atom       -0.000000     -0.000000      0.000000
    11   Atom       -0.000000     -0.000000      0.000000
    12   Atom        0.000000     -0.000000     -0.000000
    13   Atom        0.000000     -0.000000      0.000000
    14   Atom       -0.000000      0.000000      0.000000
    15   Atom        0.000000     -0.000000     -0.000000
    16   Atom       -0.000000      0.000000     -0.000000
    17   Atom       -0.000000      0.000000     -0.000000
    18   Atom       -0.000000     -0.000000      0.000000
    19   Atom       -0.000000      0.000000      0.000000
    20   Atom        0.000000      0.000000     -0.000000
 --------------------------------------------------------
                        XY            XZ            YZ
 --------------------------------------------------------
     1   Atom        0.000000      0.000000     -0.000000
     2   Atom        0.000000     -0.000000      0.000000
     3   Atom       -0.000000     -0.000000     -0.000000
     4   Atom        0.000000      0.000000      0.000000
     5   Atom       -0.000000     -0.000000      0.000000
     6   Atom       -0.000000      0.000000     -0.000000
     7   Atom       -0.000000     -0.000000      0.000000
     8   Atom        0.000000      0.000000     -0.000000
     9   Atom       -0.000000     -0.000000     -0.000000
    10   Atom       -0.000000      0.000000     -0.000000
    11   Atom        0.000000      0.000000      0.000000
    12   Atom       -0.000000      0.000000     -0.000000
    13   Atom        0.000000      0.000000      0.000000
    14   Atom       -0.000000     -0.000000     -0.000000
    15   Atom        0.000000     -0.000000      0.000000
    16   Atom       -0.000000      0.000000     -0.000000
    17   Atom       -0.000000     -0.000000      0.000000
    18   Atom        0.000000      0.000000     -0.000000
    19   Atom        0.000000      0.000000     -0.000000
    20   Atom        0.000000      0.000000     -0.000000
 --------------------------------------------------------


 ---------------------------------------------------------------------------------
              Anisotropic Spin Dipole Couplings in Principal Axis System
 ---------------------------------------------------------------------------------

       Atom             a.u.   MegaHertz   Gauss  10(-4) cm-1        Axes

              Baa    -0.0000    -0.000    -0.000    -0.000 -0.2754  0.9604  0.0434
     1 C(13)  Bbb    -0.0000    -0.000    -0.000    -0.000 -0.0043 -0.0464  0.9989
              Bcc     0.0000     0.000     0.000     0.000  0.9613  0.2749  0.0169
 
              Baa    -0.0000    -0.000    -0.000    -0.000 -0.3766  0.9240 -0.0667
     2 C(13)  Bbb    -0.0000    -0.000    -0.000    -0.000 -0.0094  0.0682  0.9976
              Bcc     0.0000     0.000     0.000     0.000  0.9263  0.3763 -0.0170
 
              Baa    -0.0000    -0.000    -0.000    -0.000  0.5232  0.8516  0.0316
     3 C(13)  Bbb     0.0000     0.000     0.000     0.000  0.0365 -0.0594  0.9976
              Bcc     0.0000     0.000     0.000     0.000  0.8514 -0.5207 -0.0621
 
              Baa    -0.0000    -0.000    -0.000    -0.000 -0.0246 -0.0714  0.9971
     4 F(19)  Bbb    -0.0000    -0.000    -0.000    -0.000 -0.4476  0.8927  0.0529
              Bcc     0.0000     0.000     0.000     0.000  0.8939  0.4450  0.0539
 
              Baa    -0.0000    -0.000    -0.000    -0.000  0.0308 -0.1173  0.9926
     5 C(13)  Bbb    -0.0000    -0.000    -0.000    -0.000  0.1245  0.9858  0.1126
              Bcc     0.0000     0.000     0.000     0.000  0.9917 -0.1201 -0.0449
 
              Baa    -0.0000    -0.000    -0.000    -0.000  0.0775  0.9964 -0.0349
     6 N(14)  Bbb    -0.0000    -0.000    -0.000    -0.000 -0.0474  0.0386  0.9981
              Bcc     0.0000     0.000     0.000     0.000  0.9959 -0.0757  0.0503
 
              Baa    -0.0000    -0.000    -0.000    -0.000  0.0170 -0.0114  0.9998
     7 C(13)  Bbb    -0.0000    -0.000    -0.000    -0.000  0.1480  0.9889  0.0088
              Bcc     0.0000     0.000     0.000     0.000  0.9888 -0.1478 -0.0185
 
              Baa    -0.0000    -0.000    -0.000    -0.000  0.8950 -0.4444 -0.0372
     8 C(13)  Bbb    -0.0000    -0.000    -0.000    -0.000  0.0491  0.0154  0.9987
              Bcc     0.0000     0.000     0.000     0.000  0.4433  0.8957 -0.0356
 
              Baa    -0.0000    -0.000    -0.000    -0.000  0.0834  0.9906  0.1082
     9 N(14)  Bbb     0.0000     0.000     0.000     0.000  0.9604 -0.1089  0.2564
              Bcc     0.0000     0.000     0.000     0.000 -0.2658 -0.0825  0.9605
 
              Baa    -0.0000    -0.000    -0.000    -0.000  0.5811  0.8138  0.0067
    10 C(13)  Bbb     0.0000     0.000     0.000     0.000  0.8125 -0.5797 -0.0615
              Bcc     0.0000     0.000     0.000     0.000  0.0462 -0.0412  0.9981
 
              Baa    -0.0000    -0.000    -0.000    -0.000 -0.5831  0.8116  0.0357
    11 C(13)  Bbb     0.0000     0.000     0.000     0.000  0.7644  0.5630 -0.3140
              Bcc     0.0000     0.000     0.000     0.000  0.2749  0.1559  0.9487
 
              Baa    -0.0000    -0.000    -0.000    -0.000 -0.0232  0.1914  0.9812
    12 C(13)  Bbb    -0.0000    -0.000    -0.000    -0.000  0.3084  0.9350 -0.1750
              Bcc     0.0000     0.000     0.000     0.000  0.9510 -0.2986  0.0807
 
              Baa    -0.0000    -0.000    -0.000    -0.000 -0.4989  0.8665 -0.0170
    13 C(13)  Bbb     0.0000     0.000     0.000     0.000 -0.1594 -0.0724  0.9846
              Bcc     0.0000     0.000     0.000     0.000  0.8519  0.4939  0.1743
 
              Baa    -0.0000    -0.000    -0.000    -0.000  0.8603  0.5080  0.0416
    14 F(19)  Bbb     0.0000     0.000     0.000     0.000 -0.3688  0.5640  0.7388
              Bcc     0.0000     0.000     0.000     0.000  0.3519 -0.6510  0.6726
 
              Baa    -0.0000    -0.000    -0.000    -0.000 -0.2576  0.8745 -0.4110
    15 H(1)   Bbb    -0.0000    -0.000    -0.000    -0.000 -0.0790  0.4049  0.9110
              Bcc     0.0000     0.000     0.000     0.000  0.9630  0.2672 -0.0352
 
              Baa    -0.0000    -0.000    -0.000    -0.000  0.9714  0.1741 -0.1614
    16 H(1)   Bbb    -0.0000    -0.000    -0.000    -0.000  0.1461  0.0975  0.9845
              Bcc     0.0000     0.000     0.000     0.000 -0.1872  0.9799 -0.0692
 
              Baa    -0.0000    -0.000    -0.000    -0.000  0.1534  0.0741  0.9854
    17 H(1)   Bbb    -0.0000    -0.000    -0.000    -0.000  0.8495  0.4996 -0.1698
              Bcc     0.0000     0.000     0.000     0.000 -0.5049  0.8631  0.0137
 
              Baa    -0.0000    -0.000    -0.000    -0.000 -0.6208  0.7797  0.0819
    18 H(1)   Bbb     0.0000     0.000     0.000     0.000  0.3042  0.1432  0.9418
              Bcc     0.0000     0.000     0.000     0.000  0.7226  0.6096 -0.3261
 
              Baa    -0.0000    -0.000    -0.000    -0.000  0.9943 -0.0922 -0.0543
    19 H(1)   Bbb     0.0000     0.000     0.000     0.000  0.0819  0.3293  0.9407
              Bcc     0.0000     0.000     0.000     0.000  0.0688  0.9397 -0.3349
 
              Baa    -0.0000    -0.000    -0.000    -0.000 -0.6445  0.7608  0.0762
    20 H(1)   Bbb    -0.0000    -0.000    -0.000    -0.000  0.0333 -0.0716  0.9969
              Bcc     0.0000     0.000     0.000     0.000  0.7639  0.6451  0.0208
 

 ---------------------------------------------------------------------------------

 No NMR shielding tensors so no spin-rotation constants.
 Leave Link  601 at Sun Jul 26 12:22:40 2020, MaxMem=  4026531840 cpu:               1.6 elap:               0.3
 (Enter /opt/ohpc/pub/libs/gaussian/g16-A.03/sandybridge/g16/l701.exe)
 ... and contract with generalized density number  0.
 Compute integral first derivatives.
 Leave Link  701 at Sun Jul 26 12:22:40 2020, MaxMem=  4026531840 cpu:               2.1 elap:               0.4
 (Enter /opt/ohpc/pub/libs/gaussian/g16-A.03/sandybridge/g16/l702.exe)
 L702 exits ... SP integral derivatives will be done elsewhere.
 Leave Link  702 at Sun Jul 26 12:22:40 2020, MaxMem=  4026531840 cpu:               0.2 elap:               0.0
 (Enter /opt/ohpc/pub/libs/gaussian/g16-A.03/sandybridge/g16/l703.exe)
 Integral derivatives from FoFJK, PRISM(SPDF).
 Compute integral first derivatives, UseDBF=F ICtDFT=           0.
 Calling FoFJK, ICntrl=      2127 FMM=F ISym2X=0 I1Cent= 0 IOpClX= 1 NMat=1 NMatS=1 NMatT=0.
 FoFJK:  IHMeth= 1 ICntrl=    2127 DoSepK=T KAlg= 0 I1Cent=           0 FoldK=F
 IRaf=         1 NMat=       1 IRICut=       1 DoRegI=T DoRafI=F ISym2E= 0 IDoP0=0 IntGTp=1.
 FoFCou: FMM=F IPFlag=           0 FMFlag=      100000 FMFlg1=         800
         NFxFlg=           0 DoJE=F BraDBF=F KetDBF=F FulRan=T
         wScrn=  0.000000 ICntrl=      2527 IOpCl=  0 I1Cent=           0 NGrid=           0
         NMat0=    1 NMatS0=      1 NMatT0=    0 NMatD0=    1 NMtDS0=    0 NMtDT0=    0
 Symmetry not used in FoFCou.
 Leave Link  703 at Sun Jul 26 12:22:53 2020, MaxMem=  4026531840 cpu:             103.4 elap:              13.1
 (Enter /opt/ohpc/pub/libs/gaussian/g16-A.03/sandybridge/g16/l716.exe)
 Dipole        =-9.97784164D-02 8.60410952D-02 3.09506233D-02
 ***** Axes restored to original set *****
 -------------------------------------------------------------------
 Center     Atomic                   Forces (Hartrees/Bohr)
 Number     Number              X              Y              Z
 -------------------------------------------------------------------
      1        6           0.006081548   -0.055424797    0.006017169
      2        6           0.056019361    0.032201791   -0.010568050
      3        6          -0.060618860   -0.021027677    0.006782817
      4        9           0.001719527    0.017062874   -0.000519768
      5        6          -0.036060375    0.036745072   -0.003807005
      6        7          -0.007518971   -0.028723752    0.003517670
      7        6           0.062540206    0.038222432   -0.001088196
      8        6          -0.040392164   -0.107281853   -0.007222914
      9        7          -0.006607677    0.048537890    0.002677893
     10        6          -0.032499929   -0.088466551    0.003051306
     11        6          -0.026156897    0.092114504    0.008111646
     12        6           0.029748256   -0.012978841   -0.012221932
     13        6           0.044045116    0.115125396    0.006660431
     14        9           0.016465355   -0.042599465   -0.000718087
     15        1          -0.026922599    0.004051133   -0.000869447
     16        1          -0.007299362   -0.017325759    0.002416556
     17        1          -0.000323623   -0.008447129   -0.001028068
     18        1          -0.007013850    0.020456995   -0.003855078
     19        1           0.048941922   -0.011449181   -0.000389119
     20        1          -0.014146985   -0.010793082    0.003052173
 -------------------------------------------------------------------
 Cartesian Forces:  Max     0.115125396 RMS     0.035959347
 Leave Link  716 at Sun Jul 26 12:22:53 2020, MaxMem=  4026531840 cpu:               0.2 elap:               0.0
 (Enter /opt/ohpc/pub/libs/gaussian/g16-A.03/sandybridge/g16/l103.exe)

 GradGradGradGradGradGradGradGradGradGradGradGradGradGradGradGradGradGrad
 Berny optimization.
 FormGI is forming the generalized inverse of G from B-inverse, IUseBI=4.
 Internal  Forces:  Max     0.093866914 RMS     0.018195896
 Search for a local minimum.
 Step number   1 out of a maximum of  107
 All quantities printed in internal units (Hartrees-Bohrs-Radians)
 RMS Force = .18196D-01 SwitMx=.10000D-02 MixMth= 1
 Mixed Optimization -- RFO/linear search
 Second derivative matrix not updated -- first step.
 ITU=  0
     Eigenvalues ---    0.01152   0.01400   0.01582   0.01685   0.01743
     Eigenvalues ---    0.01928   0.01940   0.01953   0.02124   0.02294
     Eigenvalues ---    0.02378   0.02381   0.02399   0.02561   0.02784
     Eigenvalues ---    0.02836   0.02861   0.15877   0.15892   0.15933
[...]
     4  F   -0.000000   0.000000  -0.000000  -0.000000   0.000000   0.000000
     5  C    0.000000  -0.000000   0.000000   0.000000   0.000000   0.000000
     6  N   -0.000000   0.000000  -0.000000   0.000000   0.000000  -0.000000
     7  C   -0.000000   0.000000   0.000000   0.000000  -0.000000  -0.000000
     8  C    0.000000   0.000000  -0.000000  -0.000000  -0.000000  -0.000000
     9  N    0.000000   0.000000   0.000000   0.000000  -0.000000   0.000000
    10  C   -0.000000   0.000000   0.000000   0.000000  -0.000000  -0.000000
    11  C   -0.000000   0.000000  -0.000000  -0.000000   0.000000   0.000000
    12  C    0.000000  -0.000000  -0.000000  -0.000000   0.000000  -0.000000
    13  C    0.000000  -0.000000  -0.000000  -0.000000   0.000000   0.000000
    14  F   -0.000000   0.000000  -0.000000   0.000000  -0.000000   0.000000
    15  H   -0.000000   0.000000  -0.000000  -0.000000   0.000000  -0.000000
    16  H    0.000000  -0.000000   0.000000  -0.000000  -0.000000   0.000000
    17  H   -0.000000   0.000000  -0.000000   0.000000  -0.000000  -0.000000
    18  H    0.000000   0.000000   0.000000   0.000000  -0.000000  -0.000000
    19  H   -0.000000   0.000000  -0.000000  -0.000000   0.000000   0.000000
    20  H    0.000000   0.000000   0.000000   0.000000  -0.000000  -0.000000
               7          8          9         10         11         12
     1  C   -0.000000   0.000000   0.000000  -0.000000  -0.000000   0.000000
     2  C    0.000000   0.000000   0.000000   0.000000   0.000000  -0.000000
     3  C    0.000000  -0.000000   0.000000   0.000000  -0.000000  -0.000000
     4  F    0.000000  -0.000000   0.000000   0.000000  -0.000000  -0.000000
     5  C   -0.000000  -0.000000  -0.000000  -0.000000   0.000000   0.000000
     6  N   -0.000000  -0.000000   0.000000  -0.000000   0.000000  -0.000000
     7  C    0.000000  -0.000000  -0.000000  -0.000000   0.000000  -0.000000
     8  C   -0.000000   0.000000   0.000000   0.000000   0.000000  -0.000000
     9  N   -0.000000   0.000000   0.000000  -0.000000  -0.000000   0.000000
    10  C   -0.000000   0.000000  -0.000000  -0.000000   0.000000  -0.000000
    11  C    0.000000   0.000000  -0.000000   0.000000  -0.000000   0.000000
    12  C   -0.000000  -0.000000   0.000000  -0.000000   0.000000  -0.000000
    13  C    0.000000   0.000000  -0.000000   0.000000  -0.000000   0.000000
    14  F    0.000000   0.000000  -0.000000   0.000000  -0.000000   0.000000
    15  H   -0.000000   0.000000  -0.000000   0.000000  -0.000000   0.000000
    16  H   -0.000000  -0.000000  -0.000000  -0.000000   0.000000  -0.000000
    17  H    0.000000  -0.000000  -0.000000  -0.000000   0.000000   0.000000
    18  H   -0.000000  -0.000000  -0.000000   0.000000  -0.000000   0.000000
    19  H    0.000000   0.000000  -0.000000   0.000000  -0.000000   0.000000
    20  H   -0.000000  -0.000000   0.000000  -0.000000   0.000000  -0.000000
              13         14         15         16         17         18
     1  C    0.000000  -0.000000  -0.000000   0.000000  -0.000000   0.000000
     2  C   -0.000000   0.000000   0.000000  -0.000000   0.000000   0.000000
     3  C   -0.000000  -0.000000  -0.000000   0.000000  -0.000000   0.000000
     4  F   -0.000000   0.000000  -0.000000  -0.000000   0.000000   0.000000
     5  C    0.000000  -0.000000   0.000000  -0.000000  -0.000000  -0.000000
     6  N    0.000000   0.000000  -0.000000   0.000000  -0.000000  -0.000000
     7  C    0.000000   0.000000  -0.000000  -0.000000   0.000000  -0.000000
     8  C    0.000000   0.000000   0.000000  -0.000000  -0.000000  -0.000000
     9  N   -0.000000  -0.000000  -0.000000  -0.000000  -0.000000  -0.000000
    10  C    0.000000   0.000000   0.000000  -0.000000  -0.000000   0.000000
    11  C   -0.000000  -0.000000  -0.000000   0.000000   0.000000  -0.000000
    12  C    0.000000   0.000000   0.000000  -0.000000   0.000000   0.000000
    13  C   -0.000000  -0.000000   0.000000   0.000000   0.000000   0.000000
    14  F   -0.000000   0.000000  -0.000000   0.000000   0.000000   0.000000
    15  H    0.000000  -0.000000  -0.000000   0.000000  -0.000000   0.000000
    16  H    0.000000   0.000000   0.000000  -0.000000   0.000000  -0.000000
    17  H    0.000000   0.000000  -0.000000   0.000000   0.000000  -0.000000
    18  H    0.000000   0.000000   0.000000  -0.000000  -0.000000   0.000000
    19  H   -0.000000  -0.000000  -0.000000   0.000000   0.000000  -0.000000
    20  H    0.000000   0.000000   0.000000  -0.000000  -0.000000   0.000000
              19         20
     1  C   -0.000000   0.000000
     2  C    0.000000   0.000000
     3  C   -0.000000   0.000000
     4  F   -0.000000   0.000000
     5  C    0.000000  -0.000000
     6  N    0.000000  -0.000000
     7  C    0.000000  -0.000000
     8  C    0.000000  -0.000000
     9  N   -0.000000   0.000000
    10  C    0.000000  -0.000000
    11  C   -0.000000   0.000000
    12  C    0.000000  -0.000000
    13  C   -0.000000   0.000000
    14  F   -0.000000   0.000000
    15  H   -0.000000   0.000000
    16  H    0.000000  -0.000000
    17  H    0.000000  -0.000000
    18  H   -0.000000   0.000000
    19  H   -0.000000   0.000000
    20  H    0.000000   0.000000
 Mulliken charges and spin densities:
               1          2
     1  C   -0.017191  -0.000000
     2  C    0.054281   0.000000
     3  C    0.127205  -0.000000
     4  F   -0.108935   0.000000
     5  C    0.023484   0.000000
     6  N   -0.172202  -0.000000
     7  C    0.079373   0.000000
     8  C    0.023449   0.000000
     9  N   -0.172223   0.000000
    10  C    0.079410  -0.000000
    11  C   -0.017213  -0.000000
    12  C    0.054275   0.000000
    13  C    0.127183  -0.000000
    14  F   -0.108917   0.000000
    15  H   -0.001426  -0.000000
    16  H    0.008509  -0.000000
    17  H    0.006921   0.000000
    18  H    0.006923   0.000000
    19  H   -0.001421  -0.000000
    20  H    0.008515   0.000000
 Sum of Mulliken charges =  -0.00000   0.00000
 Mulliken charges and spin densities with hydrogens summed into heavy atoms:
               1          2
     1  C   -0.018617  -0.000000
     2  C    0.062789   0.000000
     3  C    0.127205  -0.000000
     4  F   -0.108935   0.000000
     5  C    0.023484   0.000000
     6  N   -0.172202  -0.000000
     7  C    0.086294   0.000000
     8  C    0.023449   0.000000
     9  N   -0.172223   0.000000
    10  C    0.086333  -0.000000
    11  C   -0.018634  -0.000000
    12  C    0.062790   0.000000
    13  C    0.127183  -0.000000
    14  F   -0.108917   0.000000
 Electronic spatial extent (au):  <R**2>=           2595.1010
 Charge=              0.0000 electrons
 Dipole moment (field-independent basis, Debye):
    X=             -0.0006    Y=              0.0008    Z=              0.4132  Tot=              0.4132
 Quadrupole moment (field-independent basis, Debye-Ang):
   XX=            -54.4122   YY=            -79.3679   ZZ=            -79.4512
   XY=             -0.0693   XZ=              0.0036   YZ=             -0.0018
 Traceless Quadrupole moment (field-independent basis, Debye-Ang):
   XX=             16.6649   YY=             -8.2908   ZZ=             -8.3741
   XY=             -0.0693   XZ=              0.0036   YZ=             -0.0018
 Octapole moment (field-independent basis, Debye-Ang**2):
  XXX=             -0.0091  YYY=              0.0043  ZZZ=             13.8721  XYY=              0.0015
  XXY=             -0.0031  XXZ=              1.9194  XZZ=             -0.0066  YZZ=              0.0006
  YYZ=              1.4034  XYZ=              9.0595
 Hexadecapole moment (field-independent basis, Debye-Ang**3):
 XXXX=          -2089.9364 YYYY=           -710.7285 ZZZZ=           -200.6262 XXXY=             23.3636
 XXXZ=              0.0430 YYYX=             14.8860 YYYZ=             -0.0013 ZZZX=              0.0072
 ZZZY=              0.0000 XXYY=           -473.8778 XXZZ=           -463.2533 YYZZ=           -151.9002
 XXYZ=             -0.0044 YYXZ=              0.0168 ZZXY=              7.1772
 N-N= 8.329355262091D+02 E-N=-3.289572782804D+03  KE= 6.890758818880D+02
                          Isotropic Fermi Contact Couplings
        Atom                 a.u.       MegaHertz       Gauss      10(-4) cm-1
     1  C(13)              0.00000       0.00000       0.00000       0.00000
     2  C(13)              0.00000       0.00000       0.00000       0.00000
     3  C(13)             -0.00000      -0.00000      -0.00000      -0.00000
     4  F(19)             -0.00000      -0.00000      -0.00000      -0.00000
     5  C(13)              0.00000       0.00000       0.00000       0.00000
     6  N(14)             -0.00000      -0.00000      -0.00000      -0.00000
     7  C(13)              0.00000       0.00000       0.00000       0.00000
     8  C(13)              0.00000       0.00000       0.00000       0.00000
     9  N(14)             -0.00000      -0.00000      -0.00000      -0.00000
    10  C(13)             -0.00000      -0.00000      -0.00000      -0.00000
    11  C(13)             -0.00000      -0.00000      -0.00000      -0.00000
    12  C(13)              0.00000       0.00000       0.00000       0.00000
    13  C(13)              0.00000       0.00000       0.00000       0.00000
    14  F(19)              0.00000       0.00000       0.00000       0.00000
    15  H(1)              -0.00000      -0.00000      -0.00000      -0.00000
    16  H(1)              -0.00000      -0.00000      -0.00000      -0.00000
    17  H(1)              -0.00000      -0.00000      -0.00000      -0.00000
    18  H(1)               0.00000       0.00000       0.00000       0.00000
    19  H(1)              -0.00000      -0.00000      -0.00000      -0.00000
    20  H(1)              -0.00000      -0.00000      -0.00000      -0.00000
 --------------------------------------------------------
       Center         ----  Spin Dipole Couplings  ----
                      3XX-RR        3YY-RR        3ZZ-RR
 --------------------------------------------------------
     1   Atom       -0.000000      0.000000     -0.000000
     2   Atom       -0.000000      0.000000     -0.000000
     3   Atom        0.000000     -0.000000      0.000000
     4   Atom        0.000000     -0.000000      0.000000
     5   Atom        0.000000      0.000000     -0.000000
     6   Atom       -0.000000      0.000000      0.000000
     7   Atom        0.000000      0.000000     -0.000000
     8   Atom        0.000000      0.000000     -0.000000
     9   Atom       -0.000000      0.000000      0.000000
    10   Atom        0.000000     -0.000000     -0.000000
    11   Atom       -0.000000      0.000000      0.000000
    12   Atom        0.000000      0.000000     -0.000000
    13   Atom        0.000000     -0.000000      0.000000
    14   Atom        0.000000     -0.000000      0.000000
    15   Atom        0.000000     -0.000000     -0.000000
    16   Atom        0.000000     -0.000000      0.000000
    17   Atom       -0.000000      0.000000     -0.000000
    18   Atom       -0.000000      0.000000     -0.000000
    19   Atom       -0.000000      0.000000      0.000000
    20   Atom       -0.000000     -0.000000      0.000000
 --------------------------------------------------------
                        XY            XZ            YZ
 --------------------------------------------------------
     1   Atom       -0.000000     -0.000000      0.000000
     2   Atom        0.000000      0.000000      0.000000
     3   Atom        0.000000      0.000000     -0.000000
     4   Atom        0.000000      0.000000     -0.000000
     5   Atom       -0.000000     -0.000000      0.000000
     6   Atom        0.000000      0.000000      0.000000
     7   Atom       -0.000000     -0.000000      0.000000
     8   Atom       -0.000000      0.000000     -0.000000
     9   Atom       -0.000000      0.000000      0.000000
    10   Atom       -0.000000      0.000000     -0.000000
    11   Atom        0.000000     -0.000000      0.000000
    12   Atom       -0.000000      0.000000     -0.000000
    13   Atom        0.000000     -0.000000      0.000000
    14   Atom        0.000000     -0.000000      0.000000
    15   Atom        0.000000      0.000000     -0.000000
    16   Atom       -0.000000     -0.000000     -0.000000
    17   Atom       -0.000000     -0.000000      0.000000
    18   Atom       -0.000000     -0.000000     -0.000000
    19   Atom       -0.000000      0.000000      0.000000
    20   Atom       -0.000000      0.000000      0.000000
 --------------------------------------------------------


 ---------------------------------------------------------------------------------
              Anisotropic Spin Dipole Couplings in Principal Axis System
 ---------------------------------------------------------------------------------

       Atom             a.u.   MegaHertz   Gauss  10(-4) cm-1        Axes

              Baa    -0.0000    -0.000    -0.000    -0.000  0.9037  0.4216  0.0746
     1 C(13)  Bbb    -0.0000    -0.000    -0.000    -0.000  0.0910 -0.3593  0.9288
              Bcc     0.0000     0.000     0.000     0.000 -0.4184  0.8325  0.3631
 
              Baa    -0.0000    -0.000    -0.000    -0.000  0.9056 -0.3595  0.2252
     2 C(13)  Bbb    -0.0000    -0.000    -0.000    -0.000 -0.3458 -0.3180  0.8828
              Bcc     0.0000     0.000     0.000     0.000  0.2458  0.8773  0.4123
 
              Baa    -0.0000    -0.000    -0.000    -0.000 -0.3671  0.8202  0.4387
     3 C(13)  Bbb     0.0000     0.000     0.000     0.000  0.9116  0.2235  0.3451
              Bcc     0.0000     0.000     0.000     0.000 -0.1850 -0.5266  0.8297
 
              Baa    -0.0000    -0.000    -0.000    -0.000 -0.5117  0.8316  0.2160
     4 F(19)  Bbb     0.0000     0.000     0.000     0.000  0.3929  0.0029  0.9196
              Bcc     0.0000     0.000     0.000     0.000  0.7641  0.5554 -0.3282
 
              Baa    -0.0000    -0.000    -0.000    -0.000  0.0257 -0.2690  0.9628
     5 C(13)  Bbb    -0.0000    -0.000    -0.000    -0.000  0.5570  0.8036  0.2097
              Bcc     0.0000     0.000     0.000     0.000  0.8301 -0.5309 -0.1705
 
              Baa    -0.0000    -0.000    -0.000    -0.000  0.9769 -0.0355 -0.2107
     6 N(14)  Bbb    -0.0000    -0.000    -0.000    -0.000  0.1514 -0.5811  0.7997
              Bcc     0.0000     0.000     0.000     0.000  0.1508  0.8131  0.5623
 
              Baa    -0.0000    -0.000    -0.000    -0.000  0.1229 -0.3743  0.9191
     7 C(13)  Bbb     0.0000     0.000     0.000     0.000  0.9809  0.1866 -0.0552
              Bcc     0.0000     0.000     0.000     0.000 -0.1509  0.9083  0.3901
 
              Baa    -0.0000    -0.000    -0.000    -0.000 -0.0651  0.4259  0.9024
     8 C(13)  Bbb     0.0000     0.000     0.000     0.000  0.6794  0.6813 -0.2725
              Bcc     0.0000     0.000     0.000     0.000  0.7309 -0.5954  0.3337
 
              Baa    -0.0000    -0.000    -0.000    -0.000  0.7525  0.6472 -0.1218
     9 N(14)  Bbb     0.0000     0.000     0.000     0.000  0.0878  0.0848  0.9925
              Bcc     0.0000     0.000     0.000     0.000 -0.6527  0.7576 -0.0070
 
              Baa    -0.0000    -0.000    -0.000    -0.000 -0.0232  0.2436  0.9696
    10 C(13)  Bbb    -0.0000    -0.000    -0.000    -0.000  0.1182  0.9637 -0.2393
              Bcc     0.0000     0.000     0.000     0.000  0.9927 -0.1091  0.0511
 
              Baa    -0.0000    -0.000    -0.000    -0.000  0.9835 -0.1446  0.1083
    11 C(13)  Bbb    -0.0000    -0.000    -0.000    -0.000  0.1789  0.8635 -0.4716
              Bcc     0.0000     0.000     0.000     0.000 -0.0253  0.4832  0.8752
 
              Baa    -0.0000    -0.000    -0.000    -0.000  0.1780  0.5833  0.7925
    12 C(13)  Bbb    -0.0000    -0.000    -0.000    -0.000  0.6133  0.5640 -0.5529
              Bcc     0.0000     0.000     0.000     0.000  0.7695 -0.5845  0.2573
 
              Baa    -0.0000    -0.000    -0.000    -0.000 -0.3824  0.8950 -0.2297
    13 C(13)  Bbb     0.0000     0.000     0.000     0.000  0.2374  0.3354  0.9117
              Bcc     0.0000     0.000     0.000     0.000  0.8930  0.2941 -0.3408
 
              Baa    -0.0000    -0.000    -0.000    -0.000 -0.4522  0.7912 -0.4116
    14 F(19)  Bbb     0.0000     0.000     0.000     0.000 -0.3667  0.2558  0.8945
              Bcc     0.0000     0.000     0.000     0.000  0.8130  0.5555  0.1745
 
              Baa    -0.0000    -0.000    -0.000    -0.000 -0.2960  0.8908  0.3446
    15 H(1)   Bbb    -0.0000    -0.000    -0.000    -0.000 -0.0706 -0.3802  0.9222
              Bcc     0.0000     0.000     0.000     0.000  0.9526  0.2486  0.1755
 
              Baa    -0.0000    -0.000    -0.000    -0.000  0.4240  0.8424  0.3324
    16 H(1)   Bbb     0.0000     0.000     0.000     0.000 -0.4321 -0.1344  0.8918
              Bcc     0.0000     0.000     0.000     0.000  0.7960 -0.5217  0.3070
 
              Baa    -0.0000    -0.000    -0.000    -0.000 -0.3004 -0.4770  0.8259
    17 H(1)   Bbb    -0.0000    -0.000    -0.000    -0.000  0.9265  0.0596  0.3715
              Bcc     0.0000     0.000     0.000     0.000 -0.2264  0.8769  0.4241
 
              Baa    -0.0000    -0.000    -0.000    -0.000  0.0935  0.4494  0.8884
    18 H(1)   Bbb    -0.0000    -0.000    -0.000    -0.000  0.9877  0.0702 -0.1395
              Bcc     0.0000     0.000     0.000     0.000 -0.1250  0.8906 -0.4374
 
              Baa    -0.0000    -0.000    -0.000    -0.000  0.9887  0.1079 -0.1043
    19 H(1)   Bbb     0.0000     0.000     0.000     0.000 -0.1024  0.9931  0.0571
              Bcc     0.0000     0.000     0.000     0.000  0.1097 -0.0458  0.9929
 
              Baa    -0.0000    -0.000    -0.000    -0.000  0.7026  0.6785 -0.2144
    20 H(1)   Bbb     0.0000     0.000     0.000     0.000 -0.6330  0.7336  0.2473
              Bcc     0.0000     0.000     0.000     0.000  0.3251 -0.0380  0.9449
 

 ---------------------------------------------------------------------------------

 No NMR shielding tensors so no spin-rotation constants.
 Leave Link  601 at Sun Jul 26 12:39:20 2020, MaxMem=  4026531840 cpu:               2.1 elap:               0.3
 (Enter /opt/ohpc/pub/libs/gaussian/g16-A.03/sandybridge/g16/l9999.exe)

 Test job not archived.
 1\1\GINC-SKYLAKE048\FOpt\ULC-wPBE\CC-pVDZ\C10H6F2N2\RDU230\26-Jul-2020
 \0\\#P uLC-wPBE/cc-pVDZ iop(3/107=0210400000, 3/108=0210400000) opt\\H
 6 C10 N2 F2\\0,1\C,-3.4682407747,0.4554284451,-0.1588225506\C,-2.97879
 70226,-0.7488827145,0.3489232691\C,-1.5986255956,-0.9176723588,0.40216
 16022\F,-1.0984984306,-2.0555226572,0.9175992231\C,-0.7393574342,0.097
 8605252,-0.0499957544\N,-1.2219803795,1.2583527893,-0.5252804478\C,-2.
 5496469607,1.4241336208,-0.5761216804\C,0.7438870531,-0.0783789509,-0.
 0430342716\N,1.2309921089,-1.234641881,-0.5240568173\C,2.5590797951,-1
 .4004526097,-0.5629031253\C,3.4736160783,-0.4361369366,-0.1270192122\C
 ,2.9793527127,0.7633972738,0.3873502538\C,1.5988077391,0.932413446,0.4
 276894394\F,1.0937678925,2.065926933,0.9478423557\H,-4.5474480455,0.64
 13762918,-0.2249309089\H,-3.6353140895,-1.5507414338,0.707957989\H,-2.
 8980168355,2.3886539935,-0.974813471\H,2.9112274859,-2.3610796205,-0.9
 676120277\H,4.5534124718,-0.6217186108,-0.1841068645\H,3.6325292311,1.
 561645455,0.7602519994\\Version=EM64L-G16RevA.03\State=1-A\HF=-693.307
 6447\S2=0.\S2-1=0.\S2A=0.\RMSD=4.438e-09\RMSF=2.122e-05\Dipole=-0.0006
 368,-0.0010762,0.1625467\Quadrupole=12.3797044,-6.1542341,-6.2254704,-
 0.4294877,0.0925016,-0.0005107\PG=C01 [X(C10H6F2N2)]\\@


 REFRAIN FROM ILLUSIONS, INSIST ON WORK AND NOT WORDS,
 PATIENTLY SEEK DIVINE AND SCIENTIFIC TRUTH.
 LAST WORDS OF MARIA MENDELEEVA TO HER SON DMITRI, C. 1850
 Job cpu time:       0 days  2 hours 18 minutes 16.1 seconds.
 Elapsed time:       0 days  0 hours 17 minutes 41.3 seconds.
 File lengths (MBytes):  RWF=    112 Int=      0 D2E=      0 Chk=     12 Scr=      8
 Normal termination of Gaussian 16 at Sun Jul 26 12:39:20 2020.
