 Entering Gaussian System, Link 0=g16
 Input=mols_65_3_19_n-n-COC_opt_0.gjf
 Output=mols_65_3_19_n-n-COC_opt_0.log
 Initial command:
 /opt/ohpc/pub/libs/gaussian/g16-A.03/sandybridge/g16/l1.exe "/mnt/gpfs2_4m/scratch/rdu230/ondemand/projects/dihedral_energies/7trial/wtuning/mols_65_3_19_n-n-COC/Gau-101146.inp" -scrdir="/mnt/gpfs2_4m/scratch/rdu230/ondemand/projects/dihedral_energies/7trial/wtuning/mols_65_3_19_n-n-COC/"
 Entering Link 1 = /opt/ohpc/pub/libs/gaussian/g16-A.03/sandybridge/g16/l1.exe PID=    101147.
  
 Copyright (c) 1988,1990,1992,1993,1995,1998,2003,2009,2016,
            Gaussian, Inc.  All Rights Reserved.
  
 This is part of the Gaussian(R) 16 program.  It is based on
 the Gaussian(R) 09 system (copyright 2009, Gaussian, Inc.),
 the Gaussian(R) 03 system (copyright 2003, Gaussian, Inc.),
 the Gaussian(R) 98 system (copyright 1998, Gaussian, Inc.),
 the Gaussian(R) 94 system (copyright 1995, Gaussian, Inc.),
 the Gaussian 92(TM) system (copyright 1992, Gaussian, Inc.),
 the Gaussian 90(TM) system (copyright 1990, Gaussian, Inc.),
 the Gaussian 88(TM) system (copyright 1988, Gaussian, Inc.),
 the Gaussian 86(TM) system (copyright 1986, Carnegie Mellon
 University), and the Gaussian 82(TM) system (copyright 1983,
 Carnegie Mellon University). Gaussian is a federally registered
 trademark of Gaussian, Inc.
  
 This software contains proprietary and confidential information,
 including trade secrets, belonging to Gaussian, Inc.
  
 This software is provided under written license and may be
 used, copied, transmitted, or stored only in accord with that
 written license.
  
 The following legend is applicable only to US Government
 contracts under FAR:
  
                    RESTRICTED RIGHTS LEGEND
  
 Use, reproduction and disclosure by the US Government is
 subject to restrictions as set forth in subparagraphs (a)
 and (c) of the Commercial Computer Software - Restricted
 Rights clause in FAR 52.227-19.
  
 Gaussian, Inc.
 340 Quinnipiac St., Bldg. 40, Wallingford CT 06492
  
  
 ---------------------------------------------------------------
 Warning -- This program may not be used in any manner that
 competes with the business of Gaussian, Inc. or will provide
 assistance to any competitor of Gaussian, Inc.  The licensee
 of this program is prohibited from giving any competitor of
 Gaussian, Inc. access to this program.  By using this program,
 the user acknowledges that Gaussian, Inc. is engaged in the
 business of creating and licensing software in the field of
 computational chemistry and represents and warrants to the
 licensee that it is not a competitor of Gaussian, Inc. and that
 it will not use this program in any manner prohibited above.
 ---------------------------------------------------------------
  

 Cite this work as:
 Gaussian 16, Revision A.03,
 M. J. Frisch, G. W. Trucks, H. B. Schlegel, G. E. Scuseria, 
 M. A. Robb, J. R. Cheeseman, G. Scalmani, V. Barone, 
 G. A. Petersson, H. Nakatsuji, X. Li, M. Caricato, A. V. Marenich, 
 J. Bloino, B. G. Janesko, R. Gomperts, B. Mennucci, H. P. Hratchian, 
 J. V. Ortiz, A. F. Izmaylov, J. L. Sonnenberg, D. Williams-Young, 
 F. Ding, F. Lipparini, F. Egidi, J. Goings, B. Peng, A. Petrone, 
 T. Henderson, D. Ranasinghe, V. G. Zakrzewski, J. Gao, N. Rega, 
 G. Zheng, W. Liang, M. Hada, M. Ehara, K. Toyota, R. Fukuda, 
 J. Hasegawa, M. Ishida, T. Nakajima, Y. Honda, O. Kitao, H. Nakai, 
 T. Vreven, K. Throssell, J. A. Montgomery, Jr., J. E. Peralta, 
 F. Ogliaro, M. J. Bearpark, J. J. Heyd, E. N. Brothers, K. N. Kudin, 
 V. N. Staroverov, T. A. Keith, R. Kobayashi, J. Normand, 
 K. Raghavachari, A. P. Rendell, J. C. Burant, S. S. Iyengar, 
 J. Tomasi, M. Cossi, J. M. Millam, M. Klene, C. Adamo, R. Cammi, 
 J. W. Ochterski, R. L. Martin, K. Morokuma, O. Farkas, 
 J. B. Foresman, and D. J. Fox, Gaussian, Inc., Wallingford CT, 2016.
 
 ******************************************
 Gaussian 16:  EM64L-G16RevA.03 25-Dec-2016
                25-Jul-2020 
 ******************************************
 %mem=30GB
 %nproc=8
 Will use up to    8 processors via shared memory.
 ---------------------------------------------------------------
 #P uLC-wPBE/cc-pVDZ iop(3/107=0391900000, 3/108=0391900000) opt
 ---------------------------------------------------------------
 1/18=20,19=15,26=3,38=1/1,3;
 2/9=110,12=2,17=6,18=5,40=1/2;
 3/5=16,11=2,25=1,30=1,71=1,74=-41,107=391900000,108=391900000,116=2/1,2,3;
 4//1;
 5/5=2,38=5/2;
 6/7=2,8=2,9=2,10=2,28=1/1;
 7//1,2,3,16;
 1/18=20,19=15,26=3/3(2);
 2/9=110/2;
 99//99;
 2/9=110/2;
 3/5=16,11=2,25=1,30=1,71=1,74=-41,107=391900000,108=391900000,116=2/1,2,3;
 4/5=5,16=3,69=1/1;
 5/5=2,38=5/2;
 7//1,2,3,16;
 1/18=20,19=15,26=3/3(-5);
 2/9=110/2;
 6/7=2,8=2,9=2,10=2,19=2,28=1/1;
 99/9=1/99;
 Leave Link    1 at Sat Jul 25 13:58:18 2020, MaxMem=  4026531840 cpu:               1.8 elap:               0.3
 (Enter /opt/ohpc/pub/libs/gaussian/g16-A.03/sandybridge/g16/l101.exe)
 ----------------
 H20 C27 S3 N6 O3
 ----------------
 Symbolic Z-matrix:
 Charge =  0 Multiplicity = 1
 C                    -10.28612  -3.50726   0.46006 
 C                    -9.07183  -3.83173  -0.21259 
 N                    -8.08767  -2.83866  -0.40213 
 C                    -8.30222  -1.65066   0.10527 
 N                    -9.40579  -1.35381   0.82104 
 C                    -10.35523  -2.26139   1.03517 
 C                    -7.21539  -0.65084  -0.03086 
 C                    -7.29027   0.66403  -0.15877 
 O                    -8.49729   1.29531  -0.29004 
 C                    -8.50664   2.66319  -0.3586 
 C                    -6.06544   1.35699  -0.22075 
 C                    -4.98219   0.45436  -0.09971 
 S                    -5.58237  -1.14479   0.03946 
 C                    -3.55192   0.65016  -0.16495 
 C                    -3.03409   1.74238   0.50659 
 N                    -1.68189   2.05253   0.54948 
 C                    -0.92135   1.17377  -0.12551 
 N                    -1.30664   0.12366  -0.77828 
 C                    -2.5837   -0.16949  -0.70595 
 C                     0.51594   1.52832  -0.10301 
 C                     1.22651   2.66491  -0.14517 
 O                     0.48459   3.91476  -0.24399 
 C                     1.26617   5.0546   -0.16523 
 C                     2.61105   2.57301  -0.13743 
 C                     3.01198   1.27383  -0.07441 
 S                     1.71399   0.18784  -0.07984 
 C                     4.42962   0.68463  -0.01419 
 C                     4.79196  -0.46257  -0.72539 
 N                     6.08382  -0.90429  -0.63191 
 C                     6.93271  -0.31072   0.15469 
 N                     6.61897   0.78873   0.82803 
 C                     5.41684   1.235     0.80014 
 C                     8.31213  -0.8348    0.15002 
 C                     8.75145  -2.05769  -0.02081 
 O                     7.92827  -3.14215  -0.15539 
 C                     8.55186  -4.38902  -0.53217 
 C                     10.25058  -2.1247    0.07868 
 C                     10.79314  -0.93872   0.28277 
 S                     9.57539   0.31061   0.46321 
 H                    -11.06143  -4.24628   0.57066 
 H                    -8.91145  -4.74897  -0.73514 
 H                    -11.26115  -1.9466    1.52818 
 H                    -8.03212   3.14266   0.5043 
 H                    -9.53268   3.08393  -0.41616 
 H                    -8.00008   3.03309  -1.22117 
 H                    -5.90776   2.38133  -0.4056 
 H                    -3.6603    2.47802   0.98363 
 H                    -2.91374  -1.1094   -1.2522 
 H                     1.87964   5.18363   0.74106 
 H                     1.96985   5.07469  -1.08434 
 H                     0.56242   5.90688  -0.30665 
 H                     3.31161   3.33802  -0.11481 
 H                     4.10127  -0.98474  -1.34136 
 H                     5.20316   2.09009   1.41983 
 H                     9.13371  -4.31975  -1.45433 
 H                     9.06944  -4.75282   0.35428 
 H                     7.73478  -5.08067  -0.76889 
 H                     10.76031  -3.05453   0.03251 
 H                     11.85045  -0.65549   0.48057 
 
 ITRead=  0  0  0  0  0  0  0  0  0  0  0  0  0  0  0  0  0  0  0  0
 ITRead=  0  0  0  0  0  0  0  0  0  0  0  0  0  0  0  0  0  0  0  0
 ITRead=  0  0  0  0  0  0  0  0  0  0  0  0  0  0  0  0  0  0  0
 MicOpt= -1 -1 -1 -1 -1 -1 -1 -1 -1 -1 -1 -1 -1 -1 -1 -1 -1 -1 -1 -1
 MicOpt= -1 -1 -1 -1 -1 -1 -1 -1 -1 -1 -1 -1 -1 -1 -1 -1 -1 -1 -1 -1
 MicOpt= -1 -1 -1 -1 -1 -1 -1 -1 -1 -1 -1 -1 -1 -1 -1 -1 -1 -1 -1
 NAtoms=     59 NQM=       59 NQMF=       0 NMMI=      0 NMMIF=      0
                NMic=       0 NMicF=      0.
                    Isotopes and Nuclear Properties:
 (Nuclear quadrupole moments (NQMom) in fm**2, nuclear magnetic moments (NMagM)
  in nuclear magnetons)

  Atom         1           2           3           4           5           6           7           8           9          10
 IAtWgt=          12          12          14          12          14          12          12          12          16          12
 AtmWgt=  12.0000000  12.0000000  14.0030740  12.0000000  14.0030740  12.0000000  12.0000000  12.0000000  15.9949146  12.0000000
 NucSpn=           0           0           2           0           2           0           0           0           0           0
 AtZEff=  -0.0000000  -0.0000000  -0.0000000  -0.0000000  -0.0000000  -0.0000000  -0.0000000  -0.0000000  -0.0000000  -0.0000000
 NQMom=    0.0000000   0.0000000   2.0440000   0.0000000   2.0440000   0.0000000   0.0000000   0.0000000   0.0000000   0.0000000
 NMagM=    0.0000000   0.0000000   0.4037610   0.0000000   0.4037610   0.0000000   0.0000000   0.0000000   0.0000000   0.0000000
 AtZNuc=   6.0000000   6.0000000   7.0000000   6.0000000   7.0000000   6.0000000   6.0000000   6.0000000   8.0000000   6.0000000

  Atom        11          12          13          14          15          16          17          18          19          20
 IAtWgt=          12          12          32          12          12          14          12          14          12          12
 AtmWgt=  12.0000000  12.0000000  31.9720718  12.0000000  12.0000000  14.0030740  12.0000000  14.0030740  12.0000000  12.0000000
 NucSpn=           0           0           0           0           0           2           0           2           0           0
 AtZEff=  -0.0000000  -0.0000000  -0.0000000  -0.0000000  -0.0000000  -0.0000000  -0.0000000  -0.0000000  -0.0000000  -0.0000000
 NQMom=    0.0000000   0.0000000   0.0000000   0.0000000   0.0000000   2.0440000   0.0000000   2.0440000   0.0000000   0.0000000
 NMagM=    0.0000000   0.0000000   0.0000000   0.0000000   0.0000000   0.4037610   0.0000000   0.4037610   0.0000000   0.0000000
 AtZNuc=   6.0000000   6.0000000  16.0000000   6.0000000   6.0000000   7.0000000   6.0000000   7.0000000   6.0000000   6.0000000

  Atom        21          22          23          24          25          26          27          28          29          30
 IAtWgt=          12          16          12          12          12          32          12          12          14          12
 AtmWgt=  12.0000000  15.9949146  12.0000000  12.0000000  12.0000000  31.9720718  12.0000000  12.0000000  14.0030740  12.0000000
 NucSpn=           0           0           0           0           0           0           0           0           2           0
 AtZEff=  -0.0000000  -0.0000000  -0.0000000  -0.0000000  -0.0000000  -0.0000000  -0.0000000  -0.0000000  -0.0000000  -0.0000000
 NQMom=    0.0000000   0.0000000   0.0000000   0.0000000   0.0000000   0.0000000   0.0000000   0.0000000   2.0440000   0.0000000
 NMagM=    0.0000000   0.0000000   0.0000000   0.0000000   0.0000000   0.0000000   0.0000000   0.0000000   0.4037610   0.0000000
 AtZNuc=   6.0000000   8.0000000   6.0000000   6.0000000   6.0000000  16.0000000   6.0000000   6.0000000   7.0000000   6.0000000

  Atom        31          32          33          34          35          36          37          38          39          40
 IAtWgt=          14          12          12          12          16          12          12          12          32           1
 AtmWgt=  14.0030740  12.0000000  12.0000000  12.0000000  15.9949146  12.0000000  12.0000000  12.0000000  31.9720718   1.0078250
 NucSpn=           2           0           0           0           0           0           0           0           0           1
 AtZEff=  -0.0000000  -0.0000000  -0.0000000  -0.0000000  -0.0000000  -0.0000000  -0.0000000  -0.0000000  -0.0000000  -0.0000000
 NQMom=    2.0440000   0.0000000   0.0000000   0.0000000   0.0000000   0.0000000   0.0000000   0.0000000   0.0000000   0.0000000
 NMagM=    0.4037610   0.0000000   0.0000000   0.0000000   0.0000000   0.0000000   0.0000000   0.0000000   0.0000000   2.7928460
 AtZNuc=   7.0000000   6.0000000   6.0000000   6.0000000   8.0000000   6.0000000   6.0000000   6.0000000  16.0000000   1.0000000

  Atom        41          42          43          44          45          46          47          48          49          50
 IAtWgt=           1           1           1           1           1           1           1           1           1           1
 AtmWgt=   1.0078250   1.0078250   1.0078250   1.0078250   1.0078250   1.0078250   1.0078250   1.0078250   1.0078250   1.0078250
 NucSpn=           1           1           1           1           1           1           1           1           1           1
 AtZEff=  -0.0000000  -0.0000000  -0.0000000  -0.0000000  -0.0000000  -0.0000000  -0.0000000  -0.0000000  -0.0000000  -0.0000000
 NQMom=    0.0000000   0.0000000   0.0000000   0.0000000   0.0000000   0.0000000   0.0000000   0.0000000   0.0000000   0.0000000
 NMagM=    2.7928460   2.7928460   2.7928460   2.7928460   2.7928460   2.7928460   2.7928460   2.7928460   2.7928460   2.7928460
 AtZNuc=   1.0000000   1.0000000   1.0000000   1.0000000   1.0000000   1.0000000   1.0000000   1.0000000   1.0000000   1.0000000

  Atom        51          52          53          54          55          56          57          58          59
 IAtWgt=           1           1           1           1           1           1           1           1           1
 AtmWgt=   1.0078250   1.0078250   1.0078250   1.0078250   1.0078250   1.0078250   1.0078250   1.0078250   1.0078250
 NucSpn=           1           1           1           1           1           1           1           1           1
 AtZEff=  -0.0000000  -0.0000000  -0.0000000  -0.0000000  -0.0000000  -0.0000000  -0.0000000  -0.0000000  -0.0000000
 NQMom=    0.0000000   0.0000000   0.0000000   0.0000000   0.0000000   0.0000000   0.0000000   0.0000000   0.0000000
 NMagM=    2.7928460   2.7928460   2.7928460   2.7928460   2.7928460   2.7928460   2.7928460   2.7928460   2.7928460
 AtZNuc=   1.0000000   1.0000000   1.0000000   1.0000000   1.0000000   1.0000000   1.0000000   1.0000000   1.0000000
 Leave Link  101 at Sat Jul 25 13:58:18 2020, MaxMem=  4026531840 cpu:               3.6 elap:               0.5
 (Enter /opt/ohpc/pub/libs/gaussian/g16-A.03/sandybridge/g16/l103.exe)

 GradGradGradGradGradGradGradGradGradGradGradGradGradGradGradGradGradGrad
 Berny optimization.
 Initialization pass.
                           ----------------------------
                           !    Initial Parameters    !
                           ! (Angstroms and Degrees)  !
 --------------------------                            --------------------------
 ! Name  Definition              Value          Derivative Info.                !
 --------------------------------------------------------------------------------
 ! R1    R(1,2)                  1.4256         estimate D2E/DX2                !
 ! R2    R(1,6)                  1.3739         estimate D2E/DX2                !
 ! R3    R(1,40)                 1.0768         estimate D2E/DX2                !
 ! R4    R(2,3)                  1.4109         estimate D2E/DX2                !
 ! R5    R(2,41)                 1.0678         estimate D2E/DX2                !
 ! R6    R(3,4)                  1.3095         estimate D2E/DX2                !
 ! R7    R(4,5)                  1.3484         estimate D2E/DX2                !
 ! R8    R(4,7)                  1.483          estimate D2E/DX2                !
 ! R9    R(5,6)                  1.3308         estimate D2E/DX2                !
 ! R10   R(6,42)                 1.0784         estimate D2E/DX2                !
 ! R11   R(7,8)                  1.3232         estimate D2E/DX2                !
 ! R12   R(7,13)                 1.7075         estimate D2E/DX2                !
 ! R13   R(8,9)                  1.3684         estimate D2E/DX2                !
 ! R14   R(8,11)                 1.4086         estimate D2E/DX2                !
 ! R15   R(9,10)                 1.3696         estimate D2E/DX2                !
 ! R16   R(10,43)                1.0953         estimate D2E/DX2                !
 ! R17   R(10,44)                1.1104         estimate D2E/DX2                !
 ! R18   R(10,45)                1.0665         estimate D2E/DX2                !
 ! R19   R(11,12)                1.4152         estimate D2E/DX2                !
 ! R20   R(11,46)                1.0528         estimate D2E/DX2                !
 ! R21   R(12,13)                1.7137         estimate D2E/DX2                !
 ! R22   R(12,14)                1.4451         estimate D2E/DX2                !
 ! R23   R(14,15)                1.3828         estimate D2E/DX2                !
 ! R24   R(14,19)                1.3791         estimate D2E/DX2                !
 ! R25   R(15,16)                1.388          estimate D2E/DX2                !
 ! R26   R(15,47)                1.0774         estimate D2E/DX2                !
 ! R27   R(16,17)                1.344          estimate D2E/DX2                !
 ! R28   R(17,18)                1.2951         estimate D2E/DX2                !
 ! R29   R(17,20)                1.4805         estimate D2E/DX2                !
 ! R30   R(18,19)                1.3123         estimate D2E/DX2                !
 ! R31   R(19,48)                1.1361         estimate D2E/DX2                !
 ! R32   R(20,21)                1.3411         estimate D2E/DX2                !
 ! R33   R(20,26)                1.798          estimate D2E/DX2                !
 ! R34   R(21,22)                1.4568         estimate D2E/DX2                !
 ! R35   R(21,24)                1.3876         estimate D2E/DX2                !
 ! R36   R(22,23)                1.3843         estimate D2E/DX2                !
 ! R37   R(23,49)                1.102          estimate D2E/DX2                !
 ! R38   R(23,50)                1.1577         estimate D2E/DX2                !
 ! R39   R(23,51)                1.1143         estimate D2E/DX2                !
 ! R40   R(24,25)                1.3611         estimate D2E/DX2                !
 ! R41   R(24,52)                1.0376         estimate D2E/DX2                !
 ! R42   R(25,26)                1.6924         estimate D2E/DX2                !
 ! R43   R(25,27)                1.5364         estimate D2E/DX2                !
 ! R44   R(27,28)                1.3976         estimate D2E/DX2                !
 ! R45   R(27,32)                1.3931         estimate D2E/DX2                !
 ! R46   R(28,29)                1.3685         estimate D2E/DX2                !
 ! R47   R(28,53)                1.0626         estimate D2E/DX2                !
 ! R48   R(29,30)                1.3006         estimate D2E/DX2                !
 ! R49   R(30,31)                1.3269         estimate D2E/DX2                !
 ! R50   R(30,33)                1.4756         estimate D2E/DX2                !
 ! R51   R(31,32)                1.2826         estimate D2E/DX2                !
 ! R52   R(32,54)                1.0774         estimate D2E/DX2                !
 ! R53   R(33,34)                1.3106         estimate D2E/DX2                !
 ! R54   R(33,39)                1.7338         estimate D2E/DX2                !
 ! R55   R(34,35)                1.3681         estimate D2E/DX2                !
 ! R56   R(34,37)                1.5039         estimate D2E/DX2                !
 ! R57   R(35,36)                1.4441         estimate D2E/DX2                !
 ! R58   R(36,55)                1.0926         estimate D2E/DX2                !
 ! R59   R(36,56)                1.089          estimate D2E/DX2                !
 ! R60   R(36,57)                1.0964         estimate D2E/DX2                !
 ! R61   R(37,38)                1.3201         estimate D2E/DX2                !
 ! R62   R(37,58)                1.0614         estimate D2E/DX2                !
 ! R63   R(38,39)                1.7539         estimate D2E/DX2                !
 ! R64   R(38,59)                1.1123         estimate D2E/DX2                !
 ! A1    A(2,1,6)              116.5348         estimate D2E/DX2                !
 ! A2    A(2,1,40)             120.3685         estimate D2E/DX2                !
 ! A3    A(6,1,40)             122.897          estimate D2E/DX2                !
 ! A4    A(1,2,3)              119.8246         estimate D2E/DX2                !
 ! A5    A(1,2,41)             123.6677         estimate D2E/DX2                !
 ! A6    A(3,2,41)             115.7288         estimate D2E/DX2                !
 ! A7    A(2,3,4)              118.1771         estimate D2E/DX2                !
 ! A8    A(3,4,5)              122.6476         estimate D2E/DX2                !
 ! A9    A(3,4,7)              117.1279         estimate D2E/DX2                !
 ! A10   A(5,4,7)              120.005          estimate D2E/DX2                !
 ! A11   A(4,5,6)              121.2759         estimate D2E/DX2                !
 ! A12   A(1,6,5)              121.0094         estimate D2E/DX2                !
 ! A13   A(1,6,42)             119.8903         estimate D2E/DX2                !
 ! A14   A(5,6,42)             118.2836         estimate D2E/DX2                !
 ! A15   A(4,7,8)              129.5932         estimate D2E/DX2                !
 ! A16   A(4,7,13)             120.1368         estimate D2E/DX2                !
 ! A17   A(8,7,13)             110.2155         estimate D2E/DX2                !
 ! A18   A(7,8,9)              121.1707         estimate D2E/DX2                !
 ! A19   A(7,8,11)             116.3525         estimate D2E/DX2                !
 ! A20   A(9,8,11)             122.3978         estimate D2E/DX2                !
 ! A21   A(8,9,10)             118.1344         estimate D2E/DX2                !
 ! A22   A(9,10,43)            113.2532         estimate D2E/DX2                !
 ! A23   A(9,10,44)            112.7872         estimate D2E/DX2                !
 ! A24   A(9,10,45)            112.5588         estimate D2E/DX2                !
 ! A25   A(43,10,44)           105.979          estimate D2E/DX2                !
 ! A26   A(43,10,45)           106.2345         estimate D2E/DX2                !
 ! A27   A(44,10,45)           105.3991         estimate D2E/DX2                !
 ! A28   A(8,11,12)            110.3672         estimate D2E/DX2                !
 ! A29   A(8,11,46)            128.0696         estimate D2E/DX2                !
 ! A30   A(12,11,46)           121.3965         estimate D2E/DX2                !
 ! A31   A(11,12,13)           109.5139         estimate D2E/DX2                !
 ! A32   A(11,12,14)           131.8599         estimate D2E/DX2                !
 ! A33   A(13,12,14)           118.4719         estimate D2E/DX2                !
 ! A34   A(7,13,12)             93.535          estimate D2E/DX2                !
 ! A35   A(12,14,15)           117.1128         estimate D2E/DX2                !
 ! A36   A(12,14,19)           129.2011         estimate D2E/DX2                !
 ! A37   A(15,14,19)           113.3939         estimate D2E/DX2                !
 ! A38   A(14,15,16)           123.803          estimate D2E/DX2                !
 ! A39   A(14,15,47)           122.4579         estimate D2E/DX2                !
 ! A40   A(16,15,47)           113.5762         estimate D2E/DX2                !
 ! A41   A(15,16,17)           112.9348         estimate D2E/DX2                !
 ! A42   A(16,17,18)           127.9488         estimate D2E/DX2                !
 ! A43   A(16,17,20)           112.6531         estimate D2E/DX2                !
 ! A44   A(18,17,20)           119.3822         estimate D2E/DX2                !
 ! A45   A(17,18,19)           116.2867         estimate D2E/DX2                !
 ! A46   A(14,19,18)           124.8953         estimate D2E/DX2                !
 ! A47   A(14,19,48)           118.4477         estimate D2E/DX2                !
 ! A48   A(18,19,48)           116.1687         estimate D2E/DX2                !
 ! A49   A(17,20,21)           135.7942         estimate D2E/DX2                !
 ! A50   A(17,20,26)           117.9382         estimate D2E/DX2                !
 ! A51   A(21,20,26)           106.2135         estimate D2E/DX2                !
 ! A52   A(20,21,22)           117.3485         estimate D2E/DX2                !
 ! A53   A(20,21,24)           118.1883         estimate D2E/DX2                !
 ! A54   A(22,21,24)           124.426          estimate D2E/DX2                !
 ! A55   A(21,22,23)           114.5207         estimate D2E/DX2                !
 ! A56   A(22,23,49)           117.227          estimate D2E/DX2                !
 ! A57   A(22,23,50)           108.1972         estimate D2E/DX2                !
 ! A58   A(22,23,51)           105.4249         estimate D2E/DX2                !
 ! A59   A(49,23,50)           108.2109         estimate D2E/DX2                !
 ! A60   A(49,23,51)           111.4951         estimate D2E/DX2                !
 ! A61   A(50,23,51)           105.655          estimate D2E/DX2                !
 ! A62   A(21,24,25)           110.9393         estimate D2E/DX2                !
 ! A63   A(21,24,52)           128.6818         estimate D2E/DX2                !
 ! A64   A(25,24,52)           120.2573         estimate D2E/DX2                !
 ! A65   A(24,25,26)           112.733          estimate D2E/DX2                !
 ! A66   A(24,25,27)           129.7662         estimate D2E/DX2                !
 ! A67   A(26,25,27)           117.4983         estimate D2E/DX2                !
 ! A68   A(20,26,25)            91.8724         estimate D2E/DX2                !
 ! A69   A(25,27,28)           122.2812         estimate D2E/DX2                !
 ! A70   A(25,27,32)           121.6881         estimate D2E/DX2                !
 ! A71   A(28,27,32)           115.9793         estimate D2E/DX2                !
 ! A72   A(27,28,29)           118.3558         estimate D2E/DX2                !
 ! A73   A(27,28,53)           121.9952         estimate D2E/DX2                !
 ! A74   A(29,28,53)           119.6418         estimate D2E/DX2                !
 ! A75   A(28,29,30)           120.6722         estimate D2E/DX2                !
 ! A76   A(29,30,31)           122.0544         estimate D2E/DX2                !
 ! A77   A(29,30,33)           116.4947         estimate D2E/DX2                !
 ! A78   A(31,30,33)           121.1261         estimate D2E/DX2                !
 ! A79   A(30,31,32)           119.926          estimate D2E/DX2                !
 ! A80   A(27,32,31)           122.6466         estimate D2E/DX2                !
 ! A81   A(27,32,54)           120.6117         estimate D2E/DX2                !
 ! A82   A(31,32,54)           116.7124         estimate D2E/DX2                !
 ! A83   A(30,33,34)           130.1779         estimate D2E/DX2                !
 ! A84   A(30,33,39)           116.4818         estimate D2E/DX2                !
 ! A85   A(34,33,39)           113.3125         estimate D2E/DX2                !
 ! A86   A(33,34,35)           123.4182         estimate D2E/DX2                !
 ! A87   A(33,34,37)           111.5366         estimate D2E/DX2                !
 ! A88   A(35,34,37)           124.8167         estimate D2E/DX2                !
 ! A89   A(34,35,36)           116.7587         estimate D2E/DX2                !
 ! A90   A(35,36,55)           113.2928         estimate D2E/DX2                !
 ! A91   A(35,36,56)           106.3369         estimate D2E/DX2                !
 ! A92   A(35,36,57)           106.2128         estimate D2E/DX2                !
 ! A93   A(55,36,56)           117.0707         estimate D2E/DX2                !
 ! A94   A(55,36,57)           104.7525         estimate D2E/DX2                !
 ! A95   A(56,36,57)           108.6136         estimate D2E/DX2                !
 ! A96   A(34,37,38)           112.3277         estimate D2E/DX2                !
 ! A97   A(34,37,58)           120.9892         estimate D2E/DX2                !
 ! A98   A(38,37,58)           126.6126         estimate D2E/DX2                !
 ! A99   A(37,38,39)           111.7456         estimate D2E/DX2                !
 ! A100  A(37,38,59)           130.3122         estimate D2E/DX2                !
 ! A101  A(39,38,59)           117.4057         estimate D2E/DX2                !
 ! A102  A(33,39,38)            90.9578         estimate D2E/DX2                !
 ! D1    D(6,1,2,3)             -7.7363         estimate D2E/DX2                !
 ! D2    D(6,1,2,41)          -177.1861         estimate D2E/DX2                !
 ! D3    D(40,1,2,3)           177.2506         estimate D2E/DX2                !
 ! D4    D(40,1,2,41)            7.8007         estimate D2E/DX2                !
 ! D5    D(2,1,6,5)              8.4082         estimate D2E/DX2                !
 ! D6    D(2,1,6,42)           177.8821         estimate D2E/DX2                !
 ! D7    D(40,1,6,5)          -176.7165         estimate D2E/DX2                !
 ! D8    D(40,1,6,42)           -7.2426         estimate D2E/DX2                !
 ! D9    D(1,2,3,4)              2.9699         estimate D2E/DX2                !
 ! D10   D(41,2,3,4)           173.2312         estimate D2E/DX2                !
 ! D11   D(2,3,4,5)              1.5075         estimate D2E/DX2                !
 ! D12   D(2,3,4,7)            176.1164         estimate D2E/DX2                !
 ! D13   D(3,4,5,6)             -0.9635         estimate D2E/DX2                !
 ! D14   D(7,4,5,6)           -175.4224         estimate D2E/DX2                !
 ! D15   D(3,4,7,8)            148.1735         estimate D2E/DX2                !
 ! D16   D(3,4,7,13)           -34.7916         estimate D2E/DX2                !
 ! D17   D(5,4,7,8)            -37.068          estimate D2E/DX2                !
 ! D18   D(5,4,7,13)           139.967          estimate D2E/DX2                !
 ! D19   D(4,5,6,1)             -4.3356         estimate D2E/DX2                !
 ! D20   D(4,5,6,42)          -173.9742         estimate D2E/DX2                !
 ! D21   D(4,7,8,9)             -5.3441         estimate D2E/DX2                !
 ! D22   D(4,7,8,11)           177.8147         estimate D2E/DX2                !
 ! D23   D(13,7,8,9)           177.3883         estimate D2E/DX2                !
 ! D24   D(13,7,8,11)            0.5471         estimate D2E/DX2                !
 ! D25   D(4,7,13,12)         -177.3386         estimate D2E/DX2                !
 ! D26   D(8,7,13,12)            0.227          estimate D2E/DX2                !
 ! D27   D(7,8,9,10)           177.1505         estimate D2E/DX2                !
 ! D28   D(11,8,9,10)           -6.2021         estimate D2E/DX2                !
 ! D29   D(7,8,11,12)           -1.238          estimate D2E/DX2                !
 ! D30   D(7,8,11,46)          174.0632         estimate D2E/DX2                !
 ! D31   D(9,8,11,12)         -178.037          estimate D2E/DX2                !
 ! D32   D(9,8,11,46)           -2.7358         estimate D2E/DX2                !
 ! D33   D(8,9,10,43)          -56.9443         estimate D2E/DX2                !
 ! D34   D(8,9,10,44)         -177.3091         estimate D2E/DX2                !
 ! D35   D(8,9,10,45)           63.5866         estimate D2E/DX2                !
 ! D36   D(8,11,12,13)           1.3165         estimate D2E/DX2                !
 ! D37   D(8,11,12,14)         176.6121         estimate D2E/DX2                !
 ! D38   D(46,11,12,13)       -174.3505         estimate D2E/DX2                !
 ! D39   D(46,11,12,14)          0.9451         estimate D2E/DX2                !
 ! D40   D(11,12,13,7)          -0.903          estimate D2E/DX2                !
 ! D41   D(14,12,13,7)        -176.9184         estimate D2E/DX2                !
 ! D42   D(11,12,14,15)         43.6434         estimate D2E/DX2                !
 ! D43   D(11,12,14,19)       -143.0309         estimate D2E/DX2                !
 ! D44   D(13,12,14,15)       -141.4017         estimate D2E/DX2                !
 ! D45   D(13,12,14,19)         31.924          estimate D2E/DX2                !
 ! D46   D(12,14,15,16)        179.206          estimate D2E/DX2                !
 ! D47   D(12,14,15,47)         -5.7327         estimate D2E/DX2                !
 ! D48   D(19,14,15,16)          4.8377         estimate D2E/DX2                !
 ! D49   D(19,14,15,47)        179.899          estimate D2E/DX2                !
 ! D50   D(12,14,19,18)        176.4383         estimate D2E/DX2                !
 ! D51   D(12,14,19,48)          4.7818         estimate D2E/DX2                !
 ! D52   D(15,14,19,18)        -10.0338         estimate D2E/DX2                !
 ! D53   D(15,14,19,48)        178.3097         estimate D2E/DX2                !
 ! D54   D(14,15,16,17)         -0.3692         estimate D2E/DX2                !
 ! D55   D(47,15,16,17)       -175.8234         estimate D2E/DX2                !
 ! D56   D(15,16,17,18)          0.1001         estimate D2E/DX2                !
 ! D57   D(15,16,17,20)        178.6229         estimate D2E/DX2                !
 ! D58   D(16,17,18,19)         -4.667          estimate D2E/DX2                !
 ! D59   D(20,17,18,19)        176.8976         estimate D2E/DX2                !
 ! D60   D(16,17,20,21)        -36.8913         estimate D2E/DX2                !
 ! D61   D(16,17,20,26)        146.216          estimate D2E/DX2                !
 ! D62   D(18,17,20,21)        141.7719         estimate D2E/DX2                !
 ! D63   D(18,17,20,26)        -35.1209         estimate D2E/DX2                !
 ! D64   D(17,18,19,14)         10.0413         estimate D2E/DX2                !
 ! D65   D(17,18,19,48)       -178.1314         estimate D2E/DX2                !
 ! D66   D(17,20,21,22)         -0.3438         estimate D2E/DX2                !
 ! D67   D(17,20,21,24)       -178.2252         estimate D2E/DX2                !
 ! D68   D(26,20,21,22)        176.7976         estimate D2E/DX2                !
 ! D69   D(26,20,21,24)         -1.0838         estimate D2E/DX2                !
 ! D70   D(17,20,26,25)        179.5656         estimate D2E/DX2                !
 ! D71   D(21,20,26,25)          1.8213         estimate D2E/DX2                !
 ! D72   D(20,21,22,23)        174.6056         estimate D2E/DX2                !
 ! D73   D(24,21,22,23)         -7.6583         estimate D2E/DX2                !
 ! D74   D(20,21,24,25)         -0.503          estimate D2E/DX2                !
 ! D75   D(20,21,24,52)       -176.44           estimate D2E/DX2                !
 ! D76   D(22,21,24,25)       -178.2216         estimate D2E/DX2                !
 ! D77   D(22,21,24,52)          5.8414         estimate D2E/DX2                !
 ! D78   D(21,22,23,49)        -57.9985         estimate D2E/DX2                !
 ! D79   D(21,22,23,50)         64.6238         estimate D2E/DX2                !
 ! D80   D(21,22,23,51)        177.2902         estimate D2E/DX2                !
 ! D81   D(21,24,25,26)          1.9854         estimate D2E/DX2                !
 ! D82   D(21,24,25,27)       -178.6116         estimate D2E/DX2                !
 ! D83   D(52,24,25,26)        178.314          estimate D2E/DX2                !
 ! D84   D(52,24,25,27)         -2.283          estimate D2E/DX2                !
 ! D85   D(24,25,26,20)         -2.2215         estimate D2E/DX2                !
 ! D86   D(27,25,26,20)        178.2958         estimate D2E/DX2                !
 ! D87   D(24,25,27,28)       -139.5756         estimate D2E/DX2                !
 ! D88   D(24,25,27,32)         43.1346         estimate D2E/DX2                !
 ! D89   D(26,25,27,28)         39.8037         estimate D2E/DX2                !
 ! D90   D(26,25,27,32)       -137.4861         estimate D2E/DX2                !
 ! D91   D(25,27,28,29)        178.8593         estimate D2E/DX2                !
 ! D92   D(25,27,28,53)         -0.1648         estimate D2E/DX2                !
 ! D93   D(32,27,28,29)         -3.706          estimate D2E/DX2                !
 ! D94   D(32,27,28,53)        177.2699         estimate D2E/DX2                !
 ! D95   D(25,27,32,31)       -177.3779         estimate D2E/DX2                !
 ! D96   D(25,27,32,54)          0.5849         estimate D2E/DX2                !
 ! D97   D(28,27,32,31)          5.1709         estimate D2E/DX2                !
 ! D98   D(28,27,32,54)       -176.8663         estimate D2E/DX2                !
 ! D99   D(27,28,29,30)          3.5533         estimate D2E/DX2                !
 ! D100  D(53,28,29,30)       -177.3989         estimate D2E/DX2                !
 ! D101  D(28,29,30,31)         -4.4889         estimate D2E/DX2                !
 ! D102  D(28,29,30,33)       -178.0107         estimate D2E/DX2                !
 ! D103  D(29,30,31,32)          5.7434         estimate D2E/DX2                !
 ! D104  D(33,30,31,32)        178.9691         estimate D2E/DX2                !
 ! D105  D(29,30,33,34)        -32.9676         estimate D2E/DX2                !
 ! D106  D(29,30,33,39)        149.1008         estimate D2E/DX2                !
 ! D107  D(31,30,33,34)        153.4461         estimate D2E/DX2                !
 ! D108  D(31,30,33,39)        -24.4855         estimate D2E/DX2                !
 ! D109  D(30,31,32,27)         -6.1396         estimate D2E/DX2                !
 ! D110  D(30,31,32,54)        175.8232         estimate D2E/DX2                !
 ! D111  D(30,33,34,35)         -4.2924         estimate D2E/DX2                !
 ! D112  D(30,33,34,37)       -179.0318         estimate D2E/DX2                !
 ! D113  D(39,33,34,35)        173.6917         estimate D2E/DX2                !
 ! D114  D(39,33,34,37)         -1.0477         estimate D2E/DX2                !
 ! D115  D(30,33,39,38)       -179.2752         estimate D2E/DX2                !
 ! D116  D(34,33,39,38)          2.4455         estimate D2E/DX2                !
 ! D117  D(33,34,35,36)        171.1519         estimate D2E/DX2                !
 ! D118  D(37,34,35,36)        -14.8108         estimate D2E/DX2                !
 ! D119  D(33,34,37,38)         -1.5265         estimate D2E/DX2                !
 ! D120  D(33,34,37,58)        175.6126         estimate D2E/DX2                !
 ! D121  D(35,34,37,38)       -176.178          estimate D2E/DX2                !
 ! D122  D(35,34,37,58)          0.9611         estimate D2E/DX2                !
 ! D123  D(34,35,36,55)        -55.4014         estimate D2E/DX2                !
 ! D124  D(34,35,36,56)         74.578          estimate D2E/DX2                !
 ! D125  D(34,35,36,57)       -169.8517         estimate D2E/DX2                !
 ! D126  D(34,37,38,39)          3.3131         estimate D2E/DX2                !
 ! D127  D(34,37,38,59)        174.5375         estimate D2E/DX2                !
 ! D128  D(58,37,38,39)       -173.6313         estimate D2E/DX2                !
 ! D129  D(58,37,38,59)         -2.4069         estimate D2E/DX2                !
 ! D130  D(37,38,39,33)         -3.322          estimate D2E/DX2                !
 ! D131  D(59,38,39,33)       -175.7922         estimate D2E/DX2                !
 --------------------------------------------------------------------------------
 Trust Radius=3.00D-01 FncErr=1.00D-07 GrdErr=1.00D-06 EigMax=2.50D+02 EigMin=1.00D-04
 Number of steps in this run=    307 maximum allowed number of steps=    354.
 GradGradGradGradGradGradGradGradGradGradGradGradGradGradGradGradGradGrad

 Leave Link  103 at Sat Jul 25 13:58:18 2020, MaxMem=  4026531840 cpu:               0.1 elap:               0.0
 (Enter /opt/ohpc/pub/libs/gaussian/g16-A.03/sandybridge/g16/l202.exe)
 Stoichiometry    C27H20N6O3S3
 Framework group  C1[X(C27H20N6O3S3)]
 Deg. of freedom   171
 Full point group                 C1      NOp   1
 Largest Abelian subgroup         C1      NOp   1
 Largest concise Abelian subgroup C1      NOp   1
                         Standard orientation:                         
 ---------------------------------------------------------------------
 Center     Atomic      Atomic             Coordinates (Angstroms)
 Number     Number       Type             X           Y           Z
 ---------------------------------------------------------------------
      1          6           0      -10.284169   -3.516222    0.469160
      2          6           0       -9.069777   -3.839588   -0.203839
      3          7           0       -8.086823   -2.845493   -0.394176
      4          6           0       -8.302514   -1.657524    0.112829
      5          7           0       -9.406128   -1.361637    0.828919
      6          6           0      -10.354461   -2.270203    1.043788
      7          6           0       -7.216864   -0.656537   -0.024137
      8          6           0       -7.293276    0.658199   -0.152549
      9          8           0       -8.501067    1.288058   -0.283591
     10          6           0       -8.511989    2.655906   -0.352705
     11          6           0       -6.069259    1.352512   -0.215295
     12          6           0       -4.984943    0.451160   -0.094319
     13         16           0       -5.583263   -1.148610    0.045732
     14          6           0       -3.554919    0.648545   -0.160200
     15          6           0       -3.038061    1.741624    0.510688
     16          7           0       -1.686193    2.053315    0.552918
     17          6           0       -0.924927    1.175145   -0.122016
     18          7           0       -1.309290    0.124333   -0.774218
     19          6           0       -2.585991   -0.170225   -0.701262
     20          6           0        0.511974    1.531325   -0.100232
     21          6           0        1.221241    2.668698   -0.143138
     22          8           0        0.477866    3.917677   -0.242170
     23          6           0        1.258191    5.058427   -0.164175
     24          6           0        2.605889    2.578371   -0.135906
     25          6           0        3.008305    1.279665   -0.072526
     26         16           0        1.711538    0.192206   -0.076996
     27          6           0        4.426641    0.692095   -0.012631
     28          6           0        4.789988   -0.454986   -0.723503
     29          7           0        6.082385   -0.895210   -0.630362
     30          6           0        6.930917   -0.300358    0.155657
     31          7           0        6.616202    0.799008    0.828684
     32          6           0        5.413557    1.243906    0.801087
     33          6           0        8.310921   -0.822886    0.150650
     34          6           0        8.751558   -2.045343   -0.019858
     35          8           0        7.929550   -3.130790   -0.153667
     36          6           0        8.554402   -4.377101   -0.530190
     37          6           0       10.250798   -2.110619    0.079068
     38          6           0       10.792104   -0.923949    0.282464
     39         16           0        9.573016    0.324077    0.462875
     40          1           0      -11.058600   -4.256077    0.580365
     41          1           0       -8.908573   -4.756862   -0.726090
     42          1           0      -11.260539   -1.956232    1.537035
     43          1           0       -8.037663    3.136254    0.509813
     44          1           0       -9.538528    3.075464   -0.410022
     45          1           0       -8.006183    3.026026   -1.215620
     46          1           0       -5.912807    2.376962   -0.400620
     47          1           0       -3.664904    2.476749    0.987676
     48          1           0       -2.915185   -1.110729   -1.246996
     49          1           0        1.871872    5.188514    0.741819
     50          1           0        1.961484    5.078941   -1.083572
     51          1           0        0.553418    5.909849   -0.305664
     52          1           0        3.305588    3.344180   -0.113874
     53          1           0        4.099649   -0.978182   -1.338997
     54          1           0        5.199158    2.099005    1.420515
     55          1           0        9.135805   -4.307547   -1.452611
     56          1           0        9.072738   -4.739966    0.356195
     57          1           0        7.738008   -5.069777   -0.766307
     58          1           0       10.761564   -3.039894    0.033064
     59          1           0       11.849173   -0.639438    0.479730
 ---------------------------------------------------------------------
 Rotational constants (GHZ):           0.1963058           0.0199301           0.0182424
 Leave Link  202 at Sat Jul 25 13:58:19 2020, MaxMem=  4026531840 cpu:               0.1 elap:               0.0
 (Enter /opt/ohpc/pub/libs/gaussian/g16-A.03/sandybridge/g16/l301.exe)
 Standard basis: CC-pVDZ (5D, 7F)
 Ernie: Thresh=  0.10000D-02 Tol=  0.10000D-05 Strict=F.
 Ernie:  102 primitive shells out of 1042 were deleted.
 There are   697 symmetry adapted cartesian basis functions of A   symmetry.
 There are   658 symmetry adapted basis functions of A   symmetry.
   658 basis functions,  1541 primitive gaussians,   697 cartesian basis functions
   148 alpha electrons      148 beta electrons
       nuclear repulsion energy      4211.9412264102 Hartrees.
 IExCor=32609 DFT=T Ex+Corr=LC-wPBE ExCW=0 ScaHFX=  1.000000
 ScaDFX=  1.000000  0.000000  1.000000  1.000000 ScalE2=  1.000000  1.000000
 IRadAn=      5 IRanWt=     -1 IRanGd=            0 ICorTp=0 IEmpDi=  4
 HFx  wShort=  0.000000 wLong=  0.391900 cFull=  0.000000 cShort=  0.000000 cLong=  1.000000
 DFx  wShort=  0.000000 wLong=  0.391900 cFull=  0.000000 cShort=  0.000000 cLong=  1.000000
 NAtoms=   59 NActive=   59 NUniq=   59 SFac= 1.00D+00 NAtFMM=   60 NAOKFM=F Big=F
 Integral buffers will be    131072 words long.
 Raffenetti 2 integral format.
 Two-electron integral symmetry is turned on.
 Leave Link  301 at Sat Jul 25 13:58:19 2020, MaxMem=  4026531840 cpu:               0.5 elap:               0.1
 (Enter /opt/ohpc/pub/libs/gaussian/g16-A.03/sandybridge/g16/l302.exe)
 NPDir=0 NMtPBC=     1 NCelOv=     1 NCel=       1 NClECP=     1 NCelD=      1
         NCelK=      1 NCelE2=     1 NClLst=     1 CellRange=     0.0.
 One-electron integrals computed using PRISM.
 One-electron integral symmetry used in STVInt
 NBasis=   658 RedAO= T EigKep=  3.63D-04  NBF=   658
 NBsUse=   658 1.00D-06 EigRej= -1.00D+00 NBFU=   658
 Precomputing XC quadrature grid using
 IXCGrd= 4 IRadAn=           5 IRanWt=          -1 IRanGd=           0 AccXCQ= 0.00D+00.
 Generated NRdTot=       0 NPtTot=           0 NUsed=           0 NTot=          32
 NSgBfM=   590   590   590   590   590 MxSgAt=    59 MxSgA2=    59.
 Leave Link  302 at Sat Jul 25 13:58:21 2020, MaxMem=  4026531840 cpu:              19.3 elap:               2.5
 (Enter /opt/ohpc/pub/libs/gaussian/g16-A.03/sandybridge/g16/l303.exe)
 DipDrv:  MaxL=1.
 Leave Link  303 at Sat Jul 25 13:58:21 2020, MaxMem=  4026531840 cpu:               1.5 elap:               0.2
 (Enter /opt/ohpc/pub/libs/gaussian/g16-A.03/sandybridge/g16/l401.exe)
 ExpMin= 1.22D-01 ExpMax= 1.11D+05 ExpMxC= 1.07D+03 IAcc=3 IRadAn=         5 AccDes= 0.00D+00
 Harris functional with IExCor=32609 and IRadAn=       5 diagonalized for initial guess.
 HarFok:  IExCor=32609 AccDes= 0.00D+00 IRadAn=         5 IDoV= 1 UseB2=F ITyADJ=14
 ICtDFT=  3500011 ScaDFX=  1.000000  1.000000  1.000000  1.000000
 FoFCou: FMM=F IPFlag=           0 FMFlag=      100000 FMFlg1=           0
         NFxFlg=           0 DoJE=T BraDBF=F KetDBF=T FulRan=T
         wScrn=  0.000000 ICntrl=       500 IOpCl=  0 I1Cent=   200000004 NGrid=           0
         NMat0=    1 NMatS0=      1 NMatT0=    0 NMatD0=    1 NMtDS0=    0 NMtDT0=    0
 Petite list used in FoFCou.
 Harris En= -2787.70125323620    
 JPrj=0 DoOrth=F DoCkMO=F.
 Initial guess <Sx>= 0.0000 <Sy>= 0.0000 <Sz>= 0.0000 <S**2>=-0.0000 S=-0.0000
 Leave Link  401 at Sat Jul 25 13:58:32 2020, MaxMem=  4026531840 cpu:              81.7 elap:              10.3
 (Enter /opt/ohpc/pub/libs/gaussian/g16-A.03/sandybridge/g16/l502.exe)
 Integral symmetry usage will be decided dynamically.
 UHF open shell SCF:
 Using DIIS extrapolation, IDIIS=  1040.
 NGot=  4026531840 LenX=  4025547505 LenY=  4025060999
 Requested convergence on RMS density matrix=1.00D-08 within 128 cycles.
 Requested convergence on MAX density matrix=1.00D-06.
 Requested convergence on             energy=1.00D-06.
 No special actions if energy rises.
 Fock matrices will be formed incrementally for  20 cycles.
 Integral accuracy reduced to 1.0D-05 until final iterations.

 Cycle   1  Pass 0  IDiag  1:
 FoFJK:  IHMeth= 1 ICntrl=       0 DoSepK=T KAlg= 0 I1Cent=           0 FoldK=F
 IRaf=         1 NMat=       1 IRICut=       1 DoRegI=T DoRafI=F ISym2E= 0 IDoP0=0 IntGTp=1.
 FoFCou: FMM=F IPFlag=           0 FMFlag=      100000 FMFlg1=           0
         NFxFlg=           0 DoJE=T BraDBF=F KetDBF=F FulRan=T
         wScrn=  0.000000 ICntrl=       500 IOpCl=  0 I1Cent=           0 NGrid=           0
         NMat0=    1 NMatS0=      1 NMatT0=    0 NMatD0=    1 NMtDS0=    0 NMtDT0=    0
 Symmetry not used in FoFCou.
 E= -2787.41549340606    
 DIIS: error= 1.41D-02 at cycle   1 NSaved=   1.
 NSaved= 1 IEnMin= 1 EnMin= -2787.41549340606     IErMin= 1 ErrMin= 1.41D-02
 ErrMax= 1.41D-02  0.00D+00 EMaxC= 1.00D-01 BMatC= 2.56D+00 BMatP= 2.56D+00
 IDIUse=3 WtCom= 8.59D-01 WtEn= 1.41D-01
 Coeff-Com:  0.100D+01
 Coeff-En:   0.100D+01
 Coeff:      0.100D+01
 Gap=     0.326 Goal=   None    Shift=    0.000
 Gap=     0.326 Goal=   None    Shift=    0.000
 GapD=    0.326 DampG=1.000 DampE=0.500 DampFc=0.5000 IDamp=-1.
 Damping current iteration by 5.00D-01
 RMSDP=2.42D-03 MaxDP=1.37D-01              OVMax= 1.69D-01

 Cycle   2  Pass 0  IDiag  1:
 RMSU=  1.20D-03    CP:  9.90D-01
 E= -2787.77987372086     Delta-E=       -0.364380314802 Rises=F Damp=T
 DIIS: error= 4.47D-03 at cycle   2 NSaved=   2.
 NSaved= 2 IEnMin= 2 EnMin= -2787.77987372086     IErMin= 2 ErrMin= 4.47D-03
 ErrMax= 4.47D-03  0.00D+00 EMaxC= 1.00D-01 BMatC= 1.57D-01 BMatP= 2.56D+00
 IDIUse=3 WtCom= 9.55D-01 WtEn= 4.47D-02
 Coeff-Com: -0.116D+00 0.112D+01
 Coeff-En:   0.000D+00 0.100D+01
 Coeff:     -0.110D+00 0.111D+01
 Gap=     0.302 Goal=   None    Shift=    0.000
 Gap=     0.302 Goal=   None    Shift=    0.000
 RMSDP=7.30D-04 MaxDP=2.69D-02 DE=-3.64D-01 OVMax= 1.15D-01

 Cycle   3  Pass 0  IDiag  1:
 RMSU=  6.68D-04    CP:  9.82D-01  1.23D+00
 E= -2788.11308030831     Delta-E=       -0.333206587448 Rises=F Damp=F
 DIIS: error= 1.72D-03 at cycle   3 NSaved=   3.
 NSaved= 3 IEnMin= 3 EnMin= -2788.11308030831     IErMin= 3 ErrMin= 1.72D-03
 ErrMax= 1.72D-03  0.00D+00 EMaxC= 1.00D-01 BMatC= 3.50D-02 BMatP= 1.57D-01
 IDIUse=3 WtCom= 9.83D-01 WtEn= 1.72D-02
 Coeff-Com: -0.636D-01 0.341D+00 0.723D+00
 Coeff-En:   0.000D+00 0.000D+00 0.100D+01
 Coeff:     -0.625D-01 0.335D+00 0.728D+00
 Gap=     0.299 Goal=   None    Shift=    0.000
 Gap=     0.299 Goal=   None    Shift=    0.000
 RMSDP=2.06D-04 MaxDP=1.10D-02 DE=-3.33D-01 OVMax= 2.80D-02

 Cycle   4  Pass 0  IDiag  1:
 RMSU=  1.79D-04    CP:  9.82D-01  1.28D+00  8.88D-01
 E= -2788.12183687622     Delta-E=       -0.008756567912 Rises=F Damp=F
 DIIS: error= 7.03D-04 at cycle   4 NSaved=   4.
 NSaved= 4 IEnMin= 4 EnMin= -2788.12183687622     IErMin= 4 ErrMin= 7.03D-04
 ErrMax= 7.03D-04  0.00D+00 EMaxC= 1.00D-01 BMatC= 6.88D-03 BMatP= 3.50D-02
 IDIUse=3 WtCom= 9.93D-01 WtEn= 7.03D-03
 Coeff-Com: -0.585D-02 0.112D-01 0.293D+00 0.702D+00
 Coeff-En:   0.000D+00 0.000D+00 0.000D+00 0.100D+01
 Coeff:     -0.581D-02 0.111D-01 0.291D+00 0.704D+00
 Gap=     0.301 Goal=   None    Shift=    0.000
 Gap=     0.301 Goal=   None    Shift=    0.000
 RMSDP=8.06D-05 MaxDP=4.23D-03 DE=-8.76D-03 OVMax= 8.59D-03

 Cycle   5  Pass 0  IDiag  1:
 RMSU=  6.39D-05    CP:  9.81D-01  1.28D+00  9.57D-01  9.29D-01
 E= -2788.12385129770     Delta-E=       -0.002014421473 Rises=F Damp=F
 DIIS: error= 2.69D-04 at cycle   5 NSaved=   5.
 NSaved= 5 IEnMin= 5 EnMin= -2788.12385129770     IErMin= 5 ErrMin= 2.69D-04
 ErrMax= 2.69D-04  0.00D+00 EMaxC= 1.00D-01 BMatC= 6.57D-04 BMatP= 6.88D-03
 IDIUse=3 WtCom= 9.97D-01 WtEn= 2.69D-03
 Coeff-Com:  0.846D-02-0.398D-01 0.139D-01 0.217D+00 0.800D+00
 Coeff-En:   0.000D+00 0.000D+00 0.000D+00 0.000D+00 0.100D+01
 Coeff:      0.844D-02-0.397D-01 0.138D-01 0.216D+00 0.801D+00
 Gap=     0.302 Goal=   None    Shift=    0.000
 Gap=     0.302 Goal=   None    Shift=    0.000
 RMSDP=3.53D-05 MaxDP=2.15D-03 DE=-2.01D-03 OVMax= 4.64D-03

 Cycle   6  Pass 0  IDiag  1:
 RMSU=  2.56D-05    CP:  9.81D-01  1.28D+00  9.77D-01  1.04D+00  1.09D+00
 E= -2788.12417588607     Delta-E=       -0.000324588371 Rises=F Damp=F
 DIIS: error= 1.95D-04 at cycle   6 NSaved=   6.
 NSaved= 6 IEnMin= 6 EnMin= -2788.12417588607     IErMin= 6 ErrMin= 1.95D-04
 ErrMax= 1.95D-04  0.00D+00 EMaxC= 1.00D-01 BMatC= 1.28D-04 BMatP= 6.57D-04
 IDIUse=3 WtCom= 9.98D-01 WtEn= 1.95D-03
 Coeff-Com:  0.492D-02-0.181D-01-0.385D-01-0.377D-01 0.255D+00 0.834D+00
 Coeff-En:   0.000D+00 0.000D+00 0.000D+00 0.000D+00 0.000D+00 0.100D+01
 Coeff:      0.491D-02-0.180D-01-0.384D-01-0.376D-01 0.255D+00 0.834D+00
 Gap=     0.303 Goal=   None    Shift=    0.000
 Gap=     0.303 Goal=   None    Shift=    0.000
 RMSDP=1.98D-05 MaxDP=1.40D-03 DE=-3.25D-04 OVMax= 3.24D-03

 Cycle   7  Pass 0  IDiag  1:
 RMSU=  1.15D-05    CP:  9.81D-01  1.28D+00  9.86D-01  1.08D+00  1.28D+00
                    CP:  1.20D+00
 E= -2788.12426895719     Delta-E=       -0.000093071123 Rises=F Damp=F
 DIIS: error= 6.93D-05 at cycle   7 NSaved=   7.
 NSaved= 7 IEnMin= 7 EnMin= -2788.12426895719     IErMin= 7 ErrMin= 6.93D-05
 ErrMax= 6.93D-05  0.00D+00 EMaxC= 1.00D-01 BMatC= 2.36D-05 BMatP= 1.28D-04
 IDIUse=1 WtCom= 1.00D+00 WtEn= 0.00D+00
 Coeff-Com: -0.387D-03 0.382D-02-0.786D-02-0.543D-01-0.143D+00 0.186D+00
 Coeff-Com:  0.102D+01
 Coeff:     -0.387D-03 0.382D-02-0.786D-02-0.543D-01-0.143D+00 0.186D+00
 Coeff:      0.102D+01
 Gap=     0.303 Goal=   None    Shift=    0.000
 Gap=     0.303 Goal=   None    Shift=    0.000
 RMSDP=1.24D-05 MaxDP=8.45D-04 DE=-9.31D-05 OVMax= 2.13D-03

 Cycle   8  Pass 0  IDiag  1:
 RMSU=  4.37D-06    CP:  9.81D-01  1.28D+00  9.90D-01  1.10D+00  1.37D+00
                    CP:  1.51D+00  1.35D+00
 E= -2788.12429179489     Delta-E=       -0.000022837698 Rises=F Damp=F
 DIIS: error= 2.54D-05 at cycle   8 NSaved=   8.
 NSaved= 8 IEnMin= 8 EnMin= -2788.12429179489     IErMin= 8 ErrMin= 2.54D-05
 ErrMax= 2.54D-05  0.00D+00 EMaxC= 1.00D-01 BMatC= 3.32D-06 BMatP= 2.36D-05
 IDIUse=1 WtCom= 1.00D+00 WtEn= 0.00D+00
 Coeff-Com: -0.596D-03 0.316D-02 0.366D-02-0.961D-02-0.754D-01-0.584D-01
 Coeff-Com:  0.279D+00 0.858D+00
 Coeff:     -0.596D-03 0.316D-02 0.366D-02-0.961D-02-0.754D-01-0.584D-01
 Coeff:      0.279D+00 0.858D+00
 Gap=     0.303 Goal=   None    Shift=    0.000
 Gap=     0.303 Goal=   None    Shift=    0.000
 RMSDP=4.04D-06 MaxDP=2.70D-04 DE=-2.28D-05 OVMax= 7.25D-04

 Initial convergence to 1.0D-05 achieved.  Increase integral accuracy.
 Cycle   9  Pass 1  IDiag  1:
 E= -2788.12388328040     Delta-E=        0.000408514490 Rises=F Damp=F
 DIIS: error= 1.21D-04 at cycle   1 NSaved=   1.
 NSaved= 1 IEnMin= 1 EnMin= -2788.12388328040     IErMin= 1 ErrMin= 1.21D-04
 ErrMax= 1.21D-04  0.00D+00 EMaxC= 1.00D-01 BMatC= 2.83D-05 BMatP= 2.83D-05
 IDIUse=3 WtCom= 9.99D-01 WtEn= 1.21D-03
 Coeff-Com:  0.100D+01
 Coeff-En:   0.100D+01
 Coeff:      0.100D+01
 Gap=     0.303 Goal=   None    Shift=    0.000
 Gap=     0.303 Goal=   None    Shift=    0.000
 RMSDP=4.04D-06 MaxDP=2.70D-04 DE= 4.09D-04 OVMax= 2.32D-04

 Cycle  10  Pass 1  IDiag  1:
 RMSU=  6.08D-05    CP:  1.00D+00
 E= -2788.12388875007     Delta-E=       -0.000005469668 Rises=F Damp=F
 DIIS: error= 8.34D-06 at cycle   2 NSaved=   2.
 NSaved= 2 IEnMin= 2 EnMin= -2788.12388875007     IErMin= 2 ErrMin= 8.34D-06
 ErrMax= 8.34D-06  0.00D+00 EMaxC= 1.00D-01 BMatC= 5.92D-07 BMatP= 2.83D-05
 IDIUse=1 WtCom= 1.00D+00 WtEn= 0.00D+00
 Coeff-Com: -0.115D-02 0.100D+01
 Coeff:     -0.115D-02 0.100D+01
 Gap=     0.303 Goal=   None    Shift=    0.000
 Gap=     0.303 Goal=   None    Shift=    0.000
 RMSDP=3.38D-06 MaxDP=1.24D-04 DE=-5.47D-06 OVMax= 1.43D-04

 Cycle  11  Pass 1  IDiag  1:
 RMSU=  1.49D-06    CP:  1.00D+00  1.05D+00
 E= -2788.12388871883     Delta-E=        0.000000031242 Rises=F Damp=F
 DIIS: error= 1.08D-05 at cycle   3 NSaved=   3.
 NSaved= 3 IEnMin= 2 EnMin= -2788.12388875007     IErMin= 2 ErrMin= 8.34D-06
 ErrMax= 1.08D-05  0.00D+00 EMaxC= 1.00D-01 BMatC= 7.82D-07 BMatP= 5.92D-07
 IDIUse=1 WtCom= 1.00D+00 WtEn= 0.00D+00
 Coeff-Com: -0.208D-01 0.549D+00 0.472D+00
 Coeff:     -0.208D-01 0.549D+00 0.472D+00
 Gap=     0.303 Goal=   None    Shift=    0.000
 Gap=     0.303 Goal=   None    Shift=    0.000
 RMSDP=7.04D-07 MaxDP=5.11D-05 DE= 3.12D-08 OVMax= 7.18D-05

 Cycle  12  Pass 1  IDiag  1:
 RMSU=  5.52D-07    CP:  1.00D+00  1.05D+00  7.45D-01
 E= -2788.12388890930     Delta-E=       -0.000000190475 Rises=F Damp=F
 DIIS: error= 1.76D-06 at cycle   4 NSaved=   4.
 NSaved= 4 IEnMin= 4 EnMin= -2788.12388890930     IErMin= 4 ErrMin= 1.76D-06
 ErrMax= 1.76D-06  0.00D+00 EMaxC= 1.00D-01 BMatC= 1.24D-08 BMatP= 5.92D-07
 IDIUse=1 WtCom= 1.00D+00 WtEn= 0.00D+00
 Coeff-Com: -0.218D-02 0.123D-01 0.428D-01 0.947D+00
 Coeff:     -0.218D-02 0.123D-01 0.428D-01 0.947D+00
 Gap=     0.303 Goal=   None    Shift=    0.000
 Gap=     0.303 Goal=   None    Shift=    0.000
 RMSDP=2.45D-07 MaxDP=1.63D-05 DE=-1.90D-07 OVMax= 3.54D-05

 Cycle  13  Pass 1  IDiag  1:
 RMSU=  1.74D-07    CP:  1.00D+00  1.05D+00  8.26D-01  1.19D+00
 E= -2788.12388892060     Delta-E=       -0.000000011299 Rises=F Damp=F
 DIIS: error= 9.75D-07 at cycle   5 NSaved=   5.
 NSaved= 5 IEnMin= 5 EnMin= -2788.12388892060     IErMin= 5 ErrMin= 9.75D-07
 ErrMax= 9.75D-07  0.00D+00 EMaxC= 1.00D-01 BMatC= 5.52D-09 BMatP= 1.24D-08
 IDIUse=1 WtCom= 1.00D+00 WtEn= 0.00D+00
 Coeff-Com:  0.659D-02-0.193D+00-0.156D+00 0.403D+00 0.940D+00
 Coeff:      0.659D-02-0.193D+00-0.156D+00 0.403D+00 0.940D+00
 Gap=     0.303 Goal=   None    Shift=    0.000
 Gap=     0.303 Goal=   None    Shift=    0.000
 RMSDP=1.95D-07 MaxDP=1.35D-05 DE=-1.13D-08 OVMax= 4.05D-05

 Cycle  14  Pass 1  IDiag  1:
 RMSU=  1.01D-07    CP:  1.00D+00  1.06D+00  8.70D-01  1.40D+00  1.53D+00
 E= -2788.12388892552     Delta-E=       -0.000000004924 Rises=F Damp=F
 DIIS: error= 2.38D-07 at cycle   6 NSaved=   6.
 NSaved= 6 IEnMin= 6 EnMin= -2788.12388892552     IErMin= 6 ErrMin= 2.38D-07
 ErrMax= 2.38D-07  0.00D+00 EMaxC= 1.00D-01 BMatC= 6.82D-10 BMatP= 5.52D-09
 IDIUse=1 WtCom= 1.00D+00 WtEn= 0.00D+00
 Coeff-Com:  0.222D-02-0.576D-01-0.526D-01-0.333D-01 0.291D+00 0.851D+00
 Coeff:      0.222D-02-0.576D-01-0.526D-01-0.333D-01 0.291D+00 0.851D+00
 Gap=     0.303 Goal=   None    Shift=    0.000
 Gap=     0.303 Goal=   None    Shift=    0.000
 RMSDP=6.19D-08 MaxDP=4.16D-06 DE=-4.92D-09 OVMax= 1.09D-05

 Cycle  15  Pass 1  IDiag  1:
 RMSU=  2.62D-08    CP:  1.00D+00  1.05D+00  8.79D-01  1.44D+00  1.80D+00
                    CP:  1.18D+00
 E= -2788.12388893255     Delta-E=       -0.000000007028 Rises=F Damp=F
 DIIS: error= 1.28D-07 at cycle   7 NSaved=   7.
 NSaved= 7 IEnMin= 7 EnMin= -2788.12388893255     IErMin= 7 ErrMin= 1.28D-07
 ErrMax= 1.28D-07  0.00D+00 EMaxC= 1.00D-01 BMatC= 1.30D-10 BMatP= 6.82D-10
 IDIUse=1 WtCom= 1.00D+00 WtEn= 0.00D+00
 Coeff-Com: -0.352D-03 0.134D-01 0.823D-02-0.944D-01-0.544D-01 0.350D+00
 Coeff-Com:  0.777D+00
 Coeff:     -0.352D-03 0.134D-01 0.823D-02-0.944D-01-0.544D-01 0.350D+00
 Coeff:      0.777D+00
 Gap=     0.303 Goal=   None    Shift=    0.000
 Gap=     0.303 Goal=   None    Shift=    0.000
 RMSDP=2.33D-08 MaxDP=1.59D-06 DE=-7.03D-09 OVMax= 3.95D-06

 Cycle  16  Pass 1  IDiag  1:
 RMSU=  1.05D-08    CP:  1.00D+00  1.05D+00  8.80D-01  1.44D+00  1.88D+00
                    CP:  1.30D+00  9.58D-01
 E= -2788.12388893260     Delta-E=       -0.000000000050 Rises=F Damp=F
 DIIS: error= 3.70D-08 at cycle   8 NSaved=   8.
 NSaved= 8 IEnMin= 8 EnMin= -2788.12388893260     IErMin= 8 ErrMin= 3.70D-08
 ErrMax= 3.70D-08  0.00D+00 EMaxC= 1.00D-01 BMatC= 9.81D-12 BMatP= 1.30D-10
 IDIUse=1 WtCom= 1.00D+00 WtEn= 0.00D+00
 Coeff-Com: -0.266D-03 0.852D-02 0.630D-02-0.346D-01-0.372D-01 0.809D-01
 Coeff-Com:  0.288D+00 0.689D+00
 Coeff:     -0.266D-03 0.852D-02 0.630D-02-0.346D-01-0.372D-01 0.809D-01
 Coeff:      0.288D+00 0.689D+00
 Gap=     0.303 Goal=   None    Shift=    0.000
 Gap=     0.303 Goal=   None    Shift=    0.000
 RMSDP=4.33D-09 MaxDP=2.36D-07 DE=-5.00D-11 OVMax= 5.19D-07

 SCF Done:  E(ULC-wPBE) =  -2788.12388893     A.U. after   16 cycles
            NFock= 16  Conv=0.43D-08     -V/T= 2.0046
 <Sx>= 0.0000 <Sy>= 0.0000 <Sz>= 0.0000 <S**2>=-0.0000 S=-0.0000
 <L.S>= 0.000000000000E+00
 KE= 2.775480294469D+03 PE=-1.497535403375D+04 EE= 5.199808623940D+03
 Annihilation of the first spin contaminant:
 S**2 before annihilation    -0.0000,   after     0.0000
 Leave Link  502 at Sat Jul 25 14:09:55 2020, MaxMem=  4026531840 cpu:            5446.7 elap:             683.0
 (Enter /opt/ohpc/pub/libs/gaussian/g16-A.03/sandybridge/g16/l601.exe)
 Copying SCF densities to generalized density rwf, IOpCl= 1 IROHF=0.

 **********************************************************************

            Population analysis using the SCF density.

 **********************************************************************

 Orbital symmetries:
 Alpha Orbitals:
       Occupied  (A) (A) (A) (A) (A) (A) (A) (A) (A) (A) (A) (A)
                 (A) (A) (A) (A) (A) (A) (A) (A) (A) (A) (A) (A)
                 (A) (A) (A) (A) (A) (A) (A) (A) (A) (A) (A) (A)
                 (A) (A) (A) (A) (A) (A) (A) (A) (A) (A) (A) (A)
                 (A) (A) (A) (A) (A) (A) (A) (A) (A) (A) (A) (A)
                 (A) (A) (A) (A) (A) (A) (A) (A) (A) (A) (A) (A)
                 (A) (A) (A) (A) (A) (A) (A) (A) (A) (A) (A) (A)
                 (A) (A) (A) (A) (A) (A) (A) (A) (A) (A) (A) (A)
                 (A) (A) (A) (A) (A) (A) (A) (A) (A) (A) (A) (A)
                 (A) (A) (A) (A) (A) (A) (A) (A) (A) (A) (A) (A)
                 (A) (A) (A) (A) (A) (A) (A) (A) (A) (A) (A) (A)
                 (A) (A) (A) (A) (A) (A) (A) (A) (A) (A) (A) (A)
                 (A) (A) (A) (A)
       Virtual   (A) (A) (A) (A) (A) (A) (A) (A) (A) (A) (A) (A)
                 (A) (A) (A) (A) (A) (A) (A) (A) (A) (A) (A) (A)
                 (A) (A) (A) (A) (A) (A) (A) (A) (A) (A) (A) (A)
                 (A) (A) (A) (A) (A) (A) (A) (A) (A) (A) (A) (A)
                 (A) (A) (A) (A) (A) (A) (A) (A) (A) (A) (A) (A)
                 (A) (A) (A) (A) (A) (A) (A) (A) (A) (A) (A) (A)
                 (A) (A) (A) (A) (A) (A) (A) (A) (A) (A) (A) (A)
                 (A) (A) (A) (A) (A) (A) (A) (A) (A) (A) (A) (A)
                 (A) (A) (A) (A) (A) (A) (A) (A) (A) (A) (A) (A)
                 (A) (A) (A) (A) (A) (A) (A) (A) (A) (A) (A) (A)
                 (A) (A) (A) (A) (A) (A) (A) (A) (A) (A) (A) (A)
                 (A) (A) (A) (A) (A) (A) (A) (A) (A) (A) (A) (A)
                 (A) (A) (A) (A) (A) (A) (A) (A) (A) (A) (A) (A)
                 (A) (A) (A) (A) (A) (A) (A) (A) (A) (A) (A) (A)
                 (A) (A) (A) (A) (A) (A) (A) (A) (A) (A) (A) (A)
                 (A) (A) (A) (A) (A) (A) (A) (A) (A) (A) (A) (A)
                 (A) (A) (A) (A) (A) (A) (A) (A) (A) (A) (A) (A)
                 (A) (A) (A) (A) (A) (A) (A) (A) (A) (A) (A) (A)
                 (A) (A) (A) (A) (A) (A) (A) (A) (A) (A) (A) (A)
                 (A) (A) (A) (A) (A) (A) (A) (A) (A) (A) (A) (A)
                 (A) (A) (A) (A) (A) (A) (A) (A) (A) (A) (A) (A)
                 (A) (A) (A) (A) (A) (A) (A) (A) (A) (A) (A) (A)
                 (A) (A) (A) (A) (A) (A) (A) (A) (A) (A) (A) (A)
                 (A) (A) (A) (A) (A) (A) (A) (A) (A) (A) (A) (A)
                 (A) (A) (A) (A) (A) (A) (A) (A) (A) (A) (A) (A)
                 (A) (A) (A) (A) (A) (A) (A) (A) (A) (A) (A) (A)
                 (A) (A) (A) (A) (A) (A) (A) (A) (A) (A) (A) (A)
                 (A) (A) (A) (A) (A) (A) (A) (A) (A) (A) (A) (A)
                 (A) (A) (A) (A) (A) (A) (A) (A) (A) (A) (A) (A)
                 (A) (A) (A) (A) (A) (A) (A) (A) (A) (A) (A) (A)
                 (A) (A) (A) (A) (A) (A) (A) (A) (A) (A) (A) (A)
                 (A) (A) (A) (A) (A) (A) (A) (A) (A) (A) (A) (A)
                 (A) (A) (A) (A) (A) (A) (A) (A) (A) (A) (A) (A)
                 (A) (A) (A) (A) (A) (A) (A) (A) (A) (A) (A) (A)
                 (A) (A) (A) (A) (A) (A) (A) (A) (A) (A) (A) (A)
                 (A) (A) (A) (A) (A) (A) (A) (A) (A) (A) (A) (A)
                 (A) (A) (A) (A) (A) (A) (A) (A) (A) (A) (A) (A)
                 (A) (A) (A) (A) (A) (A) (A) (A) (A) (A) (A) (A)
                 (A) (A) (A) (A) (A) (A) (A) (A) (A) (A) (A) (A)
                 (A) (A) (A) (A) (A) (A) (A) (A) (A) (A) (A) (A)
                 (A) (A) (A) (A) (A) (A) (A) (A) (A) (A) (A) (A)
                 (A) (A) (A) (A) (A) (A) (A) (A) (A) (A) (A) (A)
                 (A) (A) (A) (A) (A) (A)
 Beta  Orbitals:
       Occupied  (A) (A) (A) (A) (A) (A) (A) (A) (A) (A) (A) (A)
                 (A) (A) (A) (A) (A) (A) (A) (A) (A) (A) (A) (A)
                 (A) (A) (A) (A) (A) (A) (A) (A) (A) (A) (A) (A)
                 (A) (A) (A) (A) (A) (A) (A) (A) (A) (A) (A) (A)
                 (A) (A) (A) (A) (A) (A) (A) (A) (A) (A) (A) (A)
                 (A) (A) (A) (A) (A) (A) (A) (A) (A) (A) (A) (A)
                 (A) (A) (A) (A) (A) (A) (A) (A) (A) (A) (A) (A)
                 (A) (A) (A) (A) (A) (A) (A) (A) (A) (A) (A) (A)
                 (A) (A) (A) (A) (A) (A) (A) (A) (A) (A) (A) (A)
                 (A) (A) (A) (A) (A) (A) (A) (A) (A) (A) (A) (A)
                 (A) (A) (A) (A) (A) (A) (A) (A) (A) (A) (A) (A)
                 (A) (A) (A) (A) (A) (A) (A) (A) (A) (A) (A) (A)
                 (A) (A) (A) (A)
       Virtual   (A) (A) (A) (A) (A) (A) (A) (A) (A) (A) (A) (A)
                 (A) (A) (A) (A) (A) (A) (A) (A) (A) (A) (A) (A)
                 (A) (A) (A) (A) (A) (A) (A) (A) (A) (A) (A) (A)
                 (A) (A) (A) (A) (A) (A) (A) (A) (A) (A) (A) (A)
                 (A) (A) (A) (A) (A) (A) (A) (A) (A) (A) (A) (A)
                 (A) (A) (A) (A) (A) (A) (A) (A) (A) (A) (A) (A)
                 (A) (A) (A) (A) (A) (A) (A) (A) (A) (A) (A) (A)
                 (A) (A) (A) (A) (A) (A) (A) (A) (A) (A) (A) (A)
                 (A) (A) (A) (A) (A) (A) (A) (A) (A) (A) (A) (A)
                 (A) (A) (A) (A) (A) (A) (A) (A) (A) (A) (A) (A)
                 (A) (A) (A) (A) (A) (A) (A) (A) (A) (A) (A) (A)
                 (A) (A) (A) (A) (A) (A) (A) (A) (A) (A) (A) (A)
                 (A) (A) (A) (A) (A) (A) (A) (A) (A) (A) (A) (A)
                 (A) (A) (A) (A) (A) (A) (A) (A) (A) (A) (A) (A)
                 (A) (A) (A) (A) (A) (A) (A) (A) (A) (A) (A) (A)
                 (A) (A) (A) (A) (A) (A) (A) (A) (A) (A) (A) (A)
                 (A) (A) (A) (A) (A) (A) (A) (A) (A) (A) (A) (A)
                 (A) (A) (A) (A) (A) (A) (A) (A) (A) (A) (A) (A)
                 (A) (A) (A) (A) (A) (A) (A) (A) (A) (A) (A) (A)
                 (A) (A) (A) (A) (A) (A) (A) (A) (A) (A) (A) (A)
                 (A) (A) (A) (A) (A) (A) (A) (A) (A) (A) (A) (A)
                 (A) (A) (A) (A) (A) (A) (A) (A) (A) (A) (A) (A)
                 (A) (A) (A) (A) (A) (A) (A) (A) (A) (A) (A) (A)
                 (A) (A) (A) (A) (A) (A) (A) (A) (A) (A) (A) (A)
                 (A) (A) (A) (A) (A) (A) (A) (A) (A) (A) (A) (A)
                 (A) (A) (A) (A) (A) (A) (A) (A) (A) (A) (A) (A)
                 (A) (A) (A) (A) (A) (A) (A) (A) (A) (A) (A) (A)
                 (A) (A) (A) (A) (A) (A) (A) (A) (A) (A) (A) (A)
                 (A) (A) (A) (A) (A) (A) (A) (A) (A) (A) (A) (A)
                 (A) (A) (A) (A) (A) (A) (A) (A) (A) (A) (A) (A)
                 (A) (A) (A) (A) (A) (A) (A) (A) (A) (A) (A) (A)
                 (A) (A) (A) (A) (A) (A) (A) (A) (A) (A) (A) (A)
                 (A) (A) (A) (A) (A) (A) (A) (A) (A) (A) (A) (A)
                 (A) (A) (A) (A) (A) (A) (A) (A) (A) (A) (A) (A)
                 (A) (A) (A) (A) (A) (A) (A) (A) (A) (A) (A) (A)
                 (A) (A) (A) (A) (A) (A) (A) (A) (A) (A) (A) (A)
                 (A) (A) (A) (A) (A) (A) (A) (A) (A) (A) (A) (A)
                 (A) (A) (A) (A) (A) (A) (A) (A) (A) (A) (A) (A)
                 (A) (A) (A) (A) (A) (A) (A) (A) (A) (A) (A) (A)
                 (A) (A) (A) (A) (A) (A) (A) (A) (A) (A) (A) (A)
                 (A) (A) (A) (A) (A) (A) (A) (A) (A) (A) (A) (A)
                 (A) (A) (A) (A) (A) (A) (A) (A) (A) (A) (A) (A)
                 (A) (A) (A) (A) (A) (A)
 The electronic state is 1-A.
 Alpha  occ. eigenvalues --  -88.32250 -88.31876 -88.30338 -19.00510 -19.00246
 Alpha  occ. eigenvalues --  -18.99771 -14.22508 -14.22503 -14.22386 -14.21511
 Alpha  occ. eigenvalues --  -14.21265 -14.21095 -10.20274 -10.20243 -10.19424
 Alpha  occ. eigenvalues --  -10.18424 -10.18336 -10.18302 -10.18232 -10.17742
 Alpha  occ. eigenvalues --  -10.17711 -10.17424 -10.17312 -10.17292 -10.16967
 Alpha  occ. eigenvalues --  -10.16914 -10.16882 -10.16536 -10.16336 -10.15331
 Alpha  occ. eigenvalues --  -10.15328 -10.14991 -10.14724 -10.14125 -10.14117
 Alpha  occ. eigenvalues --  -10.13234 -10.13001 -10.12354 -10.12258  -7.93018
 Alpha  occ. eigenvalues --   -7.92565  -7.91034  -5.94566  -5.94121  -5.94027
 Alpha  occ. eigenvalues --   -5.93643  -5.93603  -5.93182  -5.92637  -5.92096
 Alpha  occ. eigenvalues --   -5.91572  -1.20975  -1.18727  -1.17778  -1.14980
 Alpha  occ. eigenvalues --   -1.14463  -1.13087  -1.05677  -1.05001  -1.03280
 Alpha  occ. eigenvalues --   -1.03128  -1.02752  -1.01761  -0.98419  -0.96299
 Alpha  occ. eigenvalues --   -0.94971  -0.91121  -0.90027  -0.89353  -0.88745
 Alpha  occ. eigenvalues --   -0.88042  -0.87133  -0.83686  -0.82640  -0.82090
 Alpha  occ. eigenvalues --   -0.80937  -0.80417  -0.80271  -0.80206  -0.78178
 Alpha  occ. eigenvalues --   -0.76896  -0.71527  -0.71104  -0.70641  -0.70159
 Alpha  occ. eigenvalues --   -0.69477  -0.69268  -0.68357  -0.67041  -0.66179
 Alpha  occ. eigenvalues --   -0.65647  -0.64746  -0.64130  -0.63422  -0.61913
 Alpha  occ. eigenvalues --   -0.60984  -0.60579  -0.60161  -0.59916  -0.59146
 Alpha  occ. eigenvalues --   -0.58363  -0.58207  -0.57896  -0.57462  -0.57188
 Alpha  occ. eigenvalues --   -0.56833  -0.56056  -0.55847  -0.55232  -0.54689
 Alpha  occ. eigenvalues --   -0.54613  -0.54064  -0.53407  -0.53102  -0.52824
 Alpha  occ. eigenvalues --   -0.52280  -0.52075  -0.51976  -0.51521  -0.50790
 Alpha  occ. eigenvalues --   -0.49658  -0.46859  -0.46452  -0.45977  -0.45464
 Alpha  occ. eigenvalues --   -0.44959  -0.44788  -0.44550  -0.43836  -0.43699
 Alpha  occ. eigenvalues --   -0.43050  -0.42855  -0.42488  -0.41797  -0.41744
 Alpha  occ. eigenvalues --   -0.41223  -0.40659  -0.40211  -0.39884  -0.37386
 Alpha  occ. eigenvalues --   -0.35880  -0.35596  -0.34769  -0.34656  -0.34375
 Alpha  occ. eigenvalues --   -0.32618  -0.31270  -0.30309
 Alpha virt. eigenvalues --   -0.00003   0.02385   0.03140   0.03240   0.04292
 Alpha virt. eigenvalues --    0.05165   0.07406   0.09704   0.10944   0.12593
 Alpha virt. eigenvalues --    0.13391   0.13494   0.15535   0.15742   0.16083
 Alpha virt. eigenvalues --    0.16142   0.16417   0.17138   0.17726   0.18404
 Alpha virt. eigenvalues --    0.18538   0.19144   0.19638   0.19742   0.19885
 Alpha virt. eigenvalues --    0.20143   0.20460   0.21007   0.21638   0.21837
 Alpha virt. eigenvalues --    0.22072   0.22140   0.22359   0.22773   0.23233
 Alpha virt. eigenvalues --    0.23742   0.23928   0.24258   0.24804   0.25642
 Alpha virt. eigenvalues --    0.26139   0.26551   0.27385   0.27639   0.30119
 Alpha virt. eigenvalues --    0.30647   0.31288   0.32320   0.33258   0.33465
 Alpha virt. eigenvalues --    0.34378   0.34603   0.35131   0.36255   0.36923
 Alpha virt. eigenvalues --    0.37490   0.38149   0.38972   0.39398   0.39704
 Alpha virt. eigenvalues --    0.40140   0.40992   0.41450   0.42528   0.43577
 Alpha virt. eigenvalues --    0.44124   0.44737   0.45700   0.46020   0.46836
 Alpha virt. eigenvalues --    0.47342   0.47528   0.48678   0.49164   0.49488
 Alpha virt. eigenvalues --    0.51830   0.52842   0.53425   0.53762   0.54171
 Alpha virt. eigenvalues --    0.54432   0.54638   0.54833   0.54990   0.55226
 Alpha virt. eigenvalues --    0.55771   0.55944   0.56067   0.56204   0.56420
 Alpha virt. eigenvalues --    0.56721   0.56783   0.57169   0.57579   0.57682
 Alpha virt. eigenvalues --    0.58070   0.58486   0.58625   0.58794   0.58877
 Alpha virt. eigenvalues --    0.59148   0.59471   0.59700   0.59883   0.60066
 Alpha virt. eigenvalues --    0.60373   0.60456   0.60701   0.60811   0.61281
 Alpha virt. eigenvalues --    0.61691   0.61786   0.62046   0.62237   0.62437
 Alpha virt. eigenvalues --    0.62571   0.62681   0.63420   0.63604   0.63912
 Alpha virt. eigenvalues --    0.64430   0.64758   0.65171   0.65417   0.65781
 Alpha virt. eigenvalues --    0.66608   0.67226   0.67497   0.67657   0.68298
 Alpha virt. eigenvalues --    0.69218   0.69348   0.69399   0.69713   0.69763
 Alpha virt. eigenvalues --    0.70352   0.71260   0.71445   0.71714   0.72281
 Alpha virt. eigenvalues --    0.72547   0.72828   0.72975   0.73366   0.74042
 Alpha virt. eigenvalues --    0.74276   0.74656   0.75084   0.75226   0.75577
 Alpha virt. eigenvalues --    0.75721   0.76517   0.76677   0.77295   0.77394
 Alpha virt. eigenvalues --    0.77436   0.77917   0.78491   0.78626   0.78905
 Alpha virt. eigenvalues --    0.79442   0.80002   0.80163   0.80434   0.80630
 Alpha virt. eigenvalues --    0.81161   0.81519   0.81679   0.82101   0.82873
 Alpha virt. eigenvalues --    0.82983   0.83271   0.84028   0.85039   0.85481
 Alpha virt. eigenvalues --    0.85758   0.86216   0.86502   0.87732   0.89290
 Alpha virt. eigenvalues --    0.89622   0.90013   0.91328   0.92345   0.93368
 Alpha virt. eigenvalues --    0.93989   0.94660   0.95281   0.95452   0.95778
 Alpha virt. eigenvalues --    0.96680   0.97168   0.97424   0.97725   0.97972
 Alpha virt. eigenvalues --    0.98438   0.98935   0.99242   0.99518   1.00286
 Alpha virt. eigenvalues --    1.01105   1.01173   1.01884   1.01949   1.02587
 Alpha virt. eigenvalues --    1.03267   1.03792   1.04619   1.04960   1.05266
 Alpha virt. eigenvalues --    1.05413   1.05858   1.06343   1.06692   1.07061
 Alpha virt. eigenvalues --    1.07231   1.07568   1.07912   1.08194   1.08411
 Alpha virt. eigenvalues --    1.08883   1.09209   1.09299   1.10015   1.10452
 Alpha virt. eigenvalues --    1.11890   1.12456   1.12894   1.13062   1.14075
 Alpha virt. eigenvalues --    1.14221   1.14629   1.15002   1.15329   1.15866
 Alpha virt. eigenvalues --    1.16024   1.16267   1.16850   1.17113   1.17499
 Alpha virt. eigenvalues --    1.17862   1.18637   1.18708   1.19159   1.19724
 Alpha virt. eigenvalues --    1.21018   1.21601   1.21942   1.22270   1.22946
 Alpha virt. eigenvalues --    1.24189   1.24909   1.25542   1.26479   1.27014
 Alpha virt. eigenvalues --    1.27199   1.27787   1.29774   1.29807   1.30292
 Alpha virt. eigenvalues --    1.31755   1.32014   1.32658   1.33314   1.34083
 Alpha virt. eigenvalues --    1.34697   1.35271   1.35307   1.35748   1.36134
 Alpha virt. eigenvalues --    1.36403   1.37041   1.37769   1.38497   1.39430
 Alpha virt. eigenvalues --    1.40304   1.40646   1.40813   1.42687   1.43251
 Alpha virt. eigenvalues --    1.43755   1.44625   1.44854   1.45401   1.46868
 Alpha virt. eigenvalues --    1.47295   1.48390   1.48742   1.49397   1.49485
 Alpha virt. eigenvalues --    1.50145   1.50556   1.50704   1.51437   1.51970
 Alpha virt. eigenvalues --    1.52229   1.53069   1.53345   1.53915   1.54728
 Alpha virt. eigenvalues --    1.55171   1.56104   1.57915   1.58968   1.59142
 Alpha virt. eigenvalues --    1.60061   1.60543   1.61262   1.61399   1.62581
 Alpha virt. eigenvalues --    1.63609   1.63841   1.64245   1.64506   1.64581
 Alpha virt. eigenvalues --    1.65308   1.66199   1.66628   1.66937   1.67188
 Alpha virt. eigenvalues --    1.68192   1.68683   1.69265   1.69449   1.70033
 Alpha virt. eigenvalues --    1.70197   1.70393   1.71978   1.72478   1.73046
 Alpha virt. eigenvalues --    1.73550   1.73875   1.74200   1.75035   1.75546
 Alpha virt. eigenvalues --    1.75726   1.76212   1.76655   1.77423   1.77444
 Alpha virt. eigenvalues --    1.78033   1.78396   1.78572   1.79125   1.79279
 Alpha virt. eigenvalues --    1.79958   1.80149   1.80438   1.80693   1.81066
 Alpha virt. eigenvalues --    1.81473   1.81761   1.82055   1.82569   1.82717
 Alpha virt. eigenvalues --    1.83244   1.83446   1.83782   1.85059   1.85211
 Alpha virt. eigenvalues --    1.85902   1.86514   1.87257   1.88138   1.88938
 Alpha virt. eigenvalues --    1.89202   1.89596   1.90215   1.90731   1.91786
 Alpha virt. eigenvalues --    1.92260   1.92822   1.93431   1.94608   1.95576
 Alpha virt. eigenvalues --    1.96583   1.98148   1.98695   1.98850   2.00284
 Alpha virt. eigenvalues --    2.00472   2.00959   2.01279   2.02114   2.02901
 Alpha virt. eigenvalues --    2.03458   2.03774   2.04046   2.04834   2.05431
 Alpha virt. eigenvalues --    2.06167   2.06789   2.07795   2.08521   2.10020
 Alpha virt. eigenvalues --    2.10196   2.10974   2.11499   2.11805   2.12692
 Alpha virt. eigenvalues --    2.13619   2.14482   2.16045   2.16265   2.16793
 Alpha virt. eigenvalues --    2.17180   2.17537   2.18159   2.18589   2.19045
 Alpha virt. eigenvalues --    2.20274   2.20522   2.21974   2.22138   2.22871
 Alpha virt. eigenvalues --    2.23264   2.24394   2.24545   2.25060   2.25479
 Alpha virt. eigenvalues --    2.26005   2.26737   2.27053   2.27647   2.29300
 Alpha virt. eigenvalues --    2.29562   2.30058   2.31468   2.32289   2.32546
 Alpha virt. eigenvalues --    2.33853   2.34077   2.35334   2.37015   2.37195
 Alpha virt. eigenvalues --    2.38081   2.38865   2.41342   2.42645   2.43112
 Alpha virt. eigenvalues --    2.43976   2.44492   2.47720   2.47954   2.49445
 Alpha virt. eigenvalues --    2.50658   2.50906   2.51641   2.51744   2.51992
 Alpha virt. eigenvalues --    2.53335   2.54194   2.54812   2.55755   2.56028
 Alpha virt. eigenvalues --    2.56573   2.57367   2.57519   2.58636   2.59261
 Alpha virt. eigenvalues --    2.59872   2.61541   2.63557   2.65138   2.65913
 Alpha virt. eigenvalues --    2.66364   2.68027   2.68950   2.71024   2.71329
 Alpha virt. eigenvalues --    2.72004   2.73006   2.75328   2.76108   2.83240
 Alpha virt. eigenvalues --    2.85631   2.87421   2.89817   2.90479   2.94363
 Alpha virt. eigenvalues --    2.95542   2.96907   2.97377   2.97910   2.99126
 Alpha virt. eigenvalues --    2.99940   3.01049   3.01302   3.03543   3.03916
 Alpha virt. eigenvalues --    3.07123   3.08059   3.10449   3.10998   3.12501
 Alpha virt. eigenvalues --    3.13149   3.14824   3.17774   3.17844   3.18438
 Alpha virt. eigenvalues --    3.20057   3.37819   3.43642   3.45407   3.47078
 Alpha virt. eigenvalues --    3.50076   3.52550   3.55939   3.57434   3.58058
  Beta  occ. eigenvalues --  -88.32250 -88.31876 -88.30338 -19.00510 -19.00246
[...]
    42   Atom       -0.000000      0.000000     -0.000000
    43   Atom        0.000000     -0.000000      0.000000
    44   Atom        0.000000      0.000000      0.000000
    45   Atom        0.000000      0.000000      0.000000
    46   Atom       -0.000000      0.000000      0.000000
    47   Atom        0.000000     -0.000000     -0.000000
    48   Atom       -0.000000     -0.000000     -0.000000
    49   Atom       -0.000000      0.000000      0.000000
    50   Atom       -0.000000      0.000000     -0.000000
    51   Atom       -0.000000      0.000000     -0.000000
    52   Atom       -0.000000      0.000000     -0.000000
    53   Atom        0.000000     -0.000000     -0.000000
    54   Atom       -0.000000     -0.000000      0.000000
    55   Atom        0.000000     -0.000000     -0.000000
    56   Atom       -0.000000     -0.000000     -0.000000
    57   Atom        0.000000     -0.000000     -0.000000
    58   Atom        0.000000      0.000000     -0.000000
    59   Atom       -0.000000      0.000000      0.000000
 --------------------------------------------------------


 ---------------------------------------------------------------------------------
              Anisotropic Spin Dipole Couplings in Principal Axis System
 ---------------------------------------------------------------------------------

       Atom             a.u.   MegaHertz   Gauss  10(-4) cm-1        Axes

              Baa    -0.0000    -0.000    -0.000    -0.000  0.8861 -0.2899  0.3617
     1 C(13)  Bbb     0.0000     0.000     0.000     0.000  0.4241  0.8221 -0.3798
              Bcc     0.0000     0.000     0.000     0.000 -0.1873  0.4899  0.8514
 
              Baa    -0.0000    -0.000    -0.000    -0.000 -0.5024  0.3709  0.7811
     2 C(13)  Bbb    -0.0000    -0.000    -0.000    -0.000  0.7871  0.5701  0.2355
              Bcc     0.0000     0.000     0.000     0.000 -0.3580  0.7331 -0.5783
 
              Baa    -0.0000    -0.000    -0.000    -0.000  0.6893  0.6954 -0.2033
     3 N(14)  Bbb    -0.0000    -0.000    -0.000    -0.000  0.7245 -0.6600  0.1988
              Bcc     0.0000     0.000     0.000     0.000 -0.0041  0.2843  0.9587
 
              Baa    -0.0000    -0.000    -0.000    -0.000  0.8623 -0.3028  0.4059
     4 C(13)  Bbb    -0.0000    -0.000    -0.000    -0.000 -0.1519  0.6101  0.7777
              Bcc     0.0000     0.000     0.000     0.000  0.4831  0.7322 -0.4801
 
              Baa    -0.0000    -0.000    -0.000    -0.000 -0.5317  0.7724 -0.3475
     5 N(14)  Bbb    -0.0000    -0.000    -0.000    -0.000  0.8373  0.5411 -0.0784
              Bcc     0.0000     0.000     0.000     0.000 -0.1275  0.3326  0.9344
 
              Baa    -0.0000    -0.000    -0.000    -0.000  0.5377  0.6038 -0.5885
     6 C(13)  Bbb    -0.0000    -0.000    -0.000    -0.000  0.2766  0.5330  0.7996
              Bcc     0.0000     0.000     0.000     0.000  0.7965 -0.5927  0.1196
 
              Baa    -0.0000    -0.000    -0.000    -0.000 -0.5882  0.7234 -0.3615
     7 C(13)  Bbb    -0.0000    -0.000    -0.000    -0.000  0.7757  0.6312  0.0011
              Bcc     0.0000     0.000     0.000     0.000 -0.2290  0.2798  0.9324
 
              Baa    -0.0000    -0.000    -0.000    -0.000  0.3679 -0.2654  0.8912
     8 C(13)  Bbb     0.0000     0.000     0.000     0.000  0.8971 -0.1510 -0.4153
              Bcc     0.0000     0.000     0.000     0.000  0.2448  0.9522  0.1826
 
              Baa    -0.0000     0.000     0.000     0.000  0.0340  0.9948 -0.0959
     9 O(17)  Bbb     0.0000    -0.000    -0.000    -0.000 -0.1265  0.0995  0.9870
              Bcc     0.0000    -0.000    -0.000    -0.000  0.9914 -0.0215  0.1292
 
              Baa    -0.0000    -0.000    -0.000    -0.000 -0.3146  0.7645 -0.5627
    10 C(13)  Bbb    -0.0000    -0.000    -0.000    -0.000  0.9272  0.1204 -0.3548
              Bcc     0.0000     0.000     0.000     0.000  0.2035  0.6333  0.7467
 
              Baa    -0.0000    -0.000    -0.000    -0.000 -0.4704 -0.4248  0.7735
    11 C(13)  Bbb     0.0000     0.000     0.000     0.000  0.6738  0.3931  0.6257
              Bcc     0.0000     0.000     0.000     0.000 -0.5699  0.8155  0.1013
 
              Baa    -0.0000    -0.000    -0.000    -0.000  0.4749 -0.4683  0.7451
    12 C(13)  Bbb    -0.0000    -0.000    -0.000    -0.000  0.6767 -0.3469 -0.6494
              Bcc     0.0000     0.000     0.000     0.000  0.5626  0.8126  0.1522
 
              Baa    -0.0000    -0.000    -0.000    -0.000  0.6149 -0.0527  0.7868
    13 S(33)  Bbb    -0.0000    -0.000    -0.000    -0.000  0.4863  0.8108 -0.3258
              Bcc     0.0000     0.000     0.000     0.000  0.6208 -0.5830 -0.5242
 
              Baa    -0.0000    -0.000    -0.000    -0.000 -0.1977  0.9619  0.1889
    14 C(13)  Bbb    -0.0000    -0.000    -0.000    -0.000 -0.0566 -0.2036  0.9774
              Bcc     0.0000     0.000     0.000     0.000  0.9786  0.1825  0.0947
 
              Baa    -0.0000    -0.000    -0.000    -0.000 -0.1853 -0.3421  0.9212
    15 C(13)  Bbb    -0.0000    -0.000    -0.000    -0.000  0.6400  0.6694  0.3773
              Bcc     0.0000     0.000     0.000     0.000  0.7457 -0.6595 -0.0949
 
              Baa    -0.0000    -0.000    -0.000    -0.000 -0.4848  0.8740 -0.0333
    16 N(14)  Bbb     0.0000     0.000     0.000     0.000  0.0032  0.0398  0.9992
              Bcc     0.0000     0.000     0.000     0.000  0.8746  0.4844 -0.0221
 
              Baa    -0.0000    -0.000    -0.000    -0.000 -0.5225  0.8525  0.0128
    17 C(13)  Bbb     0.0000     0.000     0.000     0.000  0.8525  0.5226 -0.0113
              Bcc     0.0000     0.000     0.000     0.000  0.0164 -0.0050  0.9999
 
              Baa    -0.0000    -0.000    -0.000    -0.000 -0.2664  0.9583  0.1032
    18 N(14)  Bbb     0.0000     0.000     0.000     0.000  0.9571  0.2757 -0.0893
              Bcc     0.0000     0.000     0.000     0.000  0.1140 -0.0750  0.9906
 
              Baa    -0.0000    -0.000    -0.000    -0.000 -0.2803  0.9594 -0.0311
    19 C(13)  Bbb     0.0000     0.000     0.000     0.000  0.0312  0.0415  0.9987
              Bcc     0.0000     0.000     0.000     0.000  0.9594  0.2789 -0.0416
 
              Baa    -0.0000    -0.000    -0.000    -0.000  0.8048  0.5898 -0.0666
    20 C(13)  Bbb     0.0000     0.000     0.000     0.000 -0.0735  0.2104  0.9748
              Bcc     0.0000     0.000     0.000     0.000 -0.5890  0.7796 -0.2127
 
              Baa    -0.0000    -0.000    -0.000    -0.000  0.7596 -0.6502 -0.0170
    21 C(13)  Bbb     0.0000     0.000     0.000     0.000 -0.2589 -0.3263  0.9091
              Bcc     0.0000     0.000     0.000     0.000  0.5966  0.6861  0.4162
 
              Baa    -0.0000     0.000     0.000     0.000 -0.0801 -0.6586  0.7482
    22 O(17)  Bbb    -0.0000     0.000     0.000     0.000  0.0238  0.7491  0.6620
              Bcc     0.0000    -0.000    -0.000    -0.000  0.9965 -0.0708  0.0443
 
              Baa    -0.0000    -0.000    -0.000    -0.000 -0.2569 -0.1724  0.9509
    23 C(13)  Bbb    -0.0000    -0.000    -0.000    -0.000  0.6722  0.6751  0.3041
              Bcc     0.0000     0.000     0.000     0.000 -0.6944  0.7173 -0.0575
 
              Baa    -0.0000    -0.000    -0.000    -0.000  0.4098  0.9060  0.1060
    24 C(13)  Bbb    -0.0000    -0.000    -0.000    -0.000  0.9093 -0.4150  0.0320
              Bcc     0.0000     0.000     0.000     0.000 -0.0730 -0.0832  0.9939
 
              Baa    -0.0000    -0.000    -0.000    -0.000  0.8937 -0.4486 -0.0007
    25 C(13)  Bbb     0.0000     0.000     0.000     0.000  0.4469  0.8903  0.0868
              Bcc     0.0000     0.000     0.000     0.000 -0.0384 -0.0779  0.9962
 
              Baa    -0.0000    -0.000    -0.000    -0.000  0.9944  0.1054 -0.0035
    26 S(33)  Bbb     0.0000     0.000     0.000     0.000  0.0063 -0.0263  0.9996
              Bcc     0.0000     0.000     0.000     0.000 -0.1053  0.9941  0.0268
 
              Baa    -0.0000    -0.000    -0.000    -0.000 -0.1637 -0.5157  0.8410
    27 C(13)  Bbb    -0.0000    -0.000    -0.000    -0.000  0.0384  0.8485  0.5278
              Bcc     0.0000     0.000     0.000     0.000  0.9858 -0.1186  0.1191
 
              Baa    -0.0000    -0.000    -0.000    -0.000  0.9890  0.0056  0.1477
    28 C(13)  Bbb     0.0000     0.000     0.000     0.000 -0.0938  0.7962  0.5978
              Bcc     0.0000     0.000     0.000     0.000 -0.1142 -0.6051  0.7879
 
              Baa    -0.0000    -0.000    -0.000    -0.000  0.8826 -0.4558  0.1153
    29 N(14)  Bbb    -0.0000    -0.000    -0.000    -0.000  0.4514  0.7530 -0.4788
              Bcc     0.0000     0.000     0.000     0.000  0.1314  0.4746  0.8703
 
              Baa    -0.0000    -0.000    -0.000    -0.000  0.7345 -0.6021 -0.3131
    30 C(13)  Bbb    -0.0000    -0.000    -0.000    -0.000 -0.1896 -0.6250  0.7572
              Bcc     0.0000     0.000     0.000     0.000  0.6516  0.4968  0.5732
 
              Baa    -0.0000    -0.000    -0.000    -0.000 -0.0860  0.9417  0.3251
    31 N(14)  Bbb    -0.0000    -0.000    -0.000    -0.000  0.9939  0.1039 -0.0381
              Bcc     0.0000     0.000     0.000     0.000  0.0696 -0.3199  0.9449
 
              Baa    -0.0000    -0.000    -0.000    -0.000 -0.2722 -0.6775  0.6833
    32 C(13)  Bbb    -0.0000    -0.000    -0.000    -0.000  0.9467 -0.3156  0.0643
              Bcc     0.0000     0.000     0.000     0.000  0.1721  0.6644  0.7273
 
              Baa    -0.0000    -0.000    -0.000    -0.000 -0.0556  0.8158 -0.5757
    33 C(13)  Bbb     0.0000     0.000     0.000     0.000 -0.1978  0.5562  0.8072
              Bcc     0.0000     0.000     0.000     0.000  0.9787  0.1587  0.1304
 
              Baa    -0.0000    -0.000    -0.000    -0.000 -0.5561  0.7981  0.2317
    34 C(13)  Bbb     0.0000     0.000     0.000     0.000 -0.0559 -0.3141  0.9478
              Bcc     0.0000     0.000     0.000     0.000  0.8292  0.5141  0.2193
 
              Baa    -0.0000     0.000     0.000     0.000  0.3829  0.5006  0.7764
    35 O(17)  Bbb     0.0000    -0.000    -0.000    -0.000  0.7726  0.2872 -0.5662
              Bcc     0.0000    -0.000    -0.000    -0.000 -0.5064  0.8167 -0.2768
 
              Baa    -0.0000    -0.000    -0.000    -0.000  0.0099  0.9703  0.2416
    36 C(13)  Bbb    -0.0000    -0.000    -0.000    -0.000  0.9050 -0.1114  0.4106
              Bcc     0.0000     0.000     0.000     0.000 -0.4253 -0.2146  0.8792
 
              Baa    -0.0000    -0.000    -0.000    -0.000  0.2226  0.9680  0.1161
    37 C(13)  Bbb     0.0000     0.000     0.000     0.000 -0.6987  0.0753  0.7115
              Bcc     0.0000     0.000     0.000     0.000  0.6799 -0.2395  0.6931
 
              Baa    -0.0000    -0.000    -0.000    -0.000  0.1915 -0.6523  0.7333
    38 C(13)  Bbb    -0.0000    -0.000    -0.000    -0.000 -0.1308  0.7235  0.6778
              Bcc     0.0000     0.000     0.000     0.000  0.9727  0.2258 -0.0532
 
              Baa    -0.0000    -0.000    -0.000    -0.000 -0.3266  0.8890 -0.3210
    39 S(33)  Bbb    -0.0000    -0.000    -0.000    -0.000  0.0130  0.3438  0.9389
              Bcc     0.0000     0.000     0.000     0.000  0.9451  0.3025 -0.1238
 
              Baa    -0.0000    -0.000    -0.000    -0.000  0.3024  0.9095 -0.2853
    40 H(1)   Bbb     0.0000     0.000     0.000     0.000  0.8889 -0.1609  0.4289
              Bcc     0.0000     0.000     0.000     0.000 -0.3442  0.3833  0.8571
 
              Baa    -0.0000    -0.000    -0.000    -0.000  0.9955 -0.0016  0.0949
    41 H(1)   Bbb    -0.0000    -0.000    -0.000    -0.000 -0.0820  0.4886  0.8687
              Bcc     0.0000     0.000     0.000     0.000  0.0478  0.8725 -0.4862
 
              Baa    -0.0000    -0.000    -0.000    -0.000 -0.5242  0.2306  0.8198
    42 H(1)   Bbb    -0.0000    -0.000    -0.000    -0.000  0.5293  0.8424  0.1015
              Bcc     0.0000     0.000     0.000     0.000  0.6671 -0.4871  0.5636
 
              Baa    -0.0000    -0.000    -0.000    -0.000  0.4681 -0.2325  0.8525
    43 H(1)   Bbb     0.0000     0.000     0.000     0.000  0.8669 -0.0663 -0.4941
              Bcc     0.0000     0.000     0.000     0.000  0.1714  0.9703  0.1705
 
              Baa    -0.0000    -0.000    -0.000    -0.000  0.8949 -0.4412  0.0671
    44 H(1)   Bbb     0.0000     0.000     0.000     0.000  0.3748  0.6613 -0.6497
              Bcc     0.0000     0.000     0.000     0.000  0.2423  0.6066  0.7572
 
              Baa    -0.0000    -0.000    -0.000    -0.000  0.8646 -0.2316 -0.4459
    45 H(1)   Bbb    -0.0000    -0.000    -0.000    -0.000  0.0916  0.9452 -0.3133
              Bcc     0.0000     0.000     0.000     0.000  0.4940  0.2300  0.8385
 
              Baa    -0.0000    -0.000    -0.000    -0.000  0.2877  0.8778 -0.3831
    46 H(1)   Bbb     0.0000     0.000     0.000     0.000  0.5855  0.1553  0.7957
              Bcc     0.0000     0.000     0.000     0.000  0.7579 -0.4532 -0.4692
 
              Baa    -0.0000    -0.000    -0.000    -0.000 -0.4459  0.8933  0.0567
    47 H(1)   Bbb    -0.0000    -0.000    -0.000    -0.000  0.8900  0.4358  0.1339
              Bcc     0.0000     0.000     0.000     0.000 -0.0949 -0.1101  0.9894
 
              Baa    -0.0000    -0.000    -0.000    -0.000  0.4002  0.9085  0.1199
    48 H(1)   Bbb     0.0000     0.000     0.000     0.000  0.8918 -0.4162  0.1773
              Bcc     0.0000     0.000     0.000     0.000 -0.2110 -0.0359  0.9768
 
              Baa    -0.0000    -0.000    -0.000    -0.000  0.5705  0.6623 -0.4858
    49 H(1)   Bbb     0.0000     0.000     0.000     0.000 -0.0119  0.5981  0.8014
              Bcc     0.0000     0.000     0.000     0.000  0.8212 -0.4514  0.3491
 
              Baa    -0.0000    -0.000    -0.000    -0.000  0.7859  0.5963 -0.1640
    50 H(1)   Bbb    -0.0000    -0.000    -0.000    -0.000 -0.1124  0.3985  0.9103
              Bcc     0.0000     0.000     0.000     0.000 -0.6081  0.6969 -0.3802
 
              Baa    -0.0000    -0.000    -0.000    -0.000 -0.2561  0.1198  0.9592
    51 H(1)   Bbb    -0.0000    -0.000    -0.000    -0.000  0.6957  0.7118  0.0969
              Bcc     0.0000     0.000     0.000     0.000 -0.6711  0.6921 -0.2657
 
              Baa    -0.0000    -0.000    -0.000    -0.000  0.6711  0.7413 -0.0095
    52 H(1)   Bbb     0.0000     0.000     0.000     0.000  0.7381 -0.6693 -0.0847
              Bcc     0.0000     0.000     0.000     0.000  0.0691 -0.0498  0.9964
 
              Baa    -0.0000    -0.000    -0.000    -0.000  0.0489  0.6806  0.7310
    53 H(1)   Bbb     0.0000     0.000     0.000     0.000 -0.1244  0.7304 -0.6716
              Bcc     0.0000     0.000     0.000     0.000  0.9910  0.0582 -0.1204
 
              Baa    -0.0000    -0.000    -0.000    -0.000  0.5908 -0.3026  0.7480
    54 H(1)   Bbb    -0.0000    -0.000    -0.000    -0.000  0.7698  0.4890 -0.4102
              Bcc     0.0000     0.000     0.000     0.000 -0.2416  0.8181  0.5218
 
              Baa    -0.0000    -0.000    -0.000    -0.000 -0.5632  0.8232  0.0713
    55 H(1)   Bbb    -0.0000    -0.000    -0.000    -0.000  0.7125  0.4402  0.5464
              Bcc     0.0000     0.000     0.000     0.000 -0.4184 -0.3585  0.8345
 
              Baa    -0.0000    -0.000    -0.000    -0.000  0.8012  0.0333  0.5975
    56 H(1)   Bbb     0.0000     0.000     0.000     0.000 -0.5826  0.2716  0.7660
              Bcc     0.0000     0.000     0.000     0.000  0.1367  0.9618 -0.2370
 
              Baa    -0.0000    -0.000    -0.000    -0.000  0.3944  0.4354  0.8093
    57 H(1)   Bbb     0.0000     0.000     0.000     0.000 -0.4943  0.8429 -0.2126
              Bcc     0.0000     0.000     0.000     0.000  0.7747  0.3162 -0.5477
 
              Baa    -0.0000    -0.000    -0.000    -0.000  0.6702 -0.5354 -0.5140
    58 H(1)   Bbb     0.0000     0.000     0.000     0.000  0.0809 -0.6357  0.7677
              Bcc     0.0000     0.000     0.000     0.000  0.7378  0.5560  0.3828
 
              Baa    -0.0000    -0.000    -0.000    -0.000  0.2872  0.7950 -0.5343
    59 H(1)   Bbb    -0.0000    -0.000    -0.000    -0.000 -0.2958  0.6042  0.7399
              Bcc     0.0000     0.000     0.000     0.000  0.9111 -0.0544  0.4087
 

 ---------------------------------------------------------------------------------

 No NMR shielding tensors so no spin-rotation constants.
 Leave Link  601 at Sat Jul 25 18:00:05 2020, MaxMem=  4026531840 cpu:              27.8 elap:               4.2
 (Enter /opt/ohpc/pub/libs/gaussian/g16-A.03/sandybridge/g16/l9999.exe)

 Test job not archived.
 1\1\GINC-SKYLAKE050\FOpt\ULC-wPBE\CC-pVDZ\C27H20N6O3S3\RDU230\25-Jul-2
 020\0\\#P uLC-wPBE/cc-pVDZ iop(3/107=0391900000, 3/108=0391900000) opt
 \\H20 C27 S3 N6 O3\\0,1\C,-10.2868306724,-3.287210513,1.0197073444\C,-
 8.9598116372,-3.5179651202,1.3529227946\N,-7.9924067581,-2.6628002484,
 1.0555989502\C,-8.3538775969,-1.5453153293,0.4092690764\N,-9.595839866
 7,-1.22300071,0.0420786494\C,-10.5438472408,-2.0992442224,0.3525994534
 \C,-7.2618412808,-0.6243255589,0.0990501342\C,-7.268942206,0.594586776
 9,-0.5486774591\O,-8.3983651987,1.137901434,-1.0301356047\C,-8.2888974
 849,2.385354887,-1.6766947227\C,-5.9675901045,1.170639503,-0.643109386
 4\C,-5.0039964389,0.3859773132,-0.068495522\S,-5.6632968624,-1.0503285
 692,0.5976544078\C,-3.5675187634,0.6735572448,0.0120745313\C,-3.075056
 5898,1.9716026468,0.1397791491\N,-1.7849418335,2.2637148678,0.19524836
 71\C,-0.9391930723,1.2322078111,0.1361086546\N,-1.2941684367,-0.055955
 4889,0.0280240406\C,-2.5878116337,-0.3188578503,-0.0361698763\C,0.4968
 474068,1.4847104872,0.194335781\C,1.1977510983,2.6697494999,0.30183207
 27\O,0.5778050251,3.8585881088,0.3642002581\C,1.3907670231,5.004584334
 6,0.4773468605\C,2.609176578,2.4692675563,0.325539284\C,2.9525204975,1
 .1465525,0.2376546735\S,1.5727214011,0.1335012703,0.1346132797\C,4.309
 0705183,0.5878154681,0.2327043866\C,4.6606466585,-0.5561530538,-0.4826
 394628\N,5.8841877434,-1.0620319819,-0.4976370391\C,6.8073373688,-0.41
 14744378,0.2142459404\N,6.5873540931,0.6944666174,0.9406033786\C,5.355
 4138748,1.171633094,0.9473481212\C,8.1777904194,-0.9135835884,0.231023
 0812\C,8.7375281615,-2.0091631112,-0.3968053111\O,8.0148796098,-2.8277
 399439,-1.1781849441\C,8.6882997652,-3.9172140911,-1.7658083122\C,10.1
 316660909,-2.1466139828,-0.1137567593\C,10.5807246396,-1.1602480078,0.
 7120920615\S,9.3606787934,-0.0620844826,1.161715749\H,-11.0770819001,-
 3.9952973014,1.2670456348\H,-8.6570256919,-4.4280792879,1.8812885584\H
 ,-11.5621649623,-1.8325920402,0.0498288013\H,-7.8992630982,3.162186832
 6,-0.9987185345\H,-9.3042840899,2.6584203281,-1.9850873132\H,-7.646994
 9525,2.3255136139,-2.5707043384\H,-5.744054255,2.11089572,-1.142733039
 1\H,-3.7657141217,2.8185735861,0.2145399712\H,-2.8673982152,-1.3730003
 517,-0.1413228323\H,2.0002914664,4.981411131,1.3953124353\H,2.05126751
 42,5.1226142712,-0.3970405974\H,0.7068392813,5.8593224817,0.5252058728
 \H,3.3449809894,3.2692436183,0.3729166166\H,3.9113564531,-1.0845721385
 ,-1.0831003739\H,5.1801402824,2.059789115,1.5638231315\H,9.4968104892,
 -3.5823339188,-2.4359816081\H,9.1037288275,-4.5972785174,-1.0043446929
 \H,7.9381312081,-4.4571139349,-2.3544929995\H,10.7694974203,-2.9372179
 994,-0.5026860119\H,11.5968652661,-1.0331703369,1.080889238\\Version=E
 M64L-G16RevA.03\State=1-A\HF=-2788.2198249\S2=0.\S2-1=0.\S2A=0.\RMSD=6
 .022e-09\RMSF=4.363e-06\Dipole=-0.1998185,0.3998072,-0.5605612\Quadrup
 ole=22.5991243,2.6260479,-25.2251721,-7.1868629,-2.7641098,-0.2305846\
 PG=C01 [X(C27H20N6O3S3)]\\@


 QUHEN THE CAUSS IS TAKEN AWAY THE EFFECT WANISHETH.
 -- PROVERBS AND REASONS OF THE YEAR 1585
           AS REPRINTED IN PAISLEY MAGAZINE 1828.
 Job cpu time:       1 days  8 hours  3 minutes 41.0 seconds.
 Elapsed time:       0 days  4 hours  1 minutes 44.3 seconds.
 File lengths (MBytes):  RWF=    532 Int=      0 D2E=      0 Chk=     48 Scr=      8
 Normal termination of Gaussian 16 at Sat Jul 25 18:00:05 2020.
