 Entering Gaussian System, Link 0=g16
 Input=mols_66_1_07_c-n-c-cOC_opt_0.gjf
 Output=mols_66_1_07_c-n-c-cOC_opt_0.log
 Initial command:
 /opt/ohpc/pub/libs/gaussian/g16-A.03/sandybridge/g16/l1.exe "/mnt/gpfs2_4m/scratch/rdu230/ondemand/projects/dihedral_energies/7trial/wtuning/mols_66_1_07_c-n-c-cOC/Gau-281710.inp" -scrdir="/mnt/gpfs2_4m/scratch/rdu230/ondemand/projects/dihedral_energies/7trial/wtuning/mols_66_1_07_c-n-c-cOC/"
 Entering Link 1 = /opt/ohpc/pub/libs/gaussian/g16-A.03/sandybridge/g16/l1.exe PID=    281711.
  
 Copyright (c) 1988,1990,1992,1993,1995,1998,2003,2009,2016,
            Gaussian, Inc.  All Rights Reserved.
  
 This is part of the Gaussian(R) 16 program.  It is based on
 the Gaussian(R) 09 system (copyright 2009, Gaussian, Inc.),
 the Gaussian(R) 03 system (copyright 2003, Gaussian, Inc.),
 the Gaussian(R) 98 system (copyright 1998, Gaussian, Inc.),
 the Gaussian(R) 94 system (copyright 1995, Gaussian, Inc.),
 the Gaussian 92(TM) system (copyright 1992, Gaussian, Inc.),
 the Gaussian 90(TM) system (copyright 1990, Gaussian, Inc.),
 the Gaussian 88(TM) system (copyright 1988, Gaussian, Inc.),
 the Gaussian 86(TM) system (copyright 1986, Carnegie Mellon
 University), and the Gaussian 82(TM) system (copyright 1983,
 Carnegie Mellon University). Gaussian is a federally registered
 trademark of Gaussian, Inc.
  
 This software contains proprietary and confidential information,
 including trade secrets, belonging to Gaussian, Inc.
  
 This software is provided under written license and may be
 used, copied, transmitted, or stored only in accord with that
 written license.
  
 The following legend is applicable only to US Government
 contracts under FAR:
  
                    RESTRICTED RIGHTS LEGEND
  
 Use, reproduction and disclosure by the US Government is
 subject to restrictions as set forth in subparagraphs (a)
 and (c) of the Commercial Computer Software - Restricted
 Rights clause in FAR 52.227-19.
  
 Gaussian, Inc.
 340 Quinnipiac St., Bldg. 40, Wallingford CT 06492
  
  
 ---------------------------------------------------------------
 Warning -- This program may not be used in any manner that
 competes with the business of Gaussian, Inc. or will provide
 assistance to any competitor of Gaussian, Inc.  The licensee
 of this program is prohibited from giving any competitor of
 Gaussian, Inc. access to this program.  By using this program,
 the user acknowledges that Gaussian, Inc. is engaged in the
 business of creating and licensing software in the field of
 computational chemistry and represents and warrants to the
 licensee that it is not a competitor of Gaussian, Inc. and that
 it will not use this program in any manner prohibited above.
 ---------------------------------------------------------------
  

 Cite this work as:
 Gaussian 16, Revision A.03,
 M. J. Frisch, G. W. Trucks, H. B. Schlegel, G. E. Scuseria, 
 M. A. Robb, J. R. Cheeseman, G. Scalmani, V. Barone, 
 G. A. Petersson, H. Nakatsuji, X. Li, M. Caricato, A. V. Marenich, 
 J. Bloino, B. G. Janesko, R. Gomperts, B. Mennucci, H. P. Hratchian, 
 J. V. Ortiz, A. F. Izmaylov, J. L. Sonnenberg, D. Williams-Young, 
 F. Ding, F. Lipparini, F. Egidi, J. Goings, B. Peng, A. Petrone, 
 T. Henderson, D. Ranasinghe, V. G. Zakrzewski, J. Gao, N. Rega, 
 G. Zheng, W. Liang, M. Hada, M. Ehara, K. Toyota, R. Fukuda, 
 J. Hasegawa, M. Ishida, T. Nakajima, Y. Honda, O. Kitao, H. Nakai, 
 T. Vreven, K. Throssell, J. A. Montgomery, Jr., J. E. Peralta, 
 F. Ogliaro, M. J. Bearpark, J. J. Heyd, E. N. Brothers, K. N. Kudin, 
 V. N. Staroverov, T. A. Keith, R. Kobayashi, J. Normand, 
 K. Raghavachari, A. P. Rendell, J. C. Burant, S. S. Iyengar, 
 J. Tomasi, M. Cossi, J. M. Millam, M. Klene, C. Adamo, R. Cammi, 
 J. W. Ochterski, R. L. Martin, K. Morokuma, O. Farkas, 
 J. B. Foresman, and D. J. Fox, Gaussian, Inc., Wallingford CT, 2016.
 
 ******************************************
 Gaussian 16:  EM64L-G16RevA.03 25-Dec-2016
                24-Jul-2020 
 ******************************************
 %mem=30GB
 %nproc=8
 Will use up to    8 processors via shared memory.
 ---------------------------------------------------------------
 #P uLC-wPBE/cc-pVDZ iop(3/107=0083000000, 3/108=0083000000) opt
 ---------------------------------------------------------------
 1/18=20,19=15,26=3,38=1/1,3;
 2/9=110,12=2,17=6,18=5,40=1/2;
 3/5=16,11=2,25=1,30=1,71=1,74=-41,107=83000000,108=83000000,116=2/1,2,3;
 4//1;
 5/5=2,38=5/2;
 6/7=2,8=2,9=2,10=2,28=1/1;
 7//1,2,3,16;
 1/18=20,19=15,26=3/3(2);
 2/9=110/2;
 99//99;
 2/9=110/2;
 3/5=16,11=2,25=1,30=1,71=1,74=-41,107=83000000,108=83000000,116=2/1,2,3;
 4/5=5,16=3,69=1/1;
 5/5=2,38=5/2;
 7//1,2,3,16;
 1/18=20,19=15,26=3/3(-5);
 2/9=110/2;
 6/7=2,8=2,9=2,10=2,19=2,28=1/1;
 99/9=1/99;
 Leave Link    1 at Fri Jul 24 12:11:57 2020, MaxMem=  4026531840 cpu:               2.9 elap:               0.4
 (Enter /opt/ohpc/pub/libs/gaussian/g16-A.03/sandybridge/g16/l101.exe)
 -------------
 H11 C12 N1 O1
 -------------
 Symbolic Z-matrix:
 Charge =  0 Multiplicity = 1
 C                     3.70753  -0.19793  -0.05254 
 C                     2.98279   0.58625  -0.87212 
 C                     1.56857   0.56338  -0.98751 
 C                     0.95181  -0.33328  -0.06715 
 N                     1.61419  -1.0717    0.76902 
 C                     2.9038   -1.01258   0.82794 
 C                    -0.49005  -0.46502  -0.11549 
 C                    -1.09811  -1.75354  -0.08081 
 C                    -2.4936   -1.90612  -0.02528 
 C                    -3.33252  -0.82524  -0.13416 
 C                    -2.84992   0.48487  -0.23428 
 C                    -1.44927   0.62917  -0.22448 
 O                    -1.00738   1.935    -0.21773 
 C                    -0.88548   2.43295   1.10895 
 H                     4.75783  -0.16393   0.0098 
 H                     3.50466   1.24808  -1.55998 
 H                     1.02675   1.17913  -1.69786 
 H                     3.46337  -1.68254   1.55899 
 H                    -0.48943  -2.66355   0.04005 
 H                    -2.86792  -2.92007  -0.01325 
 H                    -4.42881  -1.00193  -0.25486 
 H                    -3.47586   1.33241  -0.37404 
 H                    -0.39      3.46772   1.02186 
 H                    -0.2082    1.87089   1.69626 
 H                    -1.81808   2.53118   1.62046 
 
 ITRead=  0  0  0  0  0  0  0  0  0  0  0  0  0  0  0  0  0  0  0  0
 ITRead=  0  0  0  0  0
 MicOpt= -1 -1 -1 -1 -1 -1 -1 -1 -1 -1 -1 -1 -1 -1 -1 -1 -1 -1 -1 -1
 MicOpt= -1 -1 -1 -1 -1
 NAtoms=     25 NQM=       25 NQMF=       0 NMMI=      0 NMMIF=      0
                NMic=       0 NMicF=      0.
                    Isotopes and Nuclear Properties:
 (Nuclear quadrupole moments (NQMom) in fm**2, nuclear magnetic moments (NMagM)
  in nuclear magnetons)

  Atom         1           2           3           4           5           6           7           8           9          10
 IAtWgt=          12          12          12          12          14          12          12          12          12          12
 AtmWgt=  12.0000000  12.0000000  12.0000000  12.0000000  14.0030740  12.0000000  12.0000000  12.0000000  12.0000000  12.0000000
 NucSpn=           0           0           0           0           2           0           0           0           0           0
 AtZEff=  -0.0000000  -0.0000000  -0.0000000  -0.0000000  -0.0000000  -0.0000000  -0.0000000  -0.0000000  -0.0000000  -0.0000000
 NQMom=    0.0000000   0.0000000   0.0000000   0.0000000   2.0440000   0.0000000   0.0000000   0.0000000   0.0000000   0.0000000
 NMagM=    0.0000000   0.0000000   0.0000000   0.0000000   0.4037610   0.0000000   0.0000000   0.0000000   0.0000000   0.0000000
 AtZNuc=   6.0000000   6.0000000   6.0000000   6.0000000   7.0000000   6.0000000   6.0000000   6.0000000   6.0000000   6.0000000

  Atom        11          12          13          14          15          16          17          18          19          20
 IAtWgt=          12          12          16          12           1           1           1           1           1           1
 AtmWgt=  12.0000000  12.0000000  15.9949146  12.0000000   1.0078250   1.0078250   1.0078250   1.0078250   1.0078250   1.0078250
 NucSpn=           0           0           0           0           1           1           1           1           1           1
 AtZEff=  -0.0000000  -0.0000000  -0.0000000  -0.0000000  -0.0000000  -0.0000000  -0.0000000  -0.0000000  -0.0000000  -0.0000000
 NQMom=    0.0000000   0.0000000   0.0000000   0.0000000   0.0000000   0.0000000   0.0000000   0.0000000   0.0000000   0.0000000
 NMagM=    0.0000000   0.0000000   0.0000000   0.0000000   2.7928460   2.7928460   2.7928460   2.7928460   2.7928460   2.7928460
 AtZNuc=   6.0000000   6.0000000   8.0000000   6.0000000   1.0000000   1.0000000   1.0000000   1.0000000   1.0000000   1.0000000

  Atom        21          22          23          24          25
 IAtWgt=           1           1           1           1           1
 AtmWgt=   1.0078250   1.0078250   1.0078250   1.0078250   1.0078250
 NucSpn=           1           1           1           1           1
 AtZEff=  -0.0000000  -0.0000000  -0.0000000  -0.0000000  -0.0000000
 NQMom=    0.0000000   0.0000000   0.0000000   0.0000000   0.0000000
 NMagM=    2.7928460   2.7928460   2.7928460   2.7928460   2.7928460
 AtZNuc=   1.0000000   1.0000000   1.0000000   1.0000000   1.0000000
 Leave Link  101 at Fri Jul 24 12:11:58 2020, MaxMem=  4026531840 cpu:               3.2 elap:               0.4
 (Enter /opt/ohpc/pub/libs/gaussian/g16-A.03/sandybridge/g16/l103.exe)

 GradGradGradGradGradGradGradGradGradGradGradGradGradGradGradGradGradGrad
 Berny optimization.
 Initialization pass.
                           ----------------------------
                           !    Initial Parameters    !
                           ! (Angstroms and Degrees)  !
 --------------------------                            --------------------------
 ! Name  Definition              Value          Derivative Info.                !
 --------------------------------------------------------------------------------
 ! R1    R(1,2)                  1.3461         estimate D2E/DX2                !
 ! R2    R(1,6)                  1.4439         estimate D2E/DX2                !
 ! R3    R(1,15)                 1.0527         estimate D2E/DX2                !
 ! R4    R(2,3)                  1.4191         estimate D2E/DX2                !
 ! R5    R(2,16)                 1.0879         estimate D2E/DX2                !
 ! R6    R(3,4)                  1.4253         estimate D2E/DX2                !
 ! R7    R(3,17)                 1.085          estimate D2E/DX2                !
 ! R8    R(4,5)                  1.2974         estimate D2E/DX2                !
 ! R9    R(4,7)                  1.4487         estimate D2E/DX2                !
 ! R10   R(5,6)                  1.2923         estimate D2E/DX2                !
 ! R11   R(6,18)                 1.1386         estimate D2E/DX2                !
 ! R12   R(7,8)                  1.4252         estimate D2E/DX2                !
 ! R13   R(7,12)                 1.4592         estimate D2E/DX2                !
 ! R14   R(8,9)                  1.4049         estimate D2E/DX2                !
 ! R15   R(8,19)                 1.1015         estimate D2E/DX2                !
 ! R16   R(9,10)                 1.3726         estimate D2E/DX2                !
 ! R17   R(9,20)                 1.0809         estimate D2E/DX2                !
 ! R18   R(10,11)                1.3998         estimate D2E/DX2                !
 ! R19   R(10,21)                1.117          estimate D2E/DX2                !
 ! R20   R(11,12)                1.4081         estimate D2E/DX2                !
 ! R21   R(11,22)                1.0628         estimate D2E/DX2                !
 ! R22   R(12,13)                1.3786         estimate D2E/DX2                !
 ! R23   R(13,14)                1.4223         estimate D2E/DX2                !
 ! R24   R(14,23)                1.1506         estimate D2E/DX2                !
 ! R25   R(14,24)                1.0581         estimate D2E/DX2                !
 ! R26   R(14,25)                1.0682         estimate D2E/DX2                !
 ! A1    A(2,1,6)              113.5947         estimate D2E/DX2                !
 ! A2    A(2,1,15)             123.6711         estimate D2E/DX2                !
 ! A3    A(6,1,15)             122.5124         estimate D2E/DX2                !
 ! A4    A(1,2,3)              125.2172         estimate D2E/DX2                !
 ! A5    A(1,2,16)             118.7579         estimate D2E/DX2                !
 ! A6    A(3,2,16)             115.8776         estimate D2E/DX2                !
 ! A7    A(2,3,4)              112.8842         estimate D2E/DX2                !
 ! A8    A(2,3,17)             122.8008         estimate D2E/DX2                !
 ! A9    A(4,3,17)             124.3104         estimate D2E/DX2                !
 ! A10   A(3,4,5)              123.5948         estimate D2E/DX2                !
 ! A11   A(3,4,7)              117.7977         estimate D2E/DX2                !
 ! A12   A(5,4,7)              118.5483         estimate D2E/DX2                !
 ! A13   A(4,5,6)              120.8528         estimate D2E/DX2                !
 ! A14   A(1,6,5)              123.6063         estimate D2E/DX2                !
 ! A15   A(1,6,18)             116.7392         estimate D2E/DX2                !
 ! A16   A(5,6,18)             119.5242         estimate D2E/DX2                !
 ! A17   A(4,7,8)              120.4007         estimate D2E/DX2                !
 ! A18   A(4,7,12)             126.0559         estimate D2E/DX2                !
 ! A19   A(8,7,12)             113.5344         estimate D2E/DX2                !
 ! A20   A(7,8,9)              121.5291         estimate D2E/DX2                !
 ! A21   A(7,8,19)             120.9203         estimate D2E/DX2                !
 ! A22   A(9,8,19)             117.0554         estimate D2E/DX2                !
 ! A23   A(8,9,10)             121.2285         estimate D2E/DX2                !
 ! A24   A(8,9,20)             116.5065         estimate D2E/DX2                !
 ! A25   A(10,9,20)            121.8653         estimate D2E/DX2                !
 ! A26   A(9,10,11)            122.1408         estimate D2E/DX2                !
 ! A27   A(9,10,21)            118.9394         estimate D2E/DX2                !
 ! A28   A(11,10,21)           118.6017         estimate D2E/DX2                !
 ! A29   A(10,11,12)           115.9995         estimate D2E/DX2                !
 ! A30   A(10,11,22)           123.553          estimate D2E/DX2                !
 ! A31   A(12,11,22)           120.332          estimate D2E/DX2                !
 ! A32   A(7,12,11)            125.2795         estimate D2E/DX2                !
 ! A33   A(7,12,13)            119.9475         estimate D2E/DX2                !
 ! A34   A(11,12,13)           114.579          estimate D2E/DX2                !
 ! A35   A(12,13,14)           111.3254         estimate D2E/DX2                !
 ! A36   A(13,14,23)           106.3301         estimate D2E/DX2                !
 ! A37   A(13,14,24)           112.746          estimate D2E/DX2                !
 ! A38   A(13,14,25)           113.831          estimate D2E/DX2                !
 ! A39   A(23,14,24)           104.1282         estimate D2E/DX2                !
 ! A40   A(23,14,25)           109.239          estimate D2E/DX2                !
 ! A41   A(24,14,25)           109.9924         estimate D2E/DX2                !
 ! D1    D(6,1,2,3)             -5.6342         estimate D2E/DX2                !
 ! D2    D(6,1,2,16)           178.9705         estimate D2E/DX2                !
 ! D3    D(15,1,2,3)           179.6654         estimate D2E/DX2                !
 ! D4    D(15,1,2,16)            4.2701         estimate D2E/DX2                !
 ! D5    D(2,1,6,5)              5.3269         estimate D2E/DX2                !
 ! D6    D(2,1,6,18)          -178.8515         estimate D2E/DX2                !
 ! D7    D(15,1,6,5)          -179.9031         estimate D2E/DX2                !
 ! D8    D(15,1,6,18)           -4.0816         estimate D2E/DX2                !
 ! D9    D(1,2,3,4)              3.8894         estimate D2E/DX2                !
 ! D10   D(1,2,3,17)          -176.8514         estimate D2E/DX2                !
 ! D11   D(16,2,3,4)           179.403          estimate D2E/DX2                !
 ! D12   D(16,2,3,17)           -1.3378         estimate D2E/DX2                !
 ! D13   D(2,3,4,5)             -1.3549         estimate D2E/DX2                !
 ! D14   D(2,3,4,7)           -178.5135         estimate D2E/DX2                !
 ! D15   D(17,3,4,5)           179.3989         estimate D2E/DX2                !
 ! D16   D(17,3,4,7)             2.2404         estimate D2E/DX2                !
 ! D17   D(3,4,5,6)              1.2708         estimate D2E/DX2                !
 ! D18   D(7,4,5,6)            178.4093         estimate D2E/DX2                !
 ! D19   D(3,4,7,8)            134.325          estimate D2E/DX2                !
 ! D20   D(3,4,7,12)           -44.5094         estimate D2E/DX2                !
 ! D21   D(5,4,7,8)            -42.9807         estimate D2E/DX2                !
 ! D22   D(5,4,7,12)           138.1849         estimate D2E/DX2                !
 ! D23   D(4,5,6,1)             -3.3442         estimate D2E/DX2                !
 ! D24   D(4,5,6,18)          -179.0555         estimate D2E/DX2                !
 ! D25   D(4,7,8,9)            175.1605         estimate D2E/DX2                !
 ! D26   D(4,7,8,19)             3.4715         estimate D2E/DX2                !
 ! D27   D(12,7,8,9)            -5.8673         estimate D2E/DX2                !
 ! D28   D(12,7,8,19)         -177.5563         estimate D2E/DX2                !
 ! D29   D(4,7,12,11)         -178.2053         estimate D2E/DX2                !
 ! D30   D(4,7,12,13)           -3.5507         estimate D2E/DX2                !
 ! D31   D(8,7,12,11)            2.8913         estimate D2E/DX2                !
 ! D32   D(8,7,12,13)          177.5458         estimate D2E/DX2                !
 ! D33   D(7,8,9,10)             6.4624         estimate D2E/DX2                !
 ! D34   D(7,8,9,20)           179.3357         estimate D2E/DX2                !
 ! D35   D(19,8,9,10)          178.4584         estimate D2E/DX2                !
 ! D36   D(19,8,9,20)           -8.6683         estimate D2E/DX2                !
 ! D37   D(8,9,10,11)           -3.439          estimate D2E/DX2                !
 ! D38   D(8,9,10,21)          169.9903         estimate D2E/DX2                !
 ! D39   D(20,9,10,11)        -175.9275         estimate D2E/DX2                !
 ! D40   D(20,9,10,21)          -2.4983         estimate D2E/DX2                !
 ! D41   D(9,10,11,12)           0.3525         estimate D2E/DX2                !
 ! D42   D(9,10,11,22)         176.4494         estimate D2E/DX2                !
 ! D43   D(21,10,11,12)       -173.0981         estimate D2E/DX2                !
 ! D44   D(21,10,11,22)          2.9988         estimate D2E/DX2                !
 ! D45   D(10,11,12,7)          -0.2072         estimate D2E/DX2                !
 ! D46   D(10,11,12,13)       -175.1147         estimate D2E/DX2                !
 ! D47   D(22,11,12,7)        -176.4388         estimate D2E/DX2                !
 ! D48   D(22,11,12,13)          8.6537         estimate D2E/DX2                !
 ! D49   D(7,12,13,14)         -86.8024         estimate D2E/DX2                !
 ! D50   D(11,12,13,14)         88.4004         estimate D2E/DX2                !
 ! D51   D(12,13,14,23)        173.0043         estimate D2E/DX2                !
 ! D52   D(12,13,14,24)         59.5111         estimate D2E/DX2                !
 ! D53   D(12,13,14,25)        -66.679          estimate D2E/DX2                !
 --------------------------------------------------------------------------------
 Trust Radius=3.00D-01 FncErr=1.00D-07 GrdErr=1.00D-06 EigMax=2.50D+02 EigMin=1.00D-04
 Number of steps in this run=    130 maximum allowed number of steps=    150.
 GradGradGradGradGradGradGradGradGradGradGradGradGradGradGradGradGradGrad

 Leave Link  103 at Fri Jul 24 12:11:58 2020, MaxMem=  4026531840 cpu:               0.1 elap:               0.0
 (Enter /opt/ohpc/pub/libs/gaussian/g16-A.03/sandybridge/g16/l202.exe)
                          Input orientation:                          
 ---------------------------------------------------------------------
 Center     Atomic      Atomic             Coordinates (Angstroms)
 Number     Number       Type             X           Y           Z
 ---------------------------------------------------------------------
      1          6           0        3.707532   -0.197934   -0.052540
      2          6           0        2.982788    0.586251   -0.872123
      3          6           0        1.568569    0.563381   -0.987507
      4          6           0        0.951811   -0.333279   -0.067146
      5          7           0        1.614194   -1.071703    0.769024
      6          6           0        2.903796   -1.012584    0.827942
      7          6           0       -0.490051   -0.465022   -0.115490
      8          6           0       -1.098109   -1.753544   -0.080805
      9          6           0       -2.493596   -1.906117   -0.025276
     10          6           0       -3.332517   -0.825237   -0.134163
     11          6           0       -2.849921    0.484872   -0.234275
     12          6           0       -1.449271    0.629167   -0.224478
     13          8           0       -1.007376    1.934997   -0.217731
     14          6           0       -0.885480    2.432945    1.108945
     15          1           0        4.757829   -0.163930    0.009798
     16          1           0        3.504658    1.248079   -1.559984
     17          1           0        1.026752    1.179126   -1.697856
     18          1           0        3.463370   -1.682536    1.558986
     19          1           0       -0.489425   -2.663552    0.040050
     20          1           0       -2.867922   -2.920068   -0.013253
     21          1           0       -4.428811   -1.001932   -0.254855
     22          1           0       -3.475859    1.332405   -0.374039
     23          1           0       -0.389996    3.467720    1.021857
     24          1           0       -0.208198    1.870893    1.696263
     25          1           0       -1.818081    2.531180    1.620458
 ---------------------------------------------------------------------
                    Distance matrix (angstroms):
                    1          2          3          4          5
     1  C    0.000000
     2  C    1.346074   0.000000
     3  C    2.455387   1.419102   0.000000
     4  C    2.759081   2.370315   1.425291   0.000000
     5  N    2.412572   2.704667   2.400205   1.297383   0.000000
     6  C    1.443916   2.335109   2.749973   2.252306   1.292300
     7  C    4.206543   3.706518   2.460883   1.448675   2.361837
     8  C    5.051228   4.770172   3.647111   2.493895   2.922962
     9  C    6.432155   6.076169   4.850309   3.787664   4.266274
    10  C    7.068413   6.513061   5.164988   4.313001   5.034525
    11  C    6.595411   5.868358   4.482920   3.892360   4.832997
    12  C    5.225541   4.479334   3.113503   2.591573   3.642090
    13  O    5.177552   4.262482   3.018175   3.001027   4.109326
    14  C    5.419071   4.722119   3.729978   3.522900   4.318156
    15  H    1.052695   2.119275   3.419792   3.810561   3.359005
    16  H    2.098690   1.087896   2.131896   3.353548   3.792034
    17  H    3.433648   2.204408   1.085036   2.225354   3.390696
    18  H    2.204694   3.359858   3.888321   3.282183   2.101573
    19  H    4.868500   4.842473   3.962866   2.742047   2.736896
    20  H    7.116752   6.874790   5.724163   4.613539   4.910985
    21  H    8.178473   7.604942   6.241438   5.425258   6.129527
    22  H    7.351626   6.520656   5.139455   4.740564   5.744125
    23  H    5.601882   4.823453   4.038404   4.175400   4.968608
    24  H    4.761439   4.292936   3.474062   3.051820   3.583261
    25  H    6.385874   5.748396   4.705647   4.327289   5.048388
                    6          7          8          9         10
     6  C    0.000000
     7  C    3.564840   0.000000
     8  C    4.170142   1.425211   0.000000
     9  C    5.536987   2.469633   1.404901   0.000000
    10  C    6.312871   2.865260   2.420161   1.372569   0.000000
    11  C    6.039531   2.546644   2.846560   2.426412   1.399752
    12  C    4.769919   1.459188   2.412730   2.749175   2.381189
    13  O    5.007887   2.457269   3.692197   4.123111   3.610008
    14  C    5.129254   3.170776   4.357454   4.764447   4.260171
    15  H    2.197046   5.258003   6.068533   7.457856   8.118605
    16  H    3.342727   4.580281   5.690622   6.948621   7.285504
    17  H    3.834911   2.740036   3.966162   4.970825   5.046368
    18  H    1.138589   4.462706   4.847788   6.168089   7.055905
    19  H    3.854921   2.204025   1.101461   2.143520   3.390122
    20  H    6.136679   3.419353   2.120750   1.080908   2.149136
    21  H    7.412131   3.977628   3.418887   2.148328   1.116982
    22  H    6.902444   3.494659   3.906759   3.402132   2.175662
    23  H    5.564152   4.095123   5.383204   5.865130   5.331444
    24  H    4.330465   2.969577   4.133577   4.738412   4.514526
    25  H    5.956716   3.708693   4.665996   4.780624   4.078939
                   11         12         13         14         15
    11  C    0.000000
    12  C    1.408097   0.000000
    13  O    2.344805   1.378589   0.000000
    14  C    3.075428   2.312897   1.422280   0.000000
    15  H    7.639265   6.261947   6.139613   6.308631   0.000000
    16  H    6.536105   5.167982   4.757305   5.272609   2.455285
    17  H    4.201506   2.933255   2.626745   3.620335   4.317501
    18  H    6.911663   5.714784   6.019206   6.004350   2.526217
    19  H    3.944587   3.439953   4.634801   5.222421   5.812289
    20  H    3.412153   3.828088   5.203374   5.817573   8.108570
    21  H    2.168848   3.396920   4.509229   5.119915   9.228578
    22  H    1.062847   2.150342   2.545773   3.181272   8.377348
    23  H    4.065277   3.276095   2.065666   1.150586   6.380693
    24  H    3.553411   2.602190   2.075131   1.058091   5.625486
    25  H    2.948238   2.675344   2.095618   1.068195   7.287005
                   16         17         18         19         20
    16  H    0.000000
    17  H    2.482696   0.000000
    18  H    4.279975   4.973252   0.000000
    19  H    5.814952   4.481661   4.346740   0.000000
    20  H    7.770174   5.899980   6.639931   2.392883   0.000000
    21  H    8.349002   6.049995   8.126485   4.285640   2.484752
    22  H    7.081045   4.695689   7.808928   5.005790   4.310833
    23  H    5.173107   3.826444   6.454616   6.210179   6.929315
    24  H    4.977584   3.677457   5.111371   4.835630   5.740199
    25  H    6.331912   4.575187   6.756693   5.590014   5.786820
                   21         22         23         24         25
    21  H    0.000000
    22  H    2.524173   0.000000
    23  H    6.157906   4.003829   0.000000
    24  H    5.465671   3.905602   1.742909   0.000000
    25  H    4.776567   2.857150   1.809657   1.741680   0.000000
 Stoichiometry    C12H11NO
 Framework group  C1[X(C12H11NO)]
 Deg. of freedom    69
 Full point group                 C1      NOp   1
 Largest Abelian subgroup         C1      NOp   1
 Largest concise Abelian subgroup C1      NOp   1
                         Standard orientation:                         
 ---------------------------------------------------------------------
 Center     Atomic      Atomic             Coordinates (Angstroms)
 Number     Number       Type             X           Y           Z
 ---------------------------------------------------------------------
      1          6           0        3.715089   -0.173503   -0.052873
      2          6           0        2.985402    0.603104   -0.875280
      3          6           0        1.571552    0.569076   -0.992422
      4          6           0        0.960512   -0.330082   -0.070685
      5          7           0        1.627466   -1.061370    0.768118
      6          6           0        2.916497   -0.992188    0.828547
      7          6           0       -0.480230   -0.473031   -0.120559
      8          6           0       -1.078405   -1.766106   -0.083535
      9          6           0       -2.472748   -1.929277   -0.029427
     10          6           0       -3.319815   -0.855150   -0.142005
     11          6           0       -2.847180    0.458388   -0.244669
     12          6           0       -1.447695    0.613479   -0.233425
     13          8           0       -1.015865    1.922683   -0.229272
     14          6           0       -0.899529    2.424751    1.096350
     15          1           0        4.765011   -0.131269    0.010729
     16          1           0        3.503061    1.267268   -1.564072
     17          1           0        1.025940    1.178920   -1.704954
     18          1           0        3.480256   -1.656051    1.561927
     19          1           0       -0.462898   -2.671110    0.040303
     20          1           0       -2.839280   -2.946047   -0.015429
     21          1           0       -4.414560   -1.040565   -0.263675
     22          1           0       -3.479435    1.300741   -0.387287
     23          1           0       -0.411905    3.463094    1.007393
     24          1           0       -0.218709    1.869344    1.685895
     25          1           0       -1.833522    2.517040    1.606427
 ---------------------------------------------------------------------
 Rotational constants (GHZ):           1.3176888           0.5130808           0.4108546
 Leave Link  202 at Fri Jul 24 12:11:58 2020, MaxMem=  4026531840 cpu:               0.1 elap:               0.0
 (Enter /opt/ohpc/pub/libs/gaussian/g16-A.03/sandybridge/g16/l301.exe)
 Standard basis: CC-pVDZ (5D, 7F)
 Ernie: Thresh=  0.10000D-02 Tol=  0.10000D-05 Strict=F.
 Ernie:  28 primitive shells out of 363 were deleted.
 There are   265 symmetry adapted cartesian basis functions of A   symmetry.
 There are   251 symmetry adapted basis functions of A   symmetry.
   251 basis functions,   539 primitive gaussians,   265 cartesian basis functions
    49 alpha electrons       49 beta electrons
       nuclear repulsion energy       826.2323491760 Hartrees.
 IExCor=32609 DFT=T Ex+Corr=LC-wPBE ExCW=0 ScaHFX=  1.000000
 ScaDFX=  1.000000  0.000000  1.000000  1.000000 ScalE2=  1.000000  1.000000
 IRadAn=      5 IRanWt=     -1 IRanGd=            0 ICorTp=0 IEmpDi=  4
 HFx  wShort=  0.000000 wLong=  0.083000 cFull=  0.000000 cShort=  0.000000 cLong=  1.000000
 DFx  wShort=  0.000000 wLong=  0.083000 cFull=  0.000000 cShort=  0.000000 cLong=  1.000000
 NAtoms=   25 NActive=   25 NUniq=   25 SFac= 1.00D+00 NAtFMM=   60 NAOKFM=F Big=F
 Integral buffers will be    131072 words long.
 Raffenetti 2 integral format.
 Two-electron integral symmetry is turned on.
 Leave Link  301 at Fri Jul 24 12:11:58 2020, MaxMem=  4026531840 cpu:               0.5 elap:               0.1
 (Enter /opt/ohpc/pub/libs/gaussian/g16-A.03/sandybridge/g16/l302.exe)
 NPDir=0 NMtPBC=     1 NCelOv=     1 NCel=       1 NClECP=     1 NCelD=      1
         NCelK=      1 NCelE2=     1 NClLst=     1 CellRange=     0.0.
 One-electron integrals computed using PRISM.
 One-electron integral symmetry used in STVInt
 NBasis=   251 RedAO= T EigKep=  3.47D-04  NBF=   251
 NBsUse=   251 1.00D-06 EigRej= -1.00D+00 NBFU=   251
 Precomputing XC quadrature grid using
 IXCGrd= 4 IRadAn=           5 IRanWt=          -1 IRanGd=           0 AccXCQ= 0.00D+00.
 Generated NRdTot=       0 NPtTot=           0 NUsed=           0 NTot=          32
 NSgBfM=   265   265   265   265   265 MxSgAt=    25 MxSgA2=    25.
 Leave Link  302 at Fri Jul 24 12:11:58 2020, MaxMem=  4026531840 cpu:               3.8 elap:               0.5
 (Enter /opt/ohpc/pub/libs/gaussian/g16-A.03/sandybridge/g16/l303.exe)
 DipDrv:  MaxL=1.
 Leave Link  303 at Fri Jul 24 12:11:58 2020, MaxMem=  4026531840 cpu:               0.4 elap:               0.1
 (Enter /opt/ohpc/pub/libs/gaussian/g16-A.03/sandybridge/g16/l401.exe)
 ExpMin= 1.22D-01 ExpMax= 1.17D+04 ExpMxC= 4.01D+02 IAcc=3 IRadAn=         5 AccDes= 0.00D+00
 Harris functional with IExCor=32609 and IRadAn=       5 diagonalized for initial guess.
 HarFok:  IExCor=32609 AccDes= 0.00D+00 IRadAn=         5 IDoV= 1 UseB2=F ITyADJ=14
 ICtDFT=  3500011 ScaDFX=  1.000000  1.000000  1.000000  1.000000
 FoFCou: FMM=F IPFlag=           0 FMFlag=      100000 FMFlg1=           0
         NFxFlg=           0 DoJE=T BraDBF=F KetDBF=T FulRan=T
         wScrn=  0.000000 ICntrl=       500 IOpCl=  0 I1Cent=   200000004 NGrid=           0
         NMat0=    1 NMatS0=      1 NMatT0=    0 NMatD0=    1 NMtDS0=    0 NMtDT0=    0
 Petite list used in FoFCou.
 Harris En= -593.377887946253    
 JPrj=0 DoOrth=F DoCkMO=F.
 Initial guess <Sx>= 0.0000 <Sy>= 0.0000 <Sz>= 0.0000 <S**2>=-0.0000 S=-0.0000
 Leave Link  401 at Fri Jul 24 12:12:01 2020, MaxMem=  4026531840 cpu:              22.3 elap:               2.9
 (Enter /opt/ohpc/pub/libs/gaussian/g16-A.03/sandybridge/g16/l502.exe)
 Integral symmetry usage will be decided dynamically.
 UHF open shell SCF:
 Using DIIS extrapolation, IDIIS=  1040.
 NGot=  4026531840 LenX=  4026386365 LenY=  4026315699
 Requested convergence on RMS density matrix=1.00D-08 within 128 cycles.
 Requested convergence on MAX density matrix=1.00D-06.
 Requested convergence on             energy=1.00D-06.
 No special actions if energy rises.
 Fock matrices will be formed incrementally for  20 cycles.
 Integral accuracy reduced to 1.0D-05 until final iterations.

 Cycle   1  Pass 0  IDiag  1:
 FoFJK:  IHMeth= 1 ICntrl=       0 DoSepK=T KAlg= 0 I1Cent=           0 FoldK=F
 IRaf=         1 NMat=       1 IRICut=       1 DoRegI=T DoRafI=F ISym2E= 0 IDoP0=0 IntGTp=1.
 FoFCou: FMM=F IPFlag=           0 FMFlag=      100000 FMFlg1=           0
         NFxFlg=           0 DoJE=T BraDBF=F KetDBF=F FulRan=T
         wScrn=  0.000000 ICntrl=       500 IOpCl=  0 I1Cent=           0 NGrid=           0
         NMat0=    1 NMatS0=      1 NMatT0=    0 NMatD0=    1 NMtDS0=    0 NMtDT0=    0
 Symmetry not used in FoFCou.
 E= -593.012764552243    
 DIIS: error= 1.71D-02 at cycle   1 NSaved=   1.
 NSaved= 1 IEnMin= 1 EnMin= -593.012764552243     IErMin= 1 ErrMin= 1.71D-02
 ErrMax= 1.71D-02  0.00D+00 EMaxC= 1.00D-01 BMatC= 7.34D-01 BMatP= 7.34D-01
 IDIUse=3 WtCom= 8.29D-01 WtEn= 1.71D-01
 Coeff-Com:  0.100D+01
 Coeff-En:   0.100D+01
 Coeff:      0.100D+01
 Gap=     0.230 Goal=   None    Shift=    0.000
 Gap=     0.230 Goal=   None    Shift=    0.000
 GapD=    0.230 DampG=1.000 DampE=0.500 DampFc=0.5000 IDamp=-1.
 Damping current iteration by 5.00D-01
 RMSDP=4.15D-03 MaxDP=9.44D-02              OVMax= 1.47D-01

 Cycle   2  Pass 0  IDiag  1:
 RMSU=  2.05D-03    CP:  9.86D-01
 E= -593.113333329215     Delta-E=       -0.100568776972 Rises=F Damp=T
 DIIS: error= 2.94D-03 at cycle   2 NSaved=   2.
 NSaved= 2 IEnMin= 2 EnMin= -593.113333329215     IErMin= 2 ErrMin= 2.94D-03
 ErrMax= 2.94D-03  0.00D+00 EMaxC= 1.00D-01 BMatC= 3.86D-02 BMatP= 7.34D-01
 IDIUse=3 WtCom= 9.71D-01 WtEn= 2.94D-02
 Coeff-Com:  0.600D-01 0.940D+00
 Coeff-En:   0.492D-01 0.951D+00
 Coeff:      0.597D-01 0.940D+00
 Gap=     0.228 Goal=   None    Shift=    0.000
 Gap=     0.228 Goal=   None    Shift=    0.000
 RMSDP=9.36D-04 MaxDP=3.38D-02 DE=-1.01D-01 OVMax= 1.18D-01

 Cycle   3  Pass 0  IDiag  1:
 RMSU=  9.18D-04    CP:  9.82D-01  1.08D+00
 E= -593.221144439312     Delta-E=       -0.107811110097 Rises=F Damp=F
 DIIS: error= 3.68D-03 at cycle   3 NSaved=   3.
 NSaved= 3 IEnMin= 3 EnMin= -593.221144439312     IErMin= 2 ErrMin= 2.94D-03
 ErrMax= 3.68D-03  0.00D+00 EMaxC= 1.00D-01 BMatC= 3.78D-02 BMatP= 3.86D-02
 IDIUse=3 WtCom= 9.63D-01 WtEn= 3.68D-02
 Coeff-Com: -0.387D-02 0.498D+00 0.506D+00
 Coeff-En:   0.000D+00 0.000D+00 0.100D+01
 Coeff:     -0.373D-02 0.480D+00 0.524D+00
 Gap=     0.225 Goal=   None    Shift=    0.000
 Gap=     0.225 Goal=   None    Shift=    0.000
 RMSDP=5.69D-04 MaxDP=2.37D-02 DE=-1.08D-01 OVMax= 4.03D-02

 Cycle   4  Pass 0  IDiag  1:
 RMSU=  3.71D-04    CP:  9.84D-01  1.07D+00  5.33D-01
 E= -593.229402651125     Delta-E=       -0.008258211813 Rises=F Damp=F
 DIIS: error= 1.93D-03 at cycle   4 NSaved=   4.
 NSaved= 4 IEnMin= 4 EnMin= -593.229402651125     IErMin= 4 ErrMin= 1.93D-03
 ErrMax= 1.93D-03  0.00D+00 EMaxC= 1.00D-01 BMatC= 7.01D-03 BMatP= 3.78D-02
 IDIUse=3 WtCom= 9.81D-01 WtEn= 1.93D-02
 Coeff-Com: -0.334D-02 0.151D+00 0.321D+00 0.531D+00
 Coeff-En:   0.000D+00 0.000D+00 0.180D+00 0.820D+00
 Coeff:     -0.328D-02 0.148D+00 0.319D+00 0.537D+00
 Gap=     0.223 Goal=   None    Shift=    0.000
 Gap=     0.223 Goal=   None    Shift=    0.000
 RMSDP=2.10D-04 MaxDP=7.29D-03 DE=-8.26D-03 OVMax= 1.42D-02

 Cycle   5  Pass 0  IDiag  1:
 RMSU=  8.03D-05    CP:  9.84D-01  1.08D+00  6.51D-01  5.71D-01
 E= -593.231254424608     Delta-E=       -0.001851773483 Rises=F Damp=F
 DIIS: error= 7.21D-04 at cycle   5 NSaved=   5.
 NSaved= 5 IEnMin= 5 EnMin= -593.231254424608     IErMin= 5 ErrMin= 7.21D-04
 ErrMax= 7.21D-04  0.00D+00 EMaxC= 1.00D-01 BMatC= 3.96D-04 BMatP= 7.01D-03
 IDIUse=3 WtCom= 9.93D-01 WtEn= 7.21D-03
 Coeff-Com: -0.251D-03 0.457D-01 0.138D+00 0.288D+00 0.528D+00
 Coeff-En:   0.000D+00 0.000D+00 0.000D+00 0.000D+00 0.100D+01
 Coeff:     -0.249D-03 0.454D-01 0.137D+00 0.286D+00 0.531D+00
 Gap=     0.222 Goal=   None    Shift=    0.000
 Gap=     0.222 Goal=   None    Shift=    0.000
 RMSDP=4.95D-05 MaxDP=1.94D-03 DE=-1.85D-03 OVMax= 3.92D-03

 Cycle   6  Pass 0  IDiag  1:
 RMSU=  3.49D-05    CP:  9.84D-01  1.08D+00  6.45D-01  6.04D-01  6.00D-01
 E= -593.231336470849     Delta-E=       -0.000082046241 Rises=F Damp=F
 DIIS: error= 2.92D-04 at cycle   6 NSaved=   6.
 NSaved= 6 IEnMin= 6 EnMin= -593.231336470849     IErMin= 6 ErrMin= 2.92D-04
 ErrMax= 2.92D-04  0.00D+00 EMaxC= 1.00D-01 BMatC= 6.82D-05 BMatP= 3.96D-04
 IDIUse=3 WtCom= 9.97D-01 WtEn= 2.92D-03
 Coeff-Com:  0.904D-03 0.136D-02 0.286D-01 0.810D-01 0.321D+00 0.567D+00
 Coeff-En:   0.000D+00 0.000D+00 0.000D+00 0.000D+00 0.154D+00 0.846D+00
 Coeff:      0.901D-03 0.136D-02 0.286D-01 0.808D-01 0.320D+00 0.568D+00
 Gap=     0.223 Goal=   None    Shift=    0.000
 Gap=     0.223 Goal=   None    Shift=    0.000
 RMSDP=1.69D-05 MaxDP=4.99D-04 DE=-8.20D-05 OVMax= 1.30D-03

 Cycle   7  Pass 0  IDiag  1:
 RMSU=  8.76D-06    CP:  9.84D-01  1.08D+00  6.48D-01  6.06D-01  6.94D-01
                    CP:  6.58D-01
 E= -593.231353135798     Delta-E=       -0.000016664949 Rises=F Damp=F
 DIIS: error= 3.68D-05 at cycle   7 NSaved=   7.
 NSaved= 7 IEnMin= 7 EnMin= -593.231353135798     IErMin= 7 ErrMin= 3.68D-05
 ErrMax= 3.68D-05  0.00D+00 EMaxC= 1.00D-01 BMatC= 2.17D-06 BMatP= 6.82D-05
 IDIUse=1 WtCom= 1.00D+00 WtEn= 0.00D+00
 Coeff-Com:  0.601D-03-0.103D-02 0.885D-02 0.273D-01 0.127D+00 0.270D+00
 Coeff-Com:  0.567D+00
 Coeff:      0.601D-03-0.103D-02 0.885D-02 0.273D-01 0.127D+00 0.270D+00
 Coeff:      0.567D+00
 Gap=     0.223 Goal=   None    Shift=    0.000
 Gap=     0.223 Goal=   None    Shift=    0.000
 RMSDP=4.53D-06 MaxDP=1.19D-04 DE=-1.67D-05 OVMax= 3.63D-04

 Initial convergence to 1.0D-05 achieved.  Increase integral accuracy.
 Cycle   8  Pass 1  IDiag  1:
 E= -593.231182787430     Delta-E=        0.000170348369 Rises=F Damp=F
 DIIS: error= 6.26D-05 at cycle   1 NSaved=   1.
 NSaved= 1 IEnMin= 1 EnMin= -593.231182787430     IErMin= 1 ErrMin= 6.26D-05
 ErrMax= 6.26D-05  0.00D+00 EMaxC= 1.00D-01 BMatC= 3.00D-06 BMatP= 3.00D-06
 IDIUse=1 WtCom= 1.00D+00 WtEn= 0.00D+00
 Coeff-Com:  0.100D+01
 Coeff:      0.100D+01
 Gap=     0.223 Goal=   None    Shift=    0.000
 Gap=     0.223 Goal=   None    Shift=    0.000
 RMSDP=4.53D-06 MaxDP=1.19D-04 DE= 1.70D-04 OVMax= 2.68D-04

 Cycle   9  Pass 1  IDiag  1:
 RMSU=  5.07D-05    CP:  1.00D+00
 E= -593.231183092994     Delta-E=       -0.000000305565 Rises=F Damp=F
 DIIS: error= 2.49D-05 at cycle   2 NSaved=   2.
 NSaved= 2 IEnMin= 2 EnMin= -593.231183092994     IErMin= 2 ErrMin= 2.49D-05
 ErrMax= 2.49D-05  0.00D+00 EMaxC= 1.00D-01 BMatC= 1.49D-06 BMatP= 3.00D-06
 IDIUse=1 WtCom= 1.00D+00 WtEn= 0.00D+00
 Coeff-Com:  0.374D+00 0.626D+00
 Coeff:      0.374D+00 0.626D+00
 Gap=     0.223 Goal=   None    Shift=    0.000
 Gap=     0.223 Goal=   None    Shift=    0.000
 RMSDP=4.85D-06 MaxDP=1.32D-04 DE=-3.06D-07 OVMax= 3.43D-04

 Cycle  10  Pass 1  IDiag  1:
 RMSU=  4.70D-06    CP:  1.00D+00  1.02D+00
 E= -593.231183200870     Delta-E=       -0.000000107876 Rises=F Damp=F
 DIIS: error= 2.12D-05 at cycle   3 NSaved=   3.
 NSaved= 3 IEnMin= 3 EnMin= -593.231183200870     IErMin= 3 ErrMin= 2.12D-05
 ErrMax= 2.12D-05  0.00D+00 EMaxC= 1.00D-01 BMatC= 1.03D-06 BMatP= 1.49D-06
 IDIUse=1 WtCom= 1.00D+00 WtEn= 0.00D+00
 Coeff-Com: -0.627D-02 0.454D+00 0.553D+00
 Coeff:     -0.627D-02 0.454D+00 0.553D+00
 Gap=     0.223 Goal=   None    Shift=    0.000
 Gap=     0.223 Goal=   None    Shift=    0.000
 RMSDP=2.45D-06 MaxDP=5.44D-05 DE=-1.08D-07 OVMax= 1.54D-04

 Cycle  11  Pass 1  IDiag  1:
 RMSU=  6.86D-07    CP:  1.00D+00  1.04D+00  5.55D-01
 E= -593.231183482256     Delta-E=       -0.000000281386 Rises=F Damp=F
 DIIS: error= 5.40D-06 at cycle   4 NSaved=   4.
 NSaved= 4 IEnMin= 4 EnMin= -593.231183482256     IErMin= 4 ErrMin= 5.40D-06
 ErrMax= 5.40D-06  0.00D+00 EMaxC= 1.00D-01 BMatC= 4.11D-08 BMatP= 1.03D-06
 IDIUse=1 WtCom= 1.00D+00 WtEn= 0.00D+00
 Coeff-Com: -0.133D-01 0.274D+00 0.350D+00 0.390D+00
 Coeff:     -0.133D-01 0.274D+00 0.350D+00 0.390D+00
 Gap=     0.223 Goal=   None    Shift=    0.000
 Gap=     0.223 Goal=   None    Shift=    0.000
 RMSDP=3.84D-07 MaxDP=1.42D-05 DE=-2.81D-07 OVMax= 2.28D-05

 Cycle  12  Pass 1  IDiag  1:
 RMSU=  2.42D-07    CP:  1.00D+00  1.05D+00  5.79D-01  6.15D-01
 E= -593.231183491623     Delta-E=       -0.000000009368 Rises=F Damp=F
 DIIS: error= 4.90D-07 at cycle   5 NSaved=   5.
 NSaved= 5 IEnMin= 5 EnMin= -593.231183491623     IErMin= 5 ErrMin= 4.90D-07
 ErrMax= 4.90D-07  0.00D+00 EMaxC= 1.00D-01 BMatC= 2.67D-10 BMatP= 4.11D-08
 IDIUse=1 WtCom= 1.00D+00 WtEn= 0.00D+00
 Coeff-Com: -0.440D-02 0.790D-01 0.101D+00 0.131D+00 0.693D+00
 Coeff:     -0.440D-02 0.790D-01 0.101D+00 0.131D+00 0.693D+00
 Gap=     0.223 Goal=   None    Shift=    0.000
 Gap=     0.223 Goal=   None    Shift=    0.000
 RMSDP=6.37D-08 MaxDP=1.28D-06 DE=-9.37D-09 OVMax= 5.84D-06

 Cycle  13  Pass 1  IDiag  1:
 RMSU=  5.45D-08    CP:  1.00D+00  1.05D+00  5.80D-01  6.50D-01  1.00D+00
 E= -593.231183491649     Delta-E=       -0.000000000026 Rises=F Damp=F
 DIIS: error= 3.62D-07 at cycle   6 NSaved=   6.
 NSaved= 6 IEnMin= 6 EnMin= -593.231183491649     IErMin= 6 ErrMin= 3.62D-07
 ErrMax= 3.62D-07  0.00D+00 EMaxC= 1.00D-01 BMatC= 1.47D-10 BMatP= 2.67D-10
 IDIUse=1 WtCom= 1.00D+00 WtEn= 0.00D+00
 Coeff-Com: -0.232D-03-0.196D-02-0.290D-02 0.671D-02 0.431D+00 0.567D+00
 Coeff:     -0.232D-03-0.196D-02-0.290D-02 0.671D-02 0.431D+00 0.567D+00
 Gap=     0.223 Goal=   None    Shift=    0.000
 Gap=     0.223 Goal=   None    Shift=    0.000
 RMSDP=3.88D-08 MaxDP=1.23D-06 DE=-2.61D-11 OVMax= 3.80D-06

 Cycle  14  Pass 1  IDiag  1:
 RMSU=  2.63D-08    CP:  1.00D+00  1.05D+00  5.81D-01  6.58D-01  1.08D+00
                    CP:  6.95D-01
 E= -593.231183491724     Delta-E=       -0.000000000074 Rises=F Damp=F
 DIIS: error= 1.03D-07 at cycle   7 NSaved=   7.
 NSaved= 7 IEnMin= 7 EnMin= -593.231183491724     IErMin= 7 ErrMin= 1.03D-07
 ErrMax= 1.03D-07  0.00D+00 EMaxC= 1.00D-01 BMatC= 1.84D-11 BMatP= 1.47D-10
 IDIUse=1 WtCom= 1.00D+00 WtEn= 0.00D+00
 Coeff-Com:  0.613D-03-0.144D-01-0.189D-01-0.190D-01 0.120D+00 0.315D+00
 Coeff-Com:  0.617D+00
 Coeff:      0.613D-03-0.144D-01-0.189D-01-0.190D-01 0.120D+00 0.315D+00
 Coeff:      0.617D+00
 Gap=     0.223 Goal=   None    Shift=    0.000
 Gap=     0.223 Goal=   None    Shift=    0.000
 RMSDP=1.43D-08 MaxDP=2.73D-07 DE=-7.44D-11 OVMax= 1.39D-06

 Cycle  15  Pass 1  IDiag  1:
 RMSU=  1.04D-08    CP:  1.00D+00  1.05D+00  5.81D-01  6.63D-01  1.10D+00
                    CP:  8.37D-01  9.40D-01
 E= -593.231183491718     Delta-E=        0.000000000005 Rises=F Damp=F
 DIIS: error= 2.89D-08 at cycle   8 NSaved=   8.
 NSaved= 8 IEnMin= 7 EnMin= -593.231183491724     IErMin= 8 ErrMin= 2.89D-08
 ErrMax= 2.89D-08  0.00D+00 EMaxC= 1.00D-01 BMatC= 2.17D-12 BMatP= 1.84D-11
 IDIUse=1 WtCom= 1.00D+00 WtEn= 0.00D+00
 Coeff-Com:  0.335D-03-0.689D-02-0.912D-02-0.104D-01 0.400D-02 0.867D-01
 Coeff-Com:  0.315D+00 0.620D+00
 Coeff:      0.335D-03-0.689D-02-0.912D-02-0.104D-01 0.400D-02 0.867D-01
 Coeff:      0.315D+00 0.620D+00
 Gap=     0.223 Goal=   None    Shift=    0.000
 Gap=     0.223 Goal=   None    Shift=    0.000
 RMSDP=5.07D-09 MaxDP=1.25D-07 DE= 5.46D-12 OVMax= 4.70D-07

 SCF Done:  E(ULC-wPBE) =  -593.231183492     A.U. after   15 cycles
            NFock= 15  Conv=0.51D-08     -V/T= 2.0059
 <Sx>= 0.0000 <Sy>= 0.0000 <Sz>= 0.0000 <S**2>=-0.0000 S=-0.0000
 <L.S>= 0.000000000000E+00
 KE= 5.897600999889D+02 PE=-3.032821699853D+03 EE= 1.023598067196D+03
 Annihilation of the first spin contaminant:
 S**2 before annihilation    -0.0000,   after    -0.0000
 Leave Link  502 at Fri Jul 24 12:14:14 2020, MaxMem=  4026531840 cpu:            1059.2 elap:             132.8
 (Enter /opt/ohpc/pub/libs/gaussian/g16-A.03/sandybridge/g16/l601.exe)
 Copying SCF densities to generalized density rwf, IOpCl= 1 IROHF=0.

 **********************************************************************

            Population analysis using the SCF density.

 **********************************************************************

 Orbital symmetries:
 Alpha Orbitals:
       Occupied  (A) (A) (A) (A) (A) (A) (A) (A) (A) (A) (A) (A)
                 (A) (A) (A) (A) (A) (A) (A) (A) (A) (A) (A) (A)
                 (A) (A) (A) (A) (A) (A) (A) (A) (A) (A) (A) (A)
                 (A) (A) (A) (A) (A) (A) (A) (A) (A) (A) (A) (A)
                 (A)
       Virtual   (A) (A) (A) (A) (A) (A) (A) (A) (A) (A) (A) (A)
                 (A) (A) (A) (A) (A) (A) (A) (A) (A) (A) (A) (A)
                 (A) (A) (A) (A) (A) (A) (A) (A) (A) (A) (A) (A)
                 (A) (A) (A) (A) (A) (A) (A) (A) (A) (A) (A) (A)
                 (A) (A) (A) (A) (A) (A) (A) (A) (A) (A) (A) (A)
                 (A) (A) (A) (A) (A) (A) (A) (A) (A) (A) (A) (A)
                 (A) (A) (A) (A) (A) (A) (A) (A) (A) (A) (A) (A)
                 (A) (A) (A) (A) (A) (A) (A) (A) (A) (A) (A) (A)
                 (A) (A) (A) (A) (A) (A) (A) (A) (A) (A) (A) (A)
                 (A) (A) (A) (A) (A) (A) (A) (A) (A) (A) (A) (A)
                 (A) (A) (A) (A) (A) (A) (A) (A) (A) (A) (A) (A)
                 (A) (A) (A) (A) (A) (A) (A) (A) (A) (A) (A) (A)
                 (A) (A) (A) (A) (A) (A) (A) (A) (A) (A) (A) (A)
                 (A) (A) (A) (A) (A) (A) (A) (A) (A) (A) (A) (A)
                 (A) (A) (A) (A) (A) (A) (A) (A) (A) (A) (A) (A)
                 (A) (A) (A) (A) (A) (A) (A) (A) (A) (A) (A) (A)
                 (A) (A) (A) (A) (A) (A) (A) (A) (A) (A)
 Beta  Orbitals:
       Occupied  (A) (A) (A) (A) (A) (A) (A) (A) (A) (A) (A) (A)
                 (A) (A) (A) (A) (A) (A) (A) (A) (A) (A) (A) (A)
                 (A) (A) (A) (A) (A) (A) (A) (A) (A) (A) (A) (A)
                 (A) (A) (A) (A) (A) (A) (A) (A) (A) (A) (A) (A)
                 (A)
       Virtual   (A) (A) (A) (A) (A) (A) (A) (A) (A) (A) (A) (A)
                 (A) (A) (A) (A) (A) (A) (A) (A) (A) (A) (A) (A)
                 (A) (A) (A) (A) (A) (A) (A) (A) (A) (A) (A) (A)
                 (A) (A) (A) (A) (A) (A) (A) (A) (A) (A) (A) (A)
                 (A) (A) (A) (A) (A) (A) (A) (A) (A) (A) (A) (A)
                 (A) (A) (A) (A) (A) (A) (A) (A) (A) (A) (A) (A)
                 (A) (A) (A) (A) (A) (A) (A) (A) (A) (A) (A) (A)
                 (A) (A) (A) (A) (A) (A) (A) (A) (A) (A) (A) (A)
                 (A) (A) (A) (A) (A) (A) (A) (A) (A) (A) (A) (A)
                 (A) (A) (A) (A) (A) (A) (A) (A) (A) (A) (A) (A)
                 (A) (A) (A) (A) (A) (A) (A) (A) (A) (A) (A) (A)
                 (A) (A) (A) (A) (A) (A) (A) (A) (A) (A) (A) (A)
                 (A) (A) (A) (A) (A) (A) (A) (A) (A) (A) (A) (A)
                 (A) (A) (A) (A) (A) (A) (A) (A) (A) (A) (A) (A)
                 (A) (A) (A) (A) (A) (A) (A) (A) (A) (A) (A) (A)
                 (A) (A) (A) (A) (A) (A) (A) (A) (A) (A) (A) (A)
                 (A) (A) (A) (A) (A) (A) (A) (A) (A) (A)
 The electronic state is 1-A.
 Alpha  occ. eigenvalues --  -18.82720 -14.03600 -10.00148  -9.98586  -9.98402
 Alpha  occ. eigenvalues --   -9.98344  -9.95747  -9.95714  -9.95587  -9.95089
 Alpha  occ. eigenvalues --   -9.94936  -9.94901  -9.94532  -9.94075  -1.01302
 Alpha  occ. eigenvalues --   -0.92838  -0.81930  -0.78004  -0.76240  -0.72224
 Alpha  occ. eigenvalues --   -0.70698  -0.66738  -0.62958  -0.61719  -0.58113
 Alpha  occ. eigenvalues --   -0.56978  -0.52600  -0.50369  -0.48994  -0.48123
 Alpha  occ. eigenvalues --   -0.46733  -0.45067  -0.44819  -0.43076  -0.42877
 Alpha  occ. eigenvalues --   -0.42256  -0.41217  -0.38614  -0.38164  -0.37056
 Alpha  occ. eigenvalues --   -0.35845  -0.35403  -0.33455  -0.31215  -0.29159
 Alpha  occ. eigenvalues --   -0.26684  -0.26355  -0.24928  -0.24779
 Alpha virt. eigenvalues --   -0.02519  -0.00618   0.00774   0.03024   0.08873
 Alpha virt. eigenvalues --    0.09072   0.10385   0.12074   0.12757   0.13105
 Alpha virt. eigenvalues --    0.13623   0.14941   0.15098   0.15819   0.16374
 Alpha virt. eigenvalues --    0.17007   0.17781   0.18808   0.24064   0.25176
 Alpha virt. eigenvalues --    0.26557   0.28378   0.29200   0.29644   0.31977
 Alpha virt. eigenvalues --    0.32581   0.34745   0.36867   0.40747   0.42071
 Alpha virt. eigenvalues --    0.42321   0.43786   0.44309   0.45705   0.45943
 Alpha virt. eigenvalues --    0.47026   0.47743   0.48516   0.48575   0.50184
 Alpha virt. eigenvalues --    0.50874   0.51339   0.51406   0.52356   0.52845
 Alpha virt. eigenvalues --    0.53625   0.53954   0.55562   0.55647   0.57166
 Alpha virt. eigenvalues --    0.58527   0.59256   0.59843   0.60747   0.61466
 Alpha virt. eigenvalues --    0.61824   0.62451   0.62853   0.64517   0.65962
 Alpha virt. eigenvalues --    0.66274   0.68051   0.69393   0.70292   0.70367
 Alpha virt. eigenvalues --    0.70582   0.72495   0.73525   0.75763   0.77426
 Alpha virt. eigenvalues --    0.78163   0.81852   0.85140   0.86426   0.87082
 Alpha virt. eigenvalues --    0.88150   0.88589   0.91128   0.91834   0.92889
 Alpha virt. eigenvalues --    0.93656   0.94422   0.96144   0.97018   0.97762
 Alpha virt. eigenvalues --    0.98666   0.99696   1.00341   1.00698   1.01278
 Alpha virt. eigenvalues --    1.02706   1.04922   1.05533   1.06328   1.07608
 Alpha virt. eigenvalues --    1.09980   1.13018   1.13347   1.16644   1.17922
 Alpha virt. eigenvalues --    1.18875   1.21384   1.22075   1.27098   1.29677
 Alpha virt. eigenvalues --    1.31449   1.34231   1.36130   1.37870   1.39020
 Alpha virt. eigenvalues --    1.41059   1.41391   1.45644   1.46519   1.47532
 Alpha virt. eigenvalues --    1.47925   1.48318   1.48564   1.51443   1.52951
 Alpha virt. eigenvalues --    1.55497   1.56466   1.57010   1.57958   1.59139
 Alpha virt. eigenvalues --    1.59814   1.60987   1.61864   1.62535   1.63377
 Alpha virt. eigenvalues --    1.64238   1.64400   1.65805   1.66469   1.68162
 Alpha virt. eigenvalues --    1.68457   1.69255   1.69813   1.71565   1.73029
 Alpha virt. eigenvalues --    1.74140   1.74981   1.76533   1.77517   1.79382
 Alpha virt. eigenvalues --    1.81040   1.81791   1.82933   1.84835   1.86820
 Alpha virt. eigenvalues --    1.87514   1.88778   1.88958   1.91075   1.91561
 Alpha virt. eigenvalues --    1.92614   1.93628   1.95207   1.97500   1.98883
 Alpha virt. eigenvalues --    2.00312   2.00896   2.01766   2.04453   2.05414
 Alpha virt. eigenvalues --    2.07305   2.10221   2.14475   2.16382   2.18469
 Alpha virt. eigenvalues --    2.24610   2.25288   2.27483   2.32222   2.34362
 Alpha virt. eigenvalues --    2.36268   2.37657   2.39509   2.39949   2.44852
 Alpha virt. eigenvalues --    2.46004   2.47847   2.50289   2.51104   2.52410
 Alpha virt. eigenvalues --    2.55393   2.63999   2.66319   2.67956   2.70871
 Alpha virt. eigenvalues --    2.73267   2.77081   2.87226   2.90656   2.93029
 Alpha virt. eigenvalues --    2.94614   3.00451   3.13311   3.20911   3.28803
 Alpha virt. eigenvalues --    3.43632   3.52040
  Beta  occ. eigenvalues --  -18.82720 -14.03600 -10.00148  -9.98586  -9.98402
  Beta  occ. eigenvalues --   -9.98344  -9.95747  -9.95714  -9.95587  -9.95089
  Beta  occ. eigenvalues --   -9.94936  -9.94901  -9.94532  -9.94075  -1.01302
  Beta  occ. eigenvalues --   -0.92838  -0.81930  -0.78004  -0.76240  -0.72224
  Beta  occ. eigenvalues --   -0.70698  -0.66738  -0.62958  -0.61719  -0.58113
  Beta  occ. eigenvalues --   -0.56978  -0.52600  -0.50369  -0.48994  -0.48123
  Beta  occ. eigenvalues --   -0.46733  -0.45067  -0.44819  -0.43076  -0.42877
  Beta  occ. eigenvalues --   -0.42256  -0.41217  -0.38614  -0.38164  -0.37056
  Beta  occ. eigenvalues --   -0.35845  -0.35403  -0.33455  -0.31215  -0.29159
  Beta  occ. eigenvalues --   -0.26684  -0.26355  -0.24928  -0.24779
  Beta virt. eigenvalues --   -0.02519  -0.00618   0.00774   0.03024   0.08873
  Beta virt. eigenvalues --    0.09072   0.10385   0.12074   0.12757   0.13105
  Beta virt. eigenvalues --    0.13623   0.14941   0.15098   0.15819   0.16374
  Beta virt. eigenvalues --    0.17007   0.17781   0.18808   0.24064   0.25176
  Beta virt. eigenvalues --    0.26557   0.28378   0.29200   0.29644   0.31977
  Beta virt. eigenvalues --    0.32581   0.34745   0.36867   0.40747   0.42071
  Beta virt. eigenvalues --    0.42321   0.43786   0.44309   0.45705   0.45943
  Beta virt. eigenvalues --    0.47026   0.47743   0.48516   0.48575   0.50184
  Beta virt. eigenvalues --    0.50874   0.51339   0.51406   0.52356   0.52845
  Beta virt. eigenvalues --    0.53625   0.53954   0.55562   0.55647   0.57166
  Beta virt. eigenvalues --    0.58527   0.59256   0.59843   0.60747   0.61466
  Beta virt. eigenvalues --    0.61824   0.62451   0.62853   0.64517   0.65962
  Beta virt. eigenvalues --    0.66274   0.68051   0.69393   0.70292   0.70367
  Beta virt. eigenvalues --    0.70582   0.72495   0.73525   0.75763   0.77426
  Beta virt. eigenvalues --    0.78163   0.81852   0.85140   0.86426   0.87082
  Beta virt. eigenvalues --    0.88150   0.88589   0.91128   0.91834   0.92889
  Beta virt. eigenvalues --    0.93656   0.94422   0.96144   0.97018   0.97762
  Beta virt. eigenvalues --    0.98666   0.99696   1.00341   1.00698   1.01278
  Beta virt. eigenvalues --    1.02706   1.04922   1.05533   1.06328   1.07608
  Beta virt. eigenvalues --    1.09980   1.13018   1.13347   1.16644   1.17922
  Beta virt. eigenvalues --    1.18875   1.21384   1.22075   1.27098   1.29677
  Beta virt. eigenvalues --    1.31449   1.34231   1.36130   1.37870   1.39020
  Beta virt. eigenvalues --    1.41059   1.41391   1.45644   1.46519   1.47532
  Beta virt. eigenvalues --    1.47925   1.48318   1.48564   1.51443   1.52951
  Beta virt. eigenvalues --    1.55497   1.56466   1.57010   1.57958   1.59139
  Beta virt. eigenvalues --    1.59814   1.60987   1.61864   1.62535   1.63377
  Beta virt. eigenvalues --    1.64238   1.64400   1.65805   1.66469   1.68162
  Beta virt. eigenvalues --    1.68457   1.69255   1.69813   1.71565   1.73029
  Beta virt. eigenvalues --    1.74140   1.74981   1.76533   1.77517   1.79382
  Beta virt. eigenvalues --    1.81040   1.81791   1.82933   1.84835   1.86820
  Beta virt. eigenvalues --    1.87514   1.88778   1.88958   1.91075   1.91561
  Beta virt. eigenvalues --    1.92614   1.93628   1.95207   1.97500   1.98883
  Beta virt. eigenvalues --    2.00312   2.00896   2.01766   2.04453   2.05414
  Beta virt. eigenvalues --    2.07305   2.10221   2.14475   2.16382   2.18469
  Beta virt. eigenvalues --    2.24610   2.25288   2.27483   2.32222   2.34362
  Beta virt. eigenvalues --    2.36268   2.37657   2.39509   2.39949   2.44852
  Beta virt. eigenvalues --    2.46004   2.47847   2.50289   2.51104   2.52410
  Beta virt. eigenvalues --    2.55393   2.63999   2.66319   2.67956   2.70871
  Beta virt. eigenvalues --    2.73267   2.77081   2.87226   2.90656   2.93029
  Beta virt. eigenvalues --    2.94614   3.00451   3.13311   3.20911   3.28803
  Beta virt. eigenvalues --    3.43632   3.52040
          Condensed to atoms (all electrons):
               1          2          3          4          5          6
     1  C    4.877419   0.508567   0.009000  -0.054512  -0.049964   0.436484
     2  C    0.508567   4.685369   0.476090  -0.014092  -0.027548  -0.021298
     3  C    0.009000   0.476090   4.967800   0.391310  -0.060378  -0.063719
     4  C   -0.054512  -0.014092   0.391310   5.096586   0.572361  -0.089590
     5  N   -0.049964  -0.027548  -0.060378   0.572361   6.141383   0.611989
     6  C    0.436484  -0.021298  -0.063719  -0.089590   0.611989   4.731507
     7  C    0.002957   0.005282  -0.082360   0.282705  -0.066506   0.001847
     8  C    0.000195  -0.000413   0.012277  -0.099215   0.007220   0.000974
     9  C   -0.000000   0.000007  -0.000370   0.009747   0.000081   0.000014
    10  C    0.000000  -0.000000  -0.000004  -0.000905   0.000050   0.000001
    11  C   -0.000001   0.000000  -0.000313   0.011801  -0.000129   0.000005
    12  C   -0.000048   0.000292  -0.016134  -0.100155   0.001353  -0.000258
    13  O    0.000001  -0.000098   0.003859  -0.007575  -0.000001   0.000001
    14  C   -0.000006   0.000060   0.000857  -0.000626  -0.000245  -0.000048
    15  H    0.381036  -0.041331   0.009962   0.000475   0.005900  -0.043594
    16  H   -0.061908   0.391057  -0.052644   0.009091  -0.000582   0.011563
    17  H    0.009262  -0.036782   0.386265  -0.033553   0.005042   0.000605
    18  H   -0.071805   0.007091   0.001387   0.001081  -0.030527   0.380295
    19  H    0.000187  -0.000087   0.002264  -0.022759   0.016255   0.000257
    20  H   -0.000000  -0.000000   0.000005  -0.000349  -0.000032  -0.000001
    21  H    0.000000   0.000000   0.000002   0.000038   0.000000   0.000000
    22  H   -0.000000  -0.000001  -0.000007  -0.000129   0.000001   0.000000
    23  H    0.000000  -0.000010  -0.000093  -0.000028   0.000002  -0.000003
    24  H    0.000005  -0.000116  -0.000432   0.005832   0.000445   0.000221
    25  H   -0.000000   0.000004   0.000299   0.000561  -0.000012   0.000001
               7          8          9         10         11         12
     1  C    0.002957   0.000195  -0.000000   0.000000  -0.000001  -0.000048
     2  C    0.005282  -0.000413   0.000007  -0.000000   0.000000   0.000292
     3  C   -0.082360   0.012277  -0.000370  -0.000004  -0.000313  -0.016134
     4  C    0.282705  -0.099215   0.009747  -0.000905   0.011801  -0.100155
     5  N   -0.066506   0.007220   0.000081   0.000050  -0.000129   0.001353
     6  C    0.001847   0.000974   0.000014   0.000001   0.000005  -0.000258
     7  C    5.278808   0.391886   0.012522  -0.077029  -0.003947   0.312184
     8  C    0.391886   4.883322   0.479870   0.017188  -0.078918   0.033957
     9  C    0.012522   0.479870   4.754176   0.474807   0.007551  -0.089004
    10  C   -0.077029   0.017188   0.474807   4.852987   0.405704   0.025092
    11  C   -0.003947  -0.078918   0.007551   0.405704   4.830500   0.458175
    12  C    0.312184   0.033957  -0.089004   0.025092   0.458175   5.117039
    13  O   -0.061529   0.005287   0.000066   0.006764  -0.051321   0.361784
    14  C   -0.009655   0.000474  -0.000039   0.000417  -0.010617  -0.075199
    15  H    0.000043  -0.000005   0.000000  -0.000000   0.000000   0.000001
    16  H   -0.000564   0.000017  -0.000000   0.000000  -0.000000  -0.000018
    17  H   -0.018195  -0.000639   0.000061  -0.000087   0.000610  -0.001498
    18  H   -0.000999  -0.000127  -0.000002  -0.000000   0.000000   0.000019
    19  H   -0.054499   0.378201  -0.043747   0.012127  -0.000810   0.011895
    20  H    0.012086  -0.043337   0.385259  -0.059524   0.011379  -0.000924
    21  H    0.000021   0.010436  -0.053600   0.376405  -0.046549   0.010911
    22  H    0.014663  -0.001256   0.010840  -0.054532   0.373298  -0.038886
    23  H   -0.000011   0.000022  -0.000002   0.000028   0.000149   0.004523
    24  H    0.008574  -0.001129  -0.000011   0.000237  -0.000654  -0.004195
    25  H   -0.001438  -0.000123   0.000031  -0.002039   0.009627   0.004993
              13         14         15         16         17         18
     1  C    0.000001  -0.000006   0.381036  -0.061908   0.009262  -0.071805
     2  C   -0.000098   0.000060  -0.041331   0.391057  -0.036782   0.007091
     3  C    0.003859   0.000857   0.009962  -0.052644   0.386265   0.001387
     4  C   -0.007575  -0.000626   0.000475   0.009091  -0.033553   0.001081
     5  N   -0.000001  -0.000245   0.005900  -0.000582   0.005042  -0.030527
     6  C    0.000001  -0.000048  -0.043594   0.011563   0.000605   0.380295
     7  C   -0.061529  -0.009655   0.000043  -0.000564  -0.018195  -0.000999
     8  C    0.005287   0.000474  -0.000005   0.000017  -0.000639  -0.000127
     9  C    0.000066  -0.000039   0.000000  -0.000000   0.000061  -0.000002
    10  C    0.006764   0.000417  -0.000000   0.000000  -0.000087  -0.000000
    11  C   -0.051321  -0.010617   0.000000  -0.000000   0.000610   0.000000
    12  C    0.361784  -0.075199   0.000001  -0.000018  -0.001498   0.000019
    13  O    7.712581   0.360799   0.000000  -0.000003   0.011460  -0.000000
    14  C    0.360799   4.486369   0.000000  -0.000009  -0.000912   0.000001
    15  H    0.000000   0.000000   0.750752  -0.019355  -0.000093  -0.006182
    16  H   -0.000003  -0.000009  -0.019355   0.764934  -0.015322  -0.000481
    17  H    0.011460  -0.000912  -0.000093  -0.015322   0.707436   0.000121
    18  H   -0.000000   0.000001  -0.006182  -0.000481   0.000121   0.719820
    19  H   -0.000079  -0.000007  -0.000008   0.000004  -0.000159  -0.000226
    20  H    0.000004  -0.000002   0.000000   0.000000   0.000001   0.000000
    21  H   -0.000166  -0.000009  -0.000000  -0.000000   0.000001  -0.000000
    22  H    0.002018  -0.001282  -0.000000   0.000000   0.000045   0.000000
    23  H   -0.020557   0.385159  -0.000000   0.000005  -0.000370  -0.000000
    24  H   -0.034464   0.382038  -0.000004   0.000010   0.000169  -0.000005
    25  H   -0.036143   0.382362   0.000000  -0.000000   0.000168  -0.000000
              19         20         21         22         23         24
     1  C    0.000187  -0.000000   0.000000  -0.000000   0.000000   0.000005
     2  C   -0.000087  -0.000000   0.000000  -0.000001  -0.000010  -0.000116
     3  C    0.002264   0.000005   0.000002  -0.000007  -0.000093  -0.000432
     4  C   -0.022759  -0.000349   0.000038  -0.000129  -0.000028   0.005832
     5  N    0.016255  -0.000032   0.000000   0.000001   0.000002   0.000445
     6  C    0.000257  -0.000001   0.000000   0.000000  -0.000003   0.000221
     7  C   -0.054499   0.012086   0.000021   0.014663  -0.000011   0.008574
     8  C    0.378201  -0.043337   0.010436  -0.001256   0.000022  -0.001129
     9  C   -0.043747   0.385259  -0.053600   0.010840  -0.000002  -0.000011
    10  C    0.012127  -0.059524   0.376405  -0.054532   0.000028   0.000237
    11  C   -0.000810   0.011379  -0.046549   0.373298   0.000149  -0.000654
    12  C    0.011895  -0.000924   0.010911  -0.038886   0.004523  -0.004195
    13  O   -0.000079   0.000004  -0.000166   0.002018  -0.020557  -0.034464
    14  C   -0.000007  -0.000002  -0.000009  -0.001282   0.385159   0.382038
    15  H   -0.000008   0.000000  -0.000000  -0.000000  -0.000000  -0.000004
    16  H    0.000004   0.000000  -0.000000   0.000000   0.000005   0.000010
    17  H   -0.000159   0.000001   0.000001   0.000045  -0.000370   0.000169
    18  H   -0.000226   0.000000  -0.000000   0.000000  -0.000000  -0.000005
    19  H    0.746783  -0.017930  -0.000374   0.000062  -0.000000   0.000057
    20  H   -0.017930   0.760857  -0.017546  -0.000207   0.000000   0.000002
    21  H   -0.000374  -0.017546   0.753654  -0.015694  -0.000001  -0.000008
    22  H    0.000062  -0.000207  -0.015694   0.745943  -0.000309   0.000948
    23  H   -0.000000   0.000000  -0.000001  -0.000309   0.655025  -0.031506
    24  H    0.000057   0.000002  -0.000008   0.000948  -0.031506   0.699058
    25  H   -0.000009  -0.000000   0.000072   0.000927  -0.031729  -0.050634
              25
     1  C   -0.000000
     2  C    0.000004
     3  C    0.000299
     4  C    0.000561
     5  N   -0.000012
     6  C    0.000001
     7  C   -0.001438
     8  C   -0.000123
     9  C    0.000031
    10  C   -0.002039
    11  C    0.009627
    12  C    0.004993
    13  O   -0.036143
    14  C    0.382362
    15  H    0.000000
    16  H   -0.000000
    17  H    0.000168
    18  H   -0.000000
    19  H   -0.000009
    20  H   -0.000000
    21  H    0.000072
    22  H    0.000927
    23  H   -0.031729
    24  H   -0.050634
    25  H    0.702391
          Atomic-Atomic Spin Densities.
               1          2          3          4          5          6
     1  C   -0.000000  -0.000000   0.000000  -0.000000   0.000000  -0.000000
     2  C   -0.000000  -0.000000  -0.000000  -0.000000  -0.000000   0.000000
     3  C    0.000000  -0.000000   0.000000  -0.000000   0.000000  -0.000000
     4  C   -0.000000  -0.000000  -0.000000  -0.000000   0.000000   0.000000
     5  N    0.000000  -0.000000   0.000000   0.000000   0.000000  -0.000000
     6  C   -0.000000   0.000000  -0.000000   0.000000  -0.000000   0.000000
     7  C   -0.000000  -0.000000   0.000000  -0.000000  -0.000000  -0.000000
     8  C   -0.000000  -0.000000  -0.000000   0.000000  -0.000000   0.000000
     9  C    0.000000   0.000000   0.000000  -0.000000   0.000000   0.000000
    10  C    0.000000  -0.000000  -0.000000  -0.000000   0.000000   0.000000
    11  C    0.000000   0.000000  -0.000000   0.000000  -0.000000  -0.000000
    12  C    0.000000  -0.000000  -0.000000  -0.000000   0.000000  -0.000000
    13  O    0.000000  -0.000000  -0.000000   0.000000  -0.000000  -0.000000
    14  C    0.000000  -0.000000  -0.000000   0.000000   0.000000  -0.000000
    15  H    0.000000  -0.000000   0.000000  -0.000000   0.000000  -0.000000
    16  H   -0.000000   0.000000  -0.000000   0.000000  -0.000000   0.000000
    17  H    0.000000  -0.000000  -0.000000   0.000000   0.000000  -0.000000
    18  H    0.000000  -0.000000  -0.000000  -0.000000   0.000000  -0.000000
    19  H   -0.000000  -0.000000  -0.000000   0.000000  -0.000000  -0.000000
    20  H    0.000000  -0.000000   0.000000  -0.000000   0.000000  -0.000000
    21  H   -0.000000   0.000000   0.000000  -0.000000   0.000000   0.000000
    22  H   -0.000000   0.000000  -0.000000   0.000000  -0.000000   0.000000
    23  H    0.000000  -0.000000  -0.000000  -0.000000  -0.000000  -0.000000
    24  H   -0.000000   0.000000   0.000000  -0.000000   0.000000   0.000000
    25  H   -0.000000  -0.000000  -0.000000   0.000000  -0.000000   0.000000
               7          8          9         10         11         12
     1  C   -0.000000  -0.000000   0.000000   0.000000   0.000000   0.000000
     2  C   -0.000000  -0.000000   0.000000  -0.000000   0.000000  -0.000000
     3  C    0.000000  -0.000000   0.000000  -0.000000  -0.000000  -0.000000
     4  C   -0.000000   0.000000  -0.000000  -0.000000   0.000000  -0.000000
     5  N   -0.000000  -0.000000   0.000000   0.000000  -0.000000   0.000000
     6  C   -0.000000   0.000000   0.000000   0.000000  -0.000000  -0.000000
     7  C   -0.000000   0.000000  -0.000000  -0.000000   0.000000   0.000000
     8  C    0.000000   0.000000  -0.000000   0.000000  -0.000000  -0.000000
     9  C   -0.000000  -0.000000   0.000000  -0.000000   0.000000   0.000000
    10  C   -0.000000   0.000000  -0.000000   0.000000  -0.000000   0.000000
    11  C    0.000000  -0.000000   0.000000  -0.000000   0.000000  -0.000000
    12  C    0.000000  -0.000000   0.000000   0.000000  -0.000000   0.000000
    13  O    0.000000  -0.000000   0.000000   0.000000  -0.000000   0.000000
    14  C    0.000000  -0.000000   0.000000  -0.000000  -0.000000   0.000000
    15  H    0.000000  -0.000000  -0.000000  -0.000000   0.000000   0.000000
    16  H   -0.000000   0.000000   0.000000  -0.000000  -0.000000  -0.000000
    17  H    0.000000  -0.000000  -0.000000  -0.000000   0.000000   0.000000
    18  H    0.000000  -0.000000  -0.000000  -0.000000   0.000000   0.000000
    19  H   -0.000000  -0.000000   0.000000   0.000000  -0.000000  -0.000000
    20  H    0.000000   0.000000   0.000000  -0.000000   0.000000  -0.000000
    21  H   -0.000000   0.000000  -0.000000   0.000000  -0.000000   0.000000
    22  H   -0.000000  -0.000000  -0.000000  -0.000000   0.000000  -0.000000
    23  H    0.000000  -0.000000  -0.000000   0.000000   0.000000  -0.000000
    24  H   -0.000000   0.000000  -0.000000   0.000000   0.000000   0.000000
    25  H    0.000000  -0.000000   0.000000  -0.000000   0.000000   0.000000
              13         14         15         16         17         18
     1  C    0.000000   0.000000   0.000000  -0.000000   0.000000   0.000000
     2  C   -0.000000  -0.000000  -0.000000   0.000000  -0.000000  -0.000000
     3  C   -0.000000  -0.000000   0.000000  -0.000000  -0.000000  -0.000000
     4  C    0.000000   0.000000  -0.000000   0.000000   0.000000  -0.000000
     5  N   -0.000000   0.000000   0.000000  -0.000000   0.000000   0.000000
     6  C   -0.000000  -0.000000  -0.000000   0.000000  -0.000000  -0.000000
     7  C    0.000000   0.000000   0.000000  -0.000000   0.000000   0.000000
     8  C   -0.000000  -0.000000  -0.000000   0.000000  -0.000000  -0.000000
     9  C    0.000000   0.000000  -0.000000   0.000000  -0.000000  -0.000000
    10  C    0.000000  -0.000000  -0.000000  -0.000000  -0.000000  -0.000000
    11  C   -0.000000  -0.000000   0.000000  -0.000000   0.000000   0.000000
    12  C    0.000000   0.000000   0.000000  -0.000000   0.000000   0.000000
    13  O   -0.000000  -0.000000  -0.000000   0.000000  -0.000000  -0.000000
    14  C   -0.000000  -0.000000   0.000000  -0.000000   0.000000   0.000000
    15  H   -0.000000   0.000000   0.000000  -0.000000   0.000000  -0.000000
    16  H    0.000000  -0.000000  -0.000000   0.000000  -0.000000   0.000000
    17  H   -0.000000   0.000000   0.000000  -0.000000  -0.000000  -0.000000
    18  H   -0.000000   0.000000  -0.000000   0.000000  -0.000000  -0.000000
    19  H   -0.000000  -0.000000   0.000000  -0.000000   0.000000   0.000000
    20  H    0.000000   0.000000   0.000000  -0.000000   0.000000  -0.000000
    21  H    0.000000  -0.000000  -0.000000  -0.000000   0.000000  -0.000000
    22  H   -0.000000  -0.000000  -0.000000   0.000000  -0.000000   0.000000
    23  H   -0.000000   0.000000   0.000000  -0.000000  -0.000000  -0.000000
    24  H    0.000000   0.000000  -0.000000   0.000000   0.000000   0.000000
    25  H   -0.000000  -0.000000  -0.000000  -0.000000  -0.000000  -0.000000
              19         20         21         22         23         24
     1  C   -0.000000   0.000000  -0.000000  -0.000000   0.000000  -0.000000
     2  C   -0.000000  -0.000000   0.000000   0.000000  -0.000000   0.000000
     3  C   -0.000000   0.000000   0.000000  -0.000000  -0.000000   0.000000
     4  C    0.000000  -0.000000  -0.000000   0.000000  -0.000000  -0.000000
     5  N   -0.000000   0.000000   0.000000  -0.000000  -0.000000   0.000000
     6  C   -0.000000  -0.000000   0.000000   0.000000  -0.000000   0.000000
     7  C   -0.000000   0.000000  -0.000000  -0.000000   0.000000  -0.000000
     8  C   -0.000000   0.000000   0.000000  -0.000000  -0.000000   0.000000
     9  C    0.000000   0.000000  -0.000000  -0.000000  -0.000000  -0.000000
    10  C    0.000000  -0.000000   0.000000  -0.000000   0.000000   0.000000
    11  C   -0.000000   0.000000  -0.000000   0.000000   0.000000   0.000000
    12  C   -0.000000  -0.000000   0.000000  -0.000000  -0.000000   0.000000
    13  O   -0.000000   0.000000   0.000000  -0.000000  -0.000000   0.000000
    14  C   -0.000000   0.000000  -0.000000  -0.000000   0.000000   0.000000
    15  H    0.000000   0.000000  -0.000000  -0.000000   0.000000  -0.000000
    16  H   -0.000000  -0.000000  -0.000000   0.000000  -0.000000   0.000000
    17  H    0.000000   0.000000   0.000000  -0.000000  -0.000000   0.000000
    18  H    0.000000  -0.000000  -0.000000   0.000000  -0.000000   0.000000
    19  H    0.000000  -0.000000   0.000000  -0.000000  -0.000000   0.000000
    20  H   -0.000000   0.000000  -0.000000   0.000000  -0.000000  -0.000000
    21  H    0.000000  -0.000000   0.000000  -0.000000   0.000000   0.000000
    22  H   -0.000000   0.000000  -0.000000  -0.000000  -0.000000  -0.000000
    23  H   -0.000000  -0.000000   0.000000  -0.000000   0.000000   0.000000
    24  H    0.000000  -0.000000   0.000000  -0.000000   0.000000  -0.000000
    25  H   -0.000000   0.000000  -0.000000   0.000000  -0.000000  -0.000000
              25
     1  C   -0.000000
     2  C   -0.000000
     3  C   -0.000000
     4  C    0.000000
     5  N   -0.000000
     6  C    0.000000
     7  C    0.000000
     8  C   -0.000000
     9  C    0.000000
    10  C   -0.000000
    11  C    0.000000
    12  C    0.000000
    13  O   -0.000000
    14  C   -0.000000
    15  H   -0.000000
    16  H   -0.000000
    17  H   -0.000000
    18  H   -0.000000
    19  H   -0.000000
    20  H    0.000000
    21  H   -0.000000
    22  H    0.000000
    23  H   -0.000000
    24  H   -0.000000
    25  H    0.000000
 Mulliken charges and spin densities:
               1          2
     1  C    0.013132   0.000000
     2  C    0.067957  -0.000000
     3  C    0.015077   0.000000
     4  C    0.041899  -0.000000
     5  N   -0.126158   0.000000
     6  C    0.042750  -0.000000
     7  C    0.053154  -0.000000
     8  C    0.003835   0.000000
     9  C    0.051743   0.000000
    10  C    0.022314  -0.000000
    11  C    0.084460   0.000000
    12  C   -0.015899   0.000000
    13  O   -0.252686  -0.000000
    14  C    0.100118  -0.000000
    15  H   -0.037599   0.000000
    16  H   -0.025796   0.000000
    17  H   -0.013634  -0.000000
    18  H    0.000540  -0.000000
    19  H   -0.027394   0.000000
    20  H   -0.029741   0.000000
    21  H   -0.017593   0.000000
    22  H   -0.036442   0.000000
    23  H    0.039708   0.000000
    24  H    0.025564  -0.000000
    25  H    0.020692   0.000000
 Sum of Mulliken charges =  -0.00000  -0.00000
 Mulliken charges and spin densities with hydrogens summed into heavy atoms:
               1          2
     1  C   -0.024467   0.000000
     2  C    0.042161  -0.000000
     3  C    0.001443   0.000000
     4  C    0.041899  -0.000000
     5  N   -0.126158   0.000000
     6  C    0.043290  -0.000000
     7  C    0.053154  -0.000000
     8  C   -0.023559   0.000000
     9  C    0.022002   0.000000
    10  C    0.004720  -0.000000
    11  C    0.048018   0.000000
    12  C   -0.015899   0.000000
    13  O   -0.252686  -0.000000
    14  C    0.186081  -0.000000
 Electronic spatial extent (au):  <R**2>=           2760.2852
 Charge=             -0.0000 electrons
 Dipole moment (field-independent basis, Debye):
    X=              0.6641    Y=              0.8809    Z=              0.0380  Tot=              1.1039
 Quadrupole moment (field-independent basis, Debye-Ang):
   XX=            -69.1203   YY=            -77.9012   ZZ=            -82.3624
   XY=              1.0508   XZ=             -1.1369   YZ=              1.7878
 Traceless Quadrupole moment (field-independent basis, Debye-Ang):
   XX=              7.3410   YY=             -1.4399   ZZ=             -5.9011
   XY=              1.0508   XZ=             -1.1369   YZ=              1.7878
 Octapole moment (field-independent basis, Debye-Ang**2):
  XXX=             16.1754  YYY=              6.3210  ZZZ=              0.9950  XYY=             -7.2226
  XXY=              2.0085  XXZ=             -0.4296  XZZ=              5.3153  YZZ=             11.6292
  YYZ=              5.9245  XYZ=             -7.5153
 Hexadecapole moment (field-independent basis, Debye-Ang**3):
 XXXX=          -2293.7107 YYYY=           -886.3448 ZZZZ=           -287.3870 XXXY=            -17.5254
 XXXZ=             23.3327 YYYX=              6.2102 YYYZ=             14.3719 ZZZX=             -1.8987
 ZZZY=             -4.3900 XXYY=           -563.3966 XXZZ=           -488.3253 YYZZ=           -201.7443
 XXYZ=            -20.0802 YYXZ=             -6.2361 ZZXY=             -8.5788
 N-N= 8.262323491760D+02 E-N=-3.032821700211D+03  KE= 5.897600999889D+02
                          Isotropic Fermi Contact Couplings
        Atom                 a.u.       MegaHertz       Gauss      10(-4) cm-1
     1  C(13)             -0.00000      -0.00000      -0.00000      -0.00000
     2  C(13)             -0.00000      -0.00000      -0.00000      -0.00000
     3  C(13)              0.00000       0.00000       0.00000       0.00000
     4  C(13)             -0.00000      -0.00000      -0.00000      -0.00000
     5  N(14)              0.00000       0.00000       0.00000       0.00000
     6  C(13)             -0.00000      -0.00000      -0.00000      -0.00000
     7  C(13)             -0.00000      -0.00000      -0.00000      -0.00000
     8  C(13)             -0.00000      -0.00000      -0.00000      -0.00000
     9  C(13)              0.00000       0.00000       0.00000       0.00000
    10  C(13)             -0.00000      -0.00000      -0.00000      -0.00000
    11  C(13)              0.00000       0.00000       0.00000       0.00000
    12  C(13)             -0.00000      -0.00000      -0.00000      -0.00000
    13  O(17)             -0.00000       0.00000       0.00000       0.00000
    14  C(13)             -0.00000      -0.00000      -0.00000      -0.00000
    15  H(1)               0.00000       0.00000       0.00000       0.00000
    16  H(1)               0.00000       0.00000       0.00000       0.00000
    17  H(1)              -0.00000      -0.00000      -0.00000      -0.00000
    18  H(1)               0.00000       0.00000       0.00000       0.00000
    19  H(1)               0.00000       0.00000       0.00000       0.00000
    20  H(1)              -0.00000      -0.00000      -0.00000      -0.00000
    21  H(1)               0.00000       0.00000       0.00000       0.00000
    22  H(1)              -0.00000      -0.00000      -0.00000      -0.00000
    23  H(1)               0.00000       0.00000       0.00000       0.00000
    24  H(1)               0.00000       0.00000       0.00000       0.00000
    25  H(1)               0.00000       0.00000       0.00000       0.00000
 --------------------------------------------------------
       Center         ----  Spin Dipole Couplings  ----
                      3XX-RR        3YY-RR        3ZZ-RR
 --------------------------------------------------------
     1   Atom        0.000000     -0.000000     -0.000000
     2   Atom        0.000000      0.000000     -0.000000
     3   Atom        0.000000     -0.000000     -0.000000
     4   Atom        0.000000      0.000000     -0.000000
     5   Atom        0.000000      0.000000     -0.000000
     6   Atom        0.000000     -0.000000     -0.000000
     7   Atom       -0.000000      0.000000     -0.000000
     8   Atom       -0.000000      0.000000      0.000000
     9   Atom        0.000000      0.000000     -0.000000
    10   Atom        0.000000     -0.000000     -0.000000
    11   Atom        0.000000      0.000000     -0.000000
    12   Atom       -0.000000      0.000000     -0.000000
[...]
    24  H   -0.000000  -0.000000   0.000000  -0.000000  -0.000000  -0.000000
    25  H   -0.000000   0.000000  -0.000000   0.000000   0.000000   0.000000
              19         20         21         22         23         24
     1  C   -0.000000   0.000000  -0.000000  -0.000000  -0.000000   0.000000
     2  C    0.000000  -0.000000  -0.000000   0.000000  -0.000000   0.000000
     3  C   -0.000000   0.000000  -0.000000   0.000000   0.000000   0.000000
     4  C    0.000000  -0.000000   0.000000  -0.000000   0.000000  -0.000000
     5  N   -0.000000   0.000000  -0.000000   0.000000   0.000000  -0.000000
     6  C   -0.000000  -0.000000   0.000000   0.000000  -0.000000  -0.000000
     7  C    0.000000  -0.000000   0.000000  -0.000000  -0.000000   0.000000
     8  C   -0.000000   0.000000  -0.000000  -0.000000  -0.000000  -0.000000
     9  C    0.000000  -0.000000   0.000000  -0.000000   0.000000   0.000000
    10  C   -0.000000   0.000000  -0.000000  -0.000000   0.000000  -0.000000
    11  C    0.000000  -0.000000   0.000000  -0.000000   0.000000  -0.000000
    12  C   -0.000000   0.000000  -0.000000   0.000000  -0.000000  -0.000000
    13  O    0.000000   0.000000   0.000000  -0.000000  -0.000000  -0.000000
    14  C   -0.000000   0.000000  -0.000000  -0.000000   0.000000  -0.000000
    15  H    0.000000  -0.000000   0.000000  -0.000000  -0.000000   0.000000
    16  H    0.000000  -0.000000  -0.000000   0.000000  -0.000000  -0.000000
    17  H   -0.000000  -0.000000   0.000000  -0.000000  -0.000000  -0.000000
    18  H    0.000000  -0.000000   0.000000   0.000000  -0.000000  -0.000000
    19  H   -0.000000   0.000000  -0.000000   0.000000   0.000000  -0.000000
    20  H    0.000000  -0.000000   0.000000  -0.000000   0.000000   0.000000
    21  H   -0.000000   0.000000  -0.000000   0.000000  -0.000000  -0.000000
    22  H    0.000000  -0.000000   0.000000  -0.000000  -0.000000   0.000000
    23  H    0.000000   0.000000  -0.000000  -0.000000  -0.000000   0.000000
    24  H   -0.000000   0.000000  -0.000000   0.000000   0.000000   0.000000
    25  H    0.000000  -0.000000   0.000000  -0.000000  -0.000000  -0.000000
              25
     1  C   -0.000000
     2  C   -0.000000
     3  C   -0.000000
     4  C    0.000000
     5  N    0.000000
     6  C    0.000000
     7  C   -0.000000
     8  C    0.000000
     9  C   -0.000000
    10  C    0.000000
    11  C    0.000000
    12  C   -0.000000
    13  O   -0.000000
    14  C    0.000000
    15  H   -0.000000
    16  H    0.000000
    17  H    0.000000
    18  H    0.000000
    19  H    0.000000
    20  H   -0.000000
    21  H    0.000000
    22  H   -0.000000
    23  H   -0.000000
    24  H   -0.000000
    25  H    0.000000
 Mulliken charges and spin densities:
               1          2
     1  C   -0.024140  -0.000000
     2  C    0.074546   0.000000
     3  C    0.009742  -0.000000
     4  C    0.048829   0.000000
     5  N   -0.194671  -0.000000
     6  C    0.088658   0.000000
     7  C    0.052006   0.000000
     8  C    0.041406   0.000000
     9  C    0.041012  -0.000000
    10  C    0.038908   0.000000
    11  C    0.066261  -0.000000
    12  C   -0.022940  -0.000000
    13  O   -0.265884  -0.000000
    14  C    0.073459   0.000000
    15  H   -0.017423   0.000000
    16  H   -0.013277  -0.000000
    17  H   -0.010989  -0.000000
    18  H   -0.004169   0.000000
    19  H   -0.029340  -0.000000
    20  H   -0.021778  -0.000000
    21  H   -0.021107  -0.000000
    22  H   -0.025833   0.000000
    23  H    0.045105  -0.000000
    24  H    0.037700  -0.000000
    25  H    0.033919   0.000000
 Sum of Mulliken charges =  -0.00000  -0.00000
 Mulliken charges and spin densities with hydrogens summed into heavy atoms:
               1          2
     1  C   -0.041563  -0.000000
     2  C    0.061269   0.000000
     3  C   -0.001247  -0.000000
     4  C    0.048829   0.000000
     5  N   -0.194671  -0.000000
     6  C    0.084490   0.000000
     7  C    0.052006   0.000000
     8  C    0.012066  -0.000000
     9  C    0.019234  -0.000000
    10  C    0.017800   0.000000
    11  C    0.040428  -0.000000
    12  C   -0.022940  -0.000000
    13  O   -0.265884  -0.000000
    14  C    0.190183   0.000000
 Electronic spatial extent (au):  <R**2>=           2818.7593
 Charge=             -0.0000 electrons
 Dipole moment (field-independent basis, Debye):
    X=              0.4274    Y=              1.4297    Z=              0.4981  Tot=              1.5731
 Quadrupole moment (field-independent basis, Debye-Ang):
   XX=            -68.6822   YY=            -75.9739   ZZ=            -84.1647
   XY=              1.4409   XZ=             -1.4685   YZ=              1.6898
 Traceless Quadrupole moment (field-independent basis, Debye-Ang):
   XX=              7.5914   YY=              0.2997   ZZ=             -7.8911
   XY=              1.4409   XZ=             -1.4685   YZ=              1.6898
 Octapole moment (field-independent basis, Debye-Ang**2):
  XXX=             12.9329  YYY=             15.1376  ZZZ=              2.0518  XYY=             -4.9110
  XXY=             -0.1341  XXZ=              0.1060  XZZ=              2.1593  YZZ=              8.7029
  YYZ=              5.7651  XYZ=             -7.8851
 Hexadecapole moment (field-independent basis, Debye-Ang**3):
 XXXX=          -2321.7518 YYYY=           -993.8985 ZZZZ=           -204.3148 XXXY=             -9.1595
 XXXZ=             12.1876 YYYX=              1.1823 YYYZ=              9.4181 ZZZX=              0.3527
 ZZZY=             -1.3749 XXYY=           -570.7634 XXZZ=           -494.8141 YYZZ=           -212.9938
 XXYZ=            -20.3264 YYXZ=            -10.0533 ZZXY=             -9.6000
 N-N= 8.200667896194D+02 E-N=-3.020161623324D+03  KE= 5.892103959136D+02
                          Isotropic Fermi Contact Couplings
        Atom                 a.u.       MegaHertz       Gauss      10(-4) cm-1
     1  C(13)              0.00000       0.00000       0.00000       0.00000
     2  C(13)             -0.00000      -0.00000      -0.00000      -0.00000
     3  C(13)             -0.00000      -0.00000      -0.00000      -0.00000
     4  C(13)             -0.00000      -0.00000      -0.00000      -0.00000
     5  N(14)             -0.00000      -0.00000      -0.00000      -0.00000
     6  C(13)              0.00000       0.00000       0.00000       0.00000
     7  C(13)              0.00000       0.00000       0.00000       0.00000
     8  C(13)             -0.00000      -0.00000      -0.00000      -0.00000
     9  C(13)             -0.00000      -0.00000      -0.00000      -0.00000
    10  C(13)              0.00000       0.00000       0.00000       0.00000
    11  C(13)             -0.00000      -0.00000      -0.00000      -0.00000
    12  C(13)             -0.00000      -0.00000      -0.00000      -0.00000
    13  O(17)             -0.00000       0.00000       0.00000       0.00000
    14  C(13)             -0.00000      -0.00000      -0.00000      -0.00000
    15  H(1)               0.00000       0.00000       0.00000       0.00000
    16  H(1)               0.00000       0.00000       0.00000       0.00000
    17  H(1)              -0.00000      -0.00000      -0.00000      -0.00000
    18  H(1)               0.00000       0.00000       0.00000       0.00000
    19  H(1)              -0.00000      -0.00000      -0.00000      -0.00000
    20  H(1)              -0.00000      -0.00000      -0.00000      -0.00000
    21  H(1)               0.00000       0.00000       0.00000       0.00000
    22  H(1)               0.00000       0.00000       0.00000       0.00000
    23  H(1)               0.00000       0.00000       0.00000       0.00000
    24  H(1)               0.00000       0.00000       0.00000       0.00000
    25  H(1)               0.00000       0.00000       0.00000       0.00000
 --------------------------------------------------------
       Center         ----  Spin Dipole Couplings  ----
                      3XX-RR        3YY-RR        3ZZ-RR
 --------------------------------------------------------
     1   Atom       -0.000000     -0.000000      0.000000
     2   Atom       -0.000000      0.000000      0.000000
     3   Atom       -0.000000      0.000000      0.000000
     4   Atom       -0.000000      0.000000      0.000000
     5   Atom        0.000000      0.000000     -0.000000
     6   Atom       -0.000000      0.000000     -0.000000
     7   Atom        0.000000     -0.000000      0.000000
     8   Atom       -0.000000      0.000000      0.000000
     9   Atom       -0.000000     -0.000000      0.000000
    10   Atom       -0.000000      0.000000      0.000000
    11   Atom       -0.000000      0.000000      0.000000
    12   Atom       -0.000000      0.000000      0.000000
    13   Atom       -0.000000     -0.000000      0.000000
    14   Atom       -0.000000      0.000000      0.000000
    15   Atom       -0.000000      0.000000      0.000000
    16   Atom        0.000000     -0.000000      0.000000
    17   Atom       -0.000000      0.000000     -0.000000
    18   Atom        0.000000     -0.000000      0.000000
    19   Atom       -0.000000     -0.000000      0.000000
    20   Atom       -0.000000     -0.000000      0.000000
    21   Atom       -0.000000      0.000000      0.000000
    22   Atom        0.000000     -0.000000      0.000000
    23   Atom        0.000000     -0.000000      0.000000
    24   Atom        0.000000     -0.000000      0.000000
    25   Atom        0.000000      0.000000     -0.000000
 --------------------------------------------------------
                        XY            XZ            YZ
 --------------------------------------------------------
     1   Atom        0.000000     -0.000000      0.000000
     2   Atom       -0.000000      0.000000      0.000000
     3   Atom       -0.000000      0.000000     -0.000000
     4   Atom        0.000000     -0.000000     -0.000000
     5   Atom        0.000000      0.000000      0.000000
     6   Atom        0.000000     -0.000000      0.000000
     7   Atom        0.000000     -0.000000     -0.000000
     8   Atom        0.000000     -0.000000     -0.000000
     9   Atom        0.000000     -0.000000      0.000000
    10   Atom       -0.000000     -0.000000      0.000000
    11   Atom       -0.000000      0.000000     -0.000000
    12   Atom        0.000000     -0.000000     -0.000000
    13   Atom        0.000000     -0.000000      0.000000
    14   Atom       -0.000000     -0.000000     -0.000000
    15   Atom       -0.000000     -0.000000      0.000000
    16   Atom       -0.000000      0.000000      0.000000
    17   Atom       -0.000000      0.000000     -0.000000
    18   Atom        0.000000     -0.000000      0.000000
    19   Atom        0.000000     -0.000000      0.000000
    20   Atom       -0.000000      0.000000     -0.000000
    21   Atom       -0.000000     -0.000000     -0.000000
    22   Atom        0.000000     -0.000000      0.000000
    23   Atom        0.000000     -0.000000      0.000000
    24   Atom        0.000000     -0.000000      0.000000
    25   Atom        0.000000      0.000000     -0.000000
 --------------------------------------------------------


 ---------------------------------------------------------------------------------
              Anisotropic Spin Dipole Couplings in Principal Axis System
 ---------------------------------------------------------------------------------

       Atom             a.u.   MegaHertz   Gauss  10(-4) cm-1        Axes

              Baa    -0.0000    -0.000    -0.000    -0.000 -0.6583  0.6962 -0.2864
     1 C(13)  Bbb     0.0000     0.000     0.000     0.000  0.4073  0.6493  0.6423
              Bcc     0.0000     0.000     0.000     0.000 -0.6331 -0.3062  0.7109
 
              Baa    -0.0000    -0.000    -0.000    -0.000  0.8861  0.4033 -0.2285
     2 C(13)  Bbb     0.0000     0.000     0.000     0.000 -0.4632  0.7888 -0.4040
              Bcc     0.0000     0.000     0.000     0.000  0.0173  0.4638  0.8857
 
              Baa    -0.0000    -0.000    -0.000    -0.000  0.8745  0.4782 -0.0816
     3 C(13)  Bbb     0.0000     0.000     0.000     0.000 -0.3505  0.7390  0.5753
              Bcc     0.0000     0.000     0.000     0.000  0.3354 -0.4745  0.8138
 
              Baa    -0.0000    -0.000    -0.000    -0.000  0.8349 -0.5499  0.0243
     4 C(13)  Bbb     0.0000     0.000     0.000     0.000  0.0580  0.1319  0.9896
              Bcc     0.0000     0.000     0.000     0.000  0.5474  0.8248 -0.1420
 
              Baa    -0.0000    -0.000    -0.000    -0.000  0.0777 -0.4023  0.9122
     5 N(14)  Bbb    -0.0000    -0.000    -0.000    -0.000 -0.5638  0.7369  0.3730
              Bcc     0.0000     0.000     0.000     0.000  0.8223  0.5432  0.1696
 
              Baa    -0.0000    -0.000    -0.000    -0.000  0.6373 -0.3558  0.6835
     6 C(13)  Bbb     0.0000     0.000     0.000     0.000 -0.1638  0.8042  0.5713
              Bcc     0.0000     0.000     0.000     0.000  0.7530  0.4760 -0.4543
 
              Baa    -0.0000    -0.000    -0.000    -0.000 -0.2839  0.9554 -0.0812
     7 C(13)  Bbb    -0.0000    -0.000    -0.000    -0.000  0.3102  0.1716  0.9350
              Bcc     0.0000     0.000     0.000     0.000  0.9073  0.2402 -0.3451
 
              Baa    -0.0000    -0.000    -0.000    -0.000  0.9808 -0.1914  0.0383
     8 C(13)  Bbb     0.0000     0.000     0.000     0.000 -0.0238  0.0777  0.9967
              Bcc     0.0000     0.000     0.000     0.000  0.1937  0.9784 -0.0716
 
              Baa    -0.0000    -0.000    -0.000    -0.000 -0.6212  0.7748 -0.1175
     9 C(13)  Bbb     0.0000     0.000     0.000     0.000  0.7826  0.6211 -0.0417
              Bcc     0.0000     0.000     0.000     0.000 -0.0407  0.1179  0.9922
 
              Baa    -0.0000    -0.000    -0.000    -0.000  0.9696  0.2446 -0.0091
    10 C(13)  Bbb     0.0000     0.000     0.000     0.000 -0.2430  0.9575 -0.1555
              Bcc     0.0000     0.000     0.000     0.000 -0.0293  0.1530  0.9878
 
              Baa    -0.0000    -0.000    -0.000    -0.000  0.9938  0.1109 -0.0028
    11 C(13)  Bbb     0.0000     0.000     0.000     0.000 -0.0160  0.1686  0.9855
              Bcc     0.0000     0.000     0.000     0.000 -0.1098  0.9794 -0.1694
 
              Baa    -0.0000    -0.000    -0.000    -0.000  0.9574 -0.2772  0.0815
    12 C(13)  Bbb     0.0000     0.000     0.000     0.000  0.1903  0.8173  0.5438
              Bcc     0.0000     0.000     0.000     0.000 -0.2173 -0.5051  0.8352
 
              Baa    -0.0000     0.000     0.000     0.000 -0.5767  0.7605 -0.2984
    13 O(17)  Bbb     0.0000    -0.000    -0.000    -0.000  0.7848  0.4143 -0.4608
              Bcc     0.0000    -0.000    -0.000    -0.000  0.2269  0.4999  0.8358
 
              Baa    -0.0000    -0.000    -0.000    -0.000  0.8287  0.4329  0.3547
    14 C(13)  Bbb     0.0000     0.000     0.000     0.000  0.0361 -0.6738  0.7381
              Bcc     0.0000     0.000     0.000     0.000 -0.5585  0.5988  0.5740
 
              Baa    -0.0000    -0.000    -0.000    -0.000  0.9711  0.2385  0.0007
    15 H(1)   Bbb     0.0000     0.000     0.000     0.000  0.1049 -0.4298  0.8968
              Bcc     0.0000     0.000     0.000     0.000 -0.2142  0.8709  0.4424
 
              Baa    -0.0000    -0.000    -0.000    -0.000  0.4321  0.7922 -0.4309
    16 H(1)   Bbb     0.0000     0.000     0.000     0.000  0.8268 -0.1573  0.5400
              Bcc     0.0000     0.000     0.000     0.000 -0.3600  0.5896  0.7230
 
              Baa    -0.0000    -0.000    -0.000    -0.000  0.9445  0.3284 -0.0130
    17 H(1)   Bbb    -0.0000    -0.000    -0.000    -0.000 -0.1108  0.3552  0.9282
              Bcc     0.0000     0.000     0.000     0.000 -0.3094  0.8752 -0.3718
 
              Baa    -0.0000    -0.000    -0.000    -0.000 -0.2049  0.8924 -0.4020
    18 H(1)   Bbb     0.0000     0.000     0.000     0.000 -0.3259  0.3251  0.8878
              Bcc     0.0000     0.000     0.000     0.000  0.9229  0.3129  0.2242
 
              Baa    -0.0000    -0.000    -0.000    -0.000 -0.5354  0.8405 -0.0827
    19 H(1)   Bbb     0.0000     0.000     0.000     0.000  0.8399  0.5402  0.0527
              Bcc     0.0000     0.000     0.000     0.000 -0.0890  0.0412  0.9952
 
              Baa    -0.0000    -0.000    -0.000    -0.000  0.9016  0.4316 -0.0274
    20 H(1)   Bbb    -0.0000    -0.000    -0.000    -0.000 -0.4305  0.9017  0.0387
              Bcc     0.0000     0.000     0.000     0.000  0.0414 -0.0231  0.9989
 
              Baa    -0.0000    -0.000    -0.000    -0.000  0.9019  0.4305  0.0337
    21 H(1)   Bbb     0.0000     0.000     0.000     0.000 -0.4253  0.8990 -0.1043
              Bcc     0.0000     0.000     0.000     0.000 -0.0752  0.0797  0.9940
 
              Baa    -0.0000    -0.000    -0.000    -0.000 -0.3321  0.9062 -0.2616
    22 H(1)   Bbb     0.0000     0.000     0.000     0.000  0.2971  0.3637  0.8829
              Bcc     0.0000     0.000     0.000     0.000  0.8952  0.2155 -0.3900
 
              Baa    -0.0000    -0.000    -0.000    -0.000 -0.3880  0.8370 -0.3857
    23 H(1)   Bbb     0.0000     0.000     0.000     0.000 -0.0324  0.4059  0.9134
              Bcc     0.0000     0.000     0.000     0.000  0.9211  0.3669 -0.1303
 
              Baa    -0.0000    -0.000    -0.000    -0.000 -0.2893  0.9497 -0.1196
    24 H(1)   Bbb     0.0000     0.000     0.000     0.000  0.4289  0.2403  0.8708
              Bcc     0.0000     0.000     0.000     0.000  0.8558  0.2006 -0.4769
 
              Baa    -0.0000    -0.000    -0.000    -0.000 -0.3811  0.6067  0.6976
    25 H(1)   Bbb     0.0000     0.000     0.000     0.000  0.9237  0.2816  0.2597
              Bcc     0.0000     0.000     0.000     0.000 -0.0389  0.7434 -0.6677
 

 ---------------------------------------------------------------------------------

 No NMR shielding tensors so no spin-rotation constants.
 Leave Link  601 at Fri Jul 24 12:51:23 2020, MaxMem=  4026531840 cpu:               2.7 elap:               0.4
 (Enter /opt/ohpc/pub/libs/gaussian/g16-A.03/sandybridge/g16/l9999.exe)

 Test job not archived.
 1\1\GINC-SKYLAKE052\FOpt\ULC-wPBE\CC-pVDZ\C12H11N1O1\RDU230\24-Jul-202
 0\0\\#P uLC-wPBE/cc-pVDZ iop(3/107=0083000000, 3/108=0083000000) opt\\
 H11 C12 N1 O1\\0,1\C,3.7131112302,-0.2943255871,-0.0253431999\C,3.0255
 294629,0.7546365991,-0.6490116572\C,1.6262708733,0.7339924753,-0.67617
 73512\C,0.9423517749,-0.3464073021,-0.0717199963\N,1.6096275421,-1.370
 4280704,0.5183526994\C,2.9505573716,-1.3305664651,0.5343125367\C,-0.54
 58817678,-0.4778415659,-0.0792545744\C,-1.1030940628,-1.7702066759,0.0
 629999554\C,-2.4840190721,-1.9858461226,0.0471906772\C,-3.3601283526,-
 0.9000211455,-0.1102312516\C,-2.8367849806,0.39197685,-0.2373849297\C,
 -1.4484441068,0.6068965147,-0.2232326766\O,-0.9968207012,1.9141038141,
 -0.3748819675\C,-0.9109076029,2.6291769693,0.8650199834\H,4.8109498511
 ,-0.3172493119,0.0225495364\H,3.5732897652,1.584923648,-1.1188784243\H
 ,1.0555117995,1.5346477329,-1.1605905989\H,3.4480920717,-2.1835267791,
 1.0271115072\H,-0.3993159362,-2.60318926,0.1935006789\H,-2.8789576859,
 -3.00659381,0.1508810082\H,-4.4481864487,-1.0575306051,-0.1348425338\H
 ,-3.4921728845,1.2657284942,-0.3626315234\H,-0.5865654733,3.6569160233
 ,0.6151634414\H,-0.1690278649,2.1650951647,1.5525474661\H,-1.898298802
 1,2.6692164151,1.3763531946\\Version=EM64L-G16RevA.03\State=1-A\HF=-59
 3.2648513\S2=0.\S2-1=0.\S2A=0.\RMSD=5.550e-09\RMSF=2.015e-06\Dipole=0.
 1810998,0.5654359,0.1747943\Quadrupole=5.6780286,0.2636432,-5.9416718,
 0.9181529,-1.1492473,1.0534416\PG=C01 [X(C12H11N1O1)]\\@


 LIFE CAN ONLY BE UNDERSTOOD BACKWARD, BUT MUST
 BE LIVED FORWARD. -- KIRKEGAARD
 Job cpu time:       0 days  5 hours 13 minutes 35.6 seconds.
 Elapsed time:       0 days  0 hours 39 minutes 25.1 seconds.
 File lengths (MBytes):  RWF=    132 Int=      0 D2E=      0 Chk=     12 Scr=      8
 Normal termination of Gaussian 16 at Fri Jul 24 12:51:23 2020.
