 Entering Gaussian System, Link 0=g16
 Input=mols_65_5_26_n-cOC-CF_opt_0.gjf
 Output=mols_65_5_26_n-cOC-CF_opt_0.log
 Initial command:
 /opt/ohpc/pub/libs/gaussian/g16-A.03/sandybridge/g16/l1.exe "/mnt/gpfs2_4m/scratch/rdu230/ondemand/projects/dihedral_energies/7trial/wtuning/redos_512cycles/mols_65_5_26_n-cOC-CF/Gau-81846.inp" -scrdir="/mnt/gpfs2_4m/scratch/rdu230/ondemand/projects/dihedral_energies/7trial/wtuning/redos_512cycles/mols_65_5_26_n-cOC-CF/"
 Entering Link 1 = /opt/ohpc/pub/libs/gaussian/g16-A.03/sandybridge/g16/l1.exe PID=     81847.
  
 Copyright (c) 1988,1990,1992,1993,1995,1998,2003,2009,2016,
            Gaussian, Inc.  All Rights Reserved.
  
 This is part of the Gaussian(R) 16 program.  It is based on
 the Gaussian(R) 09 system (copyright 2009, Gaussian, Inc.),
 the Gaussian(R) 03 system (copyright 2003, Gaussian, Inc.),
 the Gaussian(R) 98 system (copyright 1998, Gaussian, Inc.),
 the Gaussian(R) 94 system (copyright 1995, Gaussian, Inc.),
 the Gaussian 92(TM) system (copyright 1992, Gaussian, Inc.),
 the Gaussian 90(TM) system (copyright 1990, Gaussian, Inc.),
 the Gaussian 88(TM) system (copyright 1988, Gaussian, Inc.),
 the Gaussian 86(TM) system (copyright 1986, Carnegie Mellon
 University), and the Gaussian 82(TM) system (copyright 1983,
 Carnegie Mellon University). Gaussian is a federally registered
 trademark of Gaussian, Inc.
  
 This software contains proprietary and confidential information,
 including trade secrets, belonging to Gaussian, Inc.
  
 This software is provided under written license and may be
 used, copied, transmitted, or stored only in accord with that
 written license.
  
 The following legend is applicable only to US Government
 contracts under FAR:
  
                    RESTRICTED RIGHTS LEGEND
  
 Use, reproduction and disclosure by the US Government is
 subject to restrictions as set forth in subparagraphs (a)
 and (c) of the Commercial Computer Software - Restricted
 Rights clause in FAR 52.227-19.
  
 Gaussian, Inc.
 340 Quinnipiac St., Bldg. 40, Wallingford CT 06492
  
  
 ---------------------------------------------------------------
 Warning -- This program may not be used in any manner that
 competes with the business of Gaussian, Inc. or will provide
 assistance to any competitor of Gaussian, Inc.  The licensee
 of this program is prohibited from giving any competitor of
 Gaussian, Inc. access to this program.  By using this program,
 the user acknowledges that Gaussian, Inc. is engaged in the
 business of creating and licensing software in the field of
 computational chemistry and represents and warrants to the
 licensee that it is not a competitor of Gaussian, Inc. and that
 it will not use this program in any manner prohibited above.
 ---------------------------------------------------------------
  

 Cite this work as:
 Gaussian 16, Revision A.03,
 M. J. Frisch, G. W. Trucks, H. B. Schlegel, G. E. Scuseria, 
 M. A. Robb, J. R. Cheeseman, G. Scalmani, V. Barone, 
 G. A. Petersson, H. Nakatsuji, X. Li, M. Caricato, A. V. Marenich, 
 J. Bloino, B. G. Janesko, R. Gomperts, B. Mennucci, H. P. Hratchian, 
 J. V. Ortiz, A. F. Izmaylov, J. L. Sonnenberg, D. Williams-Young, 
 F. Ding, F. Lipparini, F. Egidi, J. Goings, B. Peng, A. Petrone, 
 T. Henderson, D. Ranasinghe, V. G. Zakrzewski, J. Gao, N. Rega, 
 G. Zheng, W. Liang, M. Hada, M. Ehara, K. Toyota, R. Fukuda, 
 J. Hasegawa, M. Ishida, T. Nakajima, Y. Honda, O. Kitao, H. Nakai, 
 T. Vreven, K. Throssell, J. A. Montgomery, Jr., J. E. Peralta, 
 F. Ogliaro, M. J. Bearpark, J. J. Heyd, E. N. Brothers, K. N. Kudin, 
 V. N. Staroverov, T. A. Keith, R. Kobayashi, J. Normand, 
 K. Raghavachari, A. P. Rendell, J. C. Burant, S. S. Iyengar, 
 J. Tomasi, M. Cossi, J. M. Millam, M. Klene, C. Adamo, R. Cammi, 
 J. W. Ochterski, R. L. Martin, K. Morokuma, O. Farkas, 
 J. B. Foresman, and D. J. Fox, Gaussian, Inc., Wallingford CT, 2016.
 
 ******************************************
 Gaussian 16:  EM64L-G16RevA.03 25-Dec-2016
                26-Jul-2020 
 ******************************************
 %mem=30GB
 %nproc=8
 Will use up to    8 processors via shared memory.
 ---------------------------------------------------------------
 #P uLC-wPBE/cc-pVDZ iop(3/107=0098400000, 3/108=0098400000) opt
 ---------------------------------------------------------------
 1/18=20,19=15,26=3,38=1/1,3;
 2/9=110,12=2,17=6,18=5,40=1/2;
 3/5=16,11=2,25=1,30=1,71=1,74=-41,107=98400000,108=98400000,116=2/1,2,3;
 4//1;
 5/5=2,38=5/2;
 6/7=2,8=2,9=2,10=2,28=1/1;
 7//1,2,3,16;
 1/18=20,19=15,26=3/3(2);
 2/9=110/2;
 99//99;
 2/9=110/2;
 3/5=16,11=2,25=1,30=1,71=1,74=-41,107=98400000,108=98400000,116=2/1,2,3;
 4/5=5,16=3,69=1/1;
 5/5=2,38=5/2;
 7//1,2,3,16;
 1/18=20,19=15,26=3/3(-5);
 2/9=110/2;
 6/7=2,8=2,9=2,10=2,19=2,28=1/1;
 99/9=1/99;
 Leave Link    1 at Sun Jul 26 12:21:38 2020, MaxMem=  4026531840 cpu:               2.6 elap:               0.4
 (Enter /opt/ohpc/pub/libs/gaussian/g16-A.03/sandybridge/g16/l101.exe)
 -------------------
 H32 C50 S5 N5 O5 F5
 -------------------
 Symbolic Z-matrix:
 Charge =  0 Multiplicity = 1
 C                     18.83108  -1.66779  -0.85387 
 C                     18.37648  -0.6586   -1.68742 
 N                     17.19976  -0.00733  -1.5482 
 C                     16.35849  -0.47542  -0.51789 
 C                     16.72485  -1.50868   0.37893 
 O                     15.85009  -1.83545   1.38526 
 C                     16.27126  -2.85338   2.2754 
 C                     17.99037  -2.0213    0.16601 
 C                     15.09687   0.27716  -0.33759 
 C                     14.89187   1.61949  -0.18632 
 F                     15.93477   2.47505  -0.02356 
 C                     13.61827   2.04639  -0.15813 
 C                     12.70788   0.93599  -0.23444 
 S                     13.59839  -0.4784   -0.57321 
 C                     11.27674   0.93304  -0.21108 
 C                     10.55366   1.91312  -0.91266 
 N                     9.15705   2.01047  -0.95119 
 C                     8.49551   1.1061   -0.19228 
 C                     9.15768   0.05295   0.58285 
 O                     8.41813  -0.84075   1.27054 
 C                     8.99762  -2.06681   1.58409 
 C                     10.50229   0.02145   0.50466 
 C                     7.03928   1.24214  -0.1478 
 C                     6.38228   2.43714   0.19395 
 F                     7.00421   3.58617   0.4989 
 C                     4.95801   2.30231   0.15532 
 C                     4.55986   0.99684  -0.22893 
 S                     5.90636   0.08252  -0.52627 
 C                     3.16368   0.48712  -0.28601 
 C                     2.17139   1.20254  -0.90024 
 N                     0.89624   0.77137  -0.90677 
 C                     0.56062  -0.33963  -0.34289 
 C                     1.55213  -1.2452    0.22825 
 O                     1.17163  -2.3886    0.8044 
 C                     2.07237  -3.41471   0.98242 
 C                     2.89503  -0.75027   0.34398 
 C                    -0.79188  -0.76659  -0.4411 
 C                    -1.38283  -1.84893  -0.90652 
 F                    -0.78863  -2.87967  -1.48013 
 C                    -2.80265  -1.8239   -0.87834 
 C                    -3.3673   -0.6845   -0.32655 
 S                    -2.06621   0.32001   0.16041 
 C                    -4.73616  -0.25161  -0.10031 
 C                    -5.62243  -1.15976   0.35744 
 N                    -6.9617   -0.924     0.59091 
 C                    -7.32467   0.45602   0.37382 
 C                    -6.48975   1.45594  -0.00387 
 O                    -6.93332   2.66532  -0.19279 
 C                    -5.98761   3.76919  -0.19777 
 C                    -5.12072   1.00881  -0.27018 
 C                    -8.77516   0.71143   0.63892 
 C                    -9.26876   1.62424   1.51291 
 F                    -8.62159   2.53207   2.20133 
 C                    -10.68203   1.61665   1.5292 
 C                    -11.22468   0.63326   0.73906 
 S                    -10.01352  -0.20731  -0.04117 
 C                    -12.70261   0.34133   0.44112 
 C                    -13.60187   1.35076   0.14783 
 N                    -14.84628   1.19778  -0.17439 
 C                    -15.29061  -0.13056  -0.09729 
 C                    -14.49019  -1.24055   0.18888 
 O                    -15.03817  -2.46128   0.28556 
 C                    -14.26541  -3.49483  -0.40495 
 C                    -13.13378  -0.98804   0.48052 
 C                    -16.74001  -0.27618  -0.41382 
 C                    -17.83958   0.18801   0.31728 
 F                    -17.79759   0.87282   1.46002 
 C                    -19.08518  -0.03112  -0.36478 
 C                    -18.93764  -0.73336  -1.57898 
 S                    -17.25618  -0.94869  -1.93745 
 H                     19.75486  -2.08411  -1.01944 
 H                     18.89883  -0.25136  -2.54579 
 H                     15.42333  -3.019     2.94433 
 H                     16.43437  -3.83241   1.6716 
 H                     17.15999  -2.63913   2.77656 
 H                     18.38953  -2.82361   0.77747 
 H                     13.23526   3.00449   0.0233 
 H                     10.99348   2.60264  -1.55574 
 H                     8.13101  -2.72887   1.98957 
 H                     9.42283  -2.58364   0.67552 
 H                     9.64679  -2.01431   2.36469 
 H                     11.05701  -0.70564   1.06654 
 H                     4.23062   3.11772   0.34257 
 H                     2.33748   2.21604  -1.31145 
 H                     1.60189  -4.28796   1.19813 
 H                     2.74911  -3.20986   1.89427 
 H                     2.69539  -3.56174   0.11957 
 H                     3.60809  -1.32302   0.76395 
 H                    -3.49267  -2.61762  -1.26053 
 H                    -5.37378  -2.24809   0.54739 
 H                    -5.41313   3.75953  -1.08654 
 H                    -5.33937   3.66323   0.67363 
 H                    -6.58857   4.69634  -0.12957 
 H                    -4.44319   1.83079  -0.64119 
 H                    -11.36318   2.29854   2.14256 
 H                    -13.22626   2.39694   0.1243 
 H                    -13.50407  -3.76558   0.19671 
 H                    -13.94131  -3.10377  -1.44033 
 H                    -14.92548  -4.30423  -0.52883 
 H                    -12.50551  -1.78507   0.7792 
 H                    -20.04518   0.19387   0.11021 
 H                    -19.63288  -1.07644  -2.1938 
 
 ITRead=  0  0  0  0  0  0  0  0  0  0  0  0  0  0  0  0  0  0  0  0
 ITRead=  0  0  0  0  0  0  0  0  0  0  0  0  0  0  0  0  0  0  0  0
 ITRead=  0  0  0  0  0  0  0  0  0  0  0  0  0  0  0  0  0  0  0  0
 ITRead=  0  0  0  0  0  0  0  0  0  0  0  0  0  0  0  0  0  0  0  0
 ITRead=  0  0  0  0  0  0  0  0  0  0  0  0  0  0  0  0  0  0  0  0
 ITRead=  0  0
 MicOpt= -1 -1 -1 -1 -1 -1 -1 -1 -1 -1 -1 -1 -1 -1 -1 -1 -1 -1 -1 -1
 MicOpt= -1 -1 -1 -1 -1 -1 -1 -1 -1 -1 -1 -1 -1 -1 -1 -1 -1 -1 -1 -1
 MicOpt= -1 -1 -1 -1 -1 -1 -1 -1 -1 -1 -1 -1 -1 -1 -1 -1 -1 -1 -1 -1
 MicOpt= -1 -1 -1 -1 -1 -1 -1 -1 -1 -1 -1 -1 -1 -1 -1 -1 -1 -1 -1 -1
 MicOpt= -1 -1 -1 -1 -1 -1 -1 -1 -1 -1 -1 -1 -1 -1 -1 -1 -1 -1 -1 -1
 MicOpt= -1 -1
 NAtoms=    102 NQM=      102 NQMF=       0 NMMI=      0 NMMIF=      0
                NMic=       0 NMicF=      0.
                    Isotopes and Nuclear Properties:
 (Nuclear quadrupole moments (NQMom) in fm**2, nuclear magnetic moments (NMagM)
  in nuclear magnetons)

  Atom         1           2           3           4           5           6           7           8           9          10
 IAtWgt=          12          12          14          12          12          16          12          12          12          12
 AtmWgt=  12.0000000  12.0000000  14.0030740  12.0000000  12.0000000  15.9949146  12.0000000  12.0000000  12.0000000  12.0000000
 NucSpn=           0           0           2           0           0           0           0           0           0           0
 AtZEff=  -0.0000000  -0.0000000  -0.0000000  -0.0000000  -0.0000000  -0.0000000  -0.0000000  -0.0000000  -0.0000000  -0.0000000
 NQMom=    0.0000000   0.0000000   2.0440000   0.0000000   0.0000000   0.0000000   0.0000000   0.0000000   0.0000000   0.0000000
 NMagM=    0.0000000   0.0000000   0.4037610   0.0000000   0.0000000   0.0000000   0.0000000   0.0000000   0.0000000   0.0000000
 AtZNuc=   6.0000000   6.0000000   7.0000000   6.0000000   6.0000000   8.0000000   6.0000000   6.0000000   6.0000000   6.0000000

  Atom        11          12          13          14          15          16          17          18          19          20
 IAtWgt=          19          12          12          32          12          12          14          12          12          16
 AtmWgt=  18.9984033  12.0000000  12.0000000  31.9720718  12.0000000  12.0000000  14.0030740  12.0000000  12.0000000  15.9949146
 NucSpn=           1           0           0           0           0           0           2           0           0           0
 AtZEff=  -0.0000000  -0.0000000  -0.0000000  -0.0000000  -0.0000000  -0.0000000  -0.0000000  -0.0000000  -0.0000000  -0.0000000
 NQMom=    0.0000000   0.0000000   0.0000000   0.0000000   0.0000000   0.0000000   2.0440000   0.0000000   0.0000000   0.0000000
 NMagM=    2.6288670   0.0000000   0.0000000   0.0000000   0.0000000   0.0000000   0.4037610   0.0000000   0.0000000   0.0000000
 AtZNuc=   9.0000000   6.0000000   6.0000000  16.0000000   6.0000000   6.0000000   7.0000000   6.0000000   6.0000000   8.0000000

  Atom        21          22          23          24          25          26          27          28          29          30
 IAtWgt=          12          12          12          12          19          12          12          32          12          12
 AtmWgt=  12.0000000  12.0000000  12.0000000  12.0000000  18.9984033  12.0000000  12.0000000  31.9720718  12.0000000  12.0000000
 NucSpn=           0           0           0           0           1           0           0           0           0           0
 AtZEff=  -0.0000000  -0.0000000  -0.0000000  -0.0000000  -0.0000000  -0.0000000  -0.0000000  -0.0000000  -0.0000000  -0.0000000
 NQMom=    0.0000000   0.0000000   0.0000000   0.0000000   0.0000000   0.0000000   0.0000000   0.0000000   0.0000000   0.0000000
 NMagM=    0.0000000   0.0000000   0.0000000   0.0000000   2.6288670   0.0000000   0.0000000   0.0000000   0.0000000   0.0000000
 AtZNuc=   6.0000000   6.0000000   6.0000000   6.0000000   9.0000000   6.0000000   6.0000000  16.0000000   6.0000000   6.0000000

  Atom        31          32          33          34          35          36          37          38          39          40
 IAtWgt=          14          12          12          16          12          12          12          12          19          12
 AtmWgt=  14.0030740  12.0000000  12.0000000  15.9949146  12.0000000  12.0000000  12.0000000  12.0000000  18.9984033  12.0000000
 NucSpn=           2           0           0           0           0           0           0           0           1           0
 AtZEff=  -0.0000000  -0.0000000  -0.0000000  -0.0000000  -0.0000000  -0.0000000  -0.0000000  -0.0000000  -0.0000000  -0.0000000
 NQMom=    2.0440000   0.0000000   0.0000000   0.0000000   0.0000000   0.0000000   0.0000000   0.0000000   0.0000000   0.0000000
 NMagM=    0.4037610   0.0000000   0.0000000   0.0000000   0.0000000   0.0000000   0.0000000   0.0000000   2.6288670   0.0000000
 AtZNuc=   7.0000000   6.0000000   6.0000000   8.0000000   6.0000000   6.0000000   6.0000000   6.0000000   9.0000000   6.0000000

  Atom        41          42          43          44          45          46          47          48          49          50
 IAtWgt=          12          32          12          12          14          12          12          16          12          12
 AtmWgt=  12.0000000  31.9720718  12.0000000  12.0000000  14.0030740  12.0000000  12.0000000  15.9949146  12.0000000  12.0000000
 NucSpn=           0           0           0           0           2           0           0           0           0           0
 AtZEff=  -0.0000000  -0.0000000  -0.0000000  -0.0000000  -0.0000000  -0.0000000  -0.0000000  -0.0000000  -0.0000000  -0.0000000
 NQMom=    0.0000000   0.0000000   0.0000000   0.0000000   2.0440000   0.0000000   0.0000000   0.0000000   0.0000000   0.0000000
 NMagM=    0.0000000   0.0000000   0.0000000   0.0000000   0.4037610   0.0000000   0.0000000   0.0000000   0.0000000   0.0000000
 AtZNuc=   6.0000000  16.0000000   6.0000000   6.0000000   7.0000000   6.0000000   6.0000000   8.0000000   6.0000000   6.0000000

  Atom        51          52          53          54          55          56          57          58          59          60
 IAtWgt=          12          12          19          12          12          32          12          12          14          12
 AtmWgt=  12.0000000  12.0000000  18.9984033  12.0000000  12.0000000  31.9720718  12.0000000  12.0000000  14.0030740  12.0000000
 NucSpn=           0           0           1           0           0           0           0           0           2           0
 AtZEff=  -0.0000000  -0.0000000  -0.0000000  -0.0000000  -0.0000000  -0.0000000  -0.0000000  -0.0000000  -0.0000000  -0.0000000
 NQMom=    0.0000000   0.0000000   0.0000000   0.0000000   0.0000000   0.0000000   0.0000000   0.0000000   2.0440000   0.0000000
 NMagM=    0.0000000   0.0000000   2.6288670   0.0000000   0.0000000   0.0000000   0.0000000   0.0000000   0.4037610   0.0000000
 AtZNuc=   6.0000000   6.0000000   9.0000000   6.0000000   6.0000000  16.0000000   6.0000000   6.0000000   7.0000000   6.0000000

  Atom        61          62          63          64          65          66          67          68          69          70
 IAtWgt=          12          16          12          12          12          12          19          12          12          32
 AtmWgt=  12.0000000  15.9949146  12.0000000  12.0000000  12.0000000  12.0000000  18.9984033  12.0000000  12.0000000  31.9720718
 NucSpn=           0           0           0           0           0           0           1           0           0           0
 AtZEff=  -0.0000000  -0.0000000  -0.0000000  -0.0000000  -0.0000000  -0.0000000  -0.0000000  -0.0000000  -0.0000000  -0.0000000
 NQMom=    0.0000000   0.0000000   0.0000000   0.0000000   0.0000000   0.0000000   0.0000000   0.0000000   0.0000000   0.0000000
 NMagM=    0.0000000   0.0000000   0.0000000   0.0000000   0.0000000   0.0000000   2.6288670   0.0000000   0.0000000   0.0000000
 AtZNuc=   6.0000000   8.0000000   6.0000000   6.0000000   6.0000000   6.0000000   9.0000000   6.0000000   6.0000000  16.0000000

  Atom        71          72          73          74          75          76          77          78          79          80
 IAtWgt=           1           1           1           1           1           1           1           1           1           1
 AtmWgt=   1.0078250   1.0078250   1.0078250   1.0078250   1.0078250   1.0078250   1.0078250   1.0078250   1.0078250   1.0078250
 NucSpn=           1           1           1           1           1           1           1           1           1           1
 AtZEff=  -0.0000000  -0.0000000  -0.0000000  -0.0000000  -0.0000000  -0.0000000  -0.0000000  -0.0000000  -0.0000000  -0.0000000
 NQMom=    0.0000000   0.0000000   0.0000000   0.0000000   0.0000000   0.0000000   0.0000000   0.0000000   0.0000000   0.0000000
 NMagM=    2.7928460   2.7928460   2.7928460   2.7928460   2.7928460   2.7928460   2.7928460   2.7928460   2.7928460   2.7928460
 AtZNuc=   1.0000000   1.0000000   1.0000000   1.0000000   1.0000000   1.0000000   1.0000000   1.0000000   1.0000000   1.0000000

  Atom        81          82          83          84          85          86          87          88          89          90
 IAtWgt=           1           1           1           1           1           1           1           1           1           1
 AtmWgt=   1.0078250   1.0078250   1.0078250   1.0078250   1.0078250   1.0078250   1.0078250   1.0078250   1.0078250   1.0078250
 NucSpn=           1           1           1           1           1           1           1           1           1           1
 AtZEff=  -0.0000000  -0.0000000  -0.0000000  -0.0000000  -0.0000000  -0.0000000  -0.0000000  -0.0000000  -0.0000000  -0.0000000
 NQMom=    0.0000000   0.0000000   0.0000000   0.0000000   0.0000000   0.0000000   0.0000000   0.0000000   0.0000000   0.0000000
 NMagM=    2.7928460   2.7928460   2.7928460   2.7928460   2.7928460   2.7928460   2.7928460   2.7928460   2.7928460   2.7928460
 AtZNuc=   1.0000000   1.0000000   1.0000000   1.0000000   1.0000000   1.0000000   1.0000000   1.0000000   1.0000000   1.0000000

  Atom        91          92          93          94          95          96          97          98          99         100
 IAtWgt=           1           1           1           1           1           1           1           1           1           1
 AtmWgt=   1.0078250   1.0078250   1.0078250   1.0078250   1.0078250   1.0078250   1.0078250   1.0078250   1.0078250   1.0078250
 NucSpn=           1           1           1           1           1           1           1           1           1           1
 AtZEff=  -0.0000000  -0.0000000  -0.0000000  -0.0000000  -0.0000000  -0.0000000  -0.0000000  -0.0000000  -0.0000000  -0.0000000
 NQMom=    0.0000000   0.0000000   0.0000000   0.0000000   0.0000000   0.0000000   0.0000000   0.0000000   0.0000000   0.0000000
 NMagM=    2.7928460   2.7928460   2.7928460   2.7928460   2.7928460   2.7928460   2.7928460   2.7928460   2.7928460   2.7928460
 AtZNuc=   1.0000000   1.0000000   1.0000000   1.0000000   1.0000000   1.0000000   1.0000000   1.0000000   1.0000000   1.0000000

  Atom       101         102
 IAtWgt=           1           1
 AtmWgt=   1.0078250   1.0078250
 NucSpn=           1           1
 AtZEff=  -0.0000000  -0.0000000
 NQMom=    0.0000000   0.0000000
 NMagM=    2.7928460   2.7928460
 AtZNuc=   1.0000000   1.0000000
 Leave Link  101 at Sun Jul 26 12:21:38 2020, MaxMem=  4026531840 cpu:               3.0 elap:               0.4
 (Enter /opt/ohpc/pub/libs/gaussian/g16-A.03/sandybridge/g16/l103.exe)

 GradGradGradGradGradGradGradGradGradGradGradGradGradGradGradGradGradGrad
 Berny optimization.
 Initialization pass.
                           ----------------------------
                           !    Initial Parameters    !
                           ! (Angstroms and Degrees)  !
 --------------------------                            --------------------------
 ! Name  Definition              Value          Derivative Info.                !
 --------------------------------------------------------------------------------
 ! R1    R(1,2)                  1.3856         estimate D2E/DX2                !
 ! R2    R(1,8)                  1.3682         estimate D2E/DX2                !
 ! R3    R(1,71)                 1.0267         estimate D2E/DX2                !
 ! R4    R(2,3)                  1.3521         estimate D2E/DX2                !
 ! R5    R(2,72)                 1.0842         estimate D2E/DX2                !
 ! R6    R(3,4)                  1.4101         estimate D2E/DX2                !
 ! R7    R(4,5)                  1.4164         estimate D2E/DX2                !
 ! R8    R(4,9)                  1.4801         estimate D2E/DX2                !
 ! R9    R(5,6)                  1.3728         estimate D2E/DX2                !
 ! R10   R(5,8)                  1.3819         estimate D2E/DX2                !
 ! R11   R(6,7)                  1.4163         estimate D2E/DX2                !
 ! R12   R(7,73)                 1.0926         estimate D2E/DX2                !
 ! R13   R(7,74)                 1.1618         estimate D2E/DX2                !
 ! R14   R(7,75)                 1.0426         estimate D2E/DX2                !
 ! R15   R(8,76)                 1.0849         estimate D2E/DX2                !
 ! R16   R(9,10)                 1.3663         estimate D2E/DX2                !
 ! R17   R(9,14)                 1.6946         estimate D2E/DX2                !
 ! R18   R(10,11)                1.3587         estimate D2E/DX2                !
 ! R19   R(10,12)                1.3435         estimate D2E/DX2                !
 ! R20   R(12,13)                1.4379         estimate D2E/DX2                !
 ! R21   R(12,77)                1.0477         estimate D2E/DX2                !
 ! R22   R(13,14)                1.7054         estimate D2E/DX2                !
 ! R23   R(13,15)                1.4313         estimate D2E/DX2                !
 ! R24   R(15,16)                1.4056         estimate D2E/DX2                !
 ! R25   R(15,22)                1.3939         estimate D2E/DX2                !
 ! R26   R(16,17)                1.4005         estimate D2E/DX2                !
 ! R27   R(16,78)                1.0404         estimate D2E/DX2                !
 ! R28   R(17,18)                1.3533         estimate D2E/DX2                !
 ! R29   R(18,19)                1.4657         estimate D2E/DX2                !
 ! R30   R(18,23)                1.4632         estimate D2E/DX2                !
 ! R31   R(19,20)                1.3485         estimate D2E/DX2                !
 ! R32   R(19,22)                1.3472         estimate D2E/DX2                !
 ! R33   R(20,21)                1.3919         estimate D2E/DX2                !
 ! R34   R(21,79)                1.1635         estimate D2E/DX2                !
 ! R35   R(21,80)                1.1285         estimate D2E/DX2                !
 ! R36   R(21,81)                1.0166         estimate D2E/DX2                !
 ! R37   R(22,82)                1.0733         estimate D2E/DX2                !
 ! R38   R(23,24)                1.4059         estimate D2E/DX2                !
 ! R39   R(23,28)                1.6648         estimate D2E/DX2                !
 ! R40   R(24,25)                1.3417         estimate D2E/DX2                !
 ! R41   R(24,26)                1.4312         estimate D2E/DX2                !
 ! R42   R(26,27)                1.4179         estimate D2E/DX2                !
 ! R43   R(26,83)                1.1086         estimate D2E/DX2                !
 ! R44   R(27,28)                1.6545         estimate D2E/DX2                !
 ! R45   R(27,29)                1.4874         estimate D2E/DX2                !
 ! R46   R(29,30)                1.3688         estimate D2E/DX2                !
 ! R47   R(29,36)                1.4143         estimate D2E/DX2                !
 ! R48   R(30,31)                1.3461         estimate D2E/DX2                !
 ! R49   R(30,84)                1.1063         estimate D2E/DX2                !
 ! R50   R(31,32)                1.2903         estimate D2E/DX2                !
 ! R51   R(32,33)                1.4592         estimate D2E/DX2                !
 ! R52   R(32,37)                1.4217         estimate D2E/DX2                !
 ! R53   R(33,34)                1.3357         estimate D2E/DX2                !
 ! R54   R(33,36)                1.4359         estimate D2E/DX2                !
 ! R55   R(34,35)                1.3769         estimate D2E/DX2                !
 ! R56   R(35,85)                1.0151         estimate D2E/DX2                !
 ! R57   R(35,86)                1.1539         estimate D2E/DX2                !
 ! R58   R(35,87)                1.0744         estimate D2E/DX2                !
 ! R59   R(36,88)                1.0064         estimate D2E/DX2                !
 ! R60   R(37,38)                1.3181         estimate D2E/DX2                !
 ! R61   R(37,42)                1.7794         estimate D2E/DX2                !
 ! R62   R(38,39)                1.3208         estimate D2E/DX2                !
 ! R63   R(38,40)                1.4203         estimate D2E/DX2                !
 ! R64   R(40,41)                1.3862         estimate D2E/DX2                !
 ! R65   R(40,89)                1.119          estimate D2E/DX2                !
 ! R66   R(41,42)                1.7144         estimate D2E/DX2                !
 ! R67   R(41,43)                1.4534         estimate D2E/DX2                !
 ! R68   R(43,44)                1.349          estimate D2E/DX2                !
 ! R69   R(43,50)                1.3287         estimate D2E/DX2                !
 ! R70   R(44,45)                1.3798         estimate D2E/DX2                !
 ! R71   R(44,90)                1.1324         estimate D2E/DX2                !
 ! R72   R(45,46)                1.4434         estimate D2E/DX2                !
 ! R73   R(46,47)                1.3563         estimate D2E/DX2                !
 ! R74   R(46,51)                1.4965         estimate D2E/DX2                !
 ! R75   R(47,48)                1.3019         estimate D2E/DX2                !
 ! R76   R(47,50)                1.4646         estimate D2E/DX2                !
 ! R77   R(48,49)                1.4536         estimate D2E/DX2                !
 ! R78   R(49,91)                1.0583         estimate D2E/DX2                !
 ! R79   R(49,92)                1.0912         estimate D2E/DX2                !
 ! R80   R(49,93)                1.107          estimate D2E/DX2                !
 ! R81   R(50,94)                1.128          estimate D2E/DX2                !
 ! R82   R(51,52)                1.3567         estimate D2E/DX2                !
 ! R83   R(51,56)                1.6853         estimate D2E/DX2                !
 ! R84   R(52,53)                1.3103         estimate D2E/DX2                !
 ! R85   R(52,54)                1.4134         estimate D2E/DX2                !
 ! R86   R(54,55)                1.3733         estimate D2E/DX2                !
 ! R87   R(54,95)                1.1424         estimate D2E/DX2                !
 ! R88   R(55,56)                1.668          estimate D2E/DX2                !
 ! R89   R(55,57)                1.5357         estimate D2E/DX2                !
 ! R90   R(57,58)                1.3833         estimate D2E/DX2                !
 ! R91   R(57,64)                1.3981         estimate D2E/DX2                !
 ! R92   R(58,59)                1.2945         estimate D2E/DX2                !
 ! R93   R(58,96)                1.1118         estimate D2E/DX2                !
 ! R94   R(59,60)                1.4028         estimate D2E/DX2                !
 ! R95   R(60,61)                1.3981         estimate D2E/DX2                !
 ! R96   R(60,65)                1.4907         estimate D2E/DX2                !
 ! R97   R(61,62)                1.3416         estimate D2E/DX2                !
 ! R98   R(61,64)                1.4102         estimate D2E/DX2                !
 ! R99   R(62,63)                1.4636         estimate D2E/DX2                !
 ! R100  R(63,97)                1.0074         estimate D2E/DX2                !
 ! R101  R(63,98)                1.1532         estimate D2E/DX2                !
 ! R102  R(63,99)                1.0517         estimate D2E/DX2                !
 ! R103  R(64,100)               1.0579         estimate D2E/DX2                !
 ! R104  R(65,66)                1.3997         estimate D2E/DX2                !
 ! R105  R(65,70)                1.7436         estimate D2E/DX2                !
 ! R106  R(66,67)                1.3329         estimate D2E/DX2                !
 ! R107  R(66,68)                1.4369         estimate D2E/DX2                !
 ! R108  R(68,69)                1.4104         estimate D2E/DX2                !
 ! R109  R(68,101)               1.0945         estimate D2E/DX2                !
 ! R110  R(69,70)                1.7327         estimate D2E/DX2                !
 ! R111  R(69,102)               0.9895         estimate D2E/DX2                !
 ! A1    A(2,1,8)              115.7865         estimate D2E/DX2                !
 ! A2    A(2,1,71)             119.5725         estimate D2E/DX2                !
 ! A3    A(8,1,71)             124.6326         estimate D2E/DX2                !
 ! A4    A(1,2,3)              125.0579         estimate D2E/DX2                !
 ! A5    A(1,2,72)             126.2833         estimate D2E/DX2                !
 ! A6    A(3,2,72)             108.6556         estimate D2E/DX2                !
 ! A7    A(2,3,4)              115.7567         estimate D2E/DX2                !
 ! A8    A(3,4,5)              123.4004         estimate D2E/DX2                !
 ! A9    A(3,4,9)              115.3892         estimate D2E/DX2                !
 ! A10   A(5,4,9)              120.9503         estimate D2E/DX2                !
 ! A11   A(4,5,6)              118.2263         estimate D2E/DX2                !
 ! A12   A(4,5,8)              114.2006         estimate D2E/DX2                !
 ! A13   A(6,5,8)              127.458          estimate D2E/DX2                !
 ! A14   A(5,6,7)              116.2502         estimate D2E/DX2                !
 ! A15   A(6,7,73)             105.245          estimate D2E/DX2                !
 ! A16   A(6,7,74)             108.7104         estimate D2E/DX2                !
 ! A17   A(6,7,75)             114.0739         estimate D2E/DX2                !
 ! A18   A(73,7,74)            107.4219         estimate D2E/DX2                !
 ! A19   A(73,7,75)            113.4776         estimate D2E/DX2                !
 ! A20   A(74,7,75)            107.6578         estimate D2E/DX2                !
 ! A21   A(1,8,5)              125.5721         estimate D2E/DX2                !
 ! A22   A(1,8,76)             112.6529         estimate D2E/DX2                !
 ! A23   A(5,8,76)             121.6311         estimate D2E/DX2                !
 ! A24   A(4,9,10)             129.8623         estimate D2E/DX2                !
 ! A25   A(4,9,14)             120.6703         estimate D2E/DX2                !
 ! A26   A(10,9,14)            108.7085         estimate D2E/DX2                !
 ! A27   A(9,10,11)            121.1138         estimate D2E/DX2                !
 ! A28   A(9,10,12)            117.1759         estimate D2E/DX2                !
 ! A29   A(11,10,12)           121.669          estimate D2E/DX2                !
 ! A30   A(10,12,13)           110.7128         estimate D2E/DX2                !
 ! A31   A(10,12,77)           129.85           estimate D2E/DX2                !
 ! A32   A(13,12,77)           118.9432         estimate D2E/DX2                !
 ! A33   A(12,13,14)           108.6871         estimate D2E/DX2                !
 ! A34   A(12,13,15)           129.3285         estimate D2E/DX2                !
 ! A35   A(14,13,15)           121.5771         estimate D2E/DX2                !
 ! A36   A(9,14,13)             93.6889         estimate D2E/DX2                !
 ! A37   A(13,15,16)           120.3173         estimate D2E/DX2                !
 ! A38   A(13,15,22)           124.4187         estimate D2E/DX2                !
 ! A39   A(16,15,22)           115.2445         estimate D2E/DX2                !
 ! A40   A(15,16,17)           125.1134         estimate D2E/DX2                !
 ! A41   A(15,16,78)           123.585          estimate D2E/DX2                !
 ! A42   A(17,16,78)           111.0074         estimate D2E/DX2                !
 ! A43   A(16,17,18)           115.1874         estimate D2E/DX2                !
 ! A44   A(17,18,19)           123.771          estimate D2E/DX2                !
 ! A45   A(17,18,23)           116.1928         estimate D2E/DX2                !
 ! A46   A(19,18,23)           120.0215         estimate D2E/DX2                !
 ! A47   A(18,19,20)           119.8739         estimate D2E/DX2                !
 ! A48   A(18,19,22)           115.9117         estimate D2E/DX2                !
 ! A49   A(20,19,22)           124.1552         estimate D2E/DX2                !
 ! A50   A(19,20,21)           118.0552         estimate D2E/DX2                !
 ! A51   A(20,21,79)           105.6435         estimate D2E/DX2                !
 ! A52   A(20,21,80)           112.2679         estimate D2E/DX2                !
 ! A53   A(20,21,81)           113.1627         estimate D2E/DX2                !
 ! A54   A(79,21,80)           107.4955         estimate D2E/DX2                !
 ! A55   A(79,21,81)           103.7329         estimate D2E/DX2                !
 ! A56   A(80,21,81)           113.6566         estimate D2E/DX2                !
 ! A57   A(15,22,19)           124.681          estimate D2E/DX2                !
 ! A58   A(15,22,82)           115.1287         estimate D2E/DX2                !
 ! A59   A(19,22,82)           120.0834         estimate D2E/DX2                !
 ! A60   A(18,23,24)           123.4706         estimate D2E/DX2                !
 ! A61   A(18,23,28)           127.271          estimate D2E/DX2                !
 ! A62   A(24,23,28)           109.2275         estimate D2E/DX2                !
 ! A63   A(23,24,25)           124.5124         estimate D2E/DX2                !
 ! A64   A(23,24,26)           112.2372         estimate D2E/DX2                !
 ! A65   A(25,24,26)           123.2393         estimate D2E/DX2                !
 ! A66   A(24,26,27)           111.932          estimate D2E/DX2                !
 ! A67   A(24,26,83)           125.3879         estimate D2E/DX2                !
 ! A68   A(27,26,83)           122.597          estimate D2E/DX2                !
 ! A69   A(26,27,28)           109.2066         estimate D2E/DX2                !
 ! A70   A(26,27,29)           126.1216         estimate D2E/DX2                !
 ! A71   A(28,27,29)           124.5857         estimate D2E/DX2                !
 ! A72   A(23,28,27)            97.3563         estimate D2E/DX2                !
 ! A73   A(27,29,30)           121.2354         estimate D2E/DX2                !
 ! A74   A(27,29,36)           117.4544         estimate D2E/DX2                !
 ! A75   A(30,29,36)           121.2958         estimate D2E/DX2                !
 ! A76   A(29,30,31)           121.431          estimate D2E/DX2                !
 ! A77   A(29,30,84)           122.4642         estimate D2E/DX2                !
 ! A78   A(31,30,84)           115.7131         estimate D2E/DX2                !
 ! A79   A(30,31,32)           121.3373         estimate D2E/DX2                !
 ! A80   A(31,32,33)           121.9139         estimate D2E/DX2                !
 ! A81   A(31,32,37)           118.4144         estimate D2E/DX2                !
 ! A82   A(33,32,37)           119.1484         estimate D2E/DX2                !
 ! A83   A(32,33,34)           120.431          estimate D2E/DX2                !
 ! A84   A(32,33,36)           116.944          estimate D2E/DX2                !
 ! A85   A(34,33,36)           121.7845         estimate D2E/DX2                !
 ! A86   A(33,34,35)           120.4875         estimate D2E/DX2                !
 ! A87   A(34,35,85)           111.4295         estimate D2E/DX2                !
 ! A88   A(34,35,86)           110.7034         estimate D2E/DX2                !
 ! A89   A(34,35,87)           112.1787         estimate D2E/DX2                !
 ! A90   A(85,35,86)           104.87           estimate D2E/DX2                !
 ! A91   A(85,35,87)           108.7663         estimate D2E/DX2                !
 ! A92   A(86,35,87)           108.5937         estimate D2E/DX2                !
 ! A93   A(29,36,33)           116.3168         estimate D2E/DX2                !
 ! A94   A(29,36,88)           123.3133         estimate D2E/DX2                !
 ! A95   A(33,36,88)           120.0069         estimate D2E/DX2                !
 ! A96   A(32,37,38)           134.2295         estimate D2E/DX2                !
 ! A97   A(32,37,42)           118.33           estimate D2E/DX2                !
 ! A98   A(38,37,42)           107.44           estimate D2E/DX2                !
 ! A99   A(37,38,39)           126.3323         estimate D2E/DX2                !
 ! A100  A(37,38,40)           115.2591         estimate D2E/DX2                !
 ! A101  A(39,38,40)           118.1701         estimate D2E/DX2                !
 ! A102  A(38,40,41)           115.4413         estimate D2E/DX2                !
 ! A103  A(38,40,89)           126.6646         estimate D2E/DX2                !
 ! A104  A(41,40,89)           117.8917         estimate D2E/DX2                !
 ! A105  A(40,41,42)           106.591          estimate D2E/DX2                !
 ! A106  A(40,41,43)           133.6645         estimate D2E/DX2                !
 ! A107  A(42,41,43)           119.7396         estimate D2E/DX2                !
 ! A108  A(37,42,41)            95.1461         estimate D2E/DX2                !
 ! A109  A(41,43,44)           118.1048         estimate D2E/DX2                !
 ! A110  A(41,43,50)           122.3602         estimate D2E/DX2                !
 ! A111  A(44,43,50)           119.4626         estimate D2E/DX2                !
 ! A112  A(43,44,45)           125.4577         estimate D2E/DX2                !
 ! A113  A(43,44,90)           124.0325         estimate D2E/DX2                !
 ! A114  A(45,44,90)           110.4239         estimate D2E/DX2                !
 ! A115  A(44,45,46)           112.4582         estimate D2E/DX2                !
 ! A116  A(45,46,47)           126.2964         estimate D2E/DX2                !
 ! A117  A(45,46,51)           112.3514         estimate D2E/DX2                !
 ! A118  A(47,46,51)           121.3431         estimate D2E/DX2                !
 ! A119  A(46,47,48)           121.0311         estimate D2E/DX2                !
 ! A120  A(46,47,50)           113.6386         estimate D2E/DX2                !
 ! A121  A(48,47,50)           125.1465         estimate D2E/DX2                !
 ! A122  A(47,48,49)           118.9636         estimate D2E/DX2                !
 ! A123  A(48,49,91)           110.4331         estimate D2E/DX2                !
 ! A124  A(48,49,92)           108.0597         estimate D2E/DX2                !
 ! A125  A(48,49,93)           106.4169         estimate D2E/DX2                !
 ! A126  A(91,49,92)           110.3203         estimate D2E/DX2                !
 ! A127  A(91,49,93)           110.737          estimate D2E/DX2                !
 ! A128  A(92,49,93)           110.7706         estimate D2E/DX2                !
 ! A129  A(43,50,47)           122.4728         estimate D2E/DX2                !
 ! A130  A(43,50,94)           124.0201         estimate D2E/DX2                !
 ! A131  A(47,50,94)           113.5025         estimate D2E/DX2                !
 ! A132  A(46,51,52)           125.5623         estimate D2E/DX2                !
 ! A133  A(46,51,56)           123.2092         estimate D2E/DX2                !
 ! A134  A(52,51,56)           111.0638         estimate D2E/DX2                !
 ! A135  A(51,52,53)           128.6749         estimate D2E/DX2                !
 ! A136  A(51,52,54)           111.5672         estimate D2E/DX2                !
 ! A137  A(53,52,54)           119.4415         estimate D2E/DX2                !
 ! A138  A(52,54,55)           113.1007         estimate D2E/DX2                !
 ! A139  A(52,54,95)           126.8096         estimate D2E/DX2                !
 ! A140  A(55,54,95)           120.0481         estimate D2E/DX2                !
 ! A141  A(54,55,56)           110.0645         estimate D2E/DX2                !
 ! A142  A(54,55,57)           128.9077         estimate D2E/DX2                !
 ! A143  A(56,55,57)           120.8144         estimate D2E/DX2                !
 ! A144  A(51,56,55)            94.0177         estimate D2E/DX2                !
 ! A145  A(55,57,58)           121.873          estimate D2E/DX2                !
 ! A146  A(55,57,64)           118.1703         estimate D2E/DX2                !
 ! A147  A(58,57,64)           119.9555         estimate D2E/DX2                !
 ! A148  A(57,58,59)           126.2592         estimate D2E/DX2                !
 ! A149  A(57,58,96)           118.1315         estimate D2E/DX2                !
 ! A150  A(59,58,96)           115.5115         estimate D2E/DX2                !
 ! A151  A(58,59,60)           113.7474         estimate D2E/DX2                !
 ! A152  A(59,60,61)           125.5704         estimate D2E/DX2                !
 ! A153  A(59,60,65)           112.88           estimate D2E/DX2                !
 ! A154  A(61,60,65)           121.504          estimate D2E/DX2                !
 ! A155  A(60,61,62)           120.2204         estimate D2E/DX2                !
 ! A156  A(60,61,64)           116.7977         estimate D2E/DX2                !
 ! A157  A(62,61,64)           122.7454         estimate D2E/DX2                !
 ! A158  A(61,62,63)           113.1351         estimate D2E/DX2                !
 ! A159  A(62,63,97)           107.8806         estimate D2E/DX2                !
 ! A160  A(62,63,98)           109.4198         estimate D2E/DX2                !
 ! A161  A(62,63,99)           105.5253         estimate D2E/DX2                !
 ! A162  A(97,63,98)           114.5144         estimate D2E/DX2                !
 ! A163  A(97,63,99)           109.7428         estimate D2E/DX2                !
 ! A164  A(98,63,99)           109.365          estimate D2E/DX2                !
 ! A165  A(57,64,61)           117.4557         estimate D2E/DX2                !
 ! A166  A(57,64,100)          122.7632         estimate D2E/DX2                !
 ! A167  A(61,64,100)          119.6503         estimate D2E/DX2                !
 ! A168  A(60,65,66)           128.3549         estimate D2E/DX2                !
 ! A169  A(60,65,70)           120.7347         estimate D2E/DX2                !
 ! A170  A(66,65,70)           110.5971         estimate D2E/DX2                !
 ! A171  A(65,66,67)           126.4037         estimate D2E/DX2                !
 ! A172  A(65,66,68)           112.4876         estimate D2E/DX2                !
 ! A173  A(67,66,68)           120.8381         estimate D2E/DX2                !
 ! A174  A(66,68,69)           113.1971         estimate D2E/DX2                !
 ! A175  A(66,68,101)          121.5336         estimate D2E/DX2                !
 ! A176  A(69,68,101)          124.5927         estimate D2E/DX2                !
 ! A177  A(68,69,70)           109.9682         estimate D2E/DX2                !
 ! A178  A(68,69,102)          129.3511         estimate D2E/DX2                !
 ! A179  A(70,69,102)          120.6784         estimate D2E/DX2                !
 ! A180  A(65,70,69)            93.3575         estimate D2E/DX2                !
 ! D1    D(8,1,2,3)              1.0445         estimate D2E/DX2                !
 ! D2    D(8,1,2,72)          -179.6812         estimate D2E/DX2                !
 ! D3    D(71,1,2,3)          -177.9504         estimate D2E/DX2                !
 ! D4    D(71,1,2,72)            1.324          estimate D2E/DX2                !
 ! D5    D(2,1,8,5)              3.5217         estimate D2E/DX2                !
 ! D6    D(2,1,8,76)           179.1965         estimate D2E/DX2                !
 ! D7    D(71,1,8,5)          -177.5407         estimate D2E/DX2                !
 ! D8    D(71,1,8,76)           -1.866          estimate D2E/DX2                !
 ! D9    D(1,2,3,4)             -4.274          estimate D2E/DX2                !
 ! D10   D(72,2,3,4)           176.3433         estimate D2E/DX2                !
 ! D11   D(2,3,4,5)              3.4825         estimate D2E/DX2                !
 ! D12   D(2,3,4,9)            177.6637         estimate D2E/DX2                !
 ! D13   D(3,4,5,6)            176.7768         estimate D2E/DX2                !
 ! D14   D(3,4,5,8)              0.3859         estimate D2E/DX2                !
 ! D15   D(9,4,5,6)              2.9075         estimate D2E/DX2                !
 ! D16   D(9,4,5,8)           -173.4834         estimate D2E/DX2                !
 ! D17   D(3,4,9,10)           -51.6207         estimate D2E/DX2                !
 ! D18   D(3,4,9,14)           117.2042         estimate D2E/DX2                !
 ! D19   D(5,4,9,10)           122.7155         estimate D2E/DX2                !
 ! D20   D(5,4,9,14)           -68.4596         estimate D2E/DX2                !
 ! D21   D(4,5,6,7)           -178.6369         estimate D2E/DX2                !
 ! D22   D(8,5,6,7)             -2.7849         estimate D2E/DX2                !
 ! D23   D(4,5,8,1)             -4.0935         estimate D2E/DX2                !
 ! D24   D(4,5,8,76)          -179.4047         estimate D2E/DX2                !
 ! D25   D(6,5,8,1)            179.9131         estimate D2E/DX2                !
 ! D26   D(6,5,8,76)             4.6019         estimate D2E/DX2                !
 ! D27   D(5,6,7,73)          -175.8386         estimate D2E/DX2                !
 ! D28   D(5,6,7,74)           -61.0075         estimate D2E/DX2                !
 ! D29   D(5,6,7,75)            59.1303         estimate D2E/DX2                !
 ! D30   D(4,9,10,11)           -8.0405         estimate D2E/DX2                !
 ! D31   D(4,9,10,12)          174.2599         estimate D2E/DX2                !
 ! D32   D(14,9,10,11)        -177.9038         estimate D2E/DX2                !
 ! D33   D(14,9,10,12)           4.3966         estimate D2E/DX2                !
 ! D34   D(4,9,14,13)         -179.0479         estimate D2E/DX2                !
 ! D35   D(10,9,14,13)          -8.0844         estimate D2E/DX2                !
 ! D36   D(9,10,12,13)           2.8205         estimate D2E/DX2                !
 ! D37   D(9,10,12,77)         174.5176         estimate D2E/DX2                !
 ! D38   D(11,10,12,13)       -174.8655         estimate D2E/DX2                !
 ! D39   D(11,10,12,77)         -3.1684         estimate D2E/DX2                !
 ! D40   D(10,12,13,14)         -8.6324         estimate D2E/DX2                !
 ! D41   D(10,12,13,15)        178.7315         estimate D2E/DX2                !
 ! D42   D(77,12,13,14)        178.6459         estimate D2E/DX2                !
 ! D43   D(77,12,13,15)          6.0098         estimate D2E/DX2                !
 ! D44   D(12,13,14,9)           9.5833         estimate D2E/DX2                !
 ! D45   D(15,13,14,9)        -177.0995         estimate D2E/DX2                !
 ! D46   D(12,13,15,16)         40.7058         estimate D2E/DX2                !
 ! D47   D(12,13,15,22)       -137.6109         estimate D2E/DX2                !
 ! D48   D(14,13,15,16)       -131.1007         estimate D2E/DX2                !
 ! D49   D(14,13,15,22)         50.5826         estimate D2E/DX2                !
 ! D50   D(13,15,16,17)       -179.5341         estimate D2E/DX2                !
 ! D51   D(13,15,16,78)          7.2622         estimate D2E/DX2                !
 ! D52   D(22,15,16,17)         -1.0693         estimate D2E/DX2                !
 ! D53   D(22,15,16,78)       -174.2729         estimate D2E/DX2                !
 ! D54   D(13,15,22,19)        176.6128         estimate D2E/DX2                !
 ! D55   D(13,15,22,82)          0.3852         estimate D2E/DX2                !
 ! D56   D(16,15,22,19)         -1.7807         estimate D2E/DX2                !
 ! D57   D(16,15,22,82)       -178.0083         estimate D2E/DX2                !
 ! D58   D(15,16,17,18)          3.0302         estimate D2E/DX2                !
 ! D59   D(78,16,17,18)        176.9682         estimate D2E/DX2                !
 ! D60   D(16,17,18,19)         -2.4211         estimate D2E/DX2                !
 ! D61   D(16,17,18,23)        176.1841         estimate D2E/DX2                !
 ! D62   D(17,18,19,20)       -177.3516         estimate D2E/DX2                !
 ! D63   D(17,18,19,22)         -0.0341         estimate D2E/DX2                !
 ! D64   D(23,18,19,20)          4.094          estimate D2E/DX2                !
 ! D65   D(23,18,19,22)       -178.5886         estimate D2E/DX2                !
 ! D66   D(17,18,23,24)        -53.36           estimate D2E/DX2                !
 ! D67   D(17,18,23,28)        124.3939         estimate D2E/DX2                !
 ! D68   D(19,18,23,24)        125.3009         estimate D2E/DX2                !
 ! D69   D(19,18,23,28)        -56.9452         estimate D2E/DX2                !
 ! D70   D(18,19,20,21)        157.2804         estimate D2E/DX2                !
 ! D71   D(22,19,20,21)        -19.8036         estimate D2E/DX2                !
 ! D72   D(18,19,22,15)          2.2901         estimate D2E/DX2                !
 ! D73   D(18,19,22,82)        178.3428         estimate D2E/DX2                !
 ! D74   D(20,19,22,15)        179.4791         estimate D2E/DX2                !
 ! D75   D(20,19,22,82)         -4.4682         estimate D2E/DX2                !
 ! D76   D(19,20,21,79)       -169.8351         estimate D2E/DX2                !
 ! D77   D(19,20,21,80)        -52.9619         estimate D2E/DX2                !
 ! D78   D(19,20,21,81)         77.3382         estimate D2E/DX2                !
 ! D79   D(18,23,24,25)          0.9276         estimate D2E/DX2                !
 ! D80   D(18,23,24,26)        179.7453         estimate D2E/DX2                !
 ! D81   D(28,23,24,25)       -177.1795         estimate D2E/DX2                !
 ! D82   D(28,23,24,26)          1.6382         estimate D2E/DX2                !
 ! D83   D(18,23,28,27)       -179.9607         estimate D2E/DX2                !
 ! D84   D(24,23,28,27)         -1.9449         estimate D2E/DX2                !
 ! D85   D(23,24,26,27)         -0.4544         estimate D2E/DX2                !
 ! D86   D(23,24,26,83)       -177.1992         estimate D2E/DX2                !
 ! D87   D(25,24,26,27)        178.3808         estimate D2E/DX2                !
 ! D88   D(25,24,26,83)          1.636          estimate D2E/DX2                !
 ! D89   D(24,26,27,28)         -0.949          estimate D2E/DX2                !
 ! D90   D(24,26,27,29)        175.787          estimate D2E/DX2                !
 ! D91   D(83,26,27,28)        175.9012         estimate D2E/DX2                !
 ! D92   D(83,26,27,29)         -7.3628         estimate D2E/DX2                !
 ! D93   D(26,27,28,23)          1.6844         estimate D2E/DX2                !
 ! D94   D(29,27,28,23)       -175.1132         estimate D2E/DX2                !
 ! D95   D(26,27,29,30)         48.0469         estimate D2E/DX2                !
 ! D96   D(26,27,29,36)       -130.5914         estimate D2E/DX2                !
 ! D97   D(28,27,29,30)       -135.6976         estimate D2E/DX2                !
 ! D98   D(28,27,29,36)         45.664          estimate D2E/DX2                !
 ! D99   D(27,29,30,31)       -177.2443         estimate D2E/DX2                !
 ! D100  D(27,29,30,84)         -4.7389         estimate D2E/DX2                !
 ! D101  D(36,29,30,31)          1.3417         estimate D2E/DX2                !
 ! D102  D(36,29,30,84)        173.8471         estimate D2E/DX2                !
 ! D103  D(27,29,36,33)       -177.5925         estimate D2E/DX2                !
 ! D104  D(27,29,36,88)         -4.525          estimate D2E/DX2                !
 ! D105  D(30,29,36,33)          3.77           estimate D2E/DX2                !
 ! D106  D(30,29,36,88)        176.8375         estimate D2E/DX2                !
 ! D107  D(29,30,31,32)         -0.5573         estimate D2E/DX2                !
 ! D108  D(84,30,31,32)       -173.5414         estimate D2E/DX2                !
 ! D109  D(30,31,32,33)         -5.4616         estimate D2E/DX2                !
 ! D110  D(30,31,32,37)       -177.0889         estimate D2E/DX2                !
 ! D111  D(31,32,33,34)       -179.9523         estimate D2E/DX2                !
 ! D112  D(31,32,33,36)         10.3583         estimate D2E/DX2                !
 ! D113  D(37,32,33,34)         -8.3846         estimate D2E/DX2                !
 ! D114  D(37,32,33,36)       -178.074          estimate D2E/DX2                !
 ! D115  D(31,32,37,38)        122.3709         estimate D2E/DX2                !
 ! D116  D(31,32,37,42)        -57.3575         estimate D2E/DX2                !
 ! D117  D(33,32,37,38)        -49.493          estimate D2E/DX2                !
 ! D118  D(33,32,37,42)        130.7786         estimate D2E/DX2                !
 ! D119  D(32,33,34,35)        160.5416         estimate D2E/DX2                !
 ! D120  D(36,33,34,35)        -30.2774         estimate D2E/DX2                !
 ! D121  D(32,33,36,29)         -9.0459         estimate D2E/DX2                !
 ! D122  D(32,33,36,88)        177.643          estimate D2E/DX2                !
 ! D123  D(34,33,36,29)       -178.5855         estimate D2E/DX2                !
 ! D124  D(34,33,36,88)          8.1034         estimate D2E/DX2                !
 ! D125  D(33,34,35,85)       -164.9719         estimate D2E/DX2                !
 ! D126  D(33,34,35,86)         78.7292         estimate D2E/DX2                !
 ! D127  D(33,34,35,87)        -42.7488         estimate D2E/DX2                !
 ! D128  D(32,37,38,39)         -2.0462         estimate D2E/DX2                !
 ! D129  D(32,37,38,40)       -176.2972         estimate D2E/DX2                !
 ! D130  D(42,37,38,39)        177.7032         estimate D2E/DX2                !
 ! D131  D(42,37,38,40)          3.4522         estimate D2E/DX2                !
 ! D132  D(32,37,42,41)        176.4866         estimate D2E/DX2                !
 ! D133  D(38,37,42,41)         -3.3094         estimate D2E/DX2                !
 ! D134  D(37,38,40,41)         -1.9885         estimate D2E/DX2                !
 ! D135  D(37,38,40,89)        177.4254         estimate D2E/DX2                !
 ! D136  D(39,38,40,41)       -176.7363         estimate D2E/DX2                !
 ! D137  D(39,38,40,89)          2.6776         estimate D2E/DX2                !
 ! D138  D(38,40,41,42)         -0.6618         estimate D2E/DX2                !
 ! D139  D(38,40,41,43)       -179.8311         estimate D2E/DX2                !
 ! D140  D(89,40,41,42)        179.8702         estimate D2E/DX2                !
 ! D141  D(89,40,41,43)          0.7009         estimate D2E/DX2                !
 ! D142  D(40,41,42,37)          2.1973         estimate D2E/DX2                !
 ! D143  D(43,41,42,37)       -178.4948         estimate D2E/DX2                !
 ! D144  D(40,41,43,44)         41.7686         estimate D2E/DX2                !
 ! D145  D(40,41,43,50)       -141.346          estimate D2E/DX2                !
 ! D146  D(42,41,43,44)       -137.3144         estimate D2E/DX2                !
 ! D147  D(42,41,43,50)         39.571          estimate D2E/DX2                !
 ! D148  D(41,43,44,45)       -178.2221         estimate D2E/DX2                !
 ! D149  D(41,43,44,90)         -1.9185         estimate D2E/DX2                !
 ! D150  D(50,43,44,45)          4.7995         estimate D2E/DX2                !
 ! D151  D(50,43,44,90)       -178.8969         estimate D2E/DX2                !
 ! D152  D(41,43,50,47)       -178.097          estimate D2E/DX2                !
 ! D153  D(41,43,50,94)          2.731          estimate D2E/DX2                !
 ! D154  D(44,43,50,47)         -1.2524         estimate D2E/DX2                !
 ! D155  D(44,43,50,94)        179.5756         estimate D2E/DX2                !
 ! D156  D(43,44,45,46)         -3.8258         estimate D2E/DX2                !
 ! D157  D(90,44,45,46)        179.4426         estimate D2E/DX2                !
 ! D158  D(44,45,46,47)         -0.6111         estimate D2E/DX2                !
 ! D159  D(44,45,46,51)       -179.514          estimate D2E/DX2                !
 ! D160  D(45,46,47,48)        178.8235         estimate D2E/DX2                !
 ! D161  D(45,46,47,50)          3.5057         estimate D2E/DX2                !
 ! D162  D(51,46,47,48)         -2.3646         estimate D2E/DX2                !
 ! D163  D(51,46,47,50)       -177.6825         estimate D2E/DX2                !
 ! D164  D(45,46,51,52)        123.6315         estimate D2E/DX2                !
 ! D165  D(45,46,51,56)        -51.2802         estimate D2E/DX2                !
 ! D166  D(47,46,51,52)        -55.3332         estimate D2E/DX2                !
 ! D167  D(47,46,51,56)        129.7552         estimate D2E/DX2                !
 ! D168  D(46,47,48,49)        161.6719         estimate D2E/DX2                !
 ! D169  D(50,47,48,49)        -23.5752         estimate D2E/DX2                !
 ! D170  D(46,47,50,43)         -2.5801         estimate D2E/DX2                !
 ! D171  D(46,47,50,94)        176.6715         estimate D2E/DX2                !
 ! D172  D(48,47,50,43)       -177.673          estimate D2E/DX2                !
 ! D173  D(48,47,50,94)          1.5786         estimate D2E/DX2                !
 ! D174  D(47,48,49,91)         72.9329         estimate D2E/DX2                !
 ! D175  D(47,48,49,92)        -47.8155         estimate D2E/DX2                !
 ! D176  D(47,48,49,93)       -166.8233         estimate D2E/DX2                !
 ! D177  D(46,51,52,53)          6.6359         estimate D2E/DX2                !
 ! D178  D(46,51,52,54)       -179.9567         estimate D2E/DX2                !
 ! D179  D(56,51,52,53)       -177.925          estimate D2E/DX2                !
 ! D180  D(56,51,52,54)         -4.5177         estimate D2E/DX2                !
 ! D181  D(46,51,56,55)        178.4203         estimate D2E/DX2                !
 ! D182  D(52,51,56,55)          2.8545         estimate D2E/DX2                !
 ! D183  D(51,52,54,55)          4.3998         estimate D2E/DX2                !
 ! D184  D(51,52,54,95)       -177.9671         estimate D2E/DX2                !
 ! D185  D(53,52,54,55)        178.4923         estimate D2E/DX2                !
 ! D186  D(53,52,54,95)         -3.8746         estimate D2E/DX2                !
 ! D187  D(52,54,55,56)         -2.2208         estimate D2E/DX2                !
 ! D188  D(52,54,55,57)       -176.8613         estimate D2E/DX2                !
 ! D189  D(95,54,55,56)        179.9683         estimate D2E/DX2                !
 ! D190  D(95,54,55,57)          5.3279         estimate D2E/DX2                !
 ! D191  D(54,55,56,51)         -0.3218         estimate D2E/DX2                !
 ! D192  D(57,55,56,51)        174.8234         estimate D2E/DX2                !
 ! D193  D(54,55,57,58)         44.0055         estimate D2E/DX2                !
 ! D194  D(54,55,57,64)       -135.5901         estimate D2E/DX2                !
 ! D195  D(56,55,57,58)       -130.1311         estimate D2E/DX2                !
 ! D196  D(56,55,57,64)         50.2733         estimate D2E/DX2                !
 ! D197  D(55,57,58,59)        176.6568         estimate D2E/DX2                !
 ! D198  D(55,57,58,96)          0.429          estimate D2E/DX2                !
 ! D199  D(64,57,58,59)         -3.7547         estimate D2E/DX2                !
 ! D200  D(64,57,58,96)       -179.9825         estimate D2E/DX2                !
 ! D201  D(55,57,64,61)       -179.2603         estimate D2E/DX2                !
 ! D202  D(55,57,64,100)         4.9177         estimate D2E/DX2                !
 ! D203  D(58,57,64,61)          1.1361         estimate D2E/DX2                !
 ! D204  D(58,57,64,100)      -174.6859         estimate D2E/DX2                !
 ! D205  D(57,58,59,60)          5.3234         estimate D2E/DX2                !
 ! D206  D(96,58,59,60)       -178.3624         estimate D2E/DX2                !
 ! D207  D(58,59,60,61)         -4.973          estimate D2E/DX2                !
 ! D208  D(58,59,60,65)        177.4658         estimate D2E/DX2                !
 ! D209  D(59,60,61,62)        177.4795         estimate D2E/DX2                !
 ! D210  D(59,60,61,64)          2.9136         estimate D2E/DX2                !
 ! D211  D(65,60,61,62)         -5.156          estimate D2E/DX2                !
 ! D212  D(65,60,61,64)       -179.7219         estimate D2E/DX2                !
 ! D213  D(59,60,65,66)        -67.3903         estimate D2E/DX2                !
 ! D214  D(59,60,65,70)        105.5476         estimate D2E/DX2                !
 ! D215  D(61,60,65,66)        114.9363         estimate D2E/DX2                !
 ! D216  D(61,60,65,70)        -72.1258         estimate D2E/DX2                !
 ! D217  D(60,61,62,63)        135.6896         estimate D2E/DX2                !
 ! D218  D(64,61,62,63)        -50.0785         estimate D2E/DX2                !
 ! D219  D(60,61,64,57)         -0.8486         estimate D2E/DX2                !
 ! D220  D(60,61,64,100)       175.1089         estimate D2E/DX2                !
 ! D221  D(62,61,64,57)       -175.2653         estimate D2E/DX2                !
 ! D222  D(62,61,64,100)         0.6922         estimate D2E/DX2                !
 ! D223  D(61,62,63,97)         80.6799         estimate D2E/DX2                !
 ! D224  D(61,62,63,98)        -44.491          estimate D2E/DX2                !
 ! D225  D(61,62,63,99)       -162.0615         estimate D2E/DX2                !
 ! D226  D(60,65,66,67)          0.4541         estimate D2E/DX2                !
 ! D227  D(60,65,66,68)        174.4726         estimate D2E/DX2                !
 ! D228  D(70,65,66,67)       -173.0637         estimate D2E/DX2                !
 ! D229  D(70,65,66,68)          0.9548         estimate D2E/DX2                !
 ! D230  D(60,65,70,69)       -178.0275         estimate D2E/DX2                !
 ! D231  D(66,65,70,69)         -3.9392         estimate D2E/DX2                !
 ! D232  D(65,66,68,69)          3.5343         estimate D2E/DX2                !
 ! D233  D(65,66,68,101)       174.5179         estimate D2E/DX2                !
 ! D234  D(67,66,68,69)        177.9285         estimate D2E/DX2                !
 ! D235  D(67,66,68,101)       -11.0879         estimate D2E/DX2                !
 ! D236  D(66,68,69,70)         -6.3559         estimate D2E/DX2                !
 ! D237  D(66,68,69,102)       174.2108         estimate D2E/DX2                !
 ! D238  D(101,68,69,70)      -177.0177         estimate D2E/DX2                !
 ! D239  D(101,68,69,102)        3.549          estimate D2E/DX2                !
 ! D240  D(68,69,70,65)          5.8609         estimate D2E/DX2                !
 ! D241  D(102,69,70,65)      -174.6486         estimate D2E/DX2                !
 --------------------------------------------------------------------------------
 Trust Radius=3.00D-01 FncErr=1.00D-07 GrdErr=1.00D-06 EigMax=2.50D+02 EigMin=1.00D-04
 Number of steps in this run=    542 maximum allowed number of steps=    612.
 GradGradGradGradGradGradGradGradGradGradGradGradGradGradGradGradGradGrad

 Leave Link  103 at Sun Jul 26 12:21:38 2020, MaxMem=  4026531840 cpu:               0.1 elap:               0.0
 (Enter /opt/ohpc/pub/libs/gaussian/g16-A.03/sandybridge/g16/l202.exe)
 Stoichiometry    C50H32F5N5O5S5
 Framework group  C1[X(C50H32F5N5O5S5)]
 Deg. of freedom   300
 Full point group                 C1      NOp   1
 Largest Abelian subgroup         C1      NOp   1
 Largest concise Abelian subgroup C1      NOp   1
                         Standard orientation:                         
 ---------------------------------------------------------------------
 Center     Atomic      Atomic             Coordinates (Angstroms)
 Number     Number       Type             X           Y           Z
 ---------------------------------------------------------------------
      1          6           0       18.832641   -1.665102   -0.849041
      2          6           0       18.377930   -0.657435   -1.684359
      3          7           0       17.201074   -0.006139   -1.546362
      4          6           0       16.359802   -0.472613   -0.515318
      5          6           0       16.726275   -1.504266    0.383305
      6          8           0       15.851479   -1.829463    1.390113
      7          6           0       16.272755   -2.845790    2.282037
      8          6           0       17.991905   -2.017019    0.171376
      9          6           0       15.098028    0.280047   -0.336422
     10          6           0       14.892775    1.622593   -0.187477
     11          9           0       15.935504    2.478625   -0.026088
     12          6           0       13.619092    2.049314   -0.160134
     13          6           0       12.708909    0.938611   -0.234613
     14         16           0       13.599705   -0.476186   -0.570883
     15          6           0       11.277767    0.935443   -0.211380
     16          6           0       10.554574    1.914193   -0.914698
     17          7           0        9.157946    2.011218   -0.953519
     18          6           0        8.496509    1.108026   -0.193118
     19          6           0        9.158800    0.056332    0.583875
     20          8           0        8.419353   -0.836319    1.273028
     21          6           0        8.999033   -2.061731    1.588734
     22          6           0       10.503416    0.024943    0.505860
     23          6           0        7.040250    1.243884   -0.149001
     24          6           0        6.383000    2.439342    0.190641
     25          9           0        7.004693    3.589006    0.493669
     26          6           0        4.958759    2.304192    0.152112
     27          6           0        4.560878    0.997992   -0.229935
     28         16           0        5.907576    0.083404   -0.525580
     29          6           0        3.164800    0.487918   -0.286258
     30          6           0        2.172436    1.202107   -0.901805
     31          7           0        0.897361    0.770694   -0.907710
     32          6           0        0.561892   -0.339402   -0.341949
     33          6           0        1.553521   -1.243806    0.230834
     34          8           0        1.173178   -2.386287    0.808906
     35          6           0        2.074084   -3.411931    0.988766
     36          6           0        2.896317   -0.748435    0.345826
     37          6           0       -0.790516   -0.766780   -0.439543
     38          6           0       -1.381236   -1.850022   -0.903162
     39          9           0       -0.786797   -2.881640   -1.474949
     40          6           0       -2.801060   -1.825197   -0.875145
     41          6           0       -3.365969   -0.684957   -0.325370
     42         16           0       -2.065100    0.320616    0.159986
     43          6           0       -4.734922   -0.251928   -0.099986
     44          6           0       -5.621069   -1.159456    0.359241
     45          7           0       -6.960405   -0.923543    0.592189
     46          6           0       -7.323603    0.456036    0.372696
     47          6           0       -6.488837    1.455462   -0.006639
     48          8           0       -6.932613    2.664438   -0.197667
     49          6           0       -5.987098    3.768468   -0.204463
     50          6           0       -5.119697    1.008124   -0.272057
     51          6           0       -8.774163    0.711643    0.637230
     52          6           0       -9.268008    1.625860    1.509610
     53          9           0       -8.621068    2.534987    2.196531
     54          6           0      -10.681277    1.618033    1.525783
     55          6           0      -11.223684    0.633196    0.737286
     56         16           0      -10.012302   -0.208497   -0.041394
     57          6           0      -12.701530    0.340481    0.439713
     58          6           0      -13.600950    1.349241    0.144620
     59          7           0      -14.845303    1.195481   -0.177449
     60          6           0      -15.289396   -0.132800   -0.098110
     61          6           0      -14.488804   -1.242149    0.190037
     62          8           0      -15.036567   -2.462810    0.288761
     63          6           0      -14.263561   -3.497407   -0.399905
     64          6           0      -13.132462   -0.988891    0.481364
     65          6           0      -16.738743   -0.279229   -0.414518
     66          6           0      -17.838465    0.186012    0.315690
     67          9           0      -17.796701    0.872793    1.457254
     68          6           0      -19.083959   -0.034509   -0.366107
     69          6           0      -18.936191   -0.738807   -1.579084
     70         16           0      -17.254653   -0.954442   -1.937035
     71          1           0       19.756512   -2.081540   -1.013813
     72          1           0       18.900277   -0.251569   -2.543374
     73          1           0       15.424801   -3.010417    2.951178
     74          1           0       16.436104   -3.825826    1.679933
     75          1           0       17.161405   -2.630515    2.782906
     76          1           0       18.391155   -2.818208    0.784242
     77          1           0       13.235888    3.007656    0.019617
     78          1           0       10.994327    2.602686   -1.558927
     79          1           0        8.132516   -2.723261    1.995278
     80          1           0        9.424419   -2.580048    0.681092
     81          1           0        9.648126   -2.007783    2.369302
     82          1           0       11.058222   -0.701080    1.069029
     83          1           0        4.231205    3.119791    0.337896
     84          1           0        2.338376    2.214921   -1.314733
     85          1           0        1.603741   -4.284889    1.205936
     86          1           0        2.750707   -3.205389    1.900319
     87          1           0        2.697209   -3.560328    0.126228
     88          1           0        3.609440   -1.320335    0.766840
     89          1           0       -3.490899   -2.619705   -1.256044
     90          1           0       -5.372238   -2.247411    0.551082
     91          1           0       -5.412535    3.757384   -1.093163
     92          1           0       -5.338915    3.664117    0.667179
     93          1           0       -6.588234    4.695622   -0.137905
     94          1           0       -4.442287    1.829593   -0.644419
     95          1           0      -11.362605    2.300849    2.137912
     96          1           0      -13.225523    2.395453    0.119329
     97          1           0      -13.502219   -3.766990    0.202280
     98          1           0      -13.939440   -3.108069   -1.435927
     99          1           0      -14.923466   -4.307138   -0.522452
    100          1           0      -12.504074   -1.785297    0.781468
    101          1           0      -20.044043    0.191120    0.108417
    102          1           0      -19.631308   -1.083073   -2.193374
 ---------------------------------------------------------------------
 Rotational constants (GHZ):           0.1386878           0.0037370           0.0036834
 Leave Link  202 at Sun Jul 26 12:21:38 2020, MaxMem=  4026531840 cpu:               0.1 elap:               0.0
 (Enter /opt/ohpc/pub/libs/gaussian/g16-A.03/sandybridge/g16/l301.exe)
 Standard basis: CC-pVDZ (5D, 7F)
 Ernie: Thresh=  0.10000D-02 Tol=  0.10000D-05 Strict=F.
 Ernie:  180 primitive shells out of 1840 were deleted.
 There are  1230 symmetry adapted cartesian basis functions of A   symmetry.
 There are  1160 symmetry adapted basis functions of A   symmetry.
  1160 basis functions,  2724 primitive gaussians,  1230 cartesian basis functions
   266 alpha electrons      266 beta electrons
       nuclear repulsion energy      9812.7542182278 Hartrees.
 IExCor=32609 DFT=T Ex+Corr=LC-wPBE ExCW=0 ScaHFX=  1.000000
 ScaDFX=  1.000000  0.000000  1.000000  1.000000 ScalE2=  1.000000  1.000000
 IRadAn=      5 IRanWt=     -1 IRanGd=            0 ICorTp=0 IEmpDi=  4
 HFx  wShort=  0.000000 wLong=  0.098400 cFull=  0.000000 cShort=  0.000000 cLong=  1.000000
 DFx  wShort=  0.000000 wLong=  0.098400 cFull=  0.000000 cShort=  0.000000 cLong=  1.000000
 NAtoms=  102 NActive=  102 NUniq=  102 SFac= 1.00D+00 NAtFMM=   60 NAOKFM=T Big=T
 Integral buffers will be    131072 words long.
 Raffenetti 2 integral format.
 Two-electron integral symmetry is turned on.
 Leave Link  301 at Sun Jul 26 12:21:38 2020, MaxMem=  4026531840 cpu:               0.4 elap:               0.1
 (Enter /opt/ohpc/pub/libs/gaussian/g16-A.03/sandybridge/g16/l302.exe)
 NPDir=0 NMtPBC=     1 NCelOv=     1 NCel=       1 NClECP=     1 NCelD=      1
         NCelK=      1 NCelE2=     1 NClLst=     1 CellRange=     0.0.
 One-electron integrals computed using PRISM.
 One-electron integral symmetry used in STVInt
 NBasis=  1160 RedAO= T EigKep=  3.87D-04  NBF=  1160
 NBsUse=  1160 1.00D-06 EigRej= -1.00D+00 NBFU=  1160
 Precomputing XC quadrature grid using
 IXCGrd= 4 IRadAn=           5 IRanWt=          -1 IRanGd=           0 AccXCQ= 0.00D+00.
 Generated NRdTot=       0 NPtTot=           0 NUsed=           0 NTot=          32
 NSgBfM=   758   742   750   753   758 MxSgAt=   102 MxSgA2=    92.
 Leave Link  302 at Sun Jul 26 12:21:43 2020, MaxMem=  4026531840 cpu:              38.7 elap:               4.9
 (Enter /opt/ohpc/pub/libs/gaussian/g16-A.03/sandybridge/g16/l303.exe)
 DipDrv:  MaxL=1.
 Leave Link  303 at Sun Jul 26 12:21:44 2020, MaxMem=  4026531840 cpu:               2.1 elap:               0.3
 (Enter /opt/ohpc/pub/libs/gaussian/g16-A.03/sandybridge/g16/l401.exe)
 ExpMin= 1.22D-01 ExpMax= 1.11D+05 ExpMxC= 1.07D+03 IAcc=3 IRadAn=         5 AccDes= 0.00D+00
 Harris functional with IExCor=32609 and IRadAn=       5 diagonalized for initial guess.
 HarFok:  IExCor=32609 AccDes= 0.00D+00 IRadAn=         5 IDoV= 1 UseB2=F ITyADJ=14
 ICtDFT=  3500011 ScaDFX=  1.000000  1.000000  1.000000  1.000000
 FoFCou: FMM=F IPFlag=           0 FMFlag=      100000 FMFlg1=        2001
         NFxFlg=           0 DoJE=T BraDBF=F KetDBF=T FulRan=T
         wScrn=  0.000000 ICntrl=       500 IOpCl=  0 I1Cent=   200000004 NGrid=           0
         NMat0=    1 NMatS0=      1 NMatT0=    0 NMatD0=    1 NMtDS0=    0 NMtDT0=    0
 Petite list used in FoFCou.
 Harris En= -5061.00006508726    
 JPrj=0 DoOrth=F DoCkMO=F.
 Initial guess <Sx>= 0.0000 <Sy>= 0.0000 <Sz>= 0.0000 <S**2>=-0.0000 S=-0.0000
 Leave Link  401 at Sun Jul 26 12:21:57 2020, MaxMem=  4026531840 cpu:             110.3 elap:              13.9
 (Enter /opt/ohpc/pub/libs/gaussian/g16-A.03/sandybridge/g16/l502.exe)
 Integral symmetry usage will be decided dynamically.
 UHF open shell SCF:
 Using DIIS extrapolation, IDIIS=  1040.
 NGot=  4026531840 LenX=  4023483800 LenY=  4021969670
 Requested convergence on RMS density matrix=1.00D-08 within 128 cycles.
 Requested convergence on MAX density matrix=1.00D-06.
 Requested convergence on             energy=1.00D-06.
 No special actions if energy rises.
 Fock matrices will be formed incrementally for  20 cycles.
 Integral accuracy reduced to 1.0D-05 until final iterations.

 Cycle   1  Pass 0  IDiag  1:
 FoFJK:  IHMeth= 1 ICntrl=       0 DoSepK=T KAlg= 0 I1Cent=           0 FoldK=F
 IRaf=         1 NMat=       1 IRICut=       1 DoRegI=T DoRafI=F ISym2E= 0 IDoP0=0 IntGTp=1.
 FoFCou: FMM=T IPFlag=           0 FMFlag=      100000 FMFlg1=        2001
         NFxFlg=           0 DoJE=T BraDBF=F KetDBF=F FulRan=T
         wScrn=  0.000000 ICntrl=       500 IOpCl=  0 I1Cent=           0 NGrid=           0
         NMat0=    1 NMatS0=      1 NMatT0=    0 NMatD0=    1 NMtDS0=    0 NMtDT0=    0
 Symmetry not used in FoFCou.
 FMM levels:  10  Number of levels for PrismC:   9
 E= -5059.72335678684    
 DIIS: error= 1.81D-02 at cycle   1 NSaved=   1.
 NSaved= 1 IEnMin= 1 EnMin= -5059.72335678684     IErMin= 1 ErrMin= 1.81D-02
 ErrMax= 1.81D-02  0.00D+00 EMaxC= 1.00D-01 BMatC= 3.93D+00 BMatP= 3.93D+00
 IDIUse=3 WtCom= 8.19D-01 WtEn= 1.81D-01
 Coeff-Com:  0.100D+01
 Coeff-En:   0.100D+01
 Coeff:      0.100D+01
 Gap=     0.205 Goal=   None    Shift=    0.000
 Gap=     0.205 Goal=   None    Shift=    0.000
 GapD=    0.205 DampG=1.000 DampE=0.500 DampFc=0.5000 IDamp=-1.
 Damping current iteration by 5.00D-01
[...]
  Beta virt. eigenvalues --    1.23988   1.24194   1.24748   1.25243   1.25732
  Beta virt. eigenvalues --    1.25801   1.26202   1.26274   1.26377   1.26507
  Beta virt. eigenvalues --    1.26935   1.27427   1.27810   1.28188   1.28887
  Beta virt. eigenvalues --    1.29112   1.29530   1.29702   1.31203   1.31404
  Beta virt. eigenvalues --    1.31890   1.32086   1.32179   1.32945   1.33258
  Beta virt. eigenvalues --    1.33516   1.33926   1.34196   1.35436   1.35904
  Beta virt. eigenvalues --    1.35997   1.36014   1.36198   1.36405   1.36743
  Beta virt. eigenvalues --    1.36991   1.37091   1.37263   1.37314   1.38010
  Beta virt. eigenvalues --    1.38192   1.38431   1.38939   1.39152   1.39218
  Beta virt. eigenvalues --    1.39445   1.40030   1.40148   1.40453   1.41087
  Beta virt. eigenvalues --    1.41159   1.41530   1.41965   1.42150   1.42343
  Beta virt. eigenvalues --    1.42640   1.43139   1.43199   1.43458   1.43836
  Beta virt. eigenvalues --    1.44087   1.44761   1.44917   1.45021   1.45309
  Beta virt. eigenvalues --    1.45825   1.46584   1.46684   1.47032   1.47238
  Beta virt. eigenvalues --    1.47600   1.48012   1.48141   1.48514   1.48922
  Beta virt. eigenvalues --    1.49235   1.49649   1.50180   1.50364   1.50392
  Beta virt. eigenvalues --    1.50450   1.50890   1.51328   1.52000   1.52186
  Beta virt. eigenvalues --    1.52487   1.52898   1.53172   1.53269   1.53572
  Beta virt. eigenvalues --    1.53675   1.53984   1.54398   1.54465   1.54550
  Beta virt. eigenvalues --    1.54902   1.54999   1.55242   1.55443   1.55642
  Beta virt. eigenvalues --    1.55820   1.56032   1.56404   1.56659   1.56841
  Beta virt. eigenvalues --    1.57046   1.57058   1.57329   1.57607   1.57744
  Beta virt. eigenvalues --    1.57968   1.58308   1.58643   1.58996   1.59117
  Beta virt. eigenvalues --    1.59260   1.59430   1.59944   1.60036   1.60308
  Beta virt. eigenvalues --    1.60499   1.60743   1.60997   1.61141   1.61378
  Beta virt. eigenvalues --    1.61606   1.61738   1.61903   1.62175   1.62369
  Beta virt. eigenvalues --    1.62752   1.62929   1.63099   1.63248   1.63467
  Beta virt. eigenvalues --    1.63576   1.63770   1.64335   1.64509   1.64868
  Beta virt. eigenvalues --    1.65029   1.65078   1.65162   1.65606   1.65632
  Beta virt. eigenvalues --    1.65874   1.66136   1.66291   1.66668   1.67096
  Beta virt. eigenvalues --    1.67306   1.67871   1.68067   1.68403   1.69023
  Beta virt. eigenvalues --    1.69061   1.69207   1.69596   1.69656   1.70700
  Beta virt. eigenvalues --    1.71044   1.71337   1.71662   1.71953   1.72486
  Beta virt. eigenvalues --    1.72745   1.73062   1.73393   1.73575   1.73700
  Beta virt. eigenvalues --    1.74029   1.74424   1.74608   1.74859   1.75214
  Beta virt. eigenvalues --    1.75620   1.75736   1.76291   1.76814   1.77247
  Beta virt. eigenvalues --    1.77843   1.78425   1.78580   1.78893   1.79373
  Beta virt. eigenvalues --    1.79902   1.80166   1.80452   1.80816   1.81913
  Beta virt. eigenvalues --    1.82466   1.83005   1.83371   1.84082   1.84278
  Beta virt. eigenvalues --    1.84530   1.84817   1.85277   1.85522   1.85730
  Beta virt. eigenvalues --    1.86300   1.86609   1.86677   1.86756   1.87078
  Beta virt. eigenvalues --    1.87320   1.87463   1.87695   1.87955   1.88335
  Beta virt. eigenvalues --    1.88660   1.88893   1.89116   1.89200   1.89800
  Beta virt. eigenvalues --    1.89933   1.90074   1.90228   1.90483   1.90760
  Beta virt. eigenvalues --    1.91045   1.91338   1.91447   1.92292   1.92562
  Beta virt. eigenvalues --    1.92961   1.93120   1.94085   1.94350   1.94728
  Beta virt. eigenvalues --    1.94831   1.95356   1.96081   1.96221   1.96609
  Beta virt. eigenvalues --    1.97187   1.97731   1.98398   1.98528   1.98659
  Beta virt. eigenvalues --    1.99265   1.99551   2.00161   2.01079   2.01272
  Beta virt. eigenvalues --    2.01354   2.01492   2.01701   2.02706   2.02752
  Beta virt. eigenvalues --    2.02959   2.03085   2.03540   2.03632   2.03997
  Beta virt. eigenvalues --    2.04300   2.04914   2.05232   2.05453   2.06692
  Beta virt. eigenvalues --    2.07048   2.07286   2.07643   2.07796   2.08377
  Beta virt. eigenvalues --    2.09325   2.09442   2.09676   2.10089   2.10262
  Beta virt. eigenvalues --    2.10611   2.11270   2.11642   2.12543   2.13282
  Beta virt. eigenvalues --    2.13826   2.14210   2.14818   2.17704   2.18482
  Beta virt. eigenvalues --    2.18758   2.19405   2.20626   2.21946   2.22821
  Beta virt. eigenvalues --    2.23356   2.23611   2.24310   2.24758   2.25290
  Beta virt. eigenvalues --    2.25421   2.25457   2.25663   2.25869   2.26103
  Beta virt. eigenvalues --    2.26231   2.27037   2.27185   2.27968   2.28321
  Beta virt. eigenvalues --    2.28844   2.29090   2.29226   2.29694   2.31125
  Beta virt. eigenvalues --    2.31403   2.31851   2.33287   2.33712   2.33794
  Beta virt. eigenvalues --    2.34347   2.34672   2.34892   2.35311   2.35941
  Beta virt. eigenvalues --    2.36880   2.37554   2.38151   2.39027   2.39437
  Beta virt. eigenvalues --    2.39475   2.40189   2.40253   2.40905   2.41265
  Beta virt. eigenvalues --    2.41329   2.41414   2.41730   2.42273   2.42535
  Beta virt. eigenvalues --    2.42840   2.43022   2.43121   2.43295   2.43726
  Beta virt. eigenvalues --    2.44227   2.44329   2.44455   2.44621   2.45996
  Beta virt. eigenvalues --    2.46085   2.46366   2.46716   2.46833   2.49493
  Beta virt. eigenvalues --    2.49881   2.50735   2.51378   2.52613   2.53653
  Beta virt. eigenvalues --    2.53917   2.55516   2.55562   2.56241   2.56267
  Beta virt. eigenvalues --    2.56492   2.58663   2.59532   2.60802   2.64481
  Beta virt. eigenvalues --    2.65182   2.65835   2.66510   2.67606   2.70784
  Beta virt. eigenvalues --    2.72316   2.73041   2.73323   2.74045   2.79075
  Beta virt. eigenvalues --    2.79641   2.79975   2.80456   2.80689   2.80712
  Beta virt. eigenvalues --    2.81471   2.82679   2.83087   2.83125   2.85447
  Beta virt. eigenvalues --    2.86677   2.87396   2.88281   2.89668   2.92047
  Beta virt. eigenvalues --    2.93101   2.94822   2.94974   2.95107   2.95745
  Beta virt. eigenvalues --    2.95950   2.96313   2.96658   2.96868   2.97382
  Beta virt. eigenvalues --    2.97962   2.98334   2.98516   2.98776   3.16123
  Beta virt. eigenvalues --    3.17318   3.17567   3.17662   3.20523   3.31620
  Beta virt. eigenvalues --    3.32046   3.32859   3.33532   3.33962   3.45979
  Beta virt. eigenvalues --    3.46299   3.46578   3.46911   3.49877   3.52684
  Beta virt. eigenvalues --    3.52896   3.53035   3.53063   3.53604   3.54764
  Beta virt. eigenvalues --    3.55137   3.55661   3.55769   3.56060   3.72175
  Beta virt. eigenvalues --    3.72576   3.72820   3.72946   3.73445   3.91345
  Beta virt. eigenvalues --    3.91781   3.92530   3.92561   3.92619   4.12527
  Beta virt. eigenvalues --    4.12595   4.12879   4.12927   4.13058
          Condensed to atoms (all electrons):
          Atomic-Atomic Spin Densities.
 Mulliken charges and spin densities:
               1          2
     1  C   -0.017372  -0.000000
     2  C    0.078891  -0.000000
     3  N   -0.192144  -0.000000
     4  C    0.077861   0.000000
     5  C    0.115665  -0.000000
     6  O   -0.247152   0.000000
     7  C    0.064205  -0.000000
     8  C    0.024651   0.000000
     9  C   -0.151334  -0.000000
    10  C    0.147893   0.000000
    11  F   -0.096071   0.000000
    12  C    0.036471   0.000000
    13  C   -0.152016  -0.000000
    14  S    0.140188   0.000000
    15  C    0.029729  -0.000000
    16  C    0.069954   0.000000
    17  N   -0.189345   0.000000
    18  C    0.083374  -0.000000
    19  C    0.125731   0.000000
    20  O   -0.249382  -0.000000
    21  C    0.066031  -0.000000
    22  C    0.015275  -0.000000
    23  C   -0.153199   0.000000
    24  C    0.146782  -0.000000
    25  F   -0.095739   0.000000
    26  C    0.037479   0.000000
    27  C   -0.152917  -0.000000
    28  S    0.143130   0.000000
    29  C    0.026829   0.000000
    30  C    0.078703  -0.000000
    31  N   -0.209122   0.000000
    32  C    0.114559   0.000000
    33  C    0.105713  -0.000000
    34  O   -0.223719   0.000000
    35  C    0.061280   0.000000
    36  C    0.015502   0.000000
    37  C   -0.134145  -0.000000
    38  C    0.087701  -0.000000
    39  F   -0.111362   0.000000
    40  C    0.039653   0.000000
    41  C   -0.153000   0.000000
    42  S    0.179145   0.000000
    43  C    0.024442  -0.000000
    44  C    0.076911   0.000000
    45  N   -0.209779  -0.000000
    46  C    0.114493  -0.000000
    47  C    0.106030   0.000000
    48  O   -0.223764   0.000000
    49  C    0.060075  -0.000000
    50  C    0.014842   0.000000
    51  C   -0.134125   0.000000
    52  C    0.087960   0.000000
    53  F   -0.110394   0.000000
    54  C    0.040022  -0.000000
    55  C   -0.151069   0.000000
    56  S    0.174028  -0.000000
    57  C    0.026119   0.000000
    58  C    0.066873  -0.000000
    59  N   -0.190432   0.000000
    60  C    0.094688   0.000000
    61  C    0.126715  -0.000000
    62  O   -0.249422   0.000000
    63  C    0.064573  -0.000000
    64  C    0.013164   0.000000
    65  C   -0.166083  -0.000000
    66  C    0.127264  -0.000000
    67  F   -0.100341   0.000000
    68  C    0.067692   0.000000
    69  C   -0.121255  -0.000000
    70  S    0.158177   0.000000
    71  H   -0.016948   0.000000
    72  H   -0.002402  -0.000000
    73  H    0.052924   0.000000
    74  H    0.051266   0.000000
    75  H    0.049721   0.000000
    76  H   -0.013670  -0.000000
    77  H   -0.009499  -0.000000
    78  H   -0.006194  -0.000000
    79  H    0.053033   0.000000
    80  H    0.050514   0.000000
    81  H    0.052800  -0.000000
    82  H   -0.017353  -0.000000
    83  H   -0.010228   0.000000
    84  H   -0.007018  -0.000000
    85  H    0.055065  -0.000000
    86  H    0.049291  -0.000000
    87  H    0.046350  -0.000000
    88  H   -0.015399   0.000000
    89  H   -0.011397  -0.000000
    90  H   -0.009396  -0.000000
    91  H    0.050020   0.000000
    92  H    0.050242   0.000000
    93  H    0.055239   0.000000
    94  H   -0.010165  -0.000000
    95  H   -0.010131  -0.000000
    96  H   -0.008490   0.000000
    97  H    0.053225   0.000000
    98  H    0.052179   0.000000
    99  H    0.054465  -0.000000
   100  H   -0.012782   0.000000
   101  H   -0.008829   0.000000
   102  H    0.021788  -0.000000
 Sum of Mulliken charges =  -0.00000   0.00000
 Mulliken charges and spin densities with hydrogens summed into heavy atoms:
               1          2
     1  C   -0.034320  -0.000000
     2  C    0.076489  -0.000000
     3  N   -0.192144  -0.000000
     4  C    0.077861   0.000000
     5  C    0.115665  -0.000000
     6  O   -0.247152   0.000000
     7  C    0.218116   0.000000
     8  C    0.010982   0.000000
     9  C   -0.151334  -0.000000
    10  C    0.147893   0.000000
    11  F   -0.096071   0.000000
    12  C    0.026973   0.000000
    13  C   -0.152016  -0.000000
    14  S    0.140188   0.000000
    15  C    0.029729  -0.000000
    16  C    0.063760   0.000000
    17  N   -0.189345   0.000000
    18  C    0.083374  -0.000000
    19  C    0.125731   0.000000
    20  O   -0.249382  -0.000000
    21  C    0.222378   0.000000
    22  C   -0.002079  -0.000000
    23  C   -0.153199   0.000000
    24  C    0.146782  -0.000000
    25  F   -0.095739   0.000000
    26  C    0.027251   0.000000
    27  C   -0.152917  -0.000000
    28  S    0.143130   0.000000
    29  C    0.026829   0.000000
    30  C    0.071685  -0.000000
    31  N   -0.209122   0.000000
    32  C    0.114559   0.000000
    33  C    0.105713  -0.000000
    34  O   -0.223719   0.000000
    35  C    0.211987  -0.000000
    36  C    0.000104   0.000000
    37  C   -0.134145  -0.000000
    38  C    0.087701  -0.000000
    39  F   -0.111362   0.000000
    40  C    0.028256   0.000000
    41  C   -0.153000   0.000000
    42  S    0.179145   0.000000
    43  C    0.024442  -0.000000
    44  C    0.067515   0.000000
    45  N   -0.209779  -0.000000
    46  C    0.114493  -0.000000
    47  C    0.106030   0.000000
    48  O   -0.223764   0.000000
    49  C    0.215576   0.000000
    50  C    0.004677   0.000000
    51  C   -0.134125   0.000000
    52  C    0.087960   0.000000
    53  F   -0.110394   0.000000
    54  C    0.029891  -0.000000
    55  C   -0.151069   0.000000
    56  S    0.174028  -0.000000
    57  C    0.026119   0.000000
    58  C    0.058383  -0.000000
    59  N   -0.190432   0.000000
    60  C    0.094688   0.000000
    61  C    0.126715  -0.000000
    62  O   -0.249422   0.000000
    63  C    0.224442  -0.000000
    64  C    0.000382   0.000000
    65  C   -0.166083  -0.000000
    66  C    0.127264  -0.000000
    67  F   -0.100341   0.000000
    68  C    0.058863   0.000000
    69  C   -0.099467  -0.000000
    70  S    0.158177   0.000000
 Electronic spatial extent (au):  <R**2>=         256452.2823
 Charge=             -0.0000 electrons
 Dipole moment (field-independent basis, Debye):
    X=              6.3125    Y=             -9.4770    Z=             -0.8887  Tot=             11.4215
 Quadrupole moment (field-independent basis, Debye-Ang):
   XX=           -417.3093   YY=           -383.2004   ZZ=           -429.4763
   XY=            -53.3093   XZ=            -42.3583   YZ=             -3.6585
 Traceless Quadrupole moment (field-independent basis, Debye-Ang):
   XX=             -7.3140   YY=             26.7949   ZZ=            -19.4810
   XY=            -53.3093   XZ=            -42.3583   YZ=             -3.6585
 Octapole moment (field-independent basis, Debye-Ang**2):
  XXX=           1289.4391  YYY=            -71.5186  ZZZ=             -5.3114  XYY=             24.1713
  XXY=          -1903.0528  XXZ=           -383.9670  XZZ=             68.7615  YZZ=            -16.3919
  YYZ=            -14.0794  XYZ=            181.3501
 Hexadecapole moment (field-independent basis, Debye-Ang**3):
 XXXX=        -308822.9680 YYYY=          -7965.8749 ZZZZ=          -1528.1366 XXXY=          -7715.1246
 XXXZ=         -12317.0416 YYYX=           -678.0184 YYYZ=           -100.5578 ZZZX=            -35.7071
 ZZZY=              9.9071 XXYY=         -51643.3936 XXZZ=         -56293.2273 YYZZ=          -1582.5024
 XXYZ=           1461.8167 YYXZ=           -452.9849 ZZXY=           -349.8815
 N-N= 9.769808808941D+03 E-N=-3.144887085906D+04  KE= 5.037715570730D+03
 Leave Link  601 at Sun Jul 26 17:59:16 2020, MaxMem=  4026531840 cpu:               9.1 elap:               1.2
 (Enter /opt/ohpc/pub/libs/gaussian/g16-A.03/sandybridge/g16/l9999.exe)

 Test job not archived.
 1\1\GINC-SKYLAKE034\FOpt\ULC-wPBE\CC-pVDZ\C50H32F5N5O5S5\RDU230\26-Jul
 -2020\0\\#P uLC-wPBE/cc-pVDZ iop(3/107=0098400000, 3/108=0098400000) o
 pt\\H32 C50 S5 N5 O5 F5\\0,1\C,19.0770581366,-1.3230402424,-0.41346971
 3\C,18.8469503747,-0.0739853953,0.1739156169\N,17.6228618056,0.4340710
 735,0.3797176351\C,16.5402025264,-0.2819131462,0.0061867428\C,16.68297
 86672,-1.5685842391,-0.6020532534\O,15.52959557,-2.2151913708,-0.94544
 06469\C,15.6310655166,-3.4957176624,-1.5656987456\C,17.969360819,-2.08
 53923187,-0.8092898301\C,15.2366587627,0.3433247551,0.2619908517\C,14.
 9937959247,1.6057377554,0.8128069399\F,15.9560266436,2.4567727771,1.20
 32544279\C,13.6308623945,1.9616867629,0.9544097\C,12.775713463,0.96363
 9918,0.5115969979\S,13.6822707659,-0.4078896895,-0.0953856052\C,11.312
 3667424,0.9647417855,0.494712089\C,10.5802980387,2.1734077001,0.484387
 7443\N,9.2469639192,2.2444420992,0.4833231562\C,8.5154722794,1.1077341
 329,0.4777212394\C,9.1616664392,-0.1679863391,0.4677728126\O,8.3482844
 958,-1.2646370426,0.4569174289\C,8.95339341,-2.5568145957,0.441853891\
 C,10.5580791977,-0.228853702,0.4842708451\C,7.060104765,1.273837369,0.
 4809886707\C,6.3411584467,2.4743439158,0.4706938979\F,6.9074124306,3.6
 916353963,0.4637342187\C,4.9319709464,2.3449279554,0.4765356063\C,4.52
 3237297,1.0194225198,0.4955665524\S,5.905128383,-0.0581595138,0.489464
 135\C,3.1590007712,0.4890502847,0.5062243419\C,2.073460399,1.255066766
 4,0.0264824118\N,0.8121411714,0.8154935119,-0.008143094\C,0.5197219385
 ,-0.4307585542,0.4293582944\C,1.53604,-1.2646861477,0.9884317676\O,1.1
 364401654,-2.4513929781,1.5153047101\C,2.1319078595,-3.3082330252,2.06
 89478933\C,2.8563999928,-0.7973926818,1.0039832637\C,-0.8955143817,-0.
 7959482695,0.3437829014\C,-1.6037807344,-1.9951732704,0.2955103585\F,-
 1.0379945832,-3.2192112064,0.2888576109\C,-3.0108605231,-1.8646254929,
 0.1816432883\C,-3.4149164381,-0.5382463087,0.1221492879\S,-2.033739358
 7,0.5383499325,0.2050356602\C,-4.7744264821,-0.009586843,-0.0026005514
 \C,-5.896285643,-0.7775076277,0.3794769537\N,-7.1563872557,-0.33846766
 04,0.3075821763\C,-7.4105696719,0.9097784198,-0.1480825919\C,-6.349850
 4288,1.7472918415,-0.6125638738\O,-6.7022276923,2.937052265,-1.1635608
 164\C,-5.6616301166,3.8010464873,-1.6164155621\C,-5.0330980842,1.27966
 27962,-0.5170914057\C,-8.8279013344,1.2742781893,-0.1849759853\C,-9.53
 87871657,2.4729414112,-0.1950598645\F,-8.977198191,3.6970091234,-0.133
 916164\C,-10.9505542545,2.3414965033,-0.2059274872\C,-11.357637153,1.0
 150296183,-0.1870626328\S,-9.9735889566,-0.0611069906,-0.1514140283\C,
 -12.7229571213,0.4875561563,-0.1866456112\C,-13.8046826131,1.249701861
 4,-0.6801107055\N,-15.0733734463,0.8315904345,-0.6958628562\C,-15.3784
 945543,-0.3997667459,-0.2305245699\C,-14.3504450464,-1.258577807,0.271
 1288552\O,-14.744175166,-2.4877482362,0.7143208529\C,-13.7488330077,-3
 .3767448023,1.2209369493\C,-13.0292251786,-0.8034516745,0.2961421936\C
 ,-16.7939106267,-0.7795409075,-0.2752868991\C,-17.8657718359,-0.006157
 9378,-0.7309237573\F,-17.7476362205,1.2446363765,-1.207520521\C,-19.14
 11739598,-0.6289797689,-0.6631091663\C,-19.0526638522,-1.9027792495,-0
 .1470866454\S,-17.4257600139,-2.3402318933,0.2540446632\H,20.098830839
 9,-1.6991927781,-0.5620722117\H,19.6892085463,0.5582246183,0.499689322
 \H,14.5927568396,-3.8190660689,-1.7576349446\H,16.1827568283,-3.438506
 2262,-2.5288780113\H,16.13019535,-4.2326620464,-0.8998004149\H,18.1106
 967194,-3.0693989641,-1.2740407384\H,13.3122129175,2.9115614123,1.3983
 689248\H,11.110885588,3.1389539828,0.4583906375\H,8.1178910879,-3.2784
 262666,0.420280144\H,9.5865634785,-2.6977746998,-0.4605675422\H,9.5673
 711387,-2.7291708125,1.3521652567\H,11.0738848875,-1.1976876171,0.5113
 496572\H,4.2607287154,3.2108589978,0.4980547037\H,2.2404927559,2.26883
 54529,-0.3703743517\H,1.5914245858,-4.2084896748,2.4102313785\H,2.6457
 090515,-2.8353325117,2.9344059363\H,2.889581568,-3.599809473,1.3092479
 295\H,3.6561606075,-1.409380915,1.4412458152\H,-3.6788837266,-2.729694
 0178,0.0994000372\H,-5.7635596613,-1.7927483458,0.7856756827\H,-5.0722
 398835,3.3379592777,-2.4377095655\H,-4.975577307,4.0837748413,-0.78873
 58447\H,-6.1710110971,4.7046807409,-1.9943699164\H,-4.1988444746,1.895
 0179801,-0.8788612803\H,-11.6245922089,3.2053760165,-0.1795167391\H,-1
 3.6260449458,2.2514952263,-1.1035126868\H,-13.2435454387,-2.9534482275
 ,2.1157338016\H,-12.987146219,-3.6163028573,0.4479881596\H,-14.2875426
 934,-4.2977846257,1.5048229983\H,-12.2300952052,-1.4339764511,0.707841
 7221\H,-20.0648472008,-0.1358658,-0.9867672966\H,-19.8626058118,-2.619
 8177254,0.0239353869\\Version=EM64L-G16RevA.03\State=1-A\HF=-5061.0622
 535\S2=0.\S2-1=0.\S2A=0.\RMSD=5.290e-09\RMSF=1.638e-06\Dipole=2.499033
 1,-3.7345841,0.000971\Quadrupole=-4.4197965,18.8589643,-14.4391679,-42
 .2125158,-27.8474904,-6.2382681\PG=C01 [X(C50H32F5N5O5S5)]\\@


 GOORD'S AXIOM:  A MEETING IS AN EVENT AT WHICH
 THE MINUTES ARE KEPT AND THE HOURS ARE LOST.
 Job cpu time:       1 days 20 hours 18 minutes 11.9 seconds.
 Elapsed time:       0 days  5 hours 37 minutes 35.1 seconds.
 File lengths (MBytes):  RWF=   1524 Int=      0 D2E=      0 Chk=    136 Scr=      8
 Normal termination of Gaussian 16 at Sun Jul 26 17:59:16 2020.
