 Entering Gaussian System, Link 0=g16
 Input=mols_66_1_03_c-c-c-cF_opt_0.gjf
 Output=mols_66_1_03_c-c-c-cF_opt_0.log
 Initial command:
 /opt/ohpc/pub/libs/gaussian/g16-A.03/sandybridge/g16/l1.exe "/mnt/gpfs2_4m/scratch/rdu230/ondemand/projects/dihedral_energies/7trial/wtuning/mols_66_1_03_c-c-c-cF/Gau-288397.inp" -scrdir="/mnt/gpfs2_4m/scratch/rdu230/ondemand/projects/dihedral_energies/7trial/wtuning/mols_66_1_03_c-c-c-cF/"
 Entering Link 1 = /opt/ohpc/pub/libs/gaussian/g16-A.03/sandybridge/g16/l1.exe PID=    288398.
  
 Copyright (c) 1988,1990,1992,1993,1995,1998,2003,2009,2016,
            Gaussian, Inc.  All Rights Reserved.
  
 This is part of the Gaussian(R) 16 program.  It is based on
 the Gaussian(R) 09 system (copyright 2009, Gaussian, Inc.),
 the Gaussian(R) 03 system (copyright 2003, Gaussian, Inc.),
 the Gaussian(R) 98 system (copyright 1998, Gaussian, Inc.),
 the Gaussian(R) 94 system (copyright 1995, Gaussian, Inc.),
 the Gaussian 92(TM) system (copyright 1992, Gaussian, Inc.),
 the Gaussian 90(TM) system (copyright 1990, Gaussian, Inc.),
 the Gaussian 88(TM) system (copyright 1988, Gaussian, Inc.),
 the Gaussian 86(TM) system (copyright 1986, Carnegie Mellon
 University), and the Gaussian 82(TM) system (copyright 1983,
 Carnegie Mellon University). Gaussian is a federally registered
 trademark of Gaussian, Inc.
  
 This software contains proprietary and confidential information,
 including trade secrets, belonging to Gaussian, Inc.
  
 This software is provided under written license and may be
 used, copied, transmitted, or stored only in accord with that
 written license.
  
 The following legend is applicable only to US Government
 contracts under FAR:
  
                    RESTRICTED RIGHTS LEGEND
  
 Use, reproduction and disclosure by the US Government is
 subject to restrictions as set forth in subparagraphs (a)
 and (c) of the Commercial Computer Software - Restricted
 Rights clause in FAR 52.227-19.
  
 Gaussian, Inc.
 340 Quinnipiac St., Bldg. 40, Wallingford CT 06492
  
  
 ---------------------------------------------------------------
 Warning -- This program may not be used in any manner that
 competes with the business of Gaussian, Inc. or will provide
 assistance to any competitor of Gaussian, Inc.  The licensee
 of this program is prohibited from giving any competitor of
 Gaussian, Inc. access to this program.  By using this program,
 the user acknowledges that Gaussian, Inc. is engaged in the
 business of creating and licensing software in the field of
 computational chemistry and represents and warrants to the
 licensee that it is not a competitor of Gaussian, Inc. and that
 it will not use this program in any manner prohibited above.
 ---------------------------------------------------------------
  

 Cite this work as:
 Gaussian 16, Revision A.03,
 M. J. Frisch, G. W. Trucks, H. B. Schlegel, G. E. Scuseria, 
 M. A. Robb, J. R. Cheeseman, G. Scalmani, V. Barone, 
 G. A. Petersson, H. Nakatsuji, X. Li, M. Caricato, A. V. Marenich, 
 J. Bloino, B. G. Janesko, R. Gomperts, B. Mennucci, H. P. Hratchian, 
 J. V. Ortiz, A. F. Izmaylov, J. L. Sonnenberg, D. Williams-Young, 
 F. Ding, F. Lipparini, F. Egidi, J. Goings, B. Peng, A. Petrone, 
 T. Henderson, D. Ranasinghe, V. G. Zakrzewski, J. Gao, N. Rega, 
 G. Zheng, W. Liang, M. Hada, M. Ehara, K. Toyota, R. Fukuda, 
 J. Hasegawa, M. Ishida, T. Nakajima, Y. Honda, O. Kitao, H. Nakai, 
 T. Vreven, K. Throssell, J. A. Montgomery, Jr., J. E. Peralta, 
 F. Ogliaro, M. J. Bearpark, J. J. Heyd, E. N. Brothers, K. N. Kudin, 
 V. N. Staroverov, T. A. Keith, R. Kobayashi, J. Normand, 
 K. Raghavachari, A. P. Rendell, J. C. Burant, S. S. Iyengar, 
 J. Tomasi, M. Cossi, J. M. Millam, M. Klene, C. Adamo, R. Cammi, 
 J. W. Ochterski, R. L. Martin, K. Morokuma, O. Farkas, 
 J. B. Foresman, and D. J. Fox, Gaussian, Inc., Wallingford CT, 2016.
 
 ******************************************
 Gaussian 16:  EM64L-G16RevA.03 25-Dec-2016
                24-Jul-2020 
 ******************************************
 %mem=30GB
 %nproc=8
 Will use up to    8 processors via shared memory.
 ---------------------------------------------------------------
 #P uLC-wPBE/cc-pVDZ iop(3/107=0360500000, 3/108=0360500000) opt
 ---------------------------------------------------------------
 1/18=20,19=15,26=3,38=1/1,3;
 2/9=110,12=2,17=6,18=5,40=1/2;
 3/5=16,11=2,25=1,30=1,71=1,74=-41,107=360500000,108=360500000,116=2/1,2,3;
 4//1;
 5/5=2,38=5/2;
 6/7=2,8=2,9=2,10=2,28=1/1;
 7//1,2,3,16;
 1/18=20,19=15,26=3/3(2);
 2/9=110/2;
 99//99;
 2/9=110/2;
 3/5=16,11=2,25=1,30=1,71=1,74=-41,107=360500000,108=360500000,116=2/1,2,3;
 4/5=5,16=3,69=1/1;
 5/5=2,38=5/2;
 7//1,2,3,16;
 1/18=20,19=15,26=3/3(-5);
 2/9=110/2;
 6/7=2,8=2,9=2,10=2,19=2,28=1/1;
 99/9=1/99;
 Leave Link    1 at Fri Jul 24 14:04:07 2020, MaxMem=  4026531840 cpu:               1.7 elap:               0.2
 (Enter /opt/ohpc/pub/libs/gaussian/g16-A.03/sandybridge/g16/l101.exe)
 ---------
 H9 C12 F1
 ---------
 Symbolic Z-matrix:
 Charge =  0 Multiplicity = 1
 C                    -3.68819  -0.08666   0.05138 
 C                    -2.91558   0.85941   0.75746 
 C                    -1.48843   0.86299   0.68883 
 C                    -0.80665  -0.12727   0.0193 
 C                    -1.54643  -1.1295   -0.60245 
 C                    -2.9999   -1.07122  -0.61011 
 C                     0.62368  -0.25648   0.08218 
 C                     1.36462  -1.44254   0.39242 
 C                     2.77179  -1.48441   0.40348 
 C                     3.48245  -0.39717   0.08724 
 C                     2.87053   0.87422  -0.25037 
 C                     1.46931   0.92657  -0.22522 
 F                     0.83702   2.04632  -0.54758 
 H                    -4.70472  -0.02998  -0.01592 
 H                    -3.40853   1.71343   1.21683 
 H                    -0.93981   1.58445   1.24702 
 H                    -1.0641   -1.97241  -1.21025 
 H                    -3.54911  -1.7977   -1.20718 
 H                     0.73269  -2.34103   0.67763 
 H                     3.25135  -2.38025   0.64479 
 H                     4.53367  -0.43426   0.0953 
 H                     3.39551   1.69664  -0.45485 
 
 ITRead=  0  0  0  0  0  0  0  0  0  0  0  0  0  0  0  0  0  0  0  0
 ITRead=  0  0
 MicOpt= -1 -1 -1 -1 -1 -1 -1 -1 -1 -1 -1 -1 -1 -1 -1 -1 -1 -1 -1 -1
 MicOpt= -1 -1
 NAtoms=     22 NQM=       22 NQMF=       0 NMMI=      0 NMMIF=      0
                NMic=       0 NMicF=      0.
                    Isotopes and Nuclear Properties:
 (Nuclear quadrupole moments (NQMom) in fm**2, nuclear magnetic moments (NMagM)
  in nuclear magnetons)

  Atom         1           2           3           4           5           6           7           8           9          10
 IAtWgt=          12          12          12          12          12          12          12          12          12          12
 AtmWgt=  12.0000000  12.0000000  12.0000000  12.0000000  12.0000000  12.0000000  12.0000000  12.0000000  12.0000000  12.0000000
 NucSpn=           0           0           0           0           0           0           0           0           0           0
 AtZEff=  -0.0000000  -0.0000000  -0.0000000  -0.0000000  -0.0000000  -0.0000000  -0.0000000  -0.0000000  -0.0000000  -0.0000000
 NQMom=    0.0000000   0.0000000   0.0000000   0.0000000   0.0000000   0.0000000   0.0000000   0.0000000   0.0000000   0.0000000
 NMagM=    0.0000000   0.0000000   0.0000000   0.0000000   0.0000000   0.0000000   0.0000000   0.0000000   0.0000000   0.0000000
 AtZNuc=   6.0000000   6.0000000   6.0000000   6.0000000   6.0000000   6.0000000   6.0000000   6.0000000   6.0000000   6.0000000

  Atom        11          12          13          14          15          16          17          18          19          20
 IAtWgt=          12          12          19           1           1           1           1           1           1           1
 AtmWgt=  12.0000000  12.0000000  18.9984033   1.0078250   1.0078250   1.0078250   1.0078250   1.0078250   1.0078250   1.0078250
 NucSpn=           0           0           1           1           1           1           1           1           1           1
 AtZEff=  -0.0000000  -0.0000000  -0.0000000  -0.0000000  -0.0000000  -0.0000000  -0.0000000  -0.0000000  -0.0000000  -0.0000000
 NQMom=    0.0000000   0.0000000   0.0000000   0.0000000   0.0000000   0.0000000   0.0000000   0.0000000   0.0000000   0.0000000
 NMagM=    0.0000000   0.0000000   2.6288670   2.7928460   2.7928460   2.7928460   2.7928460   2.7928460   2.7928460   2.7928460
 AtZNuc=   6.0000000   6.0000000   9.0000000   1.0000000   1.0000000   1.0000000   1.0000000   1.0000000   1.0000000   1.0000000

  Atom        21          22
 IAtWgt=           1           1
 AtmWgt=   1.0078250   1.0078250
 NucSpn=           1           1
 AtZEff=  -0.0000000  -0.0000000
 NQMom=    0.0000000   0.0000000
 NMagM=    2.7928460   2.7928460
 AtZNuc=   1.0000000   1.0000000
 Leave Link  101 at Fri Jul 24 14:04:07 2020, MaxMem=  4026531840 cpu:               3.2 elap:               0.4
 (Enter /opt/ohpc/pub/libs/gaussian/g16-A.03/sandybridge/g16/l103.exe)

 GradGradGradGradGradGradGradGradGradGradGradGradGradGradGradGradGradGrad
 Berny optimization.
 Initialization pass.
                           ----------------------------
                           !    Initial Parameters    !
                           ! (Angstroms and Degrees)  !
 --------------------------                            --------------------------
 ! Name  Definition              Value          Derivative Info.                !
 --------------------------------------------------------------------------------
 ! R1    R(1,2)                  1.4109         estimate D2E/DX2                !
 ! R2    R(1,6)                  1.3714         estimate D2E/DX2                !
 ! R3    R(1,14)                 1.0203         estimate D2E/DX2                !
 ! R4    R(2,3)                  1.4288         estimate D2E/DX2                !
 ! R5    R(2,15)                 1.0878         estimate D2E/DX2                !
 ! R6    R(3,4)                  1.3761         estimate D2E/DX2                !
 ! R7    R(3,16)                 1.0645         estimate D2E/DX2                !
 ! R8    R(4,5)                  1.3922         estimate D2E/DX2                !
 ! R9    R(4,7)                  1.4375         estimate D2E/DX2                !
 ! R10   R(5,6)                  1.4547         estimate D2E/DX2                !
 ! R11   R(5,17)                 1.1457         estimate D2E/DX2                !
 ! R12   R(6,18)                 1.089          estimate D2E/DX2                !
 ! R13   R(7,8)                  1.4325         estimate D2E/DX2                !
 ! R14   R(7,12)                 1.4863         estimate D2E/DX2                !
 ! R15   R(8,9)                  1.4078         estimate D2E/DX2                !
 ! R16   R(8,19)                 1.1349         estimate D2E/DX2                !
 ! R17   R(9,10)                 1.3368         estimate D2E/DX2                !
 ! R18   R(9,20)                 1.0444         estimate D2E/DX2                !
 ! R19   R(10,11)                1.4508         estimate D2E/DX2                !
 ! R20   R(10,21)                1.0519         estimate D2E/DX2                !
 ! R21   R(11,12)                1.4024         estimate D2E/DX2                !
 ! R22   R(11,22)                0.9969         estimate D2E/DX2                !
 ! R23   R(12,13)                1.3257         estimate D2E/DX2                !
 ! A1    A(2,1,6)              116.6136         estimate D2E/DX2                !
 ! A2    A(2,1,14)             122.7745         estimate D2E/DX2                !
 ! A3    A(6,1,14)             120.5373         estimate D2E/DX2                !
 ! A4    A(1,2,3)              121.643          estimate D2E/DX2                !
 ! A5    A(1,2,15)             119.3153         estimate D2E/DX2                !
 ! A6    A(3,2,15)             118.0958         estimate D2E/DX2                !
 ! A7    A(2,3,4)              121.093          estimate D2E/DX2                !
 ! A8    A(2,3,16)             119.4268         estimate D2E/DX2                !
 ! A9    A(4,3,16)             119.1775         estimate D2E/DX2                !
 ! A10   A(3,4,5)              118.1673         estimate D2E/DX2                !
 ! A11   A(3,4,7)              122.4358         estimate D2E/DX2                !
 ! A12   A(5,4,7)              118.9161         estimate D2E/DX2                !
 ! A13   A(4,5,6)              120.294          estimate D2E/DX2                !
 ! A14   A(4,5,17)             122.8776         estimate D2E/DX2                !
 ! A15   A(6,5,17)             116.5738         estimate D2E/DX2                !
 ! A16   A(1,6,5)              121.851          estimate D2E/DX2                !
 ! A17   A(1,6,18)             119.3594         estimate D2E/DX2                !
 ! A18   A(5,6,18)             118.6905         estimate D2E/DX2                !
 ! A19   A(4,7,8)              126.7664         estimate D2E/DX2                !
 ! A20   A(4,7,12)             119.045          estimate D2E/DX2                !
 ! A21   A(8,7,12)             114.1759         estimate D2E/DX2                !
 ! A22   A(7,8,9)              122.9107         estimate D2E/DX2                !
 ! A23   A(7,8,19)             114.9561         estimate D2E/DX2                !
 ! A24   A(9,8,19)             122.0755         estimate D2E/DX2                !
 ! A25   A(8,9,10)             120.3511         estimate D2E/DX2                !
 ! A26   A(8,9,20)             119.0973         estimate D2E/DX2                !
 ! A27   A(10,9,20)            120.5422         estimate D2E/DX2                !
 ! A28   A(9,10,11)            122.9254         estimate D2E/DX2                !
 ! A29   A(9,10,21)            120.0502         estimate D2E/DX2                !
 ! A30   A(11,10,21)           117.0126         estimate D2E/DX2                !
 ! A31   A(10,11,12)           116.7405         estimate D2E/DX2                !
 ! A32   A(10,11,22)           123.2697         estimate D2E/DX2                !
 ! A33   A(12,11,22)           119.937          estimate D2E/DX2                !
 ! A34   A(7,12,11)            122.8505         estimate D2E/DX2                !
 ! A35   A(7,12,13)            116.8224         estimate D2E/DX2                !
 ! A36   A(11,12,13)           120.2448         estimate D2E/DX2                !
 ! D1    D(6,1,2,3)              5.4395         estimate D2E/DX2                !
 ! D2    D(6,1,2,15)           174.0967         estimate D2E/DX2                !
 ! D3    D(14,1,2,3)          -171.4304         estimate D2E/DX2                !
 ! D4    D(14,1,2,15)           -2.7731         estimate D2E/DX2                !
 ! D5    D(2,1,6,5)             -0.8548         estimate D2E/DX2                !
 ! D6    D(2,1,6,18)          -177.1888         estimate D2E/DX2                !
 ! D7    D(14,1,6,5)           176.0895         estimate D2E/DX2                !
 ! D8    D(14,1,6,18)           -0.2444         estimate D2E/DX2                !
 ! D9    D(1,2,3,4)             -5.5116         estimate D2E/DX2                !
 ! D10   D(1,2,3,16)          -179.1405         estimate D2E/DX2                !
 ! D11   D(15,2,3,4)          -174.302          estimate D2E/DX2                !
 ! D12   D(15,2,3,16)           12.0691         estimate D2E/DX2                !
 ! D13   D(2,3,4,5)              0.5964         estimate D2E/DX2                !
 ! D14   D(2,3,4,7)           -171.3545         estimate D2E/DX2                !
 ! D15   D(16,3,4,5)           174.2409         estimate D2E/DX2                !
 ! D16   D(16,3,4,7)             2.29           estimate D2E/DX2                !
 ! D17   D(3,4,5,6)              3.9148         estimate D2E/DX2                !
 ! D18   D(3,4,5,17)           177.9168         estimate D2E/DX2                !
 ! D19   D(7,4,5,6)            176.1556         estimate D2E/DX2                !
 ! D20   D(7,4,5,17)            -9.8424         estimate D2E/DX2                !
 ! D21   D(3,4,7,8)            129.0201         estimate D2E/DX2                !
 ! D22   D(3,4,7,12)           -52.3533         estimate D2E/DX2                !
 ! D23   D(5,4,7,8)            -42.8729         estimate D2E/DX2                !
 ! D24   D(5,4,7,12)           135.7536         estimate D2E/DX2                !
 ! D25   D(4,5,6,1)             -3.8898         estimate D2E/DX2                !
 ! D26   D(4,5,6,18)           172.4678         estimate D2E/DX2                !
 ! D27   D(17,5,6,1)          -178.2587         estimate D2E/DX2                !
 ! D28   D(17,5,6,18)           -1.9011         estimate D2E/DX2                !
 ! D29   D(4,7,8,9)            178.6051         estimate D2E/DX2                !
 ! D30   D(4,7,8,19)            -4.105          estimate D2E/DX2                !
 ! D31   D(12,7,8,9)            -0.0788         estimate D2E/DX2                !
 ! D32   D(12,7,8,19)          177.2112         estimate D2E/DX2                !
 ! D33   D(4,7,12,11)         -176.8824         estimate D2E/DX2                !
 ! D34   D(4,7,12,13)           -0.1794         estimate D2E/DX2                !
 ! D35   D(8,7,12,11)            1.9116         estimate D2E/DX2                !
 ! D36   D(8,7,12,13)          178.6147         estimate D2E/DX2                !
 ! D37   D(7,8,9,10)            -1.5354         estimate D2E/DX2                !
 ! D38   D(7,8,9,20)           179.5751         estimate D2E/DX2                !
 ! D39   D(19,8,9,10)         -178.6355         estimate D2E/DX2                !
 ! D40   D(19,8,9,20)            2.4749         estimate D2E/DX2                !
 ! D41   D(8,9,10,11)            1.4031         estimate D2E/DX2                !
 ! D42   D(8,9,10,21)         -179.8856         estimate D2E/DX2                !
 ! D43   D(20,9,10,11)        -179.7235         estimate D2E/DX2                !
 ! D44   D(20,9,10,21)          -1.0123         estimate D2E/DX2                !
 ! D45   D(9,10,11,12)           0.3689         estimate D2E/DX2                !
 ! D46   D(9,10,11,22)         177.7178         estimate D2E/DX2                !
 ! D47   D(21,10,11,12)       -178.379          estimate D2E/DX2                !
 ! D48   D(21,10,11,22)         -1.0301         estimate D2E/DX2                !
 ! D49   D(10,11,12,7)          -2.0732         estimate D2E/DX2                !
 ! D50   D(10,11,12,13)       -178.6673         estimate D2E/DX2                !
 ! D51   D(22,11,12,7)        -179.5154         estimate D2E/DX2                !
 ! D52   D(22,11,12,13)          3.8906         estimate D2E/DX2                !
 --------------------------------------------------------------------------------
 Trust Radius=3.00D-01 FncErr=1.00D-07 GrdErr=1.00D-06 EigMax=2.50D+02 EigMin=1.00D-04
 Number of steps in this run=    121 maximum allowed number of steps=    132.
 GradGradGradGradGradGradGradGradGradGradGradGradGradGradGradGradGradGrad

 Leave Link  103 at Fri Jul 24 14:04:07 2020, MaxMem=  4026531840 cpu:               0.2 elap:               0.0
 (Enter /opt/ohpc/pub/libs/gaussian/g16-A.03/sandybridge/g16/l202.exe)
                          Input orientation:                          
 ---------------------------------------------------------------------
 Center     Atomic      Atomic             Coordinates (Angstroms)
 Number     Number       Type             X           Y           Z
 ---------------------------------------------------------------------
      1          6           0       -3.688193   -0.086663    0.051378
      2          6           0       -2.915575    0.859412    0.757464
      3          6           0       -1.488428    0.862992    0.688831
      4          6           0       -0.806651   -0.127269    0.019303
      5          6           0       -1.546433   -1.129503   -0.602451
      6          6           0       -2.999904   -1.071220   -0.610112
      7          6           0        0.623675   -0.256482    0.082181
      8          6           0        1.364618   -1.442538    0.392416
      9          6           0        2.771786   -1.484412    0.403475
     10          6           0        3.482447   -0.397166    0.087243
     11          6           0        2.870531    0.874222   -0.250371
     12          6           0        1.469309    0.926570   -0.225219
     13          9           0        0.837017    2.046324   -0.547584
     14          1           0       -4.704717   -0.029975   -0.015924
     15          1           0       -3.408528    1.713425    1.216834
     16          1           0       -0.939810    1.584451    1.247023
     17          1           0       -1.064095   -1.972410   -1.210245
     18          1           0       -3.549114   -1.797700   -1.207175
     19          1           0        0.732685   -2.341033    0.677628
     20          1           0        3.251353   -2.380254    0.644788
     21          1           0        4.533665   -0.434261    0.095300
     22          1           0        3.395508    1.696644   -0.454854
 ---------------------------------------------------------------------
                    Distance matrix (angstroms):
                    1          2          3          4          5
     1  C    0.000000
     2  C    1.410870   0.000000
     3  C    2.479346   1.428801   0.000000
     4  C    2.882007   2.442536   1.376119   0.000000
     5  C    2.470252   2.771227   2.375039   1.392239   0.000000
     6  C    1.371373   2.367428   2.777227   2.469325   1.454659
     7  C    4.315321   3.771938   2.466217   1.437526   2.437264
     8  C    5.242671   4.873632   3.680109   2.565844   3.092243
     9  C    6.618837   6.161566   4.872490   3.846380   4.448018
    10  C    7.177449   6.554607   5.163284   4.298118   5.128511
    11  C    6.635602   5.873242   4.459008   3.820651   4.862967
    12  C    5.263361   4.494150   3.096407   2.519992   3.669392
    13  F    5.038444   4.146548   2.887333   2.783435   3.971111
    14  H    1.020326   2.142468   3.411537   3.899439   3.395252
    15  H    2.162595   1.087824   2.165365   3.404702   3.854794
    16  H    3.431588   2.160786   1.064454   2.110690   3.339774
    17  H    3.468952   3.913959   3.438903   2.232176   1.145668
    18  H    2.128602   3.364732   3.862712   3.437396   2.196112
    19  H    5.001853   4.853764   3.898621   2.775554   2.881108
    20  H    7.332803   6.967003   5.743353   4.683436   5.112605
    21  H    8.229320   7.589679   6.188760   5.349672   6.159368
    22  H    7.322245   6.480775   5.084862   4.605391   5.694881
                    6          7          8          9         10
     6  C    0.000000
     7  C    3.778014   0.000000
     8  C    4.493550   1.432470   0.000000
     9  C    5.874563   2.495080   1.407834   0.000000
    10  C    6.554504   2.862236   2.381414   1.336842   0.000000
    11  C    6.194850   2.537212   2.836957   2.449575   1.450811
    12  C    4.910517   1.486339   2.450532   2.811501   2.429534
    13  F    4.944184   2.396880   3.651592   4.136900   3.656768
    14  H    2.084140   5.334106   6.244910   7.628196   8.196043
    15  H    3.355436   4.628891   5.781236   7.005997   7.294937
    16  H    3.839990   2.681488   3.899154   4.889319   4.982796
    17  H    2.218031   2.731912   2.957691   4.190014   4.983564
    18  H    1.088985   4.631410   5.179729   6.530400   7.285593
    19  H    4.147640   2.170667   1.134891   2.228653   3.418825
    20  H    6.508960   3.425146   2.121974   1.044389   2.072896
    21  H    7.593286   3.914052   3.338826   2.074128   1.051903
    22  H    6.970400   3.433099   3.833646   3.353338   2.164594
                   11         12         13         14         15
    11  C    0.000000
    12  C    1.402425   0.000000
    13  F    2.365869   1.325731   0.000000
    14  H    7.632622   6.251190   5.941759   0.000000
    15  H    6.502579   5.147033   4.609625   2.497847   0.000000
    16  H    4.155155   2.898993   2.567305   4.286716   2.472269
    17  H    4.950349   3.973977   4.494838   4.295764   4.997245
    18  H    7.019009   5.794002   5.869389   2.424737   4.268909
    19  H    3.971074   3.469146   4.556416   5.948726   5.820569
    20  H    3.396756   3.855863   5.181251   8.322223   7.838333
    21  H    2.144209   3.368215   4.497978   9.247893   8.303543
    22  H    0.996891   2.087101   2.583941   8.293824   7.006406
                   16         17         18         19         20
    16  H    0.000000
    17  H    4.324913   0.000000
    18  H    4.926510   2.491155   0.000000
    19  H    4.304750   2.632179   4.709724   0.000000
    20  H    5.800640   4.714931   7.072163   2.519187   0.000000
    21  H    5.946477   5.950233   8.299803   4.292125   2.394400
    22  H    4.658750   5.824142   7.810519   4.967492   4.225055
                   21         22
    21  H    0.000000
    22  H    2.477666   0.000000
 Stoichiometry    C12H9F
 Framework group  C1[X(C12H9F)]
 Deg. of freedom    60
 Full point group                 C1      NOp   1
 Largest Abelian subgroup         C1      NOp   1
 Largest concise Abelian subgroup C1      NOp   1
                         Standard orientation:                         
 ---------------------------------------------------------------------
 Center     Atomic      Atomic             Coordinates (Angstroms)
 Number     Number       Type             X           Y           Z
 ---------------------------------------------------------------------
      1          6           0       -3.694488   -0.100906    0.037539
      2          6           0       -2.927522    0.850032    0.743255
      3          6           0       -1.500324    0.860655    0.676446
      4          6           0       -0.812740   -0.127139    0.009216
      5          6           0       -1.546697   -1.133950   -0.612046
      6          6           0       -3.000431   -1.082951   -0.621654
      7          6           0        0.618133   -0.249103    0.074112
      8          6           0        1.364598   -1.430992    0.387000
      9          6           0        2.771943   -1.465809    0.399923
     10          6           0        3.477564   -0.375474    0.083041
     11          6           0        2.859732    0.892352   -0.257183
     12          6           0        1.458234    0.937724   -0.233902
     13          9           0        0.820765    2.053838   -0.558686
     14          1           0       -4.711195   -0.049401   -0.031147
     15          1           0       -3.425332    1.702224    1.200766
     16          1           0       -0.956041    1.585647    1.234304
     17          1           0       -1.059366   -1.975301   -1.218010
     18          1           0       -3.545230   -1.813023   -1.218376
     19          1           0        0.736800   -2.332229    0.672692
     20          1           0        3.255673   -2.358894    0.643137
     21          1           0        4.528943   -0.407297    0.092498
     22          1           0        3.380852    1.717097   -0.462174
 ---------------------------------------------------------------------
 Rotational constants (GHZ):           1.8951211           0.5205987           0.4361829
 Leave Link  202 at Fri Jul 24 14:04:07 2020, MaxMem=  4026531840 cpu:               0.2 elap:               0.1
 (Enter /opt/ohpc/pub/libs/gaussian/g16-A.03/sandybridge/g16/l301.exe)
 Standard basis: CC-pVDZ (5D, 7F)
 Ernie: Thresh=  0.10000D-02 Tol=  0.10000D-05 Strict=F.
 Ernie:  26 primitive shells out of 331 were deleted.
 There are   240 symmetry adapted cartesian basis functions of A   symmetry.
 There are   227 symmetry adapted basis functions of A   symmetry.
   227 basis functions,   492 primitive gaussians,   240 cartesian basis functions
    45 alpha electrons       45 beta electrons
       nuclear repulsion energy       705.5265155587 Hartrees.
 IExCor=32609 DFT=T Ex+Corr=LC-wPBE ExCW=0 ScaHFX=  1.000000
 ScaDFX=  1.000000  0.000000  1.000000  1.000000 ScalE2=  1.000000  1.000000
 IRadAn=      5 IRanWt=     -1 IRanGd=            0 ICorTp=0 IEmpDi=  4
 HFx  wShort=  0.000000 wLong=  0.360500 cFull=  0.000000 cShort=  0.000000 cLong=  1.000000
 DFx  wShort=  0.000000 wLong=  0.360500 cFull=  0.000000 cShort=  0.000000 cLong=  1.000000
 NAtoms=   22 NActive=   22 NUniq=   22 SFac= 1.00D+00 NAtFMM=   60 NAOKFM=F Big=F
 Integral buffers will be    131072 words long.
 Raffenetti 2 integral format.
 Two-electron integral symmetry is turned on.
 Leave Link  301 at Fri Jul 24 14:04:07 2020, MaxMem=  4026531840 cpu:               0.6 elap:               0.1
 (Enter /opt/ohpc/pub/libs/gaussian/g16-A.03/sandybridge/g16/l302.exe)
 NPDir=0 NMtPBC=     1 NCelOv=     1 NCel=       1 NClECP=     1 NCelD=      1
         NCelK=      1 NCelE2=     1 NClLst=     1 CellRange=     0.0.
 One-electron integrals computed using PRISM.
 One-electron integral symmetry used in STVInt
 NBasis=   227 RedAO= T EigKep=  3.66D-04  NBF=   227
 NBsUse=   227 1.00D-06 EigRej= -1.00D+00 NBFU=   227
 Precomputing XC quadrature grid using
 IXCGrd= 4 IRadAn=           5 IRanWt=          -1 IRanGd=           0 AccXCQ= 0.00D+00.
 Generated NRdTot=       0 NPtTot=           0 NUsed=           0 NTot=          32
 NSgBfM=   240   240   240   240   240 MxSgAt=    22 MxSgA2=    22.
 Leave Link  302 at Fri Jul 24 14:04:08 2020, MaxMem=  4026531840 cpu:               3.2 elap:               0.5
 (Enter /opt/ohpc/pub/libs/gaussian/g16-A.03/sandybridge/g16/l303.exe)
 DipDrv:  MaxL=1.
 Leave Link  303 at Fri Jul 24 14:04:08 2020, MaxMem=  4026531840 cpu:               0.6 elap:               0.2
 (Enter /opt/ohpc/pub/libs/gaussian/g16-A.03/sandybridge/g16/l401.exe)
 ExpMin= 1.22D-01 ExpMax= 1.47D+04 ExpMxC= 5.03D+02 IAcc=3 IRadAn=         5 AccDes= 0.00D+00
 Harris functional with IExCor=32609 and IRadAn=       5 diagonalized for initial guess.
 HarFok:  IExCor=32609 AccDes= 0.00D+00 IRadAn=         5 IDoV= 1 UseB2=F ITyADJ=14
 ICtDFT=  3500011 ScaDFX=  1.000000  1.000000  1.000000  1.000000
 FoFCou: FMM=F IPFlag=           0 FMFlag=      100000 FMFlg1=           0
         NFxFlg=           0 DoJE=T BraDBF=F KetDBF=T FulRan=T
         wScrn=  0.000000 ICntrl=       500 IOpCl=  0 I1Cent=   200000004 NGrid=           0
         NMat0=    1 NMatS0=      1 NMatT0=    0 NMatD0=    1 NMtDS0=    0 NMtDT0=    0
 Petite list used in FoFCou.
 Harris En= -562.093912323731    
 JPrj=0 DoOrth=F DoCkMO=F.
 Initial guess <Sx>= 0.0000 <Sy>= 0.0000 <Sz>= 0.0000 <S**2>=-0.0000 S=-0.0000
 Leave Link  401 at Fri Jul 24 14:04:11 2020, MaxMem=  4026531840 cpu:              18.8 elap:               2.4
 (Enter /opt/ohpc/pub/libs/gaussian/g16-A.03/sandybridge/g16/l502.exe)
 Integral symmetry usage will be decided dynamically.
 UHF open shell SCF:
 Using DIIS extrapolation, IDIIS=  1040.
 NGot=  4026531840 LenX=  4026412138 LenY=  4026354097
 Requested convergence on RMS density matrix=1.00D-08 within 128 cycles.
 Requested convergence on MAX density matrix=1.00D-06.
 Requested convergence on             energy=1.00D-06.
 No special actions if energy rises.
 Fock matrices will be formed incrementally for  20 cycles.
 Integral accuracy reduced to 1.0D-05 until final iterations.

 Cycle   1  Pass 0  IDiag  1:
 FoFJK:  IHMeth= 1 ICntrl=       0 DoSepK=T KAlg= 0 I1Cent=           0 FoldK=F
 IRaf=         1 NMat=       1 IRICut=       1 DoRegI=T DoRafI=F ISym2E= 0 IDoP0=0 IntGTp=1.
 FoFCou: FMM=F IPFlag=           0 FMFlag=      100000 FMFlg1=           0
         NFxFlg=           0 DoJE=T BraDBF=F KetDBF=F FulRan=T
         wScrn=  0.000000 ICntrl=       500 IOpCl=  0 I1Cent=           0 NGrid=           0
         NMat0=    1 NMatS0=      1 NMatT0=    0 NMatD0=    1 NMtDS0=    0 NMtDT0=    0
 Symmetry not used in FoFCou.
 E= -561.883379787191    
 DIIS: error= 2.68D-02 at cycle   1 NSaved=   1.
 NSaved= 1 IEnMin= 1 EnMin= -561.883379787191     IErMin= 1 ErrMin= 2.68D-02
 ErrMax= 2.68D-02  0.00D+00 EMaxC= 1.00D-01 BMatC= 7.69D-01 BMatP= 7.69D-01
 IDIUse=3 WtCom= 7.32D-01 WtEn= 2.68D-01
 Coeff-Com:  0.100D+01
 Coeff-En:   0.100D+01
 Coeff:      0.100D+01
 Gap=     0.393 Goal=   None    Shift=    0.000
 Gap=     0.393 Goal=   None    Shift=    0.000
 GapD=    0.393 DampG=1.000 DampE=0.500 DampFc=0.5000 IDamp=-1.
 Damping current iteration by 5.00D-01
 RMSDP=3.85D-03 MaxDP=8.69D-02              OVMax= 1.74D-01

 Cycle   2  Pass 0  IDiag  1:
 RMSU=  1.84D-03    CP:  9.75D-01
 E= -562.005388194938     Delta-E=       -0.122008407747 Rises=F Damp=T
 DIIS: error= 8.08D-03 at cycle   2 NSaved=   2.
 NSaved= 2 IEnMin= 2 EnMin= -562.005388194938     IErMin= 2 ErrMin= 8.08D-03
 ErrMax= 8.08D-03  0.00D+00 EMaxC= 1.00D-01 BMatC= 5.90D-02 BMatP= 7.69D-01
 IDIUse=3 WtCom= 9.19D-01 WtEn= 8.08D-02
 Coeff-Com: -0.194D+00 0.119D+01
 Coeff-En:   0.000D+00 0.100D+01
 Coeff:     -0.178D+00 0.118D+01
 Gap=     0.379 Goal=   None    Shift=    0.000
 Gap=     0.379 Goal=   None    Shift=    0.000
 RMSDP=1.42D-03 MaxDP=2.37D-02 DE=-1.22D-01 OVMax= 8.26D-02

 Cycle   3  Pass 0  IDiag  1:
 RMSU=  1.01D-03    CP:  9.58D-01  1.49D+00
 E= -562.111142531859     Delta-E=       -0.105754336921 Rises=F Damp=F
 DIIS: error= 2.83D-03 at cycle   3 NSaved=   3.
 NSaved= 3 IEnMin= 3 EnMin= -562.111142531859     IErMin= 3 ErrMin= 2.83D-03
 ErrMax= 2.83D-03  0.00D+00 EMaxC= 1.00D-01 BMatC= 1.21D-02 BMatP= 5.90D-02
 IDIUse=3 WtCom= 9.72D-01 WtEn= 2.83D-02
 Coeff-Com: -0.967D-01 0.405D+00 0.692D+00
 Coeff-En:   0.000D+00 0.000D+00 0.100D+01
 Coeff:     -0.940D-01 0.393D+00 0.701D+00
 Gap=     0.361 Goal=   None    Shift=    0.000
 Gap=     0.361 Goal=   None    Shift=    0.000
 RMSDP=3.09D-04 MaxDP=1.34D-02 DE=-1.06D-01 OVMax= 2.48D-02

 Cycle   4  Pass 0  IDiag  1:
 RMSU=  2.71D-04    CP:  9.58D-01  1.52D+00  8.63D-01
 E= -562.113975512018     Delta-E=       -0.002832980159 Rises=F Damp=F
 DIIS: error= 1.10D-03 at cycle   4 NSaved=   4.
 NSaved= 4 IEnMin= 4 EnMin= -562.113975512018     IErMin= 4 ErrMin= 1.10D-03
 ErrMax= 1.10D-03  0.00D+00 EMaxC= 1.00D-01 BMatC= 1.67D-03 BMatP= 1.21D-02
 IDIUse=3 WtCom= 9.89D-01 WtEn= 1.10D-02
 Coeff-Com: -0.142D-01 0.433D-01 0.280D+00 0.690D+00
 Coeff-En:   0.000D+00 0.000D+00 0.000D+00 0.100D+01
 Coeff:     -0.141D-01 0.428D-01 0.277D+00 0.694D+00
 Gap=     0.360 Goal=   None    Shift=    0.000
 Gap=     0.360 Goal=   None    Shift=    0.000
 RMSDP=1.09D-04 MaxDP=3.79D-03 DE=-2.83D-03 OVMax= 7.15D-03

 Cycle   5  Pass 0  IDiag  1:
 RMSU=  6.58D-05    CP:  9.57D-01  1.53D+00  9.22D-01  7.74D-01
 E= -562.114415025613     Delta-E=       -0.000439513595 Rises=F Damp=F
 DIIS: error= 3.16D-04 at cycle   5 NSaved=   5.
 NSaved= 5 IEnMin= 5 EnMin= -562.114415025613     IErMin= 5 ErrMin= 3.16D-04
 ErrMax= 3.16D-04  0.00D+00 EMaxC= 1.00D-01 BMatC= 1.12D-04 BMatP= 1.67D-03
 IDIUse=3 WtCom= 9.97D-01 WtEn= 3.16D-03
 Coeff-Com:  0.304D-02-0.153D-01 0.522D-01 0.244D+00 0.716D+00
 Coeff-En:   0.000D+00 0.000D+00 0.000D+00 0.000D+00 0.100D+01
 Coeff:      0.303D-02-0.153D-01 0.521D-01 0.243D+00 0.717D+00
 Gap=     0.360 Goal=   None    Shift=    0.000
 Gap=     0.360 Goal=   None    Shift=    0.000
 RMSDP=3.37D-05 MaxDP=8.25D-04 DE=-4.40D-04 OVMax= 2.17D-03

 Cycle   6  Pass 0  IDiag  1:
 RMSU=  2.59D-05    CP:  9.57D-01  1.53D+00  9.35D-01  8.34D-01  9.44D-01
 E= -562.114446525371     Delta-E=       -0.000031499758 Rises=F Damp=F
 DIIS: error= 1.24D-04 at cycle   6 NSaved=   6.
 NSaved= 6 IEnMin= 6 EnMin= -562.114446525371     IErMin= 6 ErrMin= 1.24D-04
 ErrMax= 1.24D-04  0.00D+00 EMaxC= 1.00D-01 BMatC= 1.32D-05 BMatP= 1.12D-04
 IDIUse=3 WtCom= 9.99D-01 WtEn= 1.24D-03
 Coeff-Com:  0.351D-02-0.117D-01-0.123D-01-0.639D-03 0.228D+00 0.793D+00
 Coeff-En:   0.000D+00 0.000D+00 0.000D+00 0.000D+00 0.000D+00 0.100D+01
 Coeff:      0.350D-02-0.116D-01-0.123D-01-0.638D-03 0.228D+00 0.793D+00
 Gap=     0.361 Goal=   None    Shift=    0.000
 Gap=     0.361 Goal=   None    Shift=    0.000
 RMSDP=1.27D-05 MaxDP=4.21D-04 DE=-3.15D-05 OVMax= 1.01D-03

 Cycle   7  Pass 0  IDiag  1:
 RMSU=  8.12D-06    CP:  9.57D-01  1.53D+00  9.39D-01  8.42D-01  1.07D+00
                    CP:  1.04D+00
 E= -562.114452516688     Delta-E=       -0.000005991317 Rises=F Damp=F
 DIIS: error= 3.20D-05 at cycle   7 NSaved=   7.
 NSaved= 7 IEnMin= 7 EnMin= -562.114452516688     IErMin= 7 ErrMin= 3.20D-05
 ErrMax= 3.20D-05  0.00D+00 EMaxC= 1.00D-01 BMatC= 1.69D-06 BMatP= 1.32D-05
 IDIUse=1 WtCom= 1.00D+00 WtEn= 0.00D+00
 Coeff-Com:  0.323D-03 0.870D-04-0.528D-02-0.326D-01-0.101D+00 0.989D-01
 Coeff-Com:  0.104D+01
 Coeff:      0.323D-03 0.870D-04-0.528D-02-0.326D-01-0.101D+00 0.989D-01
 Coeff:      0.104D+01
 Gap=     0.361 Goal=   None    Shift=    0.000
 Gap=     0.361 Goal=   None    Shift=    0.000
 RMSDP=7.65D-06 MaxDP=1.52D-04 DE=-5.99D-06 OVMax= 5.56D-04

 Initial convergence to 1.0D-05 achieved.  Increase integral accuracy.
 Cycle   8  Pass 1  IDiag  1:
 E= -562.114268803618     Delta-E=        0.000183713070 Rises=F Damp=F
 DIIS: error= 7.16D-05 at cycle   1 NSaved=   1.
 NSaved= 1 IEnMin= 1 EnMin= -562.114268803618     IErMin= 1 ErrMin= 7.16D-05
 ErrMax= 7.16D-05  0.00D+00 EMaxC= 1.00D-01 BMatC= 2.37D-06 BMatP= 2.37D-06
 IDIUse=1 WtCom= 1.00D+00 WtEn= 0.00D+00
 Coeff-Com:  0.100D+01
 Coeff:      0.100D+01
 Gap=     0.361 Goal=   None    Shift=    0.000
 Gap=     0.361 Goal=   None    Shift=    0.000
 RMSDP=7.65D-06 MaxDP=1.52D-04 DE= 1.84D-04 OVMax= 1.37D-04

 Cycle   9  Pass 1  IDiag  1:
 RMSU=  5.87D-05    CP:  1.00D+00
 E= -562.114269315793     Delta-E=       -0.000000512175 Rises=F Damp=F
 DIIS: error= 1.05D-05 at cycle   2 NSaved=   2.
 NSaved= 2 IEnMin= 2 EnMin= -562.114269315793     IErMin= 2 ErrMin= 1.05D-05
 ErrMax= 1.05D-05  0.00D+00 EMaxC= 1.00D-01 BMatC= 1.65D-07 BMatP= 2.37D-06
 IDIUse=1 WtCom= 1.00D+00 WtEn= 0.00D+00
 Coeff-Com:  0.799D-01 0.920D+00
 Coeff:      0.799D-01 0.920D+00
 Gap=     0.361 Goal=   None    Shift=    0.000
 Gap=     0.361 Goal=   None    Shift=    0.000
 RMSDP=3.60D-06 MaxDP=5.62D-05 DE=-5.12D-07 OVMax= 1.21D-04

 Cycle  10  Pass 1  IDiag  1:
 RMSU=  1.87D-06    CP:  1.00D+00  1.05D+00
 E= -562.114269352755     Delta-E=       -0.000000036962 Rises=F Damp=F
 DIIS: error= 1.11D-05 at cycle   3 NSaved=   3.
 NSaved= 3 IEnMin= 3 EnMin= -562.114269352755     IErMin= 2 ErrMin= 1.05D-05
 ErrMax= 1.11D-05  0.00D+00 EMaxC= 1.00D-01 BMatC= 1.23D-07 BMatP= 1.65D-07
 IDIUse=1 WtCom= 1.00D+00 WtEn= 0.00D+00
 Coeff-Com: -0.272D-01 0.461D+00 0.566D+00
 Coeff:     -0.272D-01 0.461D+00 0.566D+00
 Gap=     0.361 Goal=   None    Shift=    0.000
 Gap=     0.361 Goal=   None    Shift=    0.000
 RMSDP=8.98D-07 MaxDP=2.27D-05 DE=-3.70D-08 OVMax= 5.39D-05

 Cycle  11  Pass 1  IDiag  1:
 RMSU=  6.10D-07    CP:  1.00D+00  1.06D+00  7.86D-01
 E= -562.114269384659     Delta-E=       -0.000000031904 Rises=F Damp=F
 DIIS: error= 2.28D-06 at cycle   4 NSaved=   4.
 NSaved= 4 IEnMin= 4 EnMin= -562.114269384659     IErMin= 4 ErrMin= 2.28D-06
 ErrMax= 2.28D-06  0.00D+00 EMaxC= 1.00D-01 BMatC= 4.46D-09 BMatP= 1.23D-07
 IDIUse=1 WtCom= 1.00D+00 WtEn= 0.00D+00
 Coeff-Com: -0.732D-02-0.121D-01 0.440D-02 0.101D+01
 Coeff:     -0.732D-02-0.121D-01 0.440D-02 0.101D+01
 Gap=     0.361 Goal=   None    Shift=    0.000
 Gap=     0.361 Goal=   None    Shift=    0.000
 RMSDP=3.77D-07 MaxDP=7.60D-06 DE=-3.19D-08 OVMax= 3.26D-05

 Cycle  12  Pass 1  IDiag  1:
 RMSU=  2.32D-07    CP:  1.00D+00  1.06D+00  8.91D-01  1.34D+00
 E= -562.114269388759     Delta-E=       -0.000000004100 Rises=F Damp=F
 DIIS: error= 1.47D-06 at cycle   5 NSaved=   5.
 NSaved= 5 IEnMin= 5 EnMin= -562.114269388759     IErMin= 5 ErrMin= 1.47D-06
 ErrMax= 1.47D-06  0.00D+00 EMaxC= 1.00D-01 BMatC= 1.43D-09 BMatP= 4.46D-09
 IDIUse=1 WtCom= 1.00D+00 WtEn= 0.00D+00
 Coeff-Com:  0.866D-02-0.199D+00-0.253D+00 0.423D+00 0.102D+01
 Coeff:      0.866D-02-0.199D+00-0.253D+00 0.423D+00 0.102D+01
 Gap=     0.361 Goal=   None    Shift=    0.000
 Gap=     0.361 Goal=   None    Shift=    0.000
 RMSDP=3.00D-07 MaxDP=9.42D-06 DE=-4.10D-09 OVMax= 3.47D-05

 Cycle  13  Pass 1  IDiag  1:
 RMSU=  1.36D-07    CP:  1.00D+00  1.06D+00  9.50D-01  1.70D+00  1.44D+00
 E= -562.114269390481     Delta-E=       -0.000000001722 Rises=F Damp=F
 DIIS: error= 3.08D-07 at cycle   6 NSaved=   6.
 NSaved= 6 IEnMin= 6 EnMin= -562.114269390481     IErMin= 6 ErrMin= 3.08D-07
 ErrMax= 3.08D-07  0.00D+00 EMaxC= 1.00D-01 BMatC= 1.05D-10 BMatP= 1.43D-09
 IDIUse=1 WtCom= 1.00D+00 WtEn= 0.00D+00
 Coeff-Com:  0.301D-02-0.610D-01-0.790D-01 0.655D-01 0.324D+00 0.748D+00
 Coeff:      0.301D-02-0.610D-01-0.790D-01 0.655D-01 0.324D+00 0.748D+00
 Gap=     0.361 Goal=   None    Shift=    0.000
 Gap=     0.361 Goal=   None    Shift=    0.000
 RMSDP=5.31D-08 MaxDP=1.13D-06 DE=-1.72D-09 OVMax= 4.57D-06

 Cycle  14  Pass 1  IDiag  1:
 RMSU=  3.10D-08    CP:  1.00D+00  1.06D+00  9.55D-01  1.72D+00  1.56D+00
                    CP:  1.12D+00
 E= -562.114269390545     Delta-E=       -0.000000000064 Rises=F Damp=F
 DIIS: error= 2.04D-07 at cycle   7 NSaved=   7.
 NSaved= 7 IEnMin= 7 EnMin= -562.114269390545     IErMin= 7 ErrMin= 2.04D-07
 ErrMax= 2.04D-07  0.00D+00 EMaxC= 1.00D-01 BMatC= 2.09D-11 BMatP= 1.05D-10
 IDIUse=1 WtCom= 1.00D+00 WtEn= 0.00D+00
 Coeff-Com: -0.103D-02 0.264D-01 0.334D-01-0.791D-01-0.133D+00 0.262D+00
 Coeff-Com:  0.892D+00
 Coeff:     -0.103D-02 0.264D-01 0.334D-01-0.791D-01-0.133D+00 0.262D+00
 Coeff:      0.892D+00
 Gap=     0.361 Goal=   None    Shift=    0.000
 Gap=     0.361 Goal=   None    Shift=    0.000
 RMSDP=3.09D-08 MaxDP=6.73D-07 DE=-6.39D-11 OVMax= 3.38D-06

 Cycle  15  Pass 1  IDiag  1:
 RMSU=  1.64D-08    CP:  1.00D+00  1.06D+00  9.55D-01  1.73D+00  1.62D+00
                    CP:  1.24D+00  1.11D+00
 E= -562.114269390561     Delta-E=       -0.000000000016 Rises=F Damp=F
 DIIS: error= 6.34D-08 at cycle   8 NSaved=   8.
 NSaved= 8 IEnMin= 8 EnMin= -562.114269390561     IErMin= 8 ErrMin= 6.34D-08
 ErrMax= 6.34D-08  0.00D+00 EMaxC= 1.00D-01 BMatC= 3.56D-12 BMatP= 2.09D-11
 IDIUse=1 WtCom= 1.00D+00 WtEn= 0.00D+00
 Coeff-Com: -0.639D-03 0.141D-01 0.185D-01-0.214D-01-0.758D-01-0.470D-01
 Coeff-Com:  0.193D+00 0.919D+00
 Coeff:     -0.639D-03 0.141D-01 0.185D-01-0.214D-01-0.758D-01-0.470D-01
 Coeff:      0.193D+00 0.919D+00
 Gap=     0.361 Goal=   None    Shift=    0.000
 Gap=     0.361 Goal=   None    Shift=    0.000
 RMSDP=1.06D-08 MaxDP=2.52D-07 DE=-1.61D-11 OVMax= 9.81D-07

 Cycle  16  Pass 1  IDiag  1:
 RMSU=  5.22D-09    CP:  1.00D+00  1.06D+00  9.54D-01  1.73D+00  1.62D+00
                    CP:  1.26D+00  1.30D+00  1.37D+00
 E= -562.114269390559     Delta-E=        0.000000000003 Rises=F Damp=F
 DIIS: error= 3.67D-08 at cycle   9 NSaved=   9.
 NSaved= 9 IEnMin= 8 EnMin= -562.114269390561     IErMin= 9 ErrMin= 3.67D-08
 ErrMax= 3.67D-08  0.00D+00 EMaxC= 1.00D-01 BMatC= 7.61D-13 BMatP= 3.56D-12
 IDIUse=1 WtCom= 1.00D+00 WtEn= 0.00D+00
 Coeff-Com:  0.164D-03-0.499D-02-0.568D-02 0.205D-01 0.187D-01-0.102D+00
 Coeff-Com: -0.243D+00 0.260D+00 0.106D+01
 Coeff:      0.164D-03-0.499D-02-0.568D-02 0.205D-01 0.187D-01-0.102D+00
 Coeff:     -0.243D+00 0.260D+00 0.106D+01
 Gap=     0.361 Goal=   None    Shift=    0.000
 Gap=     0.361 Goal=   None    Shift=    0.000
 RMSDP=8.09D-09 MaxDP=2.16D-07 DE= 2.50D-12 OVMax= 9.48D-07

 SCF Done:  E(ULC-wPBE) =  -562.114269391     A.U. after   16 cycles
            NFock= 16  Conv=0.81D-08     -V/T= 2.0068
 <Sx>= 0.0000 <Sy>= 0.0000 <Sz>= 0.0000 <S**2>=-0.0000 S=-0.0000
 <L.S>= 0.000000000000E+00
 KE= 5.583435207725D+02 PE=-2.720796267992D+03 EE= 8.948119622697D+02
 Annihilation of the first spin contaminant:
 S**2 before annihilation    -0.0000,   after    -0.0000
 Leave Link  502 at Fri Jul 24 14:06:06 2020, MaxMem=  4026531840 cpu:             917.7 elap:             115.1
 (Enter /opt/ohpc/pub/libs/gaussian/g16-A.03/sandybridge/g16/l601.exe)
 Copying SCF densities to generalized density rwf, IOpCl= 1 IROHF=0.

 **********************************************************************

            Population analysis using the SCF density.

 **********************************************************************

 Orbital symmetries:
 Alpha Orbitals:
       Occupied  (A) (A) (A) (A) (A) (A) (A) (A) (A) (A) (A) (A)
                 (A) (A) (A) (A) (A) (A) (A) (A) (A) (A) (A) (A)
                 (A) (A) (A) (A) (A) (A) (A) (A) (A) (A) (A) (A)
                 (A) (A) (A) (A) (A) (A) (A) (A) (A)
       Virtual   (A) (A) (A) (A) (A) (A) (A) (A) (A) (A) (A) (A)
                 (A) (A) (A) (A) (A) (A) (A) (A) (A) (A) (A) (A)
                 (A) (A) (A) (A) (A) (A) (A) (A) (A) (A) (A) (A)
                 (A) (A) (A) (A) (A) (A) (A) (A) (A) (A) (A) (A)
                 (A) (A) (A) (A) (A) (A) (A) (A) (A) (A) (A) (A)
                 (A) (A) (A) (A) (A) (A) (A) (A) (A) (A) (A) (A)
                 (A) (A) (A) (A) (A) (A) (A) (A) (A) (A) (A) (A)
                 (A) (A) (A) (A) (A) (A) (A) (A) (A) (A) (A) (A)
                 (A) (A) (A) (A) (A) (A) (A) (A) (A) (A) (A) (A)
                 (A) (A) (A) (A) (A) (A) (A) (A) (A) (A) (A) (A)
                 (A) (A) (A) (A) (A) (A) (A) (A) (A) (A) (A) (A)
                 (A) (A) (A) (A) (A) (A) (A) (A) (A) (A) (A) (A)
                 (A) (A) (A) (A) (A) (A) (A) (A) (A) (A) (A) (A)
                 (A) (A) (A) (A) (A) (A) (A) (A) (A) (A) (A) (A)
                 (A) (A) (A) (A) (A) (A) (A) (A) (A) (A) (A) (A)
                 (A) (A)
 Beta  Orbitals:
       Occupied  (A) (A) (A) (A) (A) (A) (A) (A) (A) (A) (A) (A)
                 (A) (A) (A) (A) (A) (A) (A) (A) (A) (A) (A) (A)
                 (A) (A) (A) (A) (A) (A) (A) (A) (A) (A) (A) (A)
                 (A) (A) (A) (A) (A) (A) (A) (A) (A)
       Virtual   (A) (A) (A) (A) (A) (A) (A) (A) (A) (A) (A) (A)
                 (A) (A) (A) (A) (A) (A) (A) (A) (A) (A) (A) (A)
                 (A) (A) (A) (A) (A) (A) (A) (A) (A) (A) (A) (A)
                 (A) (A) (A) (A) (A) (A) (A) (A) (A) (A) (A) (A)
                 (A) (A) (A) (A) (A) (A) (A) (A) (A) (A) (A) (A)
                 (A) (A) (A) (A) (A) (A) (A) (A) (A) (A) (A) (A)
                 (A) (A) (A) (A) (A) (A) (A) (A) (A) (A) (A) (A)
                 (A) (A) (A) (A) (A) (A) (A) (A) (A) (A) (A) (A)
                 (A) (A) (A) (A) (A) (A) (A) (A) (A) (A) (A) (A)
                 (A) (A) (A) (A) (A) (A) (A) (A) (A) (A) (A) (A)
                 (A) (A) (A) (A) (A) (A) (A) (A) (A) (A) (A) (A)
                 (A) (A) (A) (A) (A) (A) (A) (A) (A) (A) (A) (A)
                 (A) (A) (A) (A) (A) (A) (A) (A) (A) (A) (A) (A)
                 (A) (A) (A) (A) (A) (A) (A) (A) (A) (A) (A) (A)
                 (A) (A) (A) (A) (A) (A) (A) (A) (A) (A) (A) (A)
                 (A) (A)
 The electronic state is 1-A.
 Alpha  occ. eigenvalues --  -24.48679 -10.19365 -10.12683 -10.12175 -10.11399
 Alpha  occ. eigenvalues --  -10.11316 -10.10848 -10.10836 -10.10660 -10.10573
 Alpha  occ. eigenvalues --  -10.10333 -10.09872 -10.09862  -1.33781  -1.00260
 Alpha  occ. eigenvalues --   -0.97956  -0.91953  -0.87911  -0.86660  -0.85340
 Alpha  occ. eigenvalues --   -0.76382  -0.74533  -0.72613  -0.70724  -0.66239
 Alpha  occ. eigenvalues --   -0.64185  -0.61587  -0.60992  -0.58871  -0.57519
 Alpha  occ. eigenvalues --   -0.56108  -0.55554  -0.54354  -0.51795  -0.51591
 Alpha  occ. eigenvalues --   -0.49961  -0.47975  -0.47678  -0.46408  -0.45000
 Alpha  occ. eigenvalues --   -0.43589  -0.38412  -0.34888  -0.34415  -0.32488
 Alpha virt. eigenvalues --    0.03591   0.06358   0.07387   0.09953   0.15663
 Alpha virt. eigenvalues --    0.15907   0.18838   0.19949   0.20588   0.22129
 Alpha virt. eigenvalues --    0.22935   0.23364   0.24120   0.24694   0.25839
 Alpha virt. eigenvalues --    0.27421   0.33580   0.35403   0.36315   0.37060
 Alpha virt. eigenvalues --    0.38289   0.39509   0.41131   0.42390   0.44426
 Alpha virt. eigenvalues --    0.50563   0.51126   0.53042   0.55006   0.55645
 Alpha virt. eigenvalues --    0.57347   0.57811   0.58203   0.59798   0.60401
 Alpha virt. eigenvalues --    0.61299   0.61654   0.61960   0.62584   0.62986
 Alpha virt. eigenvalues --    0.63356   0.63467   0.64216   0.64412   0.66583
 Alpha virt. eigenvalues --    0.67091   0.69340   0.70795   0.71025   0.71618
 Alpha virt. eigenvalues --    0.73205   0.73957   0.75203   0.75699   0.76636
 Alpha virt. eigenvalues --    0.77631   0.78874   0.79619   0.81232   0.81990
 Alpha virt. eigenvalues --    0.83555   0.84990   0.87066   0.88334   0.91855
 Alpha virt. eigenvalues --    0.94128   0.96744   0.97896   0.98923   0.99720
 Alpha virt. eigenvalues --    1.00703   1.01627   1.03143   1.04644   1.06962
 Alpha virt. eigenvalues --    1.08120   1.09119   1.10209   1.11290   1.12435
 Alpha virt. eigenvalues --    1.12533   1.14006   1.15279   1.16321   1.17280
 Alpha virt. eigenvalues --    1.18625   1.20112   1.21621   1.23714   1.24035
 Alpha virt. eigenvalues --    1.27810   1.31684   1.34160   1.36230   1.40961
 Alpha virt. eigenvalues --    1.41338   1.43129   1.44538   1.47872   1.54373
 Alpha virt. eigenvalues --    1.55168   1.57860   1.58471   1.58800   1.59459
 Alpha virt. eigenvalues --    1.59810   1.62130   1.63253   1.66280   1.68142
 Alpha virt. eigenvalues --    1.70359   1.70539   1.71288   1.72043   1.73086
 Alpha virt. eigenvalues --    1.73604   1.75319   1.75754   1.76519   1.78035
 Alpha virt. eigenvalues --    1.78669   1.78725   1.80097   1.80825   1.82059
 Alpha virt. eigenvalues --    1.84020   1.85767   1.87002   1.88402   1.89969
 Alpha virt. eigenvalues --    1.91439   1.92124   1.93987   1.95313   1.95747
 Alpha virt. eigenvalues --    1.96134   1.97767   1.98637   1.98839   1.99609
 Alpha virt. eigenvalues --    2.00607   2.04023   2.06744   2.07795   2.08259
 Alpha virt. eigenvalues --    2.12917   2.14231   2.15273   2.17844   2.25309
 Alpha virt. eigenvalues --    2.25816   2.26734   2.29586   2.30103   2.36574
 Alpha virt. eigenvalues --    2.39785   2.47376   2.48394   2.53918   2.54840
 Alpha virt. eigenvalues --    2.55710   2.57539   2.59404   2.64280   2.64797
 Alpha virt. eigenvalues --    2.71938   2.74877   2.75728   2.81520   2.85953
 Alpha virt. eigenvalues --    2.88750   2.91056   2.97859   3.00307   3.03874
 Alpha virt. eigenvalues --    3.55265   3.65183   3.66387   3.70762   3.86250
 Alpha virt. eigenvalues --    4.07510   4.27261
  Beta  occ. eigenvalues --  -24.48679 -10.19365 -10.12683 -10.12175 -10.11399
  Beta  occ. eigenvalues --  -10.11316 -10.10848 -10.10836 -10.10660 -10.10573
  Beta  occ. eigenvalues --  -10.10333 -10.09872 -10.09862  -1.33781  -1.00260
  Beta  occ. eigenvalues --   -0.97956  -0.91953  -0.87911  -0.86660  -0.85340
  Beta  occ. eigenvalues --   -0.76382  -0.74533  -0.72613  -0.70724  -0.66239
  Beta  occ. eigenvalues --   -0.64185  -0.61587  -0.60992  -0.58871  -0.57519
  Beta  occ. eigenvalues --   -0.56108  -0.55554  -0.54354  -0.51795  -0.51591
  Beta  occ. eigenvalues --   -0.49961  -0.47975  -0.47678  -0.46408  -0.45000
  Beta  occ. eigenvalues --   -0.43589  -0.38412  -0.34888  -0.34415  -0.32488
  Beta virt. eigenvalues --    0.03591   0.06358   0.07387   0.09953   0.15663
  Beta virt. eigenvalues --    0.15907   0.18838   0.19949   0.20588   0.22129
  Beta virt. eigenvalues --    0.22935   0.23364   0.24120   0.24694   0.25839
  Beta virt. eigenvalues --    0.27421   0.33580   0.35403   0.36315   0.37060
  Beta virt. eigenvalues --    0.38289   0.39509   0.41131   0.42390   0.44426
  Beta virt. eigenvalues --    0.50563   0.51126   0.53042   0.55006   0.55645
  Beta virt. eigenvalues --    0.57347   0.57811   0.58203   0.59798   0.60401
  Beta virt. eigenvalues --    0.61299   0.61654   0.61960   0.62584   0.62986
  Beta virt. eigenvalues --    0.63356   0.63467   0.64216   0.64412   0.66583
  Beta virt. eigenvalues --    0.67091   0.69340   0.70795   0.71025   0.71618
  Beta virt. eigenvalues --    0.73205   0.73957   0.75203   0.75699   0.76636
  Beta virt. eigenvalues --    0.77631   0.78874   0.79619   0.81232   0.81990
  Beta virt. eigenvalues --    0.83555   0.84990   0.87066   0.88334   0.91855
  Beta virt. eigenvalues --    0.94128   0.96744   0.97896   0.98923   0.99720
  Beta virt. eigenvalues --    1.00703   1.01627   1.03143   1.04644   1.06962
  Beta virt. eigenvalues --    1.08120   1.09119   1.10209   1.11290   1.12435
  Beta virt. eigenvalues --    1.12533   1.14006   1.15279   1.16321   1.17280
  Beta virt. eigenvalues --    1.18625   1.20112   1.21621   1.23714   1.24035
  Beta virt. eigenvalues --    1.27810   1.31684   1.34160   1.36230   1.40961
  Beta virt. eigenvalues --    1.41338   1.43129   1.44538   1.47872   1.54373
  Beta virt. eigenvalues --    1.55168   1.57860   1.58471   1.58800   1.59459
  Beta virt. eigenvalues --    1.59810   1.62130   1.63253   1.66280   1.68142
  Beta virt. eigenvalues --    1.70359   1.70539   1.71288   1.72043   1.73086
  Beta virt. eigenvalues --    1.73604   1.75319   1.75754   1.76519   1.78035
  Beta virt. eigenvalues --    1.78669   1.78725   1.80097   1.80825   1.82059
  Beta virt. eigenvalues --    1.84020   1.85767   1.87002   1.88402   1.89969
  Beta virt. eigenvalues --    1.91439   1.92124   1.93987   1.95313   1.95747
  Beta virt. eigenvalues --    1.96134   1.97767   1.98637   1.98839   1.99609
  Beta virt. eigenvalues --    2.00607   2.04023   2.06744   2.07795   2.08259
  Beta virt. eigenvalues --    2.12917   2.14231   2.15273   2.17844   2.25309
  Beta virt. eigenvalues --    2.25816   2.26734   2.29586   2.30103   2.36574
  Beta virt. eigenvalues --    2.39785   2.47376   2.48394   2.53918   2.54840
  Beta virt. eigenvalues --    2.55710   2.57539   2.59404   2.64280   2.64797
  Beta virt. eigenvalues --    2.71938   2.74877   2.75728   2.81520   2.85953
  Beta virt. eigenvalues --    2.88750   2.91056   2.97859   3.00307   3.03874
  Beta virt. eigenvalues --    3.55265   3.65183   3.66387   3.70762   3.86250
  Beta virt. eigenvalues --    4.07510   4.27261
          Condensed to atoms (all electrons):
               1          2          3          4          5          6
     1  C    4.665677   0.484008  -0.012970  -0.055439  -0.012809   0.520592
     2  C    0.484008   4.780917   0.506774   0.000745  -0.074204  -0.004511
     3  C   -0.012970   0.506774   4.758924   0.506852  -0.017087  -0.062777
     4  C   -0.055439   0.000745   0.506852   4.972229   0.485222  -0.006754
     5  C   -0.012809  -0.074204  -0.017087   0.485222   4.917466   0.488897
     6  C    0.520592  -0.004511  -0.062777  -0.006754   0.488897   4.738722
     7  C    0.000023   0.007164  -0.097347   0.264976  -0.093837   0.007561
     8  C    0.000002  -0.000130   0.003297  -0.087737  -0.010596   0.000344
     9  C   -0.000000   0.000003  -0.000087   0.009186   0.000093  -0.000001
    10  C   -0.000000  -0.000001  -0.000039  -0.001161   0.000017  -0.000000
    11  C   -0.000000   0.000005   0.000467   0.013443  -0.000309   0.000002
    12  C   -0.000003   0.000053  -0.010132  -0.084207   0.004149  -0.000180
    13  F   -0.000004   0.000291   0.004858   0.002828  -0.000139  -0.000001
    14  H    0.414272  -0.051959   0.008788  -0.001042   0.009999  -0.044334
    15  H   -0.047229   0.400838  -0.037390   0.007821   0.000366   0.008105
    16  H    0.008428  -0.043296   0.405988  -0.035442   0.012571  -0.001042
    17  H    0.008009  -0.000798   0.009118  -0.044878   0.403639  -0.037861
    18  H   -0.045893   0.008987   0.000124   0.008173  -0.041072   0.400840
    19  H   -0.000017  -0.000055  -0.000007  -0.017447   0.005425   0.000117
    20  H    0.000000  -0.000000   0.000002  -0.000201  -0.000004  -0.000000
    21  H   -0.000000   0.000000   0.000001   0.000002  -0.000000   0.000000
    22  H    0.000000  -0.000001  -0.000013  -0.000330   0.000006  -0.000000
               7          8          9         10         11         12
     1  C    0.000023   0.000002  -0.000000  -0.000000  -0.000000  -0.000003
     2  C    0.007164  -0.000130   0.000003  -0.000001   0.000005   0.000053
     3  C   -0.097347   0.003297  -0.000087  -0.000039   0.000467  -0.010132
     4  C    0.264976  -0.087737   0.009186  -0.001161   0.013443  -0.084207
     5  C   -0.093837  -0.010596   0.000093   0.000017  -0.000309   0.004149
     6  C    0.007561   0.000344  -0.000001  -0.000000   0.000002  -0.000180
     7  C    5.440080   0.490811  -0.003016  -0.064066  -0.030540   0.306619
     8  C    0.490811   4.877129   0.458881   0.008513  -0.075723   0.018711
     9  C   -0.003016   0.458881   4.660369   0.528970   0.000888  -0.067706
    10  C   -0.064066   0.008513   0.528970   4.736507   0.427186   0.017778
    11  C   -0.030540  -0.075723   0.000888   0.427186   4.848704   0.465870
    12  C    0.306619   0.018711  -0.067706   0.017778   0.465870   4.829837
    13  F   -0.075107   0.003567  -0.000293   0.003364  -0.053914   0.433989
    14  H    0.000005   0.000000   0.000000  -0.000000   0.000000   0.000000
    15  H   -0.000353  -0.000000  -0.000000   0.000000  -0.000000   0.000001
    16  H   -0.023504  -0.000002   0.000035  -0.000049   0.000003   0.000162
    17  H   -0.014264   0.001837   0.000078  -0.000029  -0.000016   0.000438
    18  H   -0.000391  -0.000001   0.000000   0.000000  -0.000000   0.000003
    19  H   -0.033312   0.399589  -0.045229   0.008520  -0.000870   0.008346
    20  H    0.009509  -0.049828   0.412537  -0.049090   0.010341  -0.001087
    21  H   -0.000878   0.011002  -0.043630   0.408114  -0.048493   0.008559
    22  H    0.012610  -0.001089   0.009298  -0.046199   0.388026  -0.029321
              13         14         15         16         17         18
     1  C   -0.000004   0.414272  -0.047229   0.008428   0.008009  -0.045893
     2  C    0.000291  -0.051959   0.400838  -0.043296  -0.000798   0.008987
     3  C    0.004858   0.008788  -0.037390   0.405988   0.009118   0.000124
     4  C    0.002828  -0.001042   0.007821  -0.035442  -0.044878   0.008173
     5  C   -0.000139   0.009999   0.000366   0.012571   0.403639  -0.041072
     6  C   -0.000001  -0.044334   0.008105  -0.001042  -0.037861   0.400840
     7  C   -0.075107   0.000005  -0.000353  -0.023504  -0.014264  -0.000391
     8  C    0.003567   0.000000  -0.000000  -0.000002   0.001837  -0.000001
     9  C   -0.000293   0.000000  -0.000000   0.000035   0.000078   0.000000
    10  C    0.003364  -0.000000   0.000000  -0.000049  -0.000029   0.000000
    11  C   -0.053914   0.000000  -0.000000   0.000003  -0.000016  -0.000000
    12  C    0.433989   0.000000   0.000001   0.000162   0.000438   0.000003
    13  F    8.785294  -0.000000   0.000012   0.004491   0.000004   0.000000
    14  H   -0.000000   0.724700  -0.012507  -0.000118  -0.000139  -0.015321
    15  H    0.000012  -0.012507   0.685125  -0.012369   0.000039  -0.000277
    16  H    0.004491  -0.000118  -0.012369   0.698182  -0.000149   0.000041
    17  H    0.000004  -0.000139   0.000039  -0.000149   0.664914  -0.011697
    18  H    0.000000  -0.015321  -0.000277   0.000041  -0.011697   0.694727
    19  H   -0.000032  -0.000001   0.000000  -0.000009   0.000722   0.000013
    20  H    0.000001  -0.000000   0.000000  -0.000000   0.000013  -0.000000
    21  H   -0.000038  -0.000000  -0.000000  -0.000000  -0.000000  -0.000000
    22  H    0.001712  -0.000000  -0.000000   0.000029   0.000000   0.000000
              19         20         21         22
     1  C   -0.000017   0.000000  -0.000000   0.000000
     2  C   -0.000055  -0.000000   0.000000  -0.000001
     3  C   -0.000007   0.000002   0.000001  -0.000013
     4  C   -0.017447  -0.000201   0.000002  -0.000330
     5  C    0.005425  -0.000004  -0.000000   0.000006
     6  C    0.000117  -0.000000   0.000000  -0.000000
     7  C   -0.033312   0.009509  -0.000878   0.012610
     8  C    0.399589  -0.049828   0.011002  -0.001089
     9  C   -0.045229   0.412537  -0.043630   0.009298
    10  C    0.008520  -0.049090   0.408114  -0.046199
    11  C   -0.000870   0.010341  -0.048493   0.388026
    12  C    0.008346  -0.001087   0.008559  -0.029321
    13  F   -0.000032   0.000001  -0.000038   0.001712
    14  H   -0.000001  -0.000000  -0.000000  -0.000000
    15  H    0.000000   0.000000  -0.000000  -0.000000
    16  H   -0.000009  -0.000000  -0.000000   0.000029
    17  H    0.000722   0.000013  -0.000000   0.000000
    18  H    0.000013  -0.000000  -0.000000   0.000000
    19  H    0.667693  -0.012356  -0.000209   0.000037
    20  H   -0.012356   0.716992  -0.017968  -0.000087
    21  H   -0.000209  -0.017968   0.709121  -0.014539
    22  H    0.000037  -0.000087  -0.014539   0.714386
          Atomic-Atomic Spin Densities.
               1          2          3          4          5          6
     1  C    0.000000   0.000000   0.000000  -0.000000   0.000000  -0.000000
     2  C    0.000000   0.000000  -0.000000   0.000000  -0.000000   0.000000
     3  C    0.000000  -0.000000  -0.000000   0.000000   0.000000  -0.000000
     4  C   -0.000000   0.000000   0.000000  -0.000000  -0.000000   0.000000
     5  C    0.000000  -0.000000   0.000000  -0.000000   0.000000  -0.000000
     6  C   -0.000000   0.000000  -0.000000   0.000000  -0.000000   0.000000
     7  C   -0.000000   0.000000   0.000000  -0.000000  -0.000000   0.000000
     8  C   -0.000000   0.000000  -0.000000  -0.000000   0.000000   0.000000
     9  C    0.000000  -0.000000   0.000000   0.000000   0.000000  -0.000000
    10  C   -0.000000   0.000000  -0.000000  -0.000000  -0.000000   0.000000
    11  C    0.000000  -0.000000   0.000000   0.000000   0.000000  -0.000000
    12  C    0.000000   0.000000  -0.000000  -0.000000  -0.000000   0.000000
    13  F    0.000000  -0.000000  -0.000000   0.000000   0.000000  -0.000000
    14  H   -0.000000   0.000000   0.000000  -0.000000  -0.000000   0.000000
    15  H    0.000000   0.000000  -0.000000   0.000000  -0.000000   0.000000
    16  H    0.000000  -0.000000  -0.000000   0.000000   0.000000  -0.000000
    17  H    0.000000  -0.000000   0.000000  -0.000000   0.000000  -0.000000
    18  H   -0.000000  -0.000000  -0.000000   0.000000  -0.000000   0.000000
    19  H   -0.000000   0.000000  -0.000000  -0.000000  -0.000000   0.000000
    20  H    0.000000  -0.000000   0.000000   0.000000   0.000000  -0.000000
    21  H   -0.000000   0.000000  -0.000000  -0.000000  -0.000000   0.000000
    22  H    0.000000  -0.000000   0.000000   0.000000   0.000000  -0.000000
               7          8          9         10         11         12
     1  C   -0.000000  -0.000000   0.000000  -0.000000   0.000000   0.000000
     2  C    0.000000   0.000000  -0.000000   0.000000  -0.000000   0.000000
     3  C    0.000000  -0.000000   0.000000  -0.000000   0.000000  -0.000000
     4  C   -0.000000  -0.000000   0.000000  -0.000000   0.000000  -0.000000
     5  C   -0.000000   0.000000   0.000000  -0.000000   0.000000  -0.000000
     6  C    0.000000   0.000000  -0.000000   0.000000  -0.000000   0.000000
     7  C    0.000000  -0.000000   0.000000  -0.000000   0.000000   0.000000
     8  C   -0.000000  -0.000000  -0.000000   0.000000  -0.000000   0.000000
     9  C    0.000000  -0.000000  -0.000000  -0.000000   0.000000   0.000000
    10  C   -0.000000   0.000000  -0.000000   0.000000  -0.000000   0.000000
    11  C    0.000000  -0.000000   0.000000  -0.000000   0.000000  -0.000000
    12  C    0.000000   0.000000   0.000000   0.000000  -0.000000  -0.000000
    13  F   -0.000000   0.000000  -0.000000   0.000000  -0.000000   0.000000
    14  H   -0.000000  -0.000000  -0.000000   0.000000  -0.000000   0.000000
    15  H    0.000000   0.000000   0.000000  -0.000000  -0.000000  -0.000000
    16  H   -0.000000  -0.000000   0.000000  -0.000000   0.000000  -0.000000
    17  H   -0.000000  -0.000000   0.000000  -0.000000   0.000000  -0.000000
    18  H    0.000000   0.000000   0.000000  -0.000000   0.000000  -0.000000
    19  H    0.000000   0.000000  -0.000000  -0.000000  -0.000000  -0.000000
    20  H    0.000000   0.000000  -0.000000   0.000000   0.000000   0.000000
    21  H   -0.000000   0.000000   0.000000   0.000000  -0.000000  -0.000000
    22  H    0.000000  -0.000000  -0.000000  -0.000000   0.000000   0.000000
              13         14         15         16         17         18
     1  C    0.000000  -0.000000   0.000000   0.000000   0.000000  -0.000000
     2  C   -0.000000   0.000000   0.000000  -0.000000  -0.000000  -0.000000
     3  C   -0.000000   0.000000  -0.000000  -0.000000   0.000000  -0.000000
     4  C    0.000000  -0.000000   0.000000   0.000000  -0.000000   0.000000
     5  C    0.000000  -0.000000  -0.000000   0.000000   0.000000  -0.000000
     6  C   -0.000000   0.000000   0.000000  -0.000000  -0.000000   0.000000
     7  C   -0.000000  -0.000000   0.000000  -0.000000  -0.000000   0.000000
     8  C    0.000000  -0.000000   0.000000  -0.000000  -0.000000   0.000000
     9  C   -0.000000  -0.000000   0.000000   0.000000   0.000000   0.000000
    10  C    0.000000   0.000000  -0.000000  -0.000000  -0.000000  -0.000000
    11  C   -0.000000  -0.000000  -0.000000   0.000000   0.000000   0.000000
    12  C    0.000000   0.000000  -0.000000  -0.000000  -0.000000  -0.000000
    13  F   -0.000000   0.000000  -0.000000   0.000000   0.000000  -0.000000
    14  H    0.000000  -0.000000   0.000000   0.000000   0.000000   0.000000
    15  H   -0.000000   0.000000   0.000000  -0.000000  -0.000000  -0.000000
    16  H    0.000000   0.000000  -0.000000   0.000000   0.000000  -0.000000
    17  H    0.000000   0.000000  -0.000000   0.000000   0.000000  -0.000000
    18  H   -0.000000   0.000000  -0.000000  -0.000000  -0.000000  -0.000000
    19  H    0.000000  -0.000000   0.000000  -0.000000  -0.000000   0.000000
    20  H   -0.000000   0.000000   0.000000   0.000000   0.000000   0.000000
    21  H    0.000000  -0.000000  -0.000000  -0.000000  -0.000000  -0.000000
    22  H   -0.000000   0.000000   0.000000   0.000000   0.000000   0.000000
              19         20         21         22
     1  C   -0.000000   0.000000  -0.000000   0.000000
     2  C    0.000000  -0.000000   0.000000  -0.000000
     3  C   -0.000000   0.000000  -0.000000   0.000000
     4  C   -0.000000   0.000000  -0.000000   0.000000
     5  C   -0.000000   0.000000  -0.000000   0.000000
     6  C    0.000000  -0.000000   0.000000  -0.000000
     7  C    0.000000   0.000000  -0.000000   0.000000
     8  C    0.000000   0.000000   0.000000  -0.000000
     9  C   -0.000000  -0.000000   0.000000  -0.000000
    10  C   -0.000000   0.000000   0.000000  -0.000000
    11  C   -0.000000   0.000000  -0.000000   0.000000
    12  C   -0.000000   0.000000  -0.000000   0.000000
    13  F    0.000000  -0.000000   0.000000  -0.000000
    14  H   -0.000000   0.000000  -0.000000   0.000000
    15  H    0.000000   0.000000  -0.000000   0.000000
    16  H   -0.000000   0.000000  -0.000000   0.000000
    17  H   -0.000000   0.000000  -0.000000   0.000000
    18  H    0.000000   0.000000  -0.000000   0.000000
    19  H   -0.000000  -0.000000   0.000000  -0.000000
    20  H   -0.000000   0.000000  -0.000000   0.000000
    21  H    0.000000  -0.000000  -0.000000  -0.000000
    22  H   -0.000000   0.000000  -0.000000   0.000000
 Mulliken charges and spin densities:
               1          2
     1  C    0.073353   0.000000
     2  C   -0.014829   0.000000
     3  C    0.032658  -0.000000
     4  C    0.063160  -0.000000
     5  C   -0.077793   0.000000
     6  C   -0.007717   0.000000
     7  C   -0.102744   0.000000
     8  C   -0.048574  -0.000000
     9  C    0.079624   0.000000
    10  C    0.021663   0.000000
    11  C    0.054929   0.000000
    12  C    0.098119  -0.000000
    13  F   -0.110885   0.000000
    14  H   -0.032342  -0.000000
    15  H    0.007818  -0.000000
    16  H   -0.013949   0.000000
    17  H    0.021020   0.000000
    18  H    0.001746  -0.000000
    19  H    0.019081  -0.000000
    20  H   -0.018773   0.000000
    21  H   -0.011044  -0.000000
    22  H   -0.034523   0.000000
 Sum of Mulliken charges =  -0.00000   0.00000
 Mulliken charges and spin densities with hydrogens summed into heavy atoms:
               1          2
     1  C    0.041011   0.000000
     2  C   -0.007010   0.000000
     3  C    0.018708  -0.000000
     4  C    0.063160  -0.000000
     5  C   -0.056772   0.000000
     6  C   -0.005971   0.000000
     7  C   -0.102744   0.000000
     8  C   -0.029494  -0.000000
     9  C    0.060852   0.000000
    10  C    0.010619   0.000000
    11  C    0.020407   0.000000
    12  C    0.098119  -0.000000
    13  F   -0.110885   0.000000
 Electronic spatial extent (au):  <R**2>=           2507.7948
 Charge=             -0.0000 electrons
 Dipole moment (field-independent basis, Debye):
    X=              0.3070    Y=             -0.8066    Z=              0.2131  Tot=              0.8889
 Quadrupole moment (field-independent basis, Debye-Ang):
   XX=            -61.9943   YY=            -70.2784   ZZ=            -76.7317
   XY=             -0.5107   XZ=              0.7184   YZ=              2.3813
 Traceless Quadrupole moment (field-independent basis, Debye-Ang):
   XX=              7.6738   YY=             -0.6103   ZZ=             -7.0635
   XY=             -0.5107   XZ=              0.7184   YZ=              2.3813
 Octapole moment (field-independent basis, Debye-Ang**2):
  XXX=              6.7408  YYY=              8.0202  ZZZ=             -6.0931  XYY=              5.9535
  XXY=              6.8196  XXZ=             -4.1507  XZZ=             -1.0541  YZZ=              6.3806
  YYZ=              1.2066  XYZ=            -11.8216
 Hexadecapole moment (field-independent basis, Debye-Ang**3):
 XXXX=          -2280.2945 YYYY=           -601.5909 ZZZZ=           -194.5596 XXXY=              7.4985
 XXXZ=              8.9872 YYYX=              1.9060 YYYZ=             -3.1334 ZZZX=             -3.0156
 ZZZY=             -4.2051 XXYY=           -498.4815 XXZZ=           -489.3516 YYZZ=           -128.2242
 XXYZ=              8.2515 YYXZ=              5.5600 ZZXY=              6.0478
 N-N= 7.055265155587D+02 E-N=-2.720796267326D+03  KE= 5.583435207725D+02
                          Isotropic Fermi Contact Couplings
        Atom                 a.u.       MegaHertz       Gauss      10(-4) cm-1
     1  C(13)              0.00000       0.00000       0.00000       0.00000
     2  C(13)              0.00000       0.00000       0.00000       0.00000
     3  C(13)             -0.00000      -0.00000      -0.00000      -0.00000
     4  C(13)             -0.00000      -0.00000      -0.00000      -0.00000
     5  C(13)              0.00000       0.00000       0.00000       0.00000
     6  C(13)              0.00000       0.00000       0.00000       0.00000
     7  C(13)              0.00000       0.00000       0.00000       0.00000
     8  C(13)             -0.00000      -0.00000      -0.00000      -0.00000
     9  C(13)              0.00000       0.00000       0.00000       0.00000
    10  C(13)              0.00000       0.00000       0.00000       0.00000
    11  C(13)              0.00000       0.00000       0.00000       0.00000
    12  C(13)             -0.00000      -0.00000      -0.00000      -0.00000
    13  F(19)             -0.00000      -0.00000      -0.00000      -0.00000
    14  H(1)               0.00000       0.00000       0.00000       0.00000
    15  H(1)              -0.00000      -0.00000      -0.00000      -0.00000
    16  H(1)               0.00000       0.00000       0.00000       0.00000
    17  H(1)               0.00000       0.00000       0.00000       0.00000
    18  H(1)              -0.00000      -0.00000      -0.00000      -0.00000
    19  H(1)              -0.00000      -0.00000      -0.00000      -0.00000
    20  H(1)               0.00000       0.00000       0.00000       0.00000
    21  H(1)              -0.00000      -0.00000      -0.00000      -0.00000
    22  H(1)              -0.00000      -0.00000      -0.00000      -0.00000
 --------------------------------------------------------
       Center         ----  Spin Dipole Couplings  ----
                      3XX-RR        3YY-RR        3ZZ-RR
 --------------------------------------------------------
     1   Atom       -0.000000     -0.000000      0.000000
     2   Atom       -0.000000      0.000000      0.000000
     3   Atom       -0.000000      0.000000      0.000000
     4   Atom        0.000000     -0.000000      0.000000
     5   Atom        0.000000     -0.000000     -0.000000
     6   Atom       -0.000000      0.000000     -0.000000
     7   Atom        0.000000     -0.000000     -0.000000
     8   Atom       -0.000000      0.000000      0.000000
     9   Atom       -0.000000     -0.000000      0.000000
    10   Atom        0.000000     -0.000000     -0.000000
    11   Atom       -0.000000     -0.000000      0.000000
    12   Atom       -0.000000      0.000000      0.000000
    13   Atom        0.000000     -0.000000     -0.000000
    14   Atom       -0.000000      0.000000      0.000000
    15   Atom        0.000000     -0.000000      0.000000
    16   Atom        0.000000      0.000000     -0.000000
    17   Atom       -0.000000      0.000000     -0.000000
    18   Atom        0.000000     -0.000000     -0.000000
    19   Atom       -0.000000      0.000000     -0.000000
    20   Atom        0.000000      0.000000     -0.000000
    21   Atom        0.000000     -0.000000     -0.000000
    22   Atom       -0.000000      0.000000     -0.000000
 --------------------------------------------------------
                        XY            XZ            YZ
 --------------------------------------------------------
     1   Atom       -0.000000      0.000000     -0.000000
     2   Atom        0.000000      0.000000      0.000000
     3   Atom       -0.000000     -0.000000      0.000000
     4   Atom        0.000000      0.000000     -0.000000
     5   Atom       -0.000000     -0.000000      0.000000
     6   Atom        0.000000      0.000000      0.000000
     7   Atom       -0.000000      0.000000      0.000000
     8   Atom        0.000000     -0.000000      0.000000
     9   Atom        0.000000     -0.000000      0.000000
    10   Atom        0.000000      0.000000      0.000000
    11   Atom        0.000000     -0.000000      0.000000
    12   Atom       -0.000000      0.000000      0.000000
    13   Atom       -0.000000      0.000000     -0.000000
    14   Atom       -0.000000     -0.000000     -0.000000
    15   Atom       -0.000000     -0.000000     -0.000000
    16   Atom        0.000000     -0.000000      0.000000
    17   Atom       -0.000000     -0.000000      0.000000
    18   Atom        0.000000      0.000000      0.000000
    19   Atom        0.000000     -0.000000     -0.000000
    20   Atom       -0.000000      0.000000     -0.000000
    21   Atom       -0.000000      0.000000      0.000000
    22   Atom       -0.000000      0.000000      0.000000
 --------------------------------------------------------


 ---------------------------------------------------------------------------------
              Anisotropic Spin Dipole Couplings in Principal Axis System
 ---------------------------------------------------------------------------------

       Atom             a.u.   MegaHertz   Gauss  10(-4) cm-1        Axes

              Baa    -0.0000    -0.000    -0.000    -0.000  0.4440  0.7611  0.4728
     1 C(13)  Bbb    -0.0000    -0.000    -0.000    -0.000  0.8907 -0.3174 -0.3254
              Bcc     0.0000     0.000     0.000     0.000  0.0976 -0.5656  0.8189
 
              Baa    -0.0000    -0.000    -0.000    -0.000  0.9350 -0.2075 -0.2877
     2 C(13)  Bbb     0.0000     0.000     0.000     0.000  0.1485 -0.5076  0.8487
              Bcc     0.0000     0.000     0.000     0.000  0.3222  0.8362  0.4437
 
              Baa    -0.0000    -0.000    -0.000    -0.000  0.8708  0.4882 -0.0580
     3 C(13)  Bbb    -0.0000    -0.000    -0.000    -0.000  0.3208 -0.4748  0.8196
              Bcc     0.0000     0.000     0.000     0.000 -0.3725  0.7323  0.5700
 
              Baa    -0.0000    -0.000    -0.000    -0.000 -0.4311  0.8064  0.4048
     4 C(13)  Bbb     0.0000     0.000     0.000     0.000  0.6420  0.5894 -0.4903
              Bcc     0.0000     0.000     0.000     0.000  0.6340 -0.0485  0.7718
 
              Baa    -0.0000    -0.000    -0.000    -0.000 -0.1682 -0.6857  0.7082
     5 C(13)  Bbb     0.0000     0.000     0.000     0.000  0.8277  0.2919  0.4793
              Bcc     0.0000     0.000     0.000     0.000 -0.5354  0.6668  0.5185
 
              Baa    -0.0000    -0.000    -0.000    -0.000 -0.3212 -0.4983  0.8053
     6 C(13)  Bbb    -0.0000    -0.000    -0.000    -0.000  0.8502 -0.5263  0.0134
              Bcc     0.0000     0.000     0.000     0.000  0.4172  0.6890  0.5927
 
              Baa    -0.0000    -0.000    -0.000    -0.000  0.2609  0.9465 -0.1897
     7 C(13)  Bbb    -0.0000    -0.000    -0.000    -0.000 -0.0146  0.2004  0.9796
              Bcc     0.0000     0.000     0.000     0.000  0.9653 -0.2528  0.0661
 
              Baa    -0.0000    -0.000    -0.000    -0.000  0.8995 -0.4237  0.1065
     8 C(13)  Bbb     0.0000     0.000     0.000     0.000 -0.0704  0.0999  0.9925
              Bcc     0.0000     0.000     0.000     0.000  0.4311  0.9003 -0.0600
 
              Baa    -0.0000    -0.000    -0.000    -0.000  0.7817 -0.5846  0.2172
     9 C(13)  Bbb     0.0000     0.000     0.000     0.000  0.5389  0.8085  0.2365
              Bcc     0.0000     0.000     0.000     0.000 -0.3139 -0.0679  0.9470
 
              Baa    -0.0000    -0.000    -0.000    -0.000 -0.3566  0.9150 -0.1887
    10 C(13)  Bbb    -0.0000    -0.000    -0.000    -0.000 -0.1136  0.1580  0.9809
              Bcc     0.0000     0.000     0.000     0.000  0.9273  0.3712  0.0476
 
              Baa    -0.0000    -0.000    -0.000    -0.000 -0.6084  0.7878 -0.0958
    11 C(13)  Bbb     0.0000     0.000     0.000     0.000  0.7842  0.6153  0.0794
              Bcc     0.0000     0.000     0.000     0.000 -0.1216  0.0268  0.9922
 
              Baa    -0.0000    -0.000    -0.000    -0.000  0.9588  0.2764 -0.0657
    12 C(13)  Bbb     0.0000     0.000     0.000     0.000  0.1096 -0.1466  0.9831
              Bcc     0.0000     0.000     0.000     0.000 -0.2621  0.9498  0.1708
 
              Baa    -0.0000    -0.000    -0.000    -0.000  0.5239  0.8393 -0.1455
    13 F(19)  Bbb    -0.0000    -0.000    -0.000    -0.000 -0.3323  0.3586  0.8724
              Bcc     0.0000     0.000     0.000     0.000  0.7843 -0.4087  0.4667
 
              Baa    -0.0000    -0.000    -0.000    -0.000  0.9571  0.1179  0.2646
    14 H(1)   Bbb     0.0000     0.000     0.000     0.000 -0.0500  0.9669 -0.2500
              Bcc     0.0000     0.000     0.000     0.000 -0.2853  0.2261  0.9314
 
              Baa    -0.0000    -0.000    -0.000    -0.000  0.3218  0.8286  0.4582
    15 H(1)   Bbb     0.0000     0.000     0.000     0.000  0.0130 -0.4877  0.8729
              Bcc     0.0000     0.000     0.000     0.000  0.9467 -0.2749 -0.1677
 
              Baa    -0.0000    -0.000    -0.000    -0.000  0.0675 -0.3250  0.9433
    16 H(1)   Bbb     0.0000     0.000     0.000     0.000 -0.6092  0.7353  0.2969
              Bcc     0.0000     0.000     0.000     0.000  0.7901  0.5947  0.1484
 
              Baa    -0.0000    -0.000    -0.000    -0.000  0.0260 -0.5849  0.8107
    17 H(1)   Bbb    -0.0000    -0.000    -0.000    -0.000  0.9433  0.2827  0.1738
              Bcc     0.0000     0.000     0.000     0.000 -0.3308  0.7602  0.5591
 
              Baa    -0.0000    -0.000    -0.000    -0.000 -0.6098  0.7697  0.1889
    18 H(1)   Bbb    -0.0000    -0.000    -0.000    -0.000 -0.2629 -0.4213  0.8680
              Bcc     0.0000     0.000     0.000     0.000  0.7476  0.4797  0.4593
 
              Baa    -0.0000    -0.000    -0.000    -0.000 -0.4137  0.4739  0.7774
    19 H(1)   Bbb    -0.0000    -0.000    -0.000    -0.000  0.7334 -0.3324  0.5929
              Bcc     0.0000     0.000     0.000     0.000  0.5394  0.8154 -0.2100
 
[...]
     7  C    0.000000  -0.000000   0.000000  -0.000000   0.000000  -0.000000
     8  C   -0.000000  -0.000000  -0.000000   0.000000  -0.000000   0.000000
     9  C    0.000000  -0.000000   0.000000  -0.000000   0.000000  -0.000000
    10  C   -0.000000   0.000000  -0.000000   0.000000  -0.000000   0.000000
    11  C    0.000000  -0.000000   0.000000  -0.000000   0.000000  -0.000000
    12  C   -0.000000   0.000000  -0.000000   0.000000  -0.000000   0.000000
    13  F   -0.000000  -0.000000  -0.000000   0.000000  -0.000000   0.000000
    14  H    0.000000   0.000000  -0.000000   0.000000  -0.000000  -0.000000
    15  H   -0.000000  -0.000000   0.000000  -0.000000   0.000000   0.000000
    16  H    0.000000   0.000000  -0.000000   0.000000  -0.000000  -0.000000
    17  H   -0.000000   0.000000  -0.000000   0.000000  -0.000000  -0.000000
    18  H   -0.000000   0.000000   0.000000  -0.000000   0.000000  -0.000000
    19  H   -0.000000   0.000000  -0.000000   0.000000  -0.000000   0.000000
    20  H    0.000000  -0.000000   0.000000  -0.000000   0.000000  -0.000000
    21  H   -0.000000   0.000000  -0.000000   0.000000  -0.000000   0.000000
    22  H    0.000000  -0.000000   0.000000  -0.000000   0.000000  -0.000000
              13         14         15         16         17         18
     1  C   -0.000000   0.000000  -0.000000   0.000000  -0.000000   0.000000
     2  C    0.000000  -0.000000   0.000000  -0.000000   0.000000   0.000000
     3  C    0.000000   0.000000  -0.000000   0.000000  -0.000000  -0.000000
     4  C    0.000000   0.000000   0.000000  -0.000000   0.000000   0.000000
     5  C    0.000000   0.000000  -0.000000  -0.000000  -0.000000  -0.000000
     6  C   -0.000000  -0.000000   0.000000   0.000000   0.000000   0.000000
     7  C   -0.000000   0.000000  -0.000000   0.000000  -0.000000  -0.000000
     8  C   -0.000000   0.000000  -0.000000   0.000000   0.000000   0.000000
     9  C   -0.000000  -0.000000   0.000000  -0.000000  -0.000000   0.000000
    10  C    0.000000   0.000000  -0.000000   0.000000   0.000000  -0.000000
    11  C   -0.000000  -0.000000   0.000000  -0.000000  -0.000000   0.000000
    12  C    0.000000  -0.000000   0.000000  -0.000000  -0.000000  -0.000000
    13  F   -0.000000  -0.000000   0.000000  -0.000000   0.000000   0.000000
    14  H   -0.000000   0.000000  -0.000000   0.000000  -0.000000  -0.000000
    15  H    0.000000  -0.000000   0.000000  -0.000000   0.000000   0.000000
    16  H   -0.000000   0.000000  -0.000000   0.000000  -0.000000  -0.000000
    17  H    0.000000  -0.000000   0.000000  -0.000000  -0.000000   0.000000
    18  H    0.000000  -0.000000   0.000000  -0.000000   0.000000  -0.000000
    19  H   -0.000000   0.000000  -0.000000   0.000000   0.000000  -0.000000
    20  H   -0.000000  -0.000000   0.000000  -0.000000  -0.000000   0.000000
    21  H    0.000000   0.000000  -0.000000   0.000000   0.000000  -0.000000
    22  H    0.000000  -0.000000  -0.000000  -0.000000  -0.000000   0.000000
              19         20         21         22
     1  C    0.000000  -0.000000   0.000000  -0.000000
     2  C   -0.000000   0.000000  -0.000000   0.000000
     3  C    0.000000  -0.000000  -0.000000   0.000000
     4  C    0.000000  -0.000000   0.000000  -0.000000
     5  C    0.000000   0.000000   0.000000  -0.000000
     6  C   -0.000000   0.000000  -0.000000   0.000000
     7  C   -0.000000   0.000000  -0.000000   0.000000
     8  C    0.000000  -0.000000   0.000000  -0.000000
     9  C   -0.000000   0.000000  -0.000000   0.000000
    10  C    0.000000  -0.000000   0.000000  -0.000000
    11  C   -0.000000   0.000000  -0.000000   0.000000
    12  C    0.000000  -0.000000   0.000000  -0.000000
    13  F   -0.000000  -0.000000   0.000000   0.000000
    14  H    0.000000  -0.000000   0.000000  -0.000000
    15  H   -0.000000   0.000000  -0.000000  -0.000000
    16  H    0.000000  -0.000000   0.000000  -0.000000
    17  H    0.000000  -0.000000   0.000000  -0.000000
    18  H   -0.000000   0.000000  -0.000000   0.000000
    19  H    0.000000  -0.000000   0.000000  -0.000000
    20  H   -0.000000   0.000000  -0.000000   0.000000
    21  H    0.000000  -0.000000   0.000000  -0.000000
    22  H   -0.000000   0.000000  -0.000000   0.000000
 Mulliken charges and spin densities:
               1          2
     1  C    0.002633  -0.000000
     2  C    0.010482   0.000000
     3  C    0.013156  -0.000000
     4  C   -0.003827   0.000000
     5  C   -0.003414  -0.000000
     6  C    0.011414   0.000000
     7  C   -0.055216  -0.000000
     8  C    0.006500  -0.000000
     9  C    0.013166  -0.000000
    10  C    0.014375   0.000000
    11  C    0.000614  -0.000000
    12  C    0.095299   0.000000
    13  F   -0.129506  -0.000000
    14  H    0.000775   0.000000
    15  H    0.002440   0.000000
    16  H   -0.003381   0.000000
    17  H   -0.005378  -0.000000
    18  H    0.001629  -0.000000
    19  H    0.002070   0.000000
    20  H    0.002726   0.000000
    21  H    0.007662   0.000000
    22  H    0.015781   0.000000
 Sum of Mulliken charges =  -0.00000   0.00000
 Mulliken charges and spin densities with hydrogens summed into heavy atoms:
               1          2
     1  C    0.003407  -0.000000
     2  C    0.012922   0.000000
     3  C    0.009775  -0.000000
     4  C   -0.003827   0.000000
     5  C   -0.008791  -0.000000
     6  C    0.013043   0.000000
     7  C   -0.055216  -0.000000
     8  C    0.008570  -0.000000
     9  C    0.015892  -0.000000
    10  C    0.022037   0.000000
    11  C    0.016395  -0.000000
    12  C    0.095299   0.000000
    13  F   -0.129506  -0.000000
 Electronic spatial extent (au):  <R**2>=           2481.2996
 Charge=              0.0000 electrons
 Dipole moment (field-independent basis, Debye):
    X=              0.4306    Y=             -0.9940    Z=              0.3138  Tot=              1.1278
 Quadrupole moment (field-independent basis, Debye-Ang):
   XX=            -62.3646   YY=            -69.9974   ZZ=            -76.9721
   XY=             -0.3735   XZ=              0.0971   YZ=              2.3693
 Traceless Quadrupole moment (field-independent basis, Debye-Ang):
   XX=              7.4134   YY=             -0.2193   ZZ=             -7.1941
   XY=             -0.3735   XZ=              0.0971   YZ=              2.3693
 Octapole moment (field-independent basis, Debye-Ang**2):
  XXX=             11.3139  YYY=              6.2543  ZZZ=             -5.7138  XYY=              3.8486
  XXY=              6.3757  XXZ=             -2.1966  XZZ=             -0.2511  YZZ=              6.7291
  YYZ=              1.7048  XYZ=            -11.5103
 Hexadecapole moment (field-independent basis, Debye-Ang**3):
 XXXX=          -2266.4942 YYYY=           -609.5677 ZZZZ=           -180.3876 XXXY=             13.6498
 XXXZ=             -3.1648 YYYX=              4.2488 YYYZ=             -1.7700 ZZZX=             -5.4287
 ZZZY=             -5.0785 XXYY=           -492.2587 XXZZ=           -484.8911 YYZZ=           -129.3017
 XXYZ=              8.2113 YYXZ=              4.8698 ZZXY=              5.8610
 N-N= 7.092249355137D+02 E-N=-2.728410560250D+03  KE= 5.584119442232D+02
                          Isotropic Fermi Contact Couplings
        Atom                 a.u.       MegaHertz       Gauss      10(-4) cm-1
     1  C(13)             -0.00000      -0.00000      -0.00000      -0.00000
     2  C(13)              0.00000       0.00000       0.00000       0.00000
     3  C(13)             -0.00000      -0.00000      -0.00000      -0.00000
     4  C(13)              0.00000       0.00000       0.00000       0.00000
     5  C(13)             -0.00000      -0.00000      -0.00000      -0.00000
     6  C(13)             -0.00000      -0.00000      -0.00000      -0.00000
     7  C(13)              0.00000       0.00000       0.00000       0.00000
     8  C(13)              0.00000       0.00000       0.00000       0.00000
     9  C(13)              0.00000       0.00000       0.00000       0.00000
    10  C(13)             -0.00000      -0.00000      -0.00000      -0.00000
    11  C(13)             -0.00000      -0.00000      -0.00000      -0.00000
    12  C(13)              0.00000       0.00000       0.00000       0.00000
    13  F(19)              0.00000       0.00000       0.00000       0.00000
    14  H(1)              -0.00000      -0.00000      -0.00000      -0.00000
    15  H(1)              -0.00000      -0.00000      -0.00000      -0.00000
    16  H(1)               0.00000       0.00000       0.00000       0.00000
    17  H(1)              -0.00000      -0.00000      -0.00000      -0.00000
    18  H(1)               0.00000       0.00000       0.00000       0.00000
    19  H(1)              -0.00000      -0.00000      -0.00000      -0.00000
    20  H(1)               0.00000       0.00000       0.00000       0.00000
    21  H(1)               0.00000       0.00000       0.00000       0.00000
    22  H(1)               0.00000       0.00000       0.00000       0.00000
 --------------------------------------------------------
       Center         ----  Spin Dipole Couplings  ----
                      3XX-RR        3YY-RR        3ZZ-RR
 --------------------------------------------------------
     1   Atom        0.000000     -0.000000      0.000000
     2   Atom        0.000000     -0.000000     -0.000000
     3   Atom        0.000000     -0.000000     -0.000000
     4   Atom        0.000000     -0.000000     -0.000000
     5   Atom       -0.000000     -0.000000      0.000000
     6   Atom       -0.000000     -0.000000      0.000000
     7   Atom        0.000000     -0.000000     -0.000000
     8   Atom       -0.000000      0.000000     -0.000000
     9   Atom       -0.000000      0.000000     -0.000000
    10   Atom        0.000000     -0.000000     -0.000000
    11   Atom        0.000000      0.000000     -0.000000
    12   Atom       -0.000000      0.000000     -0.000000
    13   Atom        0.000000     -0.000000      0.000000
    14   Atom        0.000000     -0.000000     -0.000000
    15   Atom       -0.000000      0.000000     -0.000000
    16   Atom        0.000000      0.000000     -0.000000
    17   Atom        0.000000     -0.000000     -0.000000
    18   Atom       -0.000000      0.000000     -0.000000
    19   Atom        0.000000      0.000000     -0.000000
    20   Atom        0.000000     -0.000000     -0.000000
    21   Atom        0.000000     -0.000000     -0.000000
    22   Atom        0.000000     -0.000000      0.000000
 --------------------------------------------------------
                        XY            XZ            YZ
 --------------------------------------------------------
     1   Atom        0.000000      0.000000     -0.000000
     2   Atom        0.000000      0.000000      0.000000
     3   Atom        0.000000     -0.000000      0.000000
     4   Atom       -0.000000     -0.000000      0.000000
     5   Atom        0.000000      0.000000     -0.000000
     6   Atom        0.000000      0.000000     -0.000000
     7   Atom        0.000000     -0.000000     -0.000000
     8   Atom        0.000000      0.000000     -0.000000
     9   Atom        0.000000     -0.000000     -0.000000
    10   Atom       -0.000000     -0.000000      0.000000
    11   Atom       -0.000000      0.000000     -0.000000
    12   Atom       -0.000000      0.000000      0.000000
    13   Atom       -0.000000      0.000000      0.000000
    14   Atom        0.000000      0.000000      0.000000
    15   Atom       -0.000000     -0.000000      0.000000
    16   Atom        0.000000      0.000000      0.000000
    17   Atom        0.000000      0.000000     -0.000000
    18   Atom        0.000000      0.000000      0.000000
    19   Atom        0.000000     -0.000000     -0.000000
    20   Atom       -0.000000      0.000000      0.000000
    21   Atom        0.000000     -0.000000     -0.000000
    22   Atom       -0.000000      0.000000      0.000000
 --------------------------------------------------------


 ---------------------------------------------------------------------------------
              Anisotropic Spin Dipole Couplings in Principal Axis System
 ---------------------------------------------------------------------------------

       Atom             a.u.   MegaHertz   Gauss  10(-4) cm-1        Axes

              Baa    -0.0000    -0.000    -0.000    -0.000 -0.3399  0.9339  0.1105
     1 C(13)  Bbb     0.0000     0.000     0.000     0.000 -0.3290 -0.2281  0.9164
              Bcc     0.0000     0.000     0.000     0.000  0.8810  0.2751  0.3848
 
              Baa    -0.0000    -0.000    -0.000    -0.000  0.0159 -0.6490  0.7606
     2 C(13)  Bbb     0.0000     0.000     0.000     0.000  0.9881 -0.1063 -0.1113
              Bcc     0.0000     0.000     0.000     0.000  0.1531  0.7533  0.6396
 
              Baa    -0.0000    -0.000    -0.000    -0.000  0.2170 -0.6702  0.7098
     3 C(13)  Bbb     0.0000     0.000     0.000     0.000  0.2817  0.7392  0.6118
              Bcc     0.0000     0.000     0.000     0.000  0.9346 -0.0671 -0.3492
 
              Baa    -0.0000    -0.000    -0.000    -0.000  0.4315  0.8486 -0.3062
     4 C(13)  Bbb    -0.0000    -0.000    -0.000    -0.000  0.4021  0.1229  0.9073
              Bcc     0.0000     0.000     0.000     0.000  0.8075 -0.5146 -0.2882
 
              Baa    -0.0000    -0.000    -0.000    -0.000  0.7321 -0.6392 -0.2356
     5 C(13)  Bbb     0.0000     0.000     0.000     0.000  0.5638  0.7626 -0.3172
              Bcc     0.0000     0.000     0.000     0.000  0.3824  0.0994  0.9186
 
              Baa    -0.0000    -0.000    -0.000    -0.000  0.7469 -0.6114 -0.2613
     6 C(13)  Bbb    -0.0000    -0.000    -0.000    -0.000  0.5588  0.7902 -0.2515
              Bcc     0.0000     0.000     0.000     0.000  0.3603  0.0418  0.9319
 
              Baa    -0.0000    -0.000    -0.000    -0.000 -0.0092  0.2255  0.9742
     7 C(13)  Bbb    -0.0000    -0.000    -0.000    -0.000 -0.1105  0.9680 -0.2251
              Bcc     0.0000     0.000     0.000     0.000  0.9938  0.1097 -0.0160
 
              Baa    -0.0000    -0.000    -0.000    -0.000 -0.0780  0.2281  0.9705
     8 C(13)  Bbb    -0.0000    -0.000    -0.000    -0.000  0.9936 -0.0621  0.0945
              Bcc     0.0000     0.000     0.000     0.000  0.0818  0.9717 -0.2218
 
              Baa    -0.0000    -0.000    -0.000    -0.000  0.0890  0.2443  0.9656
     9 C(13)  Bbb    -0.0000    -0.000    -0.000    -0.000  0.9693 -0.2445 -0.0275
              Bcc     0.0000     0.000     0.000     0.000  0.2293  0.9384 -0.2585
 
              Baa    -0.0000    -0.000    -0.000    -0.000  0.3230  0.9464  0.0086
    10 C(13)  Bbb    -0.0000    -0.000    -0.000    -0.000  0.0303 -0.0194  0.9994
              Bcc     0.0000     0.000     0.000     0.000  0.9459 -0.3225 -0.0350
 
              Baa    -0.0000    -0.000    -0.000    -0.000 -0.0136  0.1462  0.9892
    11 C(13)  Bbb    -0.0000    -0.000    -0.000    -0.000  0.5213  0.8452 -0.1178
              Bcc     0.0000     0.000     0.000     0.000  0.8533 -0.5141  0.0877
 
              Baa    -0.0000    -0.000    -0.000    -0.000  0.9295  0.0684 -0.3624
    12 C(13)  Bbb    -0.0000    -0.000    -0.000    -0.000  0.3681 -0.1110  0.9231
              Bcc     0.0000     0.000     0.000     0.000 -0.0229  0.9915  0.1283
 
              Baa    -0.0000    -0.000    -0.000    -0.000  0.4755  0.8706 -0.1265
    13 F(19)  Bbb     0.0000     0.000     0.000     0.000 -0.0296  0.1596  0.9867
              Bcc     0.0000     0.000     0.000     0.000  0.8792 -0.4654  0.1017
 
              Baa    -0.0000    -0.000    -0.000    -0.000 -0.5434  0.8322 -0.1104
    14 H(1)   Bbb    -0.0000    -0.000    -0.000    -0.000 -0.1197  0.0534  0.9914
              Bcc     0.0000     0.000     0.000     0.000  0.8309  0.5519  0.0706
 
              Baa    -0.0000    -0.000    -0.000    -0.000  0.3915  0.7006 -0.5966
    15 H(1)   Bbb    -0.0000    -0.000    -0.000    -0.000  0.7655  0.1118  0.6336
              Bcc     0.0000     0.000     0.000     0.000 -0.5106  0.7048  0.4926
 
              Baa    -0.0000    -0.000    -0.000    -0.000 -0.2312 -0.0668  0.9706
    16 H(1)   Bbb     0.0000     0.000     0.000     0.000 -0.4132  0.9100 -0.0357
              Bcc     0.0000     0.000     0.000     0.000  0.8808  0.4093  0.2380
 
              Baa    -0.0000    -0.000    -0.000    -0.000 -0.2740  0.7263  0.6303
    17 H(1)   Bbb     0.0000     0.000     0.000     0.000  0.9161  0.3966 -0.0588
              Bcc     0.0000     0.000     0.000     0.000  0.2927 -0.5613  0.7741
 
              Baa    -0.0000    -0.000    -0.000    -0.000  0.8870 -0.1549 -0.4351
    18 H(1)   Bbb    -0.0000    -0.000    -0.000    -0.000  0.2966 -0.5310  0.7938
              Bcc     0.0000     0.000     0.000     0.000  0.3540  0.8331  0.4250
 
              Baa    -0.0000    -0.000    -0.000    -0.000  0.7096 -0.6079  0.3563
    19 H(1)   Bbb    -0.0000    -0.000    -0.000    -0.000 -0.0680  0.4442  0.8933
              Bcc     0.0000     0.000     0.000     0.000  0.7013  0.6581 -0.2739
 
              Baa    -0.0000    -0.000    -0.000    -0.000  0.0591  0.9596 -0.2752
    20 H(1)   Bbb    -0.0000    -0.000    -0.000    -0.000 -0.0087  0.2762  0.9611
              Bcc     0.0000     0.000     0.000     0.000  0.9982 -0.0544  0.0246
 
              Baa    -0.0000    -0.000    -0.000    -0.000  0.0112  0.3303  0.9438
    21 H(1)   Bbb    -0.0000    -0.000    -0.000    -0.000 -0.1454  0.9344 -0.3252
              Bcc     0.0000     0.000     0.000     0.000  0.9893  0.1336 -0.0584
 
              Baa    -0.0000    -0.000    -0.000    -0.000  0.3372  0.9093 -0.2439
    22 H(1)   Bbb     0.0000     0.000     0.000     0.000  0.3183  0.1337  0.9385
              Bcc     0.0000     0.000     0.000     0.000  0.8860 -0.3941 -0.2444
 

 ---------------------------------------------------------------------------------

 No NMR shielding tensors so no spin-rotation constants.
 Leave Link  601 at Fri Jul 24 14:22:41 2020, MaxMem=  4026531840 cpu:               2.6 elap:               0.4
 (Enter /opt/ohpc/pub/libs/gaussian/g16-A.03/sandybridge/g16/l9999.exe)

 Test job not archived.
 1\1\GINC-SKYLAKE049\FOpt\ULC-wPBE\CC-pVDZ\C12H9F1\RDU230\24-Jul-2020\0
 \\#P uLC-wPBE/cc-pVDZ iop(3/107=0360500000, 3/108=0360500000) opt\\H9 
 C12 F1\\0,1\C,-3.6272417898,-0.0822580579,0.0347733682\C,-2.9033975285
 ,0.91532543,0.6807889631\C,-1.5141775118,0.8839241921,0.6844124505\C,-
 0.8245876937,-0.1510873448,0.0457030425\C,-1.5610367004,-1.1460320557,
 -0.6030005306\C,-2.9511122461,-1.112855523,-0.6090857958\C,0.660336769
 1,-0.223114467,0.069939436\C,1.3232085701,-1.4227189845,0.3478626407\C
 ,2.7106055417,-1.5054436977,0.3590177694\C,3.4744920797,-0.374974454,0
 .0870858252\C,2.8457433813,0.8321182658,-0.1928257886\C,1.4617225332,0
 .8869125697,-0.1951553968\F,0.8777273937,2.068235283,-0.4759513102\H,-
 4.7197714122,-0.0543424911,0.0310290618\H,-3.4263888456,1.7287271708,1
 .1902288158\H,-0.9544755352,1.6700167064,1.1949147105\H,-1.0348065936,
 -1.949854926,-1.1249301241\H,-3.5096875553,-1.8969486333,-1.1266448016
 \H,0.7238653626,-2.307623737,0.5772114026\H,3.1968025448,-2.4566145751
 ,0.5869015696\H,4.5657059725,-0.4291142502,0.0941598477\H,3.4076192635
 ,1.7408775795,-0.4165061559\\Version=EM64L-G16RevA.03\State=1-A\HF=-56
 2.155925\S2=0.\S2-1=0.\S2A=0.\RMSD=3.755e-09\RMSF=1.729e-05\Dipole=0.1
 679952,-0.3949561,0.1125515\Quadrupole=5.5096107,-0.2641825,-5.2454282
 ,-0.3006877,0.0784462,1.9039662\PG=C01 [X(C12H9F1)]\\@


 The hours that make us happy make us wise.
                         -- John Masefield
 Job cpu time:       0 days  2 hours 27 minutes 29.7 seconds.
 Elapsed time:       0 days  0 hours 18 minutes 33.8 seconds.
 File lengths (MBytes):  RWF=    120 Int=      0 D2E=      0 Chk=     12 Scr=      8
 Normal termination of Gaussian 16 at Fri Jul 24 14:22:41 2020.
