 Entering Gaussian System, Link 0=g16
 Input=mols_65_3_17_n-n-N_opt_0.gjf
 Output=mols_65_3_17_n-n-N_opt_0.log
 Initial command:
 /opt/ohpc/pub/libs/gaussian/g16-A.03/sandybridge/g16/l1.exe "/mnt/gpfs2_4m/scratch/rdu230/ondemand/projects/dihedral_energies/7trial/wtuning/mols_65_3_17_n-n-N/Gau-42244.inp" -scrdir="/mnt/gpfs2_4m/scratch/rdu230/ondemand/projects/dihedral_energies/7trial/wtuning/mols_65_3_17_n-n-N/"
 Entering Link 1 = /opt/ohpc/pub/libs/gaussian/g16-A.03/sandybridge/g16/l1.exe PID=     42245.
  
 Copyright (c) 1988,1990,1992,1993,1995,1998,2003,2009,2016,
            Gaussian, Inc.  All Rights Reserved.
  
 This is part of the Gaussian(R) 16 program.  It is based on
 the Gaussian(R) 09 system (copyright 2009, Gaussian, Inc.),
 the Gaussian(R) 03 system (copyright 2003, Gaussian, Inc.),
 the Gaussian(R) 98 system (copyright 1998, Gaussian, Inc.),
 the Gaussian(R) 94 system (copyright 1995, Gaussian, Inc.),
 the Gaussian 92(TM) system (copyright 1992, Gaussian, Inc.),
 the Gaussian 90(TM) system (copyright 1990, Gaussian, Inc.),
 the Gaussian 88(TM) system (copyright 1988, Gaussian, Inc.),
 the Gaussian 86(TM) system (copyright 1986, Carnegie Mellon
 University), and the Gaussian 82(TM) system (copyright 1983,
 Carnegie Mellon University). Gaussian is a federally registered
 trademark of Gaussian, Inc.
  
 This software contains proprietary and confidential information,
 including trade secrets, belonging to Gaussian, Inc.
  
 This software is provided under written license and may be
 used, copied, transmitted, or stored only in accord with that
 written license.
  
 The following legend is applicable only to US Government
 contracts under FAR:
  
                    RESTRICTED RIGHTS LEGEND
  
 Use, reproduction and disclosure by the US Government is
 subject to restrictions as set forth in subparagraphs (a)
 and (c) of the Commercial Computer Software - Restricted
 Rights clause in FAR 52.227-19.
  
 Gaussian, Inc.
 340 Quinnipiac St., Bldg. 40, Wallingford CT 06492
  
  
 ---------------------------------------------------------------
 Warning -- This program may not be used in any manner that
 competes with the business of Gaussian, Inc. or will provide
 assistance to any competitor of Gaussian, Inc.  The licensee
 of this program is prohibited from giving any competitor of
 Gaussian, Inc. access to this program.  By using this program,
 the user acknowledges that Gaussian, Inc. is engaged in the
 business of creating and licensing software in the field of
 computational chemistry and represents and warrants to the
 licensee that it is not a competitor of Gaussian, Inc. and that
 it will not use this program in any manner prohibited above.
 ---------------------------------------------------------------
  

 Cite this work as:
 Gaussian 16, Revision A.03,
 M. J. Frisch, G. W. Trucks, H. B. Schlegel, G. E. Scuseria, 
 M. A. Robb, J. R. Cheeseman, G. Scalmani, V. Barone, 
 G. A. Petersson, H. Nakatsuji, X. Li, M. Caricato, A. V. Marenich, 
 J. Bloino, B. G. Janesko, R. Gomperts, B. Mennucci, H. P. Hratchian, 
 J. V. Ortiz, A. F. Izmaylov, J. L. Sonnenberg, D. Williams-Young, 
 F. Ding, F. Lipparini, F. Egidi, J. Goings, B. Peng, A. Petrone, 
 T. Henderson, D. Ranasinghe, V. G. Zakrzewski, J. Gao, N. Rega, 
 G. Zheng, W. Liang, M. Hada, M. Ehara, K. Toyota, R. Fukuda, 
 J. Hasegawa, M. Ishida, T. Nakajima, Y. Honda, O. Kitao, H. Nakai, 
 T. Vreven, K. Throssell, J. A. Montgomery, Jr., J. E. Peralta, 
 F. Ogliaro, M. J. Bearpark, J. J. Heyd, E. N. Brothers, K. N. Kudin, 
 V. N. Staroverov, T. A. Keith, R. Kobayashi, J. Normand, 
 K. Raghavachari, A. P. Rendell, J. C. Burant, S. S. Iyengar, 
 J. Tomasi, M. Cossi, J. M. Millam, M. Klene, C. Adamo, R. Cammi, 
 J. W. Ochterski, R. L. Martin, K. Morokuma, O. Farkas, 
 J. B. Foresman, and D. J. Fox, Gaussian, Inc., Wallingford CT, 2016.
 
 ******************************************
 Gaussian 16:  EM64L-G16RevA.03 25-Dec-2016
                25-Jul-2020 
 ******************************************
 %mem=30GB
 %nproc=8
 Will use up to    8 processors via shared memory.
 ---------------------------------------------------------------
 #P uLC-wPBE/cc-pVDZ iop(3/107=0135400000, 3/108=0135400000) opt
 ---------------------------------------------------------------
 1/18=20,19=15,26=3,38=1/1,3;
 2/9=110,12=2,17=6,18=5,40=1/2;
 3/5=16,11=2,25=1,30=1,71=1,74=-41,107=135400000,108=135400000,116=2/1,2,3;
 4//1;
 5/5=2,38=5/2;
 6/7=2,8=2,9=2,10=2,28=1/1;
 7//1,2,3,16;
 1/18=20,19=15,26=3/3(2);
 2/9=110/2;
 99//99;
 2/9=110/2;
 3/5=16,11=2,25=1,30=1,71=1,74=-41,107=135400000,108=135400000,116=2/1,2,3;
 4/5=5,16=3,69=1/1;
 5/5=2,38=5/2;
 7//1,2,3,16;
 1/18=20,19=15,26=3/3(-5);
 2/9=110/2;
 6/7=2,8=2,9=2,10=2,19=2,28=1/1;
 99/9=1/99;
 Leave Link    1 at Sat Jul 25 10:27:04 2020, MaxMem=  4026531840 cpu:               1.9 elap:               0.3
 (Enter /opt/ohpc/pub/libs/gaussian/g16-A.03/sandybridge/g16/l101.exe)
 -------------
 H11 C21 S3 N9
 -------------
 Symbolic Z-matrix:
 Charge =  0 Multiplicity = 1
 C                    -10.6731   2.22367   0.10512 
 C                    -10.71035   0.86964  -0.27041 
 N                    -9.61942   0.17304  -0.28203 
 C                    -8.43301   0.83092  -0.05499 
 N                    -8.37474   2.11035   0.28581 
 C                    -9.50889   2.78263   0.39225 
 C                    -7.18319  -0.02309  -0.21818 
 N                    -7.15784  -1.35015  -0.49662 
 C                    -5.87377  -1.72504  -0.53153 
 C                    -4.9055   -0.77448  -0.20926 
 S                    -5.67844   0.71376   0.19101 
 C                    -3.37834  -0.93017  -0.05339 
 C                    -2.8595   -2.13645   0.23892 
 N                    -1.52876  -2.30227   0.35638 
 C                    -0.73317  -1.2184    0.13519 
 N                    -1.19341   0.00085  -0.24364 
 C                    -2.49729   0.08448  -0.27151 
 C                     0.79301  -1.4558    0.20324 
 N                     1.37967  -2.54141   0.57995 
 C                     2.67875  -2.40653   0.55447 
 C                     3.21412  -1.14048   0.28189 
 S                     1.8114   -0.11148  -0.06316 
 C                     4.57656  -0.61763   0.16845 
 C                     4.94722   0.69372   0.34802 
 N                     6.20559   1.16817   0.31608 
 C                     7.16092   0.21237   0.00304 
 N                     6.86412  -1.10729  -0.29603 
 C                     5.58124  -1.49524  -0.22946 
 C                     8.57381   0.64154  -0.17408 
 N                     9.6293   -0.05445  -0.4658 
 C                     10.73057   0.69711  -0.49185 
 C                     10.63935   2.0042   -0.12185 
 S                     8.91877   2.35754   0.15364 
 H                    -11.61927   2.7672    0.21129 
 H                    -11.60068   0.36376  -0.43053 
 H                    -9.38749   3.87459   0.62573 
 H                    -5.6555   -2.81213  -0.73598 
 H                    -3.42849  -3.02865   0.45587 
 H                    -2.82812   1.10315  -0.64502 
 H                     3.31686  -3.22531   0.84722 
 H                     4.20616   1.36739   0.68516 
 H                     5.46215  -2.53084  -0.37409 
 H                     11.71633   0.18824  -0.67573 
 H                     11.32178   2.746    -0.11252 
 
 ITRead=  0  0  0  0  0  0  0  0  0  0  0  0  0  0  0  0  0  0  0  0
 ITRead=  0  0  0  0  0  0  0  0  0  0  0  0  0  0  0  0  0  0  0  0
 ITRead=  0  0  0  0
 MicOpt= -1 -1 -1 -1 -1 -1 -1 -1 -1 -1 -1 -1 -1 -1 -1 -1 -1 -1 -1 -1
 MicOpt= -1 -1 -1 -1 -1 -1 -1 -1 -1 -1 -1 -1 -1 -1 -1 -1 -1 -1 -1 -1
 MicOpt= -1 -1 -1 -1
 NAtoms=     44 NQM=       44 NQMF=       0 NMMI=      0 NMMIF=      0
                NMic=       0 NMicF=      0.
                    Isotopes and Nuclear Properties:
 (Nuclear quadrupole moments (NQMom) in fm**2, nuclear magnetic moments (NMagM)
  in nuclear magnetons)

  Atom         1           2           3           4           5           6           7           8           9          10
 IAtWgt=          12          12          14          12          14          12          12          14          12          12
 AtmWgt=  12.0000000  12.0000000  14.0030740  12.0000000  14.0030740  12.0000000  12.0000000  14.0030740  12.0000000  12.0000000
 NucSpn=           0           0           2           0           2           0           0           2           0           0
 AtZEff=  -0.0000000  -0.0000000  -0.0000000  -0.0000000  -0.0000000  -0.0000000  -0.0000000  -0.0000000  -0.0000000  -0.0000000
 NQMom=    0.0000000   0.0000000   2.0440000   0.0000000   2.0440000   0.0000000   0.0000000   2.0440000   0.0000000   0.0000000
 NMagM=    0.0000000   0.0000000   0.4037610   0.0000000   0.4037610   0.0000000   0.0000000   0.4037610   0.0000000   0.0000000
 AtZNuc=   6.0000000   6.0000000   7.0000000   6.0000000   7.0000000   6.0000000   6.0000000   7.0000000   6.0000000   6.0000000

  Atom        11          12          13          14          15          16          17          18          19          20
 IAtWgt=          32          12          12          14          12          14          12          12          14          12
 AtmWgt=  31.9720718  12.0000000  12.0000000  14.0030740  12.0000000  14.0030740  12.0000000  12.0000000  14.0030740  12.0000000
 NucSpn=           0           0           0           2           0           2           0           0           2           0
 AtZEff=  -0.0000000  -0.0000000  -0.0000000  -0.0000000  -0.0000000  -0.0000000  -0.0000000  -0.0000000  -0.0000000  -0.0000000
 NQMom=    0.0000000   0.0000000   0.0000000   2.0440000   0.0000000   2.0440000   0.0000000   0.0000000   2.0440000   0.0000000
 NMagM=    0.0000000   0.0000000   0.0000000   0.4037610   0.0000000   0.4037610   0.0000000   0.0000000   0.4037610   0.0000000
 AtZNuc=  16.0000000   6.0000000   6.0000000   7.0000000   6.0000000   7.0000000   6.0000000   6.0000000   7.0000000   6.0000000

  Atom        21          22          23          24          25          26          27          28          29          30
 IAtWgt=          12          32          12          12          14          12          14          12          12          14
 AtmWgt=  12.0000000  31.9720718  12.0000000  12.0000000  14.0030740  12.0000000  14.0030740  12.0000000  12.0000000  14.0030740
 NucSpn=           0           0           0           0           2           0           2           0           0           2
 AtZEff=  -0.0000000  -0.0000000  -0.0000000  -0.0000000  -0.0000000  -0.0000000  -0.0000000  -0.0000000  -0.0000000  -0.0000000
 NQMom=    0.0000000   0.0000000   0.0000000   0.0000000   2.0440000   0.0000000   2.0440000   0.0000000   0.0000000   2.0440000
 NMagM=    0.0000000   0.0000000   0.0000000   0.0000000   0.4037610   0.0000000   0.4037610   0.0000000   0.0000000   0.4037610
 AtZNuc=   6.0000000  16.0000000   6.0000000   6.0000000   7.0000000   6.0000000   7.0000000   6.0000000   6.0000000   7.0000000

  Atom        31          32          33          34          35          36          37          38          39          40
 IAtWgt=          12          12          32           1           1           1           1           1           1           1
 AtmWgt=  12.0000000  12.0000000  31.9720718   1.0078250   1.0078250   1.0078250   1.0078250   1.0078250   1.0078250   1.0078250
 NucSpn=           0           0           0           1           1           1           1           1           1           1
 AtZEff=  -0.0000000  -0.0000000  -0.0000000  -0.0000000  -0.0000000  -0.0000000  -0.0000000  -0.0000000  -0.0000000  -0.0000000
 NQMom=    0.0000000   0.0000000   0.0000000   0.0000000   0.0000000   0.0000000   0.0000000   0.0000000   0.0000000   0.0000000
 NMagM=    0.0000000   0.0000000   0.0000000   2.7928460   2.7928460   2.7928460   2.7928460   2.7928460   2.7928460   2.7928460
 AtZNuc=   6.0000000   6.0000000  16.0000000   1.0000000   1.0000000   1.0000000   1.0000000   1.0000000   1.0000000   1.0000000

  Atom        41          42          43          44
 IAtWgt=           1           1           1           1
 AtmWgt=   1.0078250   1.0078250   1.0078250   1.0078250
 NucSpn=           1           1           1           1
 AtZEff=  -0.0000000  -0.0000000  -0.0000000  -0.0000000
 NQMom=    0.0000000   0.0000000   0.0000000   0.0000000
 NMagM=    2.7928460   2.7928460   2.7928460   2.7928460
 AtZNuc=   1.0000000   1.0000000   1.0000000   1.0000000
 Leave Link  101 at Sat Jul 25 10:27:04 2020, MaxMem=  4026531840 cpu:               2.8 elap:               0.4
 (Enter /opt/ohpc/pub/libs/gaussian/g16-A.03/sandybridge/g16/l103.exe)

 GradGradGradGradGradGradGradGradGradGradGradGradGradGradGradGradGradGrad
 Berny optimization.
 Initialization pass.
                           ----------------------------
                           !    Initial Parameters    !
                           ! (Angstroms and Degrees)  !
 --------------------------                            --------------------------
 ! Name  Definition              Value          Derivative Info.                !
 --------------------------------------------------------------------------------
 ! R1    R(1,2)                  1.4056         estimate D2E/DX2                !
 ! R2    R(1,6)                  1.323          estimate D2E/DX2                !
 ! R3    R(1,34)                 1.0963         estimate D2E/DX2                !
 ! R4    R(2,3)                  1.2944         estimate D2E/DX2                !
 ! R5    R(2,35)                 1.0365         estimate D2E/DX2                !
 ! R6    R(3,4)                  1.3755         estimate D2E/DX2                !
 ! R7    R(4,5)                  1.3253         estimate D2E/DX2                !
 ! R8    R(4,7)                  1.5225         estimate D2E/DX2                !
 ! R9    R(5,6)                  1.3227         estimate D2E/DX2                !
 ! R10   R(6,36)                 1.1232         estimate D2E/DX2                !
 ! R11   R(7,8)                  1.3562         estimate D2E/DX2                !
 ! R12   R(7,11)                 1.7247         estimate D2E/DX2                !
 ! R13   R(8,9)                  1.3381         estimate D2E/DX2                !
 ! R14   R(9,10)                 1.3946         estimate D2E/DX2                !
 ! R15   R(9,37)                 1.1275         estimate D2E/DX2                !
 ! R16   R(10,11)                1.7241         estimate D2E/DX2                !
 ! R17   R(10,12)                1.543          estimate D2E/DX2                !
 ! R18   R(12,13)                1.3453         estimate D2E/DX2                !
 ! R19   R(12,17)                1.3614         estimate D2E/DX2                !
 ! R20   R(13,14)                1.3462         estimate D2E/DX2                !
 ! R21   R(13,38)                1.0802         estimate D2E/DX2                !
 ! R22   R(14,15)                1.3626         estimate D2E/DX2                !
 ! R23   R(15,16)                1.3572         estimate D2E/DX2                !
 ! R24   R(15,18)                1.546          estimate D2E/DX2                !
 ! R25   R(16,17)                1.3069         estimate D2E/DX2                !
 ! R26   R(17,39)                1.1343         estimate D2E/DX2                !
 ! R27   R(18,19)                1.2902         estimate D2E/DX2                !
 ! R28   R(18,22)                1.7074         estimate D2E/DX2                !
 ! R29   R(19,20)                1.3063         estimate D2E/DX2                !
 ! R30   R(20,21)                1.4014         estimate D2E/DX2                !
 ! R31   R(20,40)                1.0786         estimate D2E/DX2                !
 ! R32   R(21,22)                1.7736         estimate D2E/DX2                !
 ! R33   R(21,23)                1.4637         estimate D2E/DX2                !
 ! R34   R(23,24)                1.3745         estimate D2E/DX2                !
 ! R35   R(23,28)                1.3921         estimate D2E/DX2                !
 ! R36   R(24,25)                1.3452         estimate D2E/DX2                !
 ! R37   R(24,41)                1.0567         estimate D2E/DX2                !
 ! R38   R(25,26)                1.3871         estimate D2E/DX2                !
 ! R39   R(26,27)                1.3853         estimate D2E/DX2                !
 ! R40   R(26,29)                1.4872         estimate D2E/DX2                !
 ! R41   R(27,28)                1.3419         estimate D2E/DX2                !
 ! R42   R(28,42)                1.0524         estimate D2E/DX2                !
 ! R43   R(29,30)                1.2975         estimate D2E/DX2                !
 ! R44   R(29,33)                1.7807         estimate D2E/DX2                !
 ! R45   R(30,31)                1.3335         estimate D2E/DX2                !
 ! R46   R(31,32)                1.3615         estimate D2E/DX2                !
 ! R47   R(31,43)                1.1245         estimate D2E/DX2                !
 ! R48   R(32,33)                1.778          estimate D2E/DX2                !
 ! R49   R(32,44)                1.008          estimate D2E/DX2                !
 ! A1    A(2,1,6)              119.2284         estimate D2E/DX2                !
 ! A2    A(2,1,34)             118.723          estimate D2E/DX2                !
 ! A3    A(6,1,34)             121.9366         estimate D2E/DX2                !
 ! A4    A(1,2,3)              119.8988         estimate D2E/DX2                !
 ! A5    A(1,2,35)             122.2902         estimate D2E/DX2                !
 ! A6    A(3,2,35)             117.3815         estimate D2E/DX2                !
 ! A7    A(2,3,4)              117.9088         estimate D2E/DX2                !
 ! A8    A(3,4,5)              122.827          estimate D2E/DX2                !
 ! A9    A(3,4,7)              114.9662         estimate D2E/DX2                !
 ! A10   A(5,4,7)              122.2063         estimate D2E/DX2                !
 ! A11   A(4,5,6)              118.2715         estimate D2E/DX2                !
 ! A12   A(1,6,5)              121.489          estimate D2E/DX2                !
 ! A13   A(1,6,36)             123.4333         estimate D2E/DX2                !
 ! A14   A(5,6,36)             114.7189         estimate D2E/DX2                !
 ! A15   A(4,7,8)              125.8898         estimate D2E/DX2                !
 ! A16   A(4,7,11)             116.8164         estimate D2E/DX2                !
 ! A17   A(8,7,11)             116.7724         estimate D2E/DX2                !
 ! A18   A(7,8,9)              107.3033         estimate D2E/DX2                !
 ! A19   A(8,9,10)             117.9866         estimate D2E/DX2                !
 ! A20   A(8,9,37)             117.427          estimate D2E/DX2                !
 ! A21   A(10,9,37)            124.3792         estimate D2E/DX2                !
 ! A22   A(9,10,11)            109.3132         estimate D2E/DX2                !
 ! A23   A(9,10,12)            129.9221         estimate D2E/DX2                !
 ! A24   A(11,10,12)           120.4889         estimate D2E/DX2                !
 ! A25   A(7,11,10)             88.1249         estimate D2E/DX2                !
 ! A26   A(10,12,13)           119.614          estimate D2E/DX2                !
 ! A27   A(10,12,17)           123.3088         estimate D2E/DX2                !
 ! A28   A(13,12,17)           116.9701         estimate D2E/DX2                !
 ! A29   A(12,13,14)           120.7084         estimate D2E/DX2                !
 ! A30   A(12,13,38)           125.5286         estimate D2E/DX2                !
 ! A31   A(14,13,38)           113.6684         estimate D2E/DX2                !
 ! A32   A(13,14,15)           117.7127         estimate D2E/DX2                !
 ! A33   A(14,15,16)           124.1891         estimate D2E/DX2                !
 ! A34   A(14,15,18)           116.5568         estimate D2E/DX2                !
 ! A35   A(16,15,18)           119.0126         estimate D2E/DX2                !
 ! A36   A(15,16,17)           113.6901         estimate D2E/DX2                !
 ! A37   A(12,17,16)           126.483          estimate D2E/DX2                !
 ! A38   A(12,17,39)           122.2316         estimate D2E/DX2                !
 ! A39   A(16,17,39)           110.8234         estimate D2E/DX2                !
 ! A40   A(15,18,19)           126.2229         estimate D2E/DX2                !
 ! A41   A(15,18,22)           117.4529         estimate D2E/DX2                !
 ! A42   A(19,18,22)           115.9019         estimate D2E/DX2                !
 ! A43   A(18,19,20)           111.0767         estimate D2E/DX2                !
 ! A44   A(19,20,21)           118.4895         estimate D2E/DX2                !
 ! A45   A(19,20,40)           120.3101         estimate D2E/DX2                !
 ! A46   A(21,20,40)           120.8381         estimate D2E/DX2                !
 ! A47   A(20,21,22)           105.0614         estimate D2E/DX2                !
 ! A48   A(20,21,23)           133.8992         estimate D2E/DX2                !
 ! A49   A(22,21,23)           120.921          estimate D2E/DX2                !
 ! A50   A(18,22,21)            89.1163         estimate D2E/DX2                !
 ! A51   A(21,23,24)           125.5684         estimate D2E/DX2                !
 ! A52   A(21,23,28)           117.9521         estimate D2E/DX2                !
 ! A53   A(24,23,28)           116.3707         estimate D2E/DX2                !
 ! A54   A(23,24,25)           125.8484         estimate D2E/DX2                !
 ! A55   A(23,24,41)           117.4377         estimate D2E/DX2                !
 ! A56   A(25,24,41)           116.0232         estimate D2E/DX2                !
 ! A57   A(24,25,26)           113.9897         estimate D2E/DX2                !
 ! A58   A(25,26,27)           123.8871         estimate D2E/DX2                !
 ! A59   A(25,26,29)           118.8367         estimate D2E/DX2                !
 ! A60   A(27,26,29)           116.9191         estimate D2E/DX2                !
 ! A61   A(26,27,28)           118.0033         estimate D2E/DX2                !
 ! A62   A(23,28,27)           121.4587         estimate D2E/DX2                !
 ! A63   A(23,28,42)           125.3074         estimate D2E/DX2                !
 ! A64   A(27,28,42)           112.6969         estimate D2E/DX2                !
 ! A65   A(26,29,30)           130.1505         estimate D2E/DX2                !
 ! A66   A(26,29,33)           116.1165         estimate D2E/DX2                !
 ! A67   A(30,29,33)           113.6214         estimate D2E/DX2                !
 ! A68   A(29,30,31)           111.9545         estimate D2E/DX2                !
 ! A69   A(30,31,32)           118.7126         estimate D2E/DX2                !
 ! A70   A(30,31,43)           118.1701         estimate D2E/DX2                !
 ! A71   A(32,31,43)           122.522          estimate D2E/DX2                !
 ! A72   A(31,32,33)           107.3218         estimate D2E/DX2                !
 ! A73   A(31,32,44)           131.5787         estimate D2E/DX2                !
 ! A74   A(33,32,44)           120.4964         estimate D2E/DX2                !
 ! A75   A(29,33,32)            88.1341         estimate D2E/DX2                !
 ! D1    D(6,1,2,3)              2.6397         estimate D2E/DX2                !
 ! D2    D(6,1,2,35)           174.9188         estimate D2E/DX2                !
 ! D3    D(34,1,2,3)          -173.5899         estimate D2E/DX2                !
 ! D4    D(34,1,2,35)           -1.3108         estimate D2E/DX2                !
 ! D5    D(2,1,6,5)              2.5586         estimate D2E/DX2                !
 ! D6    D(2,1,6,36)           175.3153         estimate D2E/DX2                !
 ! D7    D(34,1,6,5)           178.6622         estimate D2E/DX2                !
 ! D8    D(34,1,6,36)           -8.5812         estimate D2E/DX2                !
 ! D9    D(1,2,3,4)             -6.5959         estimate D2E/DX2                !
 ! D10   D(35,2,3,4)          -179.2475         estimate D2E/DX2                !
 ! D11   D(2,3,4,5)              5.9935         estimate D2E/DX2                !
 ! D12   D(2,3,4,7)           -174.2707         estimate D2E/DX2                !
 ! D13   D(3,4,5,6)             -0.9731         estimate D2E/DX2                !
 ! D14   D(7,4,5,6)            179.31           estimate D2E/DX2                !
 ! D15   D(3,4,7,8)             -3.3043         estimate D2E/DX2                !
 ! D16   D(3,4,7,11)          -174.7167         estimate D2E/DX2                !
 ! D17   D(5,4,7,8)            176.4334         estimate D2E/DX2                !
 ! D18   D(5,4,7,11)             5.0209         estimate D2E/DX2                !
 ! D19   D(4,5,6,1)             -3.2966         estimate D2E/DX2                !
 ! D20   D(4,5,6,36)          -176.6449         estimate D2E/DX2                !
 ! D21   D(4,7,8,9)           -178.8069         estimate D2E/DX2                !
 ! D22   D(11,7,8,9)            -7.3911         estimate D2E/DX2                !
 ! D23   D(4,7,11,10)          179.058          estimate D2E/DX2                !
 ! D24   D(8,7,11,10)            6.8453         estimate D2E/DX2                !
 ! D25   D(7,8,9,10)             4.0542         estimate D2E/DX2                !
 ! D26   D(7,8,9,37)           179.0554         estimate D2E/DX2                !
 ! D27   D(8,9,10,11)            0.7569         estimate D2E/DX2                !
 ! D28   D(8,9,10,12)          174.6244         estimate D2E/DX2                !
 ! D29   D(37,9,10,11)        -173.866          estimate D2E/DX2                !
 ! D30   D(37,9,10,12)           0.0015         estimate D2E/DX2                !
 ! D31   D(9,10,11,7)           -3.9871         estimate D2E/DX2                !
 ! D32   D(12,10,11,7)        -178.5314         estimate D2E/DX2                !
 ! D33   D(9,10,12,13)         -23.7426         estimate D2E/DX2                !
 ! D34   D(9,10,12,17)         152.3785         estimate D2E/DX2                !
 ! D35   D(11,10,12,13)        149.5388         estimate D2E/DX2                !
 ! D36   D(11,10,12,17)        -34.3401         estimate D2E/DX2                !
 ! D37   D(10,12,13,14)        178.8104         estimate D2E/DX2                !
 ! D38   D(10,12,13,38)         -4.9581         estimate D2E/DX2                !
 ! D39   D(17,12,13,14)          2.4474         estimate D2E/DX2                !
 ! D40   D(17,12,13,38)        178.6789         estimate D2E/DX2                !
 ! D41   D(10,12,17,16)       -175.2028         estimate D2E/DX2                !
 ! D42   D(10,12,17,39)         -3.7334         estimate D2E/DX2                !
 ! D43   D(13,12,17,16)          1.0135         estimate D2E/DX2                !
 ! D44   D(13,12,17,39)        172.483          estimate D2E/DX2                !
 ! D45   D(12,13,14,15)         -1.6676         estimate D2E/DX2                !
 ! D46   D(38,13,14,15)       -178.3196         estimate D2E/DX2                !
 ! D47   D(13,14,15,16)         -2.5726         estimate D2E/DX2                !
 ! D48   D(13,14,15,18)       -176.8536         estimate D2E/DX2                !
 ! D49   D(14,15,16,17)          5.5326         estimate D2E/DX2                !
 ! D50   D(18,15,16,17)        179.6825         estimate D2E/DX2                !
 ! D51   D(14,15,18,19)         -7.5168         estimate D2E/DX2                !
 ! D52   D(14,15,18,22)       -179.7194         estimate D2E/DX2                !
 ! D53   D(16,15,18,19)        177.8918         estimate D2E/DX2                !
 ! D54   D(16,15,18,22)          5.6892         estimate D2E/DX2                !
 ! D55   D(15,16,17,12)         -4.7675         estimate D2E/DX2                !
 ! D56   D(15,16,17,39)       -177.0525         estimate D2E/DX2                !
 ! D57   D(15,18,19,20)       -178.4312         estimate D2E/DX2                !
 ! D58   D(22,18,19,20)         -6.1226         estimate D2E/DX2                !
 ! D59   D(15,18,22,21)        176.383          estimate D2E/DX2                !
 ! D60   D(19,18,22,21)          3.3716         estimate D2E/DX2                !
 ! D61   D(18,19,20,21)          6.5254         estimate D2E/DX2                !
 ! D62   D(18,19,20,40)        179.6743         estimate D2E/DX2                !
 ! D63   D(19,20,21,22)         -3.8691         estimate D2E/DX2                !
 ! D64   D(19,20,21,23)       -179.7799         estimate D2E/DX2                !
 ! D65   D(40,20,21,22)       -176.9804         estimate D2E/DX2                !
 ! D66   D(40,20,21,23)          7.1087         estimate D2E/DX2                !
 ! D67   D(20,21,22,18)          0.2344         estimate D2E/DX2                !
 ! D68   D(23,21,22,18)        176.8006         estimate D2E/DX2                !
 ! D69   D(20,21,23,24)       -156.1852         estimate D2E/DX2                !
 ! D70   D(20,21,23,28)         27.7581         estimate D2E/DX2                !
 ! D71   D(22,21,23,24)         28.4187         estimate D2E/DX2                !
 ! D72   D(22,21,23,28)       -147.6379         estimate D2E/DX2                !
 ! D73   D(21,23,24,25)        176.1942         estimate D2E/DX2                !
 ! D74   D(21,23,24,41)          6.1356         estimate D2E/DX2                !
 ! D75   D(28,23,24,25)         -7.6936         estimate D2E/DX2                !
 ! D76   D(28,23,24,41)       -177.7522         estimate D2E/DX2                !
 ! D77   D(21,23,28,27)       -176.8294         estimate D2E/DX2                !
 ! D78   D(21,23,28,42)         -5.8612         estimate D2E/DX2                !
 ! D79   D(24,23,28,27)          6.7502         estimate D2E/DX2                !
 ! D80   D(24,23,28,42)        177.7185         estimate D2E/DX2                !
 ! D81   D(23,24,25,26)          3.4046         estimate D2E/DX2                !
 ! D82   D(41,24,25,26)        173.5873         estimate D2E/DX2                !
 ! D83   D(24,25,26,27)          2.0126         estimate D2E/DX2                !
 ! D84   D(24,25,26,29)        174.9297         estimate D2E/DX2                !
 ! D85   D(25,26,27,28)         -2.622          estimate D2E/DX2                !
 ! D86   D(29,26,27,28)       -175.6641         estimate D2E/DX2                !
 ! D87   D(25,26,29,30)       -179.9035         estimate D2E/DX2                !
 ! D88   D(25,26,29,33)          4.2285         estimate D2E/DX2                !
 ! D89   D(27,26,29,30)         -6.4955         estimate D2E/DX2                !
 ! D90   D(27,26,29,33)        177.6365         estimate D2E/DX2                !
 ! D91   D(26,27,28,23)         -2.027          estimate D2E/DX2                !
 ! D92   D(26,27,28,42)       -174.0451         estimate D2E/DX2                !
 ! D93   D(26,29,30,31)       -177.8971         estimate D2E/DX2                !
 ! D94   D(33,29,30,31)         -1.9464         estimate D2E/DX2                !
 ! D95   D(26,29,33,32)        175.6163         estimate D2E/DX2                !
 ! D96   D(30,29,33,32)         -0.9375         estimate D2E/DX2                !
 ! D97   D(29,30,31,32)          5.1339         estimate D2E/DX2                !
 ! D98   D(29,30,31,43)        176.5158         estimate D2E/DX2                !
 ! D99   D(30,31,32,33)         -5.6216         estimate D2E/DX2                !
 ! D100  D(30,31,32,44)       -176.4944         estimate D2E/DX2                !
 ! D101  D(43,31,32,33)       -176.6081         estimate D2E/DX2                !
 ! D102  D(43,31,32,44)         12.519          estimate D2E/DX2                !
 ! D103  D(31,32,33,29)          3.3977         estimate D2E/DX2                !
 ! D104  D(44,32,33,29)        175.4823         estimate D2E/DX2                !
 --------------------------------------------------------------------------------
 Trust Radius=3.00D-01 FncErr=1.00D-07 GrdErr=1.00D-06 EigMax=2.50D+02 EigMin=1.00D-04
 Number of steps in this run=    238 maximum allowed number of steps=    264.
 GradGradGradGradGradGradGradGradGradGradGradGradGradGradGradGradGradGrad

 Leave Link  103 at Sat Jul 25 10:27:04 2020, MaxMem=  4026531840 cpu:               0.2 elap:               0.1
 (Enter /opt/ohpc/pub/libs/gaussian/g16-A.03/sandybridge/g16/l202.exe)
                          Input orientation:                          
 ---------------------------------------------------------------------
 Center     Atomic      Atomic             Coordinates (Angstroms)
 Number     Number       Type             X           Y           Z
 ---------------------------------------------------------------------
      1          6           0      -10.673103    2.223669    0.105117
      2          6           0      -10.710353    0.869642   -0.270407
      3          7           0       -9.619425    0.173037   -0.282032
      4          6           0       -8.433012    0.830924   -0.054994
      5          7           0       -8.374740    2.110346    0.285814
      6          6           0       -9.508887    2.782630    0.392248
      7          6           0       -7.183191   -0.023087   -0.218177
      8          7           0       -7.157837   -1.350155   -0.496619
      9          6           0       -5.873772   -1.725035   -0.531525
     10          6           0       -4.905500   -0.774478   -0.209256
     11         16           0       -5.678440    0.713758    0.191005
     12          6           0       -3.378339   -0.930170   -0.053386
     13          6           0       -2.859499   -2.136454    0.238921
     14          7           0       -1.528760   -2.302272    0.356383
     15          6           0       -0.733172   -1.218397    0.135185
     16          7           0       -1.193405    0.000846   -0.243638
     17          6           0       -2.497294    0.084481   -0.271514
     18          6           0        0.793008   -1.455804    0.203238
     19          7           0        1.379672   -2.541409    0.579948
     20          6           0        2.678750   -2.406531    0.554468
     21          6           0        3.214122   -1.140477    0.281888
     22         16           0        1.811399   -0.111480   -0.063162
     23          6           0        4.576559   -0.617630    0.168445
     24          6           0        4.947220    0.693717    0.348017
     25          7           0        6.205595    1.168168    0.316075
     26          6           0        7.160919    0.212370    0.003044
     27          7           0        6.864119   -1.107288   -0.296030
     28          6           0        5.581242   -1.495238   -0.229461
     29          6           0        8.573814    0.641541   -0.174075
     30          7           0        9.629301   -0.054445   -0.465796
     31          6           0       10.730570    0.697114   -0.491851
     32          6           0       10.639348    2.004201   -0.121847
     33         16           0        8.918771    2.357543    0.153637
     34          1           0      -11.619270    2.767199    0.211293
     35          1           0      -11.600682    0.363759   -0.430532
     36          1           0       -9.387488    3.874593    0.625728
     37          1           0       -5.655501   -2.812132   -0.735981
     38          1           0       -3.428489   -3.028654    0.455874
     39          1           0       -2.828119    1.103146   -0.645016
     40          1           0        3.316860   -3.225311    0.847218
     41          1           0        4.206159    1.367389    0.685159
     42          1           0        5.462145   -2.530841   -0.374086
     43          1           0       11.716331    0.188236   -0.675734
     44          1           0       11.321783    2.745996   -0.112517
 ---------------------------------------------------------------------
                    Distance matrix (angstroms):
                    1          2          3          4          5
     1  C    0.000000
     2  C    1.405630   0.000000
     3  N    2.337780   1.294418   0.000000
     4  C    2.642609   2.287834   1.375477   0.000000
     5  N    2.308239   2.702557   2.371678   1.325317   0.000000
     6  C    1.322982   2.354178   2.697563   2.273035   1.322718
     7  C    4.163162   3.638759   2.444950   1.522503   2.495062
     8  N    5.048901   4.195121   2.902684   2.564802   3.750749
     9  C    6.247492   5.494820   4.206524   3.648249   4.651132
    10  C    6.507915   6.033505   4.808760   3.878718   4.539045
    11  S    5.218608   5.055428   4.005934   2.768016   3.038006
    12  C    7.948925   7.552804   6.341963   5.352679   5.858653
    13  C    8.948798   8.422110   7.162523   6.321057   6.960991
    14  N   10.206189   9.734246   8.484904   7.593079   8.145159
    15  C   10.519076  10.201400   9.004202   7.970158   8.336473
    16  N    9.743061   9.556559   8.427867   7.289480   7.503458
    17  C    8.459422   8.250504   7.122689   5.986385   6.241724
    18  C   12.042419  11.745610  10.550231   9.508694   9.837268
    19  N   12.969226  12.590754  11.361838  10.395410  10.810823
    20  C   14.139047  13.808758  12.593610  11.589815  11.943785
    21  C   14.289988  14.079652  12.912910  11.817599  12.036178
    22  S   12.702127  12.561840  11.436459  10.287670  10.431477
    23  C   15.512227  15.365359  14.225120  13.091874  13.236003
    24  C   15.696950  15.670769  14.589558  13.387003  13.397213
    25  N   16.912984  16.928744  15.867554  14.647192  14.610776
    26  C   17.947370  17.885445  16.782811  15.606302  15.653721
    27  N   17.855261  17.685332  16.533198  15.421316  15.585716
    28  C   16.677708  16.462394  15.292030  14.207068  14.423425
    29  C   19.313852  19.285757  18.199591  17.008297  17.018295
    30  N   20.437792  20.361573  19.250947  18.088665  18.149290
    31  C   21.466345  21.442761  20.357823  19.169028  19.173285
    32  C   21.314789  21.380342  20.341994  19.108531  19.018754
    33  S   19.592391  19.690002  18.671545  17.420059  17.295783
    34  H    1.096326   2.158446   3.312465   3.737955   3.311191
    35  H    2.146296   1.036457   1.995948   3.223880   3.737702
    36  H    2.156245   3.403345   3.818290   3.261645   2.062466
    37  H    7.158426   6.270865   4.982971   4.631433   5.715690
    38  H    8.955130   8.291546   7.008782   6.340550   7.134679
    39  H    7.960028   7.894585   6.864306   5.642434   5.713659
    40  H   15.032005  14.655389  13.422796  12.463006  12.863822
    41  H   14.915163  14.955373  13.910741  12.672185  12.609143
    42  H   16.827989  16.526455  15.322310  14.299604  14.609431
    43  H   22.495321  22.440694  21.339394  20.169144  20.205698
    44  H   22.002164  22.112455  21.099361  19.847487  19.710803
                    6          7          8          9         10
     6  C    0.000000
     7  C    3.695068   0.000000
     8  N    4.837089   1.356201   0.000000
     9  C    5.863997   2.170113   1.338124   0.000000
    10  C    5.848589   2.398446   2.342435   1.394621   0.000000
    11  S    4.358102   1.724716   2.630813   2.551062   1.724092
    12  C    7.181023   3.914953   3.828505   2.662257   1.542970
    13  C    8.272561   4.834208   4.431139   3.138263   2.498392
    14  N    9.462555   6.123512   5.772404   4.472216   3.749197
    15  C    9.648185   6.569351   6.457001   5.208354   4.209991
    16  N    8.791468   5.989888   6.120756   4.996737   3.792355
    17  C    7.542084   4.687435   4.881548   3.839604   2.557566
    18  C   11.141323   8.114802   7.982286   6.712549   5.753899
    19  N   12.121936   8.961114   8.687183   7.383379   6.576342
    20  C   13.247347  10.175248   9.948827   8.648089   7.795365
    21  C   13.314575  10.469133  10.403248   9.142930   8.142692
    22  S   11.693252   8.996360   9.064734   7.866688   6.751122
    23  C   14.491779  11.781115  11.776033  10.532128   9.490875
    24  C   14.606319  12.164755  12.305415  11.122851   9.977086
    25  N   15.797381  13.452290  13.622912  12.449906  11.291868
    26  C   16.871282  14.347748  14.412422  13.188725  12.108568
    27  N   16.842818  14.089303  14.025494  12.755036  11.774643
    28  C   15.697091  12.849051  12.742706  11.461300  10.511501
    29  C   18.217823  15.771077  15.860509  14.644494  13.553533
    30  N   19.366349  16.814345  16.837096  15.592962  14.554886
    31  C   20.365820  17.930321  18.005178  16.780124  15.707709
    32  C   20.169820  17.937728  18.114413  16.933935  15.791485
    33  S   18.434105  16.281242  16.511426  15.360866  14.179271
    34  H    2.118183   5.258226   6.112130   7.330941   7.602305
    35  H    3.302046   4.439479   4.762430   6.096783   6.794852
    36  H    1.123225   4.556645   5.790423   6.711279   6.511473
    37  H    6.886425   3.221914   2.109902   1.127486   2.234273
    38  H    8.411083   4.856497   4.199124   2.941732   2.775837
    39  H    6.966293   4.518545   4.978671   4.157823   2.833879
    40  H   14.170467  11.029070  10.725735   9.413792   8.644647
    41  H   13.790982  11.509419  11.744022  10.613596   9.402654
    42  H   15.904466  12.892543  12.675685  11.365611  10.516655
    43  H   21.409842  18.906241  18.937607  17.694438  16.656221
    44  H   20.836817  18.711308  18.932045  17.772248  16.605054
                   11         12         13         14         15
    11  S    0.000000
    12  C    2.837726   0.000000
    13  C    4.009044   1.345273   0.000000
    14  N    5.132605   2.339127   1.346165   0.000000
    15  C    5.309615   2.667497   2.318374   1.362598   0.000000
    16  N    4.562093   2.382629   2.752596   2.403506   1.357157
    17  C    3.275607   1.361373   2.307442   2.651208   2.230476
    18  C    6.825451   4.212159   3.715557   2.475998   1.546033
    19  N    7.782309   5.063188   4.272102   2.926798   2.532249
    20  C    8.928098   6.263981   5.553802   4.213460   3.637124
    21  C    9.084278   6.604330   6.154891   4.883671   3.950788
    22  S    7.539450   5.253925   5.099908   4.016497   2.781986
    23  C   10.341088   7.964125   7.589911   6.336265   5.343713
    24  C   10.626839   8.491941   8.304615   7.135428   5.997360
    25  N   11.893377   9.817908   9.648959   8.477371   7.339952
    26  C   12.850520  10.601158  10.294726   9.053110   8.023791
    27  N   12.683422  10.246863   9.792553   8.502591   7.610330
    28  C   11.482025   8.979109   8.478010   7.179599   6.330990
    29  C   14.257112  12.055654  11.773210  10.536101   9.496052
    30  N   15.341071  13.043607  12.680754  11.411881  10.444942
    31  C   16.423221  14.209209  13.901551  12.649387  11.639576
    32  C   16.371723  14.321689  14.124236  12.916550  11.823088
    33  S   14.689520  12.730704  12.606781  11.441411  10.293089
    34  H    6.285737   9.036235  10.038932  11.293316  11.593011
    35  H    5.965045   8.332072   9.116332  10.448472  10.996637
    36  H    4.892535   7.723782   8.882395   9.999291  10.053674
    37  H    3.645782   3.032026   3.037203   4.299210   5.246737
    38  H    4.374709   2.159976   1.080203   2.036296   3.262607
    39  H    2.995811   2.187954   3.358175   3.779948   3.222899
    40  H    9.841865   7.134735   6.301035   4.957111   4.575746
    41  H    9.918504   7.959198   7.899340   6.816436   5.602299
    42  H   11.617202   8.989947   8.353507   7.032680   6.353253
    43  H   17.424278  15.148835  14.788360  13.516669  12.554933
    44  H   17.123951  15.152930  15.002353  13.814533  12.692506
                   16         17         18         19         20
    16  N    0.000000
    17  C    1.306866   0.000000
    18  C    2.503470   3.663872   0.000000
    19  N    3.709728   4.759323   1.290203   0.000000
    20  C    4.628825   5.803345   2.140857   1.306310   0.000000
    21  C    4.583131   5.867457   2.442828   2.327371   1.401362
    22  S    3.012314   4.318176   1.707424   2.550399   2.530024
    23  C    5.817629   7.122213   3.875436   3.753711   2.636448
    24  C    6.207850   7.495050   4.679624   4.821538   3.847092
    25  N    7.511399   8.789762   6.016150   6.092629   5.027319
    26  C    8.360641   9.662961   6.585831   6.429536   5.220397
    27  N    8.133535   9.437000   6.101567   5.736131   4.464156
    28  C    6.937889   8.231648   4.807907   4.404862   3.141570
    29  C    9.788457  11.085542   8.067352   7.902873   6.676324
    30  N   10.825127  12.128947   8.971705   8.679571   7.408334
    31  C   11.946865  13.243876  10.191827   9.953697   8.692480
    32  C   12.001763  13.277014  10.441634  10.339085   9.125956
    33  S   10.390763  11.647923   8.976196   9.001082   7.860975
    34  H   10.796218   9.520532  13.111005  14.045986  15.209163
    35  H   10.415280   9.109059  12.542569  13.339815  14.578989
    36  H    9.105202   7.914845  11.499310  12.533910  13.603371
    37  H    5.297693   4.310495   6.656202   7.162305   8.443312
    38  H    3.829202   3.329839   4.512064   4.834378   6.139636
    39  H    2.012078   1.134296   4.514457   5.699897   6.639443
    40  H    5.651597   6.783117   3.148920   2.071679   1.078558
    41  H    5.646715   6.891833   4.455588   4.824811   4.073393
    42  H    7.121994   8.378729   4.825956   4.192479   2.936827
    43  H   12.918324  14.219750  11.081265  10.764489   9.482831
    44  H   12.813390  14.073942  11.340632  11.281921  10.084415
                   21         22         23         24         25
    21  C    0.000000
    22  S    1.773563   0.000000
    23  C    1.463719   2.820627   0.000000
    24  C    2.524335   3.263554   1.374506   0.000000
    25  N    3.778878   4.592415   2.421699   1.345226   0.000000
    26  C    4.181526   5.359723   2.719407   2.291542   1.387149
    27  N    3.695615   5.155176   2.385044   2.707936   2.446636
    28  C    2.447568   4.019224   1.392089   2.350955   2.789473
    29  C    5.666550   6.805116   4.204864   3.664353   2.475085
    30  N    6.549276   7.828471   5.123440   4.810813   3.718584
    31  C    7.776400   8.966003   6.327432   5.844016   4.620610
    32  C    8.073784   9.078118   6.611783   5.859903   4.533089
    33  S    6.692952   7.527138   5.263713   4.310373   2.966871
    34  H   15.339636  13.738449  16.545809  16.696305  17.896751
    35  H   14.908007  13.425525  16.218046  16.569492  17.840067
    36  H   13.567230  11.907074  14.675959  14.686012  15.829241
    37  H    9.082990   7.968739  10.503755  11.219792  12.555286
    38  H    6.907949   6.019612   8.365193   9.166252  10.509445
    39  H    6.511657   4.831045   7.645394   7.849181   9.084928
    40  H    2.162565   3.576471   2.974487   4.273881   5.284843
    41  H    2.726932   2.912372   2.084344   1.056726   2.042953
    42  H    2.723421   4.390664   2.176920   3.344302   3.835584
    43  H    8.658526   9.928381   7.234528   6.864724   5.684379
    44  H    8.999689   9.930509   7.542610   6.712600   5.371090
                   26         27         28         29         30
    26  C    0.000000
    27  N    1.385292   0.000000
    28  C    2.337812   1.341905   0.000000
    29  C    1.487223   2.448741   3.677551   0.000000
    30  N    2.526640   2.963702   4.303315   1.297517   0.000000
    31  C    3.636249   4.271259   5.602752   2.180749   1.333534
    32  C    3.914808   4.895310   6.151593   2.475076   2.318732
    33  S    2.777497   4.053252   5.111730   1.780745   2.589640
    34  H   18.954314  18.891921  17.726259  20.308313  21.445790
    35  H   18.767221  18.523794  17.283368  20.178038  21.234131
    36  H   16.960230  17.023029  15.925744  18.267476  19.449088
    37  H   13.189177  12.642821  11.324980  14.653225  15.533931
    38  H   11.083540  10.497370   9.164950  12.566720  13.423907
    39  H   10.049594   9.947225   8.811449  11.420987  12.512372
    40  H    5.225617   4.286733   3.046279   6.605388   7.185075
    41  H    3.244989   3.761849   3.304847   4.510161   5.723354
    42  H    3.248579   1.999532   1.052413   4.448201   4.848313
    43  H    4.605768   5.036519   6.377504   3.214430   2.111554
    44  H    4.872926   5.895103   7.138316   3.461770   3.291166
                   31         32         33         34         35
    31  C    0.000000
    32  C    1.361507   0.000000
    33  S    2.540924   1.777956   0.000000
    34  H   22.456514  22.274183  20.542207   0.000000
    35  H   22.333824  22.302584  20.624364   2.487732   0.000000
    36  H   20.398079  20.127876  18.375076   2.525654   4.282507
    37  H   16.759407  17.002833  15.489557   8.221484   6.747204
    38  H   14.671690  14.952171  13.474320  10.036963   8.892633
    39  H   13.565632  13.507712  11.840641   8.988141   8.806279
    40  H    8.493622   9.050178   7.939189  16.105979  15.396335
    41  H    6.663525   6.514807   4.844753  15.894283  15.877917
    42  H    6.179795   6.887210   6.010246  17.893760  17.306703
    43  H    1.124497   2.182753   3.635944  23.494428  23.318963
    44  H    2.165951   1.008000   2.448714  22.943348  23.048115
                   36         37         38         39         40
    36  H    0.000000
    37  H    7.777806   0.000000
    38  H    9.121038   2.535149   0.000000
    39  H    7.233328   4.830297   4.317890   0.000000
    40  H   14.555348   9.120334   6.759553   7.663098   0.000000
    41  H   13.823055  10.804646   8.812810   7.163816   4.680813
    42  H   16.203111  11.127091   8.943155   9.055813   2.564395
    43  H   21.462856  17.629135  15.523997  14.573230   9.193628
    44  H   20.753136  17.874833  15.850558  14.254902  10.032766
                   41         42         43         44
    41  H    0.000000
    42  H    4.230331   0.000000
    43  H    7.723025   6.826362   0.000000
    44  H    7.291704   7.889790   2.648588   0.000000
 Stoichiometry    C21H11N9S3
 Framework group  C1[X(C21H11N9S3)]
 Deg. of freedom   126
 Full point group                 C1      NOp   1
 Largest Abelian subgroup         C1      NOp   1
 Largest concise Abelian subgroup C1      NOp   1
                         Standard orientation:                         
 ---------------------------------------------------------------------
 Center     Atomic      Atomic             Coordinates (Angstroms)
 Number     Number       Type             X           Y           Z
 ---------------------------------------------------------------------
      1          6           0      -10.666323    2.215439    0.084238
      2          6           0      -10.704195    0.859321   -0.283599
      3          7           0       -9.613629    0.162093   -0.291018
      4          6           0       -8.426924    0.820640   -0.067447
      5          7           0       -8.368061    2.101947    0.266104
      6          6           0       -9.501880    2.775415    0.368458
      7          6           0       -7.177512   -0.034934   -0.225490
      8          7           0       -7.152788   -1.363575   -0.496386
      9          6           0       -5.868911   -1.739316   -0.528868
     10          6           0       -4.900216   -0.787449   -0.211779
     11         16           0       -5.672469    0.703438    0.179847
     12          6           0       -3.373172   -0.943049   -0.054677
     13          6           0       -2.855028   -2.147924    0.244594
     14          7           0       -1.524403   -2.313766    0.363302
     15          6           0       -0.728198   -1.231579    0.136135
     16          7           0       -1.187709   -0.014267   -0.249711
     17          6           0       -2.491547    0.069887   -0.278361
     18          6           0        0.797842   -1.469391    0.205886
     19          7           0        1.383853   -2.553145    0.588889
     20          6           0        2.683007   -2.419091    0.562942
     21          6           0        3.219102   -1.154884    0.283301
     22         16           0        1.816995   -0.127132   -0.067909
     23          6           0        4.581838   -0.633400    0.167204
     24          6           0        4.953143    0.678753    0.339411
     25          7           0        6.211773    1.152359    0.305065
     26          6           0        7.166669    0.194301   -0.002314
     27          7           0        6.869247   -1.126879   -0.293958
     28          6           0        5.586153   -1.513776   -0.225482
     29          6           0        8.579828    0.621723   -0.181543
     30          7           0        9.635017   -0.076458   -0.469064
     31          6           0       10.736684    0.674367   -0.499133
     32          6           0       10.646061    1.983581   -0.136579
     33         16           0        8.925607    2.339379    0.136499
     34          1           0      -11.612230    2.760056    0.187109
     35          1           0      -11.594752    0.353001   -0.441054
     36          1           0       -9.379964    3.868623    0.595762
     37          1           0       -5.651161   -2.827670   -0.727098
     38          1           0       -3.424533   -3.038581    0.466479
     39          1           0       -2.821756    1.086587   -0.657717
     40          1           0        3.320623   -3.236527    0.860484
     41          1           0        4.212358    1.354714    0.672552
     42          1           0        5.466548   -2.550122   -0.364251
     43          1           0       11.722221    0.163940   -0.679897
     44          1           0       11.328882    2.725062   -0.131304
 ---------------------------------------------------------------------
 Rotational constants (GHZ):           0.4599606           0.0232581           0.0222254
 Leave Link  202 at Sat Jul 25 10:27:04 2020, MaxMem=  4026531840 cpu:               0.3 elap:               0.1
 (Enter /opt/ohpc/pub/libs/gaussian/g16-A.03/sandybridge/g16/l301.exe)
 Standard basis: CC-pVDZ (5D, 7F)
 Ernie: Thresh=  0.10000D-02 Tol=  0.10000D-05 Strict=F.
 Ernie:  90 primitive shells out of 865 were deleted.
 There are   562 symmetry adapted cartesian basis functions of A   symmetry.
 There are   529 symmetry adapted basis functions of A   symmetry.
   529 basis functions,  1280 primitive gaussians,   562 cartesian basis functions
   124 alpha electrons      124 beta electrons
       nuclear repulsion energy      3126.9368818220 Hartrees.
 IExCor=32609 DFT=T Ex+Corr=LC-wPBE ExCW=0 ScaHFX=  1.000000
 ScaDFX=  1.000000  0.000000  1.000000  1.000000 ScalE2=  1.000000  1.000000
 IRadAn=      5 IRanWt=     -1 IRanGd=            0 ICorTp=0 IEmpDi=  4
 HFx  wShort=  0.000000 wLong=  0.135400 cFull=  0.000000 cShort=  0.000000 cLong=  1.000000
 DFx  wShort=  0.000000 wLong=  0.135400 cFull=  0.000000 cShort=  0.000000 cLong=  1.000000
 NAtoms=   44 NActive=   44 NUniq=   44 SFac= 1.00D+00 NAtFMM=   60 NAOKFM=F Big=F
 Integral buffers will be    131072 words long.
 Raffenetti 2 integral format.
 Two-electron integral symmetry is turned on.
 Leave Link  301 at Sat Jul 25 10:27:04 2020, MaxMem=  4026531840 cpu:               0.4 elap:               0.1
 (Enter /opt/ohpc/pub/libs/gaussian/g16-A.03/sandybridge/g16/l302.exe)
 NPDir=0 NMtPBC=     1 NCelOv=     1 NCel=       1 NClECP=     1 NCelD=      1
         NCelK=      1 NCelE2=     1 NClLst=     1 CellRange=     0.0.
 One-electron integrals computed using PRISM.
 One-electron integral symmetry used in STVInt
 NBasis=   529 RedAO= T EigKep=  5.89D-04  NBF=   529
 NBsUse=   529 1.00D-06 EigRej= -1.00D+00 NBFU=   529
 Precomputing XC quadrature grid using
 IXCGrd= 4 IRadAn=           5 IRanWt=          -1 IRanGd=           0 AccXCQ= 0.00D+00.
 Generated NRdTot=       0 NPtTot=           0 NUsed=           0 NTot=          32
 NSgBfM=   480   480   480   480   480 MxSgAt=    44 MxSgA2=    44.
 Leave Link  302 at Sat Jul 25 10:27:05 2020, MaxMem=  4026531840 cpu:               6.9 elap:               0.9
 (Enter /opt/ohpc/pub/libs/gaussian/g16-A.03/sandybridge/g16/l303.exe)
 DipDrv:  MaxL=1.
 Leave Link  303 at Sat Jul 25 10:27:06 2020, MaxMem=  4026531840 cpu:               0.7 elap:               0.1
 (Enter /opt/ohpc/pub/libs/gaussian/g16-A.03/sandybridge/g16/l401.exe)
 ExpMin= 1.22D-01 ExpMax= 1.11D+05 ExpMxC= 1.07D+03 IAcc=3 IRadAn=         5 AccDes= 0.00D+00
 Harris functional with IExCor=32609 and IRadAn=       5 diagonalized for initial guess.
 HarFok:  IExCor=32609 AccDes= 0.00D+00 IRadAn=         5 IDoV= 1 UseB2=F ITyADJ=14
 ICtDFT=  3500011 ScaDFX=  1.000000  1.000000  1.000000  1.000000
 FoFCou: FMM=F IPFlag=           0 FMFlag=      100000 FMFlg1=           0
         NFxFlg=           0 DoJE=T BraDBF=F KetDBF=T FulRan=T
         wScrn=  0.000000 ICntrl=       500 IOpCl=  0 I1Cent=   200000004 NGrid=           0
         NMat0=    1 NMatS0=      1 NMatT0=    0 NMatD0=    1 NMtDS0=    0 NMtDT0=    0
 Petite list used in FoFCou.
 Harris En= -2492.46487131385    
 JPrj=0 DoOrth=F DoCkMO=F.
 Initial guess <Sx>= 0.0000 <Sy>= 0.0000 <Sz>= 0.0000 <S**2>=-0.0000 S=-0.0000
 Leave Link  401 at Sat Jul 25 10:27:09 2020, MaxMem=  4026531840 cpu:              30.6 elap:               3.9
 (Enter /opt/ohpc/pub/libs/gaussian/g16-A.03/sandybridge/g16/l502.exe)
 Integral symmetry usage will be decided dynamically.
 UHF open shell SCF:
 Using DIIS extrapolation, IDIIS=  1040.
 NGot=  4026531840 LenX=  4025890070 LenY=  4025573664
 Requested convergence on RMS density matrix=1.00D-08 within 128 cycles.
 Requested convergence on MAX density matrix=1.00D-06.
 Requested convergence on             energy=1.00D-06.
 No special actions if energy rises.
 Fock matrices will be formed incrementally for  20 cycles.
 Integral accuracy reduced to 1.0D-05 until final iterations.

 Cycle   1  Pass 0  IDiag  1:
 FoFJK:  IHMeth= 1 ICntrl=       0 DoSepK=T KAlg= 0 I1Cent=           0 FoldK=F
 IRaf=         1 NMat=       1 IRICut=       1 DoRegI=T DoRafI=F ISym2E= 0 IDoP0=0 IntGTp=1.
 FoFCou: FMM=F IPFlag=           0 FMFlag=      100000 FMFlg1=           0
         NFxFlg=           0 DoJE=T BraDBF=F KetDBF=F FulRan=T
         wScrn=  0.000000 ICntrl=       500 IOpCl=  0 I1Cent=           0 NGrid=           0
         NMat0=    1 NMatS0=      1 NMatT0=    0 NMatD0=    1 NMtDS0=    0 NMtDT0=    0
 Symmetry not used in FoFCou.
 E= -2492.00717131467    
 DIIS: error= 1.51D-02 at cycle   1 NSaved=   1.
 NSaved= 1 IEnMin= 1 EnMin= -2492.00717131467     IErMin= 1 ErrMin= 1.51D-02
 ErrMax= 1.51D-02  0.00D+00 EMaxC= 1.00D-01 BMatC= 2.02D+00 BMatP= 2.02D+00
 IDIUse=3 WtCom= 8.49D-01 WtEn= 1.51D-01
 Coeff-Com:  0.100D+01
 Coeff-En:   0.100D+01
 Coeff:      0.100D+01
 Gap=     0.192 Goal=   None    Shift=    0.000
 Gap=     0.192 Goal=   None    Shift=    0.000
 GapD=    0.192 DampG=1.000 DampE=0.500 DampFc=0.5000 IDamp=-1.
 Damping current iteration by 5.00D-01
 RMSDP=3.84D-03 MaxDP=1.80D-01              OVMax= 2.77D-01

 Cycle   2  Pass 0  IDiag  1:
 RMSU=  1.92D-03    CP:  9.94D-01
 E= -2492.13282346701     Delta-E=       -0.125652152346 Rises=F Damp=T
 DIIS: error= 8.49D-03 at cycle   2 NSaved=   2.
 NSaved= 2 IEnMin= 2 EnMin= -2492.13282346701     IErMin= 2 ErrMin= 8.49D-03
 ErrMax= 8.49D-03  0.00D+00 EMaxC= 1.00D-01 BMatC= 3.52D-01 BMatP= 2.02D+00
 IDIUse=3 WtCom= 9.15D-01 WtEn= 8.49D-02
 Coeff-Com:  0.248D+00 0.752D+00
 Coeff-En:   0.387D+00 0.613D+00
 Coeff:      0.260D+00 0.740D+00
 Gap=     0.248 Goal=   None    Shift=    0.000
 Gap=     0.248 Goal=   None    Shift=    0.000
 RMSDP=1.11D-03 MaxDP=3.77D-02 DE=-1.26D-01 OVMax= 2.31D-01

 Cycle   3  Pass 0  IDiag  1:
 RMSU=  9.73D-04    CP:  9.92D-01  7.27D-01
 E= -2492.53591497576     Delta-E=       -0.403091508743 Rises=F Damp=F
 DIIS: error= 6.66D-03 at cycle   3 NSaved=   3.
 NSaved= 3 IEnMin= 3 EnMin= -2492.53591497576     IErMin= 3 ErrMin= 6.66D-03
 ErrMax= 6.66D-03  0.00D+00 EMaxC= 1.00D-01 BMatC= 1.76D-01 BMatP= 3.52D-01
 IDIUse=3 WtCom= 9.33D-01 WtEn= 6.66D-02
 Coeff-Com:  0.964D-01 0.418D+00 0.486D+00
 Coeff-En:   0.000D+00 0.000D+00 0.100D+01
 Coeff:      0.900D-01 0.390D+00 0.520D+00
 Gap=     0.215 Goal=   None    Shift=    0.000
 Gap=     0.215 Goal=   None    Shift=    0.000
 RMSDP=4.64D-04 MaxDP=2.69D-02 DE=-4.03D-01 OVMax= 4.30D-02

 Cycle   4  Pass 0  IDiag  1:
 RMSU=  3.25D-04    CP:  9.93D-01  7.66D-01  6.69D-01
 E= -2492.57452359441     Delta-E=       -0.038608618656 Rises=F Damp=F
 DIIS: error= 1.52D-03 at cycle   4 NSaved=   4.
 NSaved= 4 IEnMin= 4 EnMin= -2492.57452359441     IErMin= 4 ErrMin= 1.52D-03
 ErrMax= 1.52D-03  0.00D+00 EMaxC= 1.00D-01 BMatC= 1.76D-02 BMatP= 1.76D-01
 IDIUse=3 WtCom= 9.85D-01 WtEn= 1.52D-02
 Coeff-Com:  0.189D-01 0.925D-01 0.256D+00 0.632D+00
 Coeff-En:   0.000D+00 0.000D+00 0.297D-01 0.970D+00
 Coeff:      0.186D-01 0.911D-01 0.253D+00 0.637D+00
 Gap=     0.205 Goal=   None    Shift=    0.000
 Gap=     0.205 Goal=   None    Shift=    0.000
 RMSDP=1.37D-04 MaxDP=9.24D-03 DE=-3.86D-02 OVMax= 1.35D-02

 Cycle   5  Pass 0  IDiag  1:
 RMSU=  1.05D-04    CP:  9.93D-01  7.55D-01  7.20D-01  7.81D-01
 E= -2492.57826916306     Delta-E=       -0.003745568649 Rises=F Damp=F
 DIIS: error= 6.69D-04 at cycle   5 NSaved=   5.
 NSaved= 5 IEnMin= 5 EnMin= -2492.57826916306     IErMin= 5 ErrMin= 6.69D-04
 ErrMax= 6.69D-04  0.00D+00 EMaxC= 1.00D-01 BMatC= 1.84D-03 BMatP= 1.76D-02
 IDIUse=3 WtCom= 9.93D-01 WtEn= 6.69D-03
 Coeff-Com:  0.393D-02 0.554D-02 0.751D-01 0.320D+00 0.596D+00
 Coeff-En:   0.000D+00 0.000D+00 0.000D+00 0.000D+00 0.100D+01
 Coeff:      0.391D-02 0.550D-02 0.746D-01 0.318D+00 0.598D+00
 Gap=     0.206 Goal=   None    Shift=    0.000
 Gap=     0.206 Goal=   None    Shift=    0.000
 RMSDP=4.95D-05 MaxDP=3.34D-03 DE=-3.75D-03 OVMax= 4.41D-03

 Cycle   6  Pass 0  IDiag  1:
 RMSU=  4.15D-05    CP:  9.92D-01  7.53D-01  7.24D-01  8.41D-01  8.32D-01
 E= -2492.57865734217     Delta-E=       -0.000388179110 Rises=F Damp=F
 DIIS: error= 3.15D-04 at cycle   6 NSaved=   6.
 NSaved= 6 IEnMin= 6 EnMin= -2492.57865734217     IErMin= 6 ErrMin= 3.15D-04
 ErrMax= 3.15D-04  0.00D+00 EMaxC= 1.00D-01 BMatC= 3.39D-04 BMatP= 1.84D-03
 IDIUse=3 WtCom= 9.97D-01 WtEn= 3.15D-03
 Coeff-Com:  0.402D-03-0.150D-01 0.176D-02 0.877D-01 0.343D+00 0.583D+00
 Coeff-En:   0.000D+00 0.000D+00 0.000D+00 0.000D+00 0.333D-01 0.967D+00
 Coeff:      0.401D-03-0.150D-01 0.175D-02 0.874D-01 0.342D+00 0.584D+00
 Gap=     0.206 Goal=   None    Shift=    0.000
 Gap=     0.206 Goal=   None    Shift=    0.000
 RMSDP=2.18D-05 MaxDP=1.14D-03 DE=-3.88D-04 OVMax= 1.75D-03

 Cycle   7  Pass 0  IDiag  1:
 RMSU=  1.50D-05    CP:  9.92D-01  7.49D-01  7.30D-01  8.53D-01  9.21D-01
                    CP:  8.14D-01
 E= -2492.57874622623     Delta-E=       -0.000088884056 Rises=F Damp=F
 DIIS: error= 6.48D-05 at cycle   7 NSaved=   7.
 NSaved= 7 IEnMin= 7 EnMin= -2492.57874622623     IErMin= 7 ErrMin= 6.48D-05
 ErrMax= 6.48D-05  0.00D+00 EMaxC= 1.00D-01 BMatC= 2.65D-05 BMatP= 3.39D-04
 IDIUse=1 WtCom= 1.00D+00 WtEn= 0.00D+00
 Coeff-Com:  0.282D-03-0.832D-02-0.553D-02 0.101D-01 0.873D-01 0.254D+00
 Coeff-Com:  0.663D+00
 Coeff:      0.282D-03-0.832D-02-0.553D-02 0.101D-01 0.873D-01 0.254D+00
 Coeff:      0.663D+00
 Gap=     0.206 Goal=   None    Shift=    0.000
 Gap=     0.206 Goal=   None    Shift=    0.000
 RMSDP=7.68D-06 MaxDP=3.50D-04 DE=-8.89D-05 OVMax= 9.33D-04

 Initial convergence to 1.0D-05 achieved.  Increase integral accuracy.
 Cycle   8  Pass 1  IDiag  1:
 E= -2492.57845767428     Delta-E=        0.000288551943 Rises=F Damp=F
 DIIS: error= 1.13D-04 at cycle   1 NSaved=   1.
 NSaved= 1 IEnMin= 1 EnMin= -2492.57845767428     IErMin= 1 ErrMin= 1.13D-04
 ErrMax= 1.13D-04  0.00D+00 EMaxC= 1.00D-01 BMatC= 2.04D-05 BMatP= 2.04D-05
 IDIUse=3 WtCom= 9.99D-01 WtEn= 1.13D-03
 Coeff-Com:  0.100D+01
 Coeff-En:   0.100D+01
 Coeff:      0.100D+01
 Gap=     0.206 Goal=   None    Shift=    0.000
 Gap=     0.206 Goal=   None    Shift=    0.000
 RMSDP=7.68D-06 MaxDP=3.50D-04 DE= 2.89D-04 OVMax= 5.74D-04

 Cycle   9  Pass 1  IDiag  1:
 RMSU=  5.83D-05    CP:  1.00D+00
 E= -2492.57845955195     Delta-E=       -0.000001877663 Rises=F Damp=F
 DIIS: error= 5.40D-05 at cycle   2 NSaved=   2.
 NSaved= 2 IEnMin= 2 EnMin= -2492.57845955195     IErMin= 2 ErrMin= 5.40D-05
 ErrMax= 5.40D-05  0.00D+00 EMaxC= 1.00D-01 BMatC= 1.44D-05 BMatP= 2.04D-05
 IDIUse=1 WtCom= 1.00D+00 WtEn= 0.00D+00
 Coeff-Com:  0.440D+00 0.560D+00
 Coeff:      0.440D+00 0.560D+00
 Gap=     0.206 Goal=   None    Shift=    0.000
 Gap=     0.206 Goal=   None    Shift=    0.000
 RMSDP=5.80D-06 MaxDP=2.85D-04 DE=-1.88D-06 OVMax= 5.77D-04

 Cycle  10  Pass 1  IDiag  1:
 RMSU=  5.64D-06    CP:  1.00D+00  1.02D+00
 E= -2492.57846210581     Delta-E=       -0.000002553863 Rises=F Damp=F
 DIIS: error= 3.19D-05 at cycle   3 NSaved=   3.
 NSaved= 3 IEnMin= 3 EnMin= -2492.57846210581     IErMin= 3 ErrMin= 3.19D-05
 ErrMax= 3.19D-05  0.00D+00 EMaxC= 1.00D-01 BMatC= 5.45D-06 BMatP= 1.44D-05
 IDIUse=1 WtCom= 1.00D+00 WtEn= 0.00D+00
 Coeff-Com:  0.744D-03 0.377D+00 0.622D+00
 Coeff:      0.744D-03 0.377D+00 0.622D+00
 Gap=     0.206 Goal=   None    Shift=    0.000
 Gap=     0.206 Goal=   None    Shift=    0.000
 RMSDP=2.91D-06 MaxDP=1.27D-04 DE=-2.55D-06 OVMax= 2.24D-04

 Cycle  11  Pass 1  IDiag  1:
 RMSU=  1.35D-06    CP:  1.00D+00  1.05D+00  6.47D-01
 E= -2492.57846340552     Delta-E=       -0.000001299711 Rises=F Damp=F
 DIIS: error= 6.38D-06 at cycle   4 NSaved=   4.
 NSaved= 4 IEnMin= 4 EnMin= -2492.57846340552     IErMin= 4 ErrMin= 6.38D-06
 ErrMax= 6.38D-06  0.00D+00 EMaxC= 1.00D-01 BMatC= 4.00D-07 BMatP= 5.45D-06
 IDIUse=1 WtCom= 1.00D+00 WtEn= 0.00D+00
 Coeff-Com: -0.205D-01 0.203D+00 0.370D+00 0.447D+00
 Coeff:     -0.205D-01 0.203D+00 0.370D+00 0.447D+00
 Gap=     0.206 Goal=   None    Shift=    0.000
 Gap=     0.206 Goal=   None    Shift=    0.000
 RMSDP=5.98D-07 MaxDP=2.84D-05 DE=-1.30D-06 OVMax= 5.38D-05

 Cycle  12  Pass 1  IDiag  1:
 RMSU=  4.96D-07    CP:  1.00D+00  1.05D+00  6.79D-01  8.27D-01
 E= -2492.57846350872     Delta-E=       -0.000000103201 Rises=F Damp=F
 DIIS: error= 1.67D-06 at cycle   5 NSaved=   5.
 NSaved= 5 IEnMin= 5 EnMin= -2492.57846350872     IErMin= 5 ErrMin= 1.67D-06
 ErrMax= 1.67D-06  0.00D+00 EMaxC= 1.00D-01 BMatC= 1.04D-08 BMatP= 4.00D-07
 IDIUse=1 WtCom= 1.00D+00 WtEn= 0.00D+00
 Coeff-Com: -0.417D-02 0.838D-02 0.117D-01 0.963D-01 0.888D+00
 Coeff:     -0.417D-02 0.838D-02 0.117D-01 0.963D-01 0.888D+00
 Gap=     0.206 Goal=   None    Shift=    0.000
 Gap=     0.206 Goal=   None    Shift=    0.000
 RMSDP=2.67D-07 MaxDP=1.30D-05 DE=-1.03D-07 OVMax= 4.10D-05

 Cycle  13  Pass 1  IDiag  1:
 RMSU=  1.72D-07    CP:  1.00D+00  1.05D+00  6.80D-01  9.58D-01  1.18D+00
 E= -2492.57846350707     Delta-E=        0.000000001648 Rises=F Damp=F
 DIIS: error= 8.72D-07 at cycle   6 NSaved=   6.
 NSaved= 6 IEnMin= 5 EnMin= -2492.57846350872     IErMin= 6 ErrMin= 8.72D-07
 ErrMax= 8.72D-07  0.00D+00 EMaxC= 1.00D-01 BMatC= 6.40D-09 BMatP= 1.04D-08
 IDIUse=1 WtCom= 1.00D+00 WtEn= 0.00D+00
 Coeff-Com:  0.351D-02-0.547D-01-0.106D+00-0.723D-01 0.554D+00 0.675D+00
 Coeff:      0.351D-02-0.547D-01-0.106D+00-0.723D-01 0.554D+00 0.675D+00
 Gap=     0.206 Goal=   None    Shift=    0.000
 Gap=     0.206 Goal=   None    Shift=    0.000
 RMSDP=1.69D-07 MaxDP=7.75D-06 DE= 1.65D-09 OVMax= 2.74D-05

 Cycle  14  Pass 1  IDiag  1:
 RMSU=  8.42D-08    CP:  1.00D+00  1.05D+00  6.81D-01  1.04D+00  1.38D+00
                    CP:  8.96D-01
 E= -2492.57846350250     Delta-E=        0.000000004578 Rises=F Damp=F
 DIIS: error= 2.94D-07 at cycle   7 NSaved=   7.
 NSaved= 7 IEnMin= 5 EnMin= -2492.57846350872     IErMin= 7 ErrMin= 2.94D-07
 ErrMax= 2.94D-07  0.00D+00 EMaxC= 1.00D-01 BMatC= 7.66D-10 BMatP= 6.40D-09
 IDIUse=1 WtCom= 1.00D+00 WtEn= 0.00D+00
 Coeff-Com:  0.244D-02-0.332D-01-0.643D-01-0.513D-01 0.247D+00 0.396D+00
 Coeff-Com:  0.504D+00
 Coeff:      0.244D-02-0.332D-01-0.643D-01-0.513D-01 0.247D+00 0.396D+00
 Coeff:      0.504D+00
 Gap=     0.206 Goal=   None    Shift=    0.000
 Gap=     0.206 Goal=   None    Shift=    0.000
 RMSDP=3.78D-08 MaxDP=1.80D-06 DE= 4.58D-09 OVMax= 4.70D-06

 Cycle  15  Pass 1  IDiag  1:
 RMSU=  2.78D-08    CP:  1.00D+00  1.05D+00  6.80D-01  1.05D+00  1.40D+00
                    CP:  9.83D-01  9.45D-01
 E= -2492.57846344500     Delta-E=        0.000000057497 Rises=F Damp=F
 DIIS: error= 1.10D-07 at cycle   8 NSaved=   8.
 NSaved= 8 IEnMin= 5 EnMin= -2492.57846350872     IErMin= 8 ErrMin= 1.10D-07
 ErrMax= 1.10D-07  0.00D+00 EMaxC= 1.00D-01 BMatC= 5.86D-11 BMatP= 7.66D-10
 IDIUse=1 WtCom= 1.00D+00 WtEn= 0.00D+00
 Coeff-Com:  0.503D-03-0.553D-02-0.109D-01-0.104D-01 0.164D-01 0.687D-01
 Coeff-Com:  0.232D+00 0.709D+00
 Coeff:      0.503D-03-0.553D-02-0.109D-01-0.104D-01 0.164D-01 0.687D-01
 Coeff:      0.232D+00 0.709D+00
 Gap=     0.206 Goal=   None    Shift=    0.000
 Gap=     0.206 Goal=   None    Shift=    0.000
 RMSDP=1.50D-08 MaxDP=7.57D-07 DE= 5.75D-08 OVMax= 2.54D-06

 Cycle  16  Pass 1  IDiag  1:
 RMSU=  9.53D-09    CP:  1.00D+00  1.05D+00  6.80D-01  1.05D+00  1.40D+00
                    CP:  1.01D+00  1.04D+00  8.76D-01
 E= -2492.57846344503     Delta-E=       -0.000000000026 Rises=F Damp=F
 DIIS: error= 5.30D-08 at cycle   9 NSaved=   9.
 NSaved= 9 IEnMin= 5 EnMin= -2492.57846350872     IErMin= 9 ErrMin= 5.30D-08
 ErrMax= 5.30D-08  0.00D+00 EMaxC= 1.00D-01 BMatC= 1.22D-11 BMatP= 5.86D-11
 IDIUse=1 WtCom= 1.00D+00 WtEn= 0.00D+00
 Coeff-Com: -0.919D-04 0.191D-02 0.359D-02 0.217D-02-0.262D-01-0.196D-01
 Coeff-Com:  0.423D-01 0.365D+00 0.631D+00
 Coeff:     -0.919D-04 0.191D-02 0.359D-02 0.217D-02-0.262D-01-0.196D-01
 Coeff:      0.423D-01 0.365D+00 0.631D+00
 Gap=     0.206 Goal=   None    Shift=    0.000
 Gap=     0.206 Goal=   None    Shift=    0.000
 RMSDP=6.11D-09 MaxDP=2.25D-07 DE=-2.64D-11 OVMax= 9.54D-07

 SCF Done:  E(ULC-wPBE) =  -2492.57846345     A.U. after   16 cycles
            NFock= 16  Conv=0.61D-08     -V/T= 2.0040
 <Sx>= 0.0000 <Sy>= 0.0000 <Sz>= 0.0000 <S**2>=-0.0000 S=-0.0000
 <L.S>= 0.000000000000E+00
 KE= 2.482658488685D+03 PE=-1.211357975118D+04 EE= 4.011405917229D+03
 Annihilation of the first spin contaminant:
 S**2 before annihilation    -0.0000,   after    -0.0000
 Leave Link  502 at Sat Jul 25 10:31:56 2020, MaxMem=  4026531840 cpu:            2284.3 elap:             286.5
 (Enter /opt/ohpc/pub/libs/gaussian/g16-A.03/sandybridge/g16/l601.exe)
 Copying SCF densities to generalized density rwf, IOpCl= 1 IROHF=0.

 **********************************************************************

            Population analysis using the SCF density.

 **********************************************************************

 Orbital symmetries:
 Alpha Orbitals:
       Occupied  (A) (A) (A) (A) (A) (A) (A) (A) (A) (A) (A) (A)
                 (A) (A) (A) (A) (A) (A) (A) (A) (A) (A) (A) (A)
                 (A) (A) (A) (A) (A) (A) (A) (A) (A) (A) (A) (A)
                 (A) (A) (A) (A) (A) (A) (A) (A) (A) (A) (A) (A)
                 (A) (A) (A) (A) (A) (A) (A) (A) (A) (A) (A) (A)
                 (A) (A) (A) (A) (A) (A) (A) (A) (A) (A) (A) (A)
                 (A) (A) (A) (A) (A) (A) (A) (A) (A) (A) (A) (A)
                 (A) (A) (A) (A) (A) (A) (A) (A) (A) (A) (A) (A)
                 (A) (A) (A) (A) (A) (A) (A) (A) (A) (A) (A) (A)
                 (A) (A) (A) (A) (A) (A) (A) (A) (A) (A) (A) (A)
                 (A) (A) (A) (A)
       Virtual   (A) (A) (A) (A) (A) (A) (A) (A) (A) (A) (A) (A)
                 (A) (A) (A) (A) (A) (A) (A) (A) (A) (A) (A) (A)
                 (A) (A) (A) (A) (A) (A) (A) (A) (A) (A) (A) (A)
                 (A) (A) (A) (A) (A) (A) (A) (A) (A) (A) (A) (A)
                 (A) (A) (A) (A) (A) (A) (A) (A) (A) (A) (A) (A)
                 (A) (A) (A) (A) (A) (A) (A) (A) (A) (A) (A) (A)
                 (A) (A) (A) (A) (A) (A) (A) (A) (A) (A) (A) (A)
                 (A) (A) (A) (A) (A) (A) (A) (A) (A) (A) (A) (A)
                 (A) (A) (A) (A) (A) (A) (A) (A) (A) (A) (A) (A)
                 (A) (A) (A) (A) (A) (A) (A) (A) (A) (A) (A) (A)
                 (A) (A) (A) (A) (A) (A) (A) (A) (A) (A) (A) (A)
                 (A) (A) (A) (A) (A) (A) (A) (A) (A) (A) (A) (A)
                 (A) (A) (A) (A) (A) (A) (A) (A) (A) (A) (A) (A)
                 (A) (A) (A) (A) (A) (A) (A) (A) (A) (A) (A) (A)
                 (A) (A) (A) (A) (A) (A) (A) (A) (A) (A) (A) (A)
                 (A) (A) (A) (A) (A) (A) (A) (A) (A) (A) (A) (A)
                 (A) (A) (A) (A) (A) (A) (A) (A) (A) (A) (A) (A)
                 (A) (A) (A) (A) (A) (A) (A) (A) (A) (A) (A) (A)
                 (A) (A) (A) (A) (A) (A) (A) (A) (A) (A) (A) (A)
                 (A) (A) (A) (A) (A) (A) (A) (A) (A) (A) (A) (A)
                 (A) (A) (A) (A) (A) (A) (A) (A) (A) (A) (A) (A)
                 (A) (A) (A) (A) (A) (A) (A) (A) (A) (A) (A) (A)
                 (A) (A) (A) (A) (A) (A) (A) (A) (A) (A) (A) (A)
                 (A) (A) (A) (A) (A) (A) (A) (A) (A) (A) (A) (A)
                 (A) (A) (A) (A) (A) (A) (A) (A) (A) (A) (A) (A)
                 (A) (A) (A) (A) (A) (A) (A) (A) (A) (A) (A) (A)
                 (A) (A) (A) (A) (A) (A) (A) (A) (A) (A) (A) (A)
                 (A) (A) (A) (A) (A) (A) (A) (A) (A) (A) (A) (A)
                 (A) (A) (A) (A) (A) (A) (A) (A) (A) (A) (A) (A)
                 (A) (A) (A) (A) (A) (A) (A) (A) (A) (A) (A) (A)
                 (A) (A) (A) (A) (A) (A) (A) (A) (A) (A) (A) (A)
                 (A) (A) (A) (A) (A) (A) (A) (A) (A) (A) (A) (A)
                 (A) (A) (A) (A) (A) (A) (A) (A) (A) (A) (A) (A)
                 (A) (A) (A) (A) (A) (A) (A) (A) (A)
 Beta  Orbitals:
       Occupied  (A) (A) (A) (A) (A) (A) (A) (A) (A) (A) (A) (A)
                 (A) (A) (A) (A) (A) (A) (A) (A) (A) (A) (A) (A)
                 (A) (A) (A) (A) (A) (A) (A) (A) (A) (A) (A) (A)
                 (A) (A) (A) (A) (A) (A) (A) (A) (A) (A) (A) (A)
                 (A) (A) (A) (A) (A) (A) (A) (A) (A) (A) (A) (A)
                 (A) (A) (A) (A) (A) (A) (A) (A) (A) (A) (A) (A)
                 (A) (A) (A) (A) (A) (A) (A) (A) (A) (A) (A) (A)
                 (A) (A) (A) (A) (A) (A) (A) (A) (A) (A) (A) (A)
                 (A) (A) (A) (A) (A) (A) (A) (A) (A) (A) (A) (A)
                 (A) (A) (A) (A) (A) (A) (A) (A) (A) (A) (A) (A)
                 (A) (A) (A) (A)
       Virtual   (A) (A) (A) (A) (A) (A) (A) (A) (A) (A) (A) (A)
                 (A) (A) (A) (A) (A) (A) (A) (A) (A) (A) (A) (A)
                 (A) (A) (A) (A) (A) (A) (A) (A) (A) (A) (A) (A)
                 (A) (A) (A) (A) (A) (A) (A) (A) (A) (A) (A) (A)
                 (A) (A) (A) (A) (A) (A) (A) (A) (A) (A) (A) (A)
                 (A) (A) (A) (A) (A) (A) (A) (A) (A) (A) (A) (A)
                 (A) (A) (A) (A) (A) (A) (A) (A) (A) (A) (A) (A)
                 (A) (A) (A) (A) (A) (A) (A) (A) (A) (A) (A) (A)
                 (A) (A) (A) (A) (A) (A) (A) (A) (A) (A) (A) (A)
                 (A) (A) (A) (A) (A) (A) (A) (A) (A) (A) (A) (A)
                 (A) (A) (A) (A) (A) (A) (A) (A) (A) (A) (A) (A)
                 (A) (A) (A) (A) (A) (A) (A) (A) (A) (A) (A) (A)
                 (A) (A) (A) (A) (A) (A) (A) (A) (A) (A) (A) (A)
                 (A) (A) (A) (A) (A) (A) (A) (A) (A) (A) (A) (A)
                 (A) (A) (A) (A) (A) (A) (A) (A) (A) (A) (A) (A)
                 (A) (A) (A) (A) (A) (A) (A) (A) (A) (A) (A) (A)
                 (A) (A) (A) (A) (A) (A) (A) (A) (A) (A) (A) (A)
                 (A) (A) (A) (A) (A) (A) (A) (A) (A) (A) (A) (A)
                 (A) (A) (A) (A) (A) (A) (A) (A) (A) (A) (A) (A)
                 (A) (A) (A) (A) (A) (A) (A) (A) (A) (A) (A) (A)
                 (A) (A) (A) (A) (A) (A) (A) (A) (A) (A) (A) (A)
                 (A) (A) (A) (A) (A) (A) (A) (A) (A) (A) (A) (A)
                 (A) (A) (A) (A) (A) (A) (A) (A) (A) (A) (A) (A)
                 (A) (A) (A) (A) (A) (A) (A) (A) (A) (A) (A) (A)
                 (A) (A) (A) (A) (A) (A) (A) (A) (A) (A) (A) (A)
                 (A) (A) (A) (A) (A) (A) (A) (A) (A) (A) (A) (A)
                 (A) (A) (A) (A) (A) (A) (A) (A) (A) (A) (A) (A)
                 (A) (A) (A) (A) (A) (A) (A) (A) (A) (A) (A) (A)
                 (A) (A) (A) (A) (A) (A) (A) (A) (A) (A) (A) (A)
                 (A) (A) (A) (A) (A) (A) (A) (A) (A) (A) (A) (A)
                 (A) (A) (A) (A) (A) (A) (A) (A) (A) (A) (A) (A)
                 (A) (A) (A) (A) (A) (A) (A) (A) (A) (A) (A) (A)
                 (A) (A) (A) (A) (A) (A) (A) (A) (A) (A) (A) (A)
                 (A) (A) (A) (A) (A) (A) (A) (A) (A)
 The electronic state is 1-A.
 Alpha  occ. eigenvalues --  -88.20299 -88.19529 -88.18384 -14.10392 -14.10290
 Alpha  occ. eigenvalues --  -14.09528 -14.09450 -14.09346 -14.09236 -14.08595
 Alpha  occ. eigenvalues --  -14.08538 -14.08041 -10.07192 -10.06919 -10.06839
 Alpha  occ. eigenvalues --  -10.05461 -10.05086 -10.04559 -10.04038 -10.03642
 Alpha  occ. eigenvalues --  -10.03562 -10.03411 -10.03354 -10.03276 -10.03121
 Alpha  occ. eigenvalues --  -10.02851 -10.02426 -10.02324 -10.02017 -10.01866
 Alpha  occ. eigenvalues --  -10.01032 -10.00752  -9.99768  -7.80646  -7.79895
 Alpha  occ. eigenvalues --   -7.78592  -5.82638  -5.82239  -5.81966  -5.81897
 Alpha  occ. eigenvalues --   -5.81480  -5.81207  -5.80614  -5.80202  -5.79907
 Alpha  occ. eigenvalues --   -1.00811  -1.00493  -0.99148  -0.98852  -0.97443
 Alpha  occ. eigenvalues --   -0.96919  -0.90772  -0.90755  -0.89579  -0.85594
 Alpha  occ. eigenvalues --   -0.85404  -0.82934  -0.81806  -0.80930  -0.80475
 Alpha  occ. eigenvalues --   -0.78047  -0.76127  -0.74888  -0.70401  -0.69850
 Alpha  occ. eigenvalues --   -0.69352  -0.68750  -0.68313  -0.67831  -0.62722
 Alpha  occ. eigenvalues --   -0.62283  -0.61803  -0.60596  -0.60286  -0.59823
 Alpha  occ. eigenvalues --   -0.56857  -0.56447  -0.55560  -0.55362  -0.54904
 Alpha  occ. eigenvalues --   -0.54159  -0.53555  -0.51115  -0.50047  -0.49413
 Alpha  occ. eigenvalues --   -0.48862  -0.48365  -0.48333  -0.47987  -0.47140
 Alpha  occ. eigenvalues --   -0.46763  -0.46637  -0.45714  -0.45481  -0.45273
 Alpha  occ. eigenvalues --   -0.45040  -0.44674  -0.44205  -0.43487  -0.43358
 Alpha  occ. eigenvalues --   -0.41399  -0.40433  -0.39276  -0.38278  -0.37701
 Alpha  occ. eigenvalues --   -0.37572  -0.36904  -0.36782  -0.35391  -0.35042
 Alpha  occ. eigenvalues --   -0.34739  -0.33960  -0.33696  -0.33459  -0.32527
 Alpha  occ. eigenvalues --   -0.32144  -0.31440  -0.30716  -0.30374  -0.29205
 Alpha  occ. eigenvalues --   -0.28567  -0.28334  -0.27935  -0.26892
 Alpha virt. eigenvalues --   -0.06299  -0.04715  -0.02760  -0.02139  -0.01949
 Alpha virt. eigenvalues --   -0.01074   0.01367   0.03221   0.04574   0.05227
 Alpha virt. eigenvalues --    0.05780   0.06303   0.06992   0.08452   0.09493
 Alpha virt. eigenvalues --    0.10209   0.10686   0.11659   0.12437   0.13015
 Alpha virt. eigenvalues --    0.13298   0.13764   0.14204   0.14940   0.15891
 Alpha virt. eigenvalues --    0.16123   0.16554   0.16689   0.16818   0.17215
 Alpha virt. eigenvalues --    0.17299   0.18231   0.20939   0.22201   0.22728
 Alpha virt. eigenvalues --    0.23112   0.23233   0.24690   0.25124   0.26356
 Alpha virt. eigenvalues --    0.27165   0.27783   0.28634   0.29858   0.30125
 Alpha virt. eigenvalues --    0.30918   0.32720   0.33483   0.33793   0.34315
 Alpha virt. eigenvalues --    0.34445   0.35011   0.35634   0.36660   0.36866
 Alpha virt. eigenvalues --    0.37826   0.38035   0.38745   0.39394   0.40564
 Alpha virt. eigenvalues --    0.40791   0.41664   0.41932   0.42528   0.44694
 Alpha virt. eigenvalues --    0.45050   0.45851   0.45943   0.47081   0.47255
 Alpha virt. eigenvalues --    0.47843   0.47931   0.48244   0.48573   0.48607
 Alpha virt. eigenvalues --    0.48815   0.48934   0.49042   0.49188   0.49577
 Alpha virt. eigenvalues --    0.49910   0.50252   0.50386   0.50497   0.51128
 Alpha virt. eigenvalues --    0.51168   0.51462   0.51612   0.52005   0.52511
 Alpha virt. eigenvalues --    0.52782   0.53253   0.53429   0.53572   0.53617
 Alpha virt. eigenvalues --    0.54553   0.54848   0.54989   0.55869   0.56190
[...]
 --------------------------------------------------------
       Center         ----  Spin Dipole Couplings  ----
                      3XX-RR        3YY-RR        3ZZ-RR
 --------------------------------------------------------
     1   Atom        0.000000     -0.000000     -0.000000
     2   Atom        0.000000     -0.000000      0.000000
     3   Atom        0.000000      0.000000     -0.000000
     4   Atom        0.000000     -0.000000     -0.000000
     5   Atom       -0.000000      0.000000      0.000000
     6   Atom       -0.000000      0.000000     -0.000000
     7   Atom       -0.000000      0.000000     -0.000000
     8   Atom        0.000000      0.000000     -0.000000
     9   Atom       -0.000000      0.000000      0.000000
    10   Atom       -0.000000     -0.000000      0.000000
    11   Atom        0.000000     -0.000000     -0.000000
    12   Atom       -0.000000     -0.000000      0.000000
    13   Atom       -0.000000      0.000000     -0.000000
    14   Atom       -0.000000      0.000000     -0.000000
    15   Atom       -0.000000      0.000000     -0.000000
    16   Atom        0.000000      0.000000     -0.000000
    17   Atom       -0.000000     -0.000000      0.000000
    18   Atom        0.000000     -0.000000     -0.000000
    19   Atom       -0.000000     -0.000000      0.000000
    20   Atom       -0.000000      0.000000      0.000000
    21   Atom       -0.000000      0.000000      0.000000
    22   Atom       -0.000000      0.000000      0.000000
    23   Atom       -0.000000      0.000000      0.000000
    24   Atom       -0.000000      0.000000     -0.000000
    25   Atom        0.000000     -0.000000     -0.000000
    26   Atom       -0.000000      0.000000     -0.000000
    27   Atom       -0.000000      0.000000      0.000000
    28   Atom       -0.000000     -0.000000      0.000000
    29   Atom        0.000000      0.000000     -0.000000
    30   Atom        0.000000     -0.000000      0.000000
    31   Atom        0.000000     -0.000000      0.000000
    32   Atom        0.000000     -0.000000      0.000000
    33   Atom       -0.000000     -0.000000      0.000000
    34   Atom        0.000000     -0.000000     -0.000000
    35   Atom       -0.000000     -0.000000      0.000000
    36   Atom        0.000000     -0.000000      0.000000
    37   Atom        0.000000     -0.000000     -0.000000
    38   Atom       -0.000000      0.000000     -0.000000
    39   Atom        0.000000     -0.000000      0.000000
    40   Atom        0.000000      0.000000     -0.000000
    41   Atom       -0.000000      0.000000     -0.000000
    42   Atom        0.000000     -0.000000      0.000000
    43   Atom        0.000000     -0.000000     -0.000000
    44   Atom        0.000000     -0.000000     -0.000000
 --------------------------------------------------------
                        XY            XZ            YZ
 --------------------------------------------------------
     1   Atom       -0.000000     -0.000000     -0.000000
     2   Atom       -0.000000     -0.000000     -0.000000
     3   Atom        0.000000      0.000000      0.000000
     4   Atom        0.000000      0.000000     -0.000000
     5   Atom        0.000000     -0.000000      0.000000
     6   Atom        0.000000     -0.000000     -0.000000
     7   Atom       -0.000000     -0.000000      0.000000
     8   Atom        0.000000      0.000000      0.000000
     9   Atom       -0.000000     -0.000000     -0.000000
    10   Atom       -0.000000     -0.000000     -0.000000
    11   Atom        0.000000      0.000000     -0.000000
    12   Atom       -0.000000      0.000000      0.000000
    13   Atom        0.000000     -0.000000     -0.000000
    14   Atom        0.000000     -0.000000      0.000000
    15   Atom       -0.000000      0.000000      0.000000
    16   Atom       -0.000000      0.000000     -0.000000
    17   Atom       -0.000000     -0.000000      0.000000
    18   Atom        0.000000      0.000000      0.000000
    19   Atom        0.000000     -0.000000     -0.000000
    20   Atom       -0.000000      0.000000      0.000000
    21   Atom       -0.000000     -0.000000      0.000000
    22   Atom        0.000000     -0.000000      0.000000
    23   Atom       -0.000000      0.000000      0.000000
    24   Atom        0.000000      0.000000      0.000000
    25   Atom       -0.000000     -0.000000      0.000000
    26   Atom       -0.000000     -0.000000      0.000000
    27   Atom        0.000000      0.000000     -0.000000
    28   Atom       -0.000000      0.000000     -0.000000
    29   Atom        0.000000     -0.000000      0.000000
    30   Atom        0.000000      0.000000     -0.000000
    31   Atom       -0.000000     -0.000000     -0.000000
    32   Atom       -0.000000     -0.000000     -0.000000
    33   Atom        0.000000      0.000000     -0.000000
    34   Atom       -0.000000      0.000000     -0.000000
    35   Atom       -0.000000     -0.000000     -0.000000
    36   Atom       -0.000000     -0.000000     -0.000000
    37   Atom        0.000000      0.000000      0.000000
    38   Atom        0.000000     -0.000000     -0.000000
    39   Atom        0.000000     -0.000000      0.000000
    40   Atom       -0.000000      0.000000     -0.000000
    41   Atom       -0.000000     -0.000000      0.000000
    42   Atom       -0.000000     -0.000000     -0.000000
    43   Atom       -0.000000      0.000000     -0.000000
    44   Atom        0.000000      0.000000      0.000000
 --------------------------------------------------------


 ---------------------------------------------------------------------------------
              Anisotropic Spin Dipole Couplings in Principal Axis System
 ---------------------------------------------------------------------------------

       Atom             a.u.   MegaHertz   Gauss  10(-4) cm-1        Axes

              Baa    -0.0000    -0.000    -0.000    -0.000  0.4818  0.6993  0.5281
     1 C(13)  Bbb    -0.0000    -0.000    -0.000    -0.000 -0.2938 -0.4388  0.8492
              Bcc     0.0000     0.000     0.000     0.000  0.8255 -0.5643 -0.0060
 
              Baa    -0.0000    -0.000    -0.000    -0.000  0.3739  0.8966  0.2373
     2 C(13)  Bbb     0.0000     0.000     0.000     0.000 -0.0151 -0.2499  0.9682
              Bcc     0.0000     0.000     0.000     0.000  0.9273 -0.3656 -0.0799
 
              Baa    -0.0000    -0.000    -0.000    -0.000 -0.1028 -0.2994  0.9486
     3 N(14)  Bbb    -0.0000    -0.000    -0.000    -0.000 -0.6153  0.7685  0.1758
              Bcc     0.0000     0.000     0.000     0.000  0.7816  0.5655  0.2632
 
              Baa    -0.0000    -0.000    -0.000    -0.000 -0.2762  0.9398  0.2012
     4 C(13)  Bbb     0.0000     0.000     0.000     0.000 -0.0766 -0.2302  0.9701
              Bcc     0.0000     0.000     0.000     0.000  0.9580  0.2526  0.1355
 
              Baa    -0.0000    -0.000    -0.000    -0.000  0.9679 -0.2455  0.0547
     5 N(14)  Bbb     0.0000     0.000     0.000     0.000 -0.0801 -0.0947  0.9923
              Bcc     0.0000     0.000     0.000     0.000  0.2384  0.9648  0.1114
 
              Baa    -0.0000    -0.000    -0.000    -0.000  0.7176 -0.5877 -0.3738
     6 C(13)  Bbb    -0.0000    -0.000    -0.000    -0.000  0.4804  0.0289  0.8766
              Bcc     0.0000     0.000     0.000     0.000  0.5043  0.8086 -0.3030
 
              Baa    -0.0000    -0.000    -0.000    -0.000 -0.5711 -0.5181  0.6367
     7 C(13)  Bbb    -0.0000    -0.000    -0.000    -0.000  0.5914  0.2782  0.7569
              Bcc     0.0000     0.000     0.000     0.000 -0.5693  0.8088  0.1475
 
              Baa    -0.0000    -0.000    -0.000    -0.000  0.7249 -0.6884 -0.0244
     8 N(14)  Bbb    -0.0000    -0.000    -0.000    -0.000 -0.0380 -0.0753  0.9964
              Bcc     0.0000     0.000     0.000     0.000  0.6878  0.7214  0.0807
 
              Baa    -0.0000    -0.000    -0.000    -0.000  0.7907  0.5761  0.2071
     9 C(13)  Bbb     0.0000     0.000     0.000     0.000 -0.0666 -0.2552  0.9646
              Bcc     0.0000     0.000     0.000     0.000 -0.6086  0.7765  0.1634
 
              Baa    -0.0000    -0.000    -0.000    -0.000  0.9497  0.2339  0.2081
    10 C(13)  Bbb     0.0000     0.000     0.000     0.000 -0.2643  0.9553  0.1327
              Bcc     0.0000     0.000     0.000     0.000 -0.1678 -0.1810  0.9691
 
              Baa    -0.0000    -0.000    -0.000    -0.000 -0.4219  0.8710  0.2515
    11 S(33)  Bbb    -0.0000    -0.000    -0.000    -0.000 -0.0153 -0.2843  0.9586
              Bcc     0.0000     0.000     0.000     0.000  0.9065  0.4006  0.1333
 
              Baa    -0.0000    -0.000    -0.000    -0.000  0.7066  0.6906 -0.1545
    12 C(13)  Bbb     0.0000     0.000     0.000     0.000  0.7076 -0.6905  0.1500
              Bcc     0.0000     0.000     0.000     0.000  0.0031  0.2153  0.9765
 
              Baa    -0.0000    -0.000    -0.000    -0.000  0.9890 -0.1452  0.0296
    13 C(13)  Bbb    -0.0000    -0.000    -0.000    -0.000  0.0257  0.3648  0.9307
              Bcc     0.0000     0.000     0.000     0.000  0.1460  0.9197 -0.3645
 
              Baa    -0.0000    -0.000    -0.000    -0.000  0.6705 -0.4913  0.5559
    14 N(14)  Bbb    -0.0000    -0.000    -0.000    -0.000 -0.4695  0.2993  0.8307
              Bcc     0.0000     0.000     0.000     0.000  0.5745  0.8180  0.0300
 
              Baa    -0.0000    -0.000    -0.000    -0.000  0.9785  0.2045 -0.0274
    15 C(13)  Bbb    -0.0000    -0.000    -0.000    -0.000  0.0288 -0.0039  0.9996
              Bcc     0.0000     0.000     0.000     0.000 -0.2043  0.9789  0.0097
 
              Baa    -0.0000    -0.000    -0.000    -0.000 -0.0487  0.1404  0.9889
    16 N(14)  Bbb     0.0000     0.000     0.000     0.000  0.9539  0.3001  0.0044
              Bcc     0.0000     0.000     0.000     0.000 -0.2962  0.9435 -0.1485
 
              Baa    -0.0000    -0.000    -0.000    -0.000  0.4686  0.8797 -0.0804
    17 C(13)  Bbb     0.0000     0.000     0.000     0.000  0.8803 -0.4574  0.1261
              Bcc     0.0000     0.000     0.000     0.000 -0.0742  0.1299  0.9888
 
              Baa    -0.0000    -0.000    -0.000    -0.000  0.1971 -0.4731  0.8587
    18 C(13)  Bbb    -0.0000    -0.000    -0.000    -0.000 -0.5029  0.7030  0.5028
              Bcc     0.0000     0.000     0.000     0.000  0.8416  0.5309  0.0994
 
              Baa    -0.0000    -0.000    -0.000    -0.000  0.8464 -0.5257  0.0852
    19 N(14)  Bbb     0.0000     0.000     0.000     0.000  0.4983  0.8382  0.2216
              Bcc     0.0000     0.000     0.000     0.000 -0.1879 -0.1451  0.9714
 
              Baa    -0.0000    -0.000    -0.000    -0.000  0.8553  0.3838 -0.3480
    20 C(13)  Bbb     0.0000     0.000     0.000     0.000  0.3951 -0.0489  0.9173
              Bcc     0.0000     0.000     0.000     0.000 -0.3351  0.9221  0.1935
 
              Baa    -0.0000    -0.000    -0.000    -0.000  0.9679  0.2512 -0.0025
    21 C(13)  Bbb     0.0000     0.000     0.000     0.000 -0.2482  0.9550 -0.1620
              Bcc     0.0000     0.000     0.000     0.000 -0.0383  0.1575  0.9868
 
              Baa    -0.0000    -0.000    -0.000    -0.000  0.9583 -0.2659  0.1051
    22 S(33)  Bbb     0.0000     0.000     0.000     0.000 -0.1786 -0.2697  0.9462
              Bcc     0.0000     0.000     0.000     0.000  0.2233  0.9255  0.3059
 
              Baa    -0.0000    -0.000    -0.000    -0.000  0.9535  0.2930 -0.0705
    23 C(13)  Bbb     0.0000     0.000     0.000     0.000 -0.2963  0.9541 -0.0427
              Bcc     0.0000     0.000     0.000     0.000  0.0547  0.0616  0.9966
 
              Baa    -0.0000    -0.000    -0.000    -0.000  0.8391 -0.3981 -0.3708
    24 C(13)  Bbb    -0.0000    -0.000    -0.000    -0.000  0.1607 -0.4698  0.8680
              Bcc     0.0000     0.000     0.000     0.000  0.5198  0.7879  0.3302
 
              Baa    -0.0000    -0.000    -0.000    -0.000  0.1883  0.9688 -0.1610
    25 N(14)  Bbb    -0.0000    -0.000    -0.000    -0.000  0.1060  0.1429  0.9840
              Bcc     0.0000     0.000     0.000     0.000  0.9764 -0.2024 -0.0758
 
              Baa    -0.0000    -0.000    -0.000    -0.000  0.3377 -0.1885  0.9222
    26 C(13)  Bbb    -0.0000    -0.000    -0.000    -0.000  0.8927  0.3747 -0.2503
              Bcc     0.0000     0.000     0.000     0.000 -0.2984  0.9078  0.2949
 
              Baa    -0.0000    -0.000    -0.000    -0.000  0.9823 -0.1822 -0.0430
    27 N(14)  Bbb     0.0000     0.000     0.000     0.000  0.1865  0.9726  0.1385
              Bcc     0.0000     0.000     0.000     0.000  0.0166 -0.1441  0.9894
 
              Baa    -0.0000    -0.000    -0.000    -0.000  0.3746  0.9018  0.2153
    28 C(13)  Bbb    -0.0000    -0.000    -0.000    -0.000  0.9096 -0.3125 -0.2739
              Bcc     0.0000     0.000     0.000     0.000  0.1797 -0.2984  0.9374
 
              Baa    -0.0000    -0.000    -0.000    -0.000  0.0944 -0.0540  0.9941
    29 C(13)  Bbb     0.0000     0.000     0.000     0.000 -0.4423  0.8923  0.0905
              Bcc     0.0000     0.000     0.000     0.000  0.8919  0.4482 -0.0604
 
              Baa    -0.0000    -0.000    -0.000    -0.000 -0.3460  0.8978  0.2725
    30 N(14)  Bbb     0.0000     0.000     0.000     0.000  0.6909  0.4403 -0.5734
              Bcc     0.0000     0.000     0.000     0.000  0.6348  0.0102  0.7726
 
              Baa    -0.0000    -0.000    -0.000    -0.000  0.0926  0.9827  0.1605
    31 C(13)  Bbb     0.0000     0.000     0.000     0.000  0.0733 -0.1675  0.9831
              Bcc     0.0000     0.000     0.000     0.000  0.9930 -0.0793 -0.0876
 
              Baa    -0.0000    -0.000    -0.000    -0.000  0.2640  0.9619  0.0703
    32 C(13)  Bbb     0.0000     0.000     0.000     0.000  0.5016 -0.1992  0.8419
              Bcc     0.0000     0.000     0.000     0.000  0.8238 -0.1870 -0.5351
 
              Baa    -0.0000    -0.000    -0.000    -0.000 -0.6606  0.7040  0.2608
    33 S(33)  Bbb     0.0000     0.000     0.000     0.000  0.3133 -0.0571  0.9479
              Bcc     0.0000     0.000     0.000     0.000  0.6823  0.7079 -0.1829
 
              Baa    -0.0000    -0.000    -0.000    -0.000  0.4475  0.8233  0.3492
    34 H(1)   Bbb    -0.0000    -0.000    -0.000    -0.000 -0.2977 -0.2311  0.9263
              Bcc     0.0000     0.000     0.000     0.000  0.8433 -0.5184  0.1416
 
              Baa    -0.0000    -0.000    -0.000    -0.000  0.6202  0.7537  0.2175
    35 H(1)   Bbb     0.0000     0.000     0.000     0.000 -0.3323  0.0013  0.9432
              Bcc     0.0000     0.000     0.000     0.000  0.7106 -0.6572  0.2512
 
              Baa    -0.0000    -0.000    -0.000    -0.000  0.1885  0.9609  0.2028
    36 H(1)   Bbb     0.0000     0.000     0.000     0.000 -0.1169 -0.1830  0.9761
              Bcc     0.0000     0.000     0.000     0.000  0.9751 -0.2077  0.0778
 
              Baa    -0.0000    -0.000    -0.000    -0.000 -0.3439  0.8564  0.3852
    37 H(1)   Bbb    -0.0000    -0.000    -0.000    -0.000 -0.2310 -0.4747  0.8493
              Bcc     0.0000     0.000     0.000     0.000  0.9102  0.2031  0.3611
 
              Baa    -0.0000    -0.000    -0.000    -0.000  0.6814 -0.6352 -0.3637
    38 H(1)   Bbb    -0.0000    -0.000    -0.000    -0.000  0.4469 -0.0325  0.8940
              Bcc     0.0000     0.000     0.000     0.000  0.5797  0.7717 -0.2617
 
              Baa    -0.0000    -0.000    -0.000    -0.000 -0.3667  0.8836 -0.2911
    39 H(1)   Bbb     0.0000     0.000     0.000     0.000  0.9177  0.2920 -0.2695
              Bcc     0.0000     0.000     0.000     0.000  0.1531  0.3660  0.9179
 
              Baa    -0.0000    -0.000    -0.000    -0.000  0.0054  0.2663  0.9639
    40 H(1)   Bbb    -0.0000    -0.000    -0.000    -0.000  0.7252  0.6626 -0.1871
              Bcc     0.0000     0.000     0.000     0.000 -0.6885  0.7000 -0.1896
 
              Baa    -0.0000    -0.000    -0.000    -0.000  0.9794  0.1449  0.1405
    41 H(1)   Bbb    -0.0000    -0.000    -0.000    -0.000 -0.0687 -0.4154  0.9071
              Bcc     0.0000     0.000     0.000     0.000 -0.1898  0.8980  0.3969
 
              Baa    -0.0000    -0.000    -0.000    -0.000  0.3200  0.9100  0.2638
    42 H(1)   Bbb     0.0000     0.000     0.000     0.000 -0.2827 -0.1740  0.9433
              Bcc     0.0000     0.000     0.000     0.000  0.9043 -0.3764  0.2016
 
              Baa    -0.0000    -0.000    -0.000    -0.000  0.1424  0.8166  0.5593
    43 H(1)   Bbb    -0.0000    -0.000    -0.000    -0.000 -0.1490 -0.5409  0.8278
              Bcc     0.0000     0.000     0.000     0.000  0.9785 -0.2012  0.0446
 
              Baa    -0.0000    -0.000    -0.000    -0.000 -0.3412  0.9381 -0.0587
    44 H(1)   Bbb    -0.0000    -0.000    -0.000    -0.000 -0.0990  0.0262  0.9947
              Bcc     0.0000     0.000     0.000     0.000  0.9348  0.3452  0.0839
 

 ---------------------------------------------------------------------------------

 No NMR shielding tensors so no spin-rotation constants.
 Leave Link  601 at Sat Jul 25 11:29:16 2020, MaxMem=  4026531840 cpu:               7.5 elap:               1.3
 (Enter /opt/ohpc/pub/libs/gaussian/g16-A.03/sandybridge/g16/l9999.exe)

 Test job not archived.
 1\1\GINC-SKYLAKE017\FOpt\ULC-wPBE\CC-pVDZ\C21H11N9S3\RDU230\25-Jul-202
 0\0\\#P uLC-wPBE/cc-pVDZ iop(3/107=0135400000, 3/108=0135400000) opt\\
 H11 C21 S3 N9\\0,1\C,-10.6027847608,2.3168417681,0.0574816932\C,-10.66
 96146599,0.9527766081,-0.2543220574\N,-9.5848198685,0.1656379337,-0.32
 86756138\C,-8.4117208787,0.7811469549,-0.0816352364\N,-8.2192745702,2.
 0827429599,0.2273304876\C,-9.3251822381,2.838358002,0.2938250619\C,-7.
 1812768684,-0.0333637606,-0.1475355308\N,-7.1143333381,-1.3156256228,-
 0.4326021251\C,-5.8183434245,-1.7425954214,-0.4023377263\C,-4.85208860
 04,-0.7920028255,-0.0895642712\S,-5.6363354254,0.7439121534,0.18467708
 24\C,-3.4031583821,-0.9744889717,0.0058135452\C,-2.8237295817,-2.22299
 39008,0.3266325244\N,-1.505201838,-2.4316867511,0.3944180932\C,-0.7301
 755066,-1.3543353753,0.1559903939\N,-1.1545530823,-0.1050812327,-0.137
 108083\C,-2.4768813857,0.0671880638,-0.215374768\C,0.73220456,-1.52690
 61515,0.2177669839\N,1.3689344274,-2.6455780456,0.4911410952\C,2.71816
 23247,-2.4442470601,0.4612303726\C,3.1546835957,-1.1578031752,0.160677
 3834\S,1.7639965632,-0.1354886207,-0.1026254085\C,4.5310582992,-0.6687
 668401,0.0679920308\C,4.8924021408,0.6740615274,0.3082210641\N,6.15071
 37935,1.1152699434,0.2332313171\C,7.0912863042,0.1948910195,-0.0771965
 347\N,6.8797177104,-1.1122793516,-0.3351694005\C,5.6082593662,-1.51878
 22482,-0.2690713473\C,8.4760333752,0.6967512465,-0.1376622924\N,9.5436
 067571,-0.0175101219,-0.4208044215\C,10.6645857806,0.769243594,-0.3870
 929526\C,10.4627231078,2.099804268,-0.0760126419\S,8.7833901759,2.4020
 331334,0.1926416777\H,-11.5025971956,2.9429983189,0.1134729151\H,-11.6
 369640382,0.4625530234,-0.45470852\H,-9.1762859736,3.9011670275,0.5459
 858007\H,-5.5961710382,-2.7897622265,-0.646623853\H,-3.4639365581,-3.0
 919296642,0.553181107\H,-2.8252264773,1.0817894727,-0.4735595236\H,3.3
 878497451,-3.2819681961,0.6962477162\H,4.126220649,1.4202214632,0.5803
 60536\H,5.4254301746,-2.5792002535,-0.5113375675\H,11.6427308535,0.320
 1581253,-0.6023079887\H,11.2060749865,2.8998662096,0.0060779828\\Versi
 on=EM64L-G16RevA.03\State=1-A\HF=-2492.6508439\S2=0.\S2-1=0.\S2A=0.\RM
 SD=6.276e-09\RMSF=4.539e-06\Dipole=-1.7201152,1.5924018,0.1427587\Quad
 rupole=24.2949673,-8.7613319,-15.5336355,-8.8477163,-0.201137,0.669335
 5\PG=C01 [X(C21H11N9S3)]\\@


 HICKORY, DICKORY, DOCK
 TWO MICE RAN UP THE CLOCK
 THE CLOCK STRUCK ONE...
 THE OTHER ESCAPED WITH MINOR INJURIES.
 Job cpu time:       0 days  8 hours 13 minutes 45.7 seconds.
 Elapsed time:       0 days  1 hours  2 minutes 11.1 seconds.
 File lengths (MBytes):  RWF=    368 Int=      0 D2E=      0 Chk=     32 Scr=      8
 Normal termination of Gaussian 16 at Sat Jul 25 11:29:16 2020.
