 Entering Gaussian System, Link 0=g16
 Input=mols_65_3_02_c-c-CF_opt_0.gjf
 Output=mols_65_3_02_c-c-CF_opt_0.log
 Initial command:
 /opt/ohpc/pub/libs/gaussian/g16-A.03/sandybridge/g16/l1.exe "/mnt/gpfs2_4m/scratch/rdu230/ondemand/projects/dihedral_energies/7trial/wtuning/mols_65_3_02_c-c-CF/Gau-367750.inp" -scrdir="/mnt/gpfs2_4m/scratch/rdu230/ondemand/projects/dihedral_energies/7trial/wtuning/mols_65_3_02_c-c-CF/"
 Entering Link 1 = /opt/ohpc/pub/libs/gaussian/g16-A.03/sandybridge/g16/l1.exe PID=    367754.
  
 Copyright (c) 1988,1990,1992,1993,1995,1998,2003,2009,2016,
            Gaussian, Inc.  All Rights Reserved.
  
 This is part of the Gaussian(R) 16 program.  It is based on
 the Gaussian(R) 09 system (copyright 2009, Gaussian, Inc.),
 the Gaussian(R) 03 system (copyright 2003, Gaussian, Inc.),
 the Gaussian(R) 98 system (copyright 1998, Gaussian, Inc.),
 the Gaussian(R) 94 system (copyright 1995, Gaussian, Inc.),
 the Gaussian 92(TM) system (copyright 1992, Gaussian, Inc.),
 the Gaussian 90(TM) system (copyright 1990, Gaussian, Inc.),
 the Gaussian 88(TM) system (copyright 1988, Gaussian, Inc.),
 the Gaussian 86(TM) system (copyright 1986, Carnegie Mellon
 University), and the Gaussian 82(TM) system (copyright 1983,
 Carnegie Mellon University). Gaussian is a federally registered
 trademark of Gaussian, Inc.
  
 This software contains proprietary and confidential information,
 including trade secrets, belonging to Gaussian, Inc.
  
 This software is provided under written license and may be
 used, copied, transmitted, or stored only in accord with that
 written license.
  
 The following legend is applicable only to US Government
 contracts under FAR:
  
                    RESTRICTED RIGHTS LEGEND
  
 Use, reproduction and disclosure by the US Government is
 subject to restrictions as set forth in subparagraphs (a)
 and (c) of the Commercial Computer Software - Restricted
 Rights clause in FAR 52.227-19.
  
 Gaussian, Inc.
 340 Quinnipiac St., Bldg. 40, Wallingford CT 06492
  
  
 ---------------------------------------------------------------
 Warning -- This program may not be used in any manner that
 competes with the business of Gaussian, Inc. or will provide
 assistance to any competitor of Gaussian, Inc.  The licensee
 of this program is prohibited from giving any competitor of
 Gaussian, Inc. access to this program.  By using this program,
 the user acknowledges that Gaussian, Inc. is engaged in the
 business of creating and licensing software in the field of
 computational chemistry and represents and warrants to the
 licensee that it is not a competitor of Gaussian, Inc. and that
 it will not use this program in any manner prohibited above.
 ---------------------------------------------------------------
  

 Cite this work as:
 Gaussian 16, Revision A.03,
 M. J. Frisch, G. W. Trucks, H. B. Schlegel, G. E. Scuseria, 
 M. A. Robb, J. R. Cheeseman, G. Scalmani, V. Barone, 
 G. A. Petersson, H. Nakatsuji, X. Li, M. Caricato, A. V. Marenich, 
 J. Bloino, B. G. Janesko, R. Gomperts, B. Mennucci, H. P. Hratchian, 
 J. V. Ortiz, A. F. Izmaylov, J. L. Sonnenberg, D. Williams-Young, 
 F. Ding, F. Lipparini, F. Egidi, J. Goings, B. Peng, A. Petrone, 
 T. Henderson, D. Ranasinghe, V. G. Zakrzewski, J. Gao, N. Rega, 
 G. Zheng, W. Liang, M. Hada, M. Ehara, K. Toyota, R. Fukuda, 
 J. Hasegawa, M. Ishida, T. Nakajima, Y. Honda, O. Kitao, H. Nakai, 
 T. Vreven, K. Throssell, J. A. Montgomery, Jr., J. E. Peralta, 
 F. Ogliaro, M. J. Bearpark, J. J. Heyd, E. N. Brothers, K. N. Kudin, 
 V. N. Staroverov, T. A. Keith, R. Kobayashi, J. Normand, 
 K. Raghavachari, A. P. Rendell, J. C. Burant, S. S. Iyengar, 
 J. Tomasi, M. Cossi, J. M. Millam, M. Klene, C. Adamo, R. Cammi, 
 J. W. Ochterski, R. L. Martin, K. Morokuma, O. Farkas, 
 J. B. Foresman, and D. J. Fox, Gaussian, Inc., Wallingford CT, 2016.
 
 ******************************************
 Gaussian 16:  EM64L-G16RevA.03 25-Dec-2016
                24-Jul-2020 
 ******************************************
 %mem=30GB
 %nproc=8
 Will use up to    8 processors via shared memory.
 ---------------------------------------------------------------
 #P uLC-wPBE/cc-pVDZ iop(3/107=0429100000, 3/108=0429100000) opt
 ---------------------------------------------------------------
 1/18=20,19=15,26=3,38=1/1,3;
 2/9=110,12=2,17=6,18=5,40=1/2;
 3/5=16,11=2,25=1,30=1,71=1,74=-41,107=429100000,108=429100000,116=2/1,2,3;
 4//1;
 5/5=2,38=5/2;
 6/7=2,8=2,9=2,10=2,28=1/1;
 7//1,2,3,16;
 1/18=20,19=15,26=3/3(2);
 2/9=110/2;
 99//99;
 2/9=110/2;
 3/5=16,11=2,25=1,30=1,71=1,74=-41,107=429100000,108=429100000,116=2/1,2,3;
 4/5=5,16=3,69=1/1;
 5/5=2,38=5/2;
 7//1,2,3,16;
 1/18=20,19=15,26=3/3(-5);
 2/9=110/2;
 6/7=2,8=2,9=2,10=2,19=2,28=1/1;
 99/9=1/99;
 Leave Link    1 at Fri Jul 24 22:47:45 2020, MaxMem=  4026531840 cpu:               1.6 elap:               0.2
 (Enter /opt/ohpc/pub/libs/gaussian/g16-A.03/sandybridge/g16/l101.exe)
 -------------
 H17 C30 S3 F3
 -------------
 Symbolic Z-matrix:
 Charge =  0 Multiplicity = 1
 C                    -10.74538   2.88624   0.38462 
 C                    -9.56222   3.27652  -0.41687 
 C                    -8.50498   2.46417  -0.46129 
 C                    -8.45556   1.14377   0.15648 
 C                    -9.58451   0.74962   0.88521 
 C                    -10.67713   1.66733   1.0157 
 C                    -7.37284   0.26346  -0.00807 
 C                    -7.30149  -1.05749  -0.11168 
 F                    -8.43748  -1.81562  -0.18143 
 C                    -5.97381  -1.68797  -0.1772 
 C                    -5.04665  -0.65869  -0.12737 
 S                    -5.71349   0.81765   0.03786 
 C                    -3.54328  -0.91807  -0.16483 
 C                    -2.7063   -0.00614  -0.90283 
 C                    -1.38763  -0.26561  -0.92213 
 C                    -0.71156  -1.25469  -0.1878 
 C                    -1.63323  -2.11217   0.55057 
 C                    -2.9383   -1.92846   0.56352 
 C                     0.73732  -1.53031  -0.17938 
 C                     1.34921  -2.69449  -0.21037 
 F                     0.768    -3.9004   -0.29366 
 C                     2.84509  -2.55187  -0.20897 
 C                     3.17232  -1.2349   -0.09128 
 S                     1.77549  -0.13644  -0.09819 
 C                     4.55342  -0.60505  -0.09998 
 C                     4.86537   0.54166  -0.80213 
 C                     6.21188   0.9922   -0.6952 
 C                     7.17148   0.46331   0.0654 
 C                     6.85193  -0.70503   0.82246 
 C                     5.53074  -1.20702   0.76308 
 C                     8.52955   0.93148   0.12595 
 C                     8.87127   2.30242   0.14736 
 F                     8.02162   3.31718   0.09532 
 C                     10.34638   2.53807   0.19658 
 C                     10.96471   1.32412   0.18442 
 S                     9.89359  -0.03391   0.20832 
 H                    -11.60656   3.55225   0.46927 
 H                    -9.55317   4.28563  -0.89088 
 H                    -7.61318   2.73698  -1.07275 
 H                    -9.58118  -0.17659   1.37267 
 H                    -11.57912   1.28263   1.59154 
 H                    -5.78859  -2.73163  -0.27672 
 H                    -3.1227    0.7361   -1.5338 
 H                    -0.76114   0.45682  -1.498 
 H                    -1.1293   -2.91577   1.1902 
 H                    -3.63778  -2.60027   1.18724 
 H                     3.50328  -3.39454  -0.1863 
 H                     4.17179   0.9956   -1.4995 
 H                     6.40561   1.87245  -1.2921 
 H                     7.57248  -1.19355   1.44693 
 H                     5.24949  -2.08427   1.361 
 H                     10.85945   3.44827   0.21682 
 H                     12.07074   1.10769   0.20288 
 
 ITRead=  0  0  0  0  0  0  0  0  0  0  0  0  0  0  0  0  0  0  0  0
 ITRead=  0  0  0  0  0  0  0  0  0  0  0  0  0  0  0  0  0  0  0  0
 ITRead=  0  0  0  0  0  0  0  0  0  0  0  0  0
 MicOpt= -1 -1 -1 -1 -1 -1 -1 -1 -1 -1 -1 -1 -1 -1 -1 -1 -1 -1 -1 -1
 MicOpt= -1 -1 -1 -1 -1 -1 -1 -1 -1 -1 -1 -1 -1 -1 -1 -1 -1 -1 -1 -1
 MicOpt= -1 -1 -1 -1 -1 -1 -1 -1 -1 -1 -1 -1 -1
 NAtoms=     53 NQM=       53 NQMF=       0 NMMI=      0 NMMIF=      0
                NMic=       0 NMicF=      0.
                    Isotopes and Nuclear Properties:
 (Nuclear quadrupole moments (NQMom) in fm**2, nuclear magnetic moments (NMagM)
  in nuclear magnetons)

  Atom         1           2           3           4           5           6           7           8           9          10
 IAtWgt=          12          12          12          12          12          12          12          12          19          12
 AtmWgt=  12.0000000  12.0000000  12.0000000  12.0000000  12.0000000  12.0000000  12.0000000  12.0000000  18.9984033  12.0000000
 NucSpn=           0           0           0           0           0           0           0           0           1           0
 AtZEff=  -0.0000000  -0.0000000  -0.0000000  -0.0000000  -0.0000000  -0.0000000  -0.0000000  -0.0000000  -0.0000000  -0.0000000
 NQMom=    0.0000000   0.0000000   0.0000000   0.0000000   0.0000000   0.0000000   0.0000000   0.0000000   0.0000000   0.0000000
 NMagM=    0.0000000   0.0000000   0.0000000   0.0000000   0.0000000   0.0000000   0.0000000   0.0000000   2.6288670   0.0000000
 AtZNuc=   6.0000000   6.0000000   6.0000000   6.0000000   6.0000000   6.0000000   6.0000000   6.0000000   9.0000000   6.0000000

  Atom        11          12          13          14          15          16          17          18          19          20
 IAtWgt=          12          32          12          12          12          12          12          12          12          12
 AtmWgt=  12.0000000  31.9720718  12.0000000  12.0000000  12.0000000  12.0000000  12.0000000  12.0000000  12.0000000  12.0000000
 NucSpn=           0           0           0           0           0           0           0           0           0           0
 AtZEff=  -0.0000000  -0.0000000  -0.0000000  -0.0000000  -0.0000000  -0.0000000  -0.0000000  -0.0000000  -0.0000000  -0.0000000
 NQMom=    0.0000000   0.0000000   0.0000000   0.0000000   0.0000000   0.0000000   0.0000000   0.0000000   0.0000000   0.0000000
 NMagM=    0.0000000   0.0000000   0.0000000   0.0000000   0.0000000   0.0000000   0.0000000   0.0000000   0.0000000   0.0000000
 AtZNuc=   6.0000000  16.0000000   6.0000000   6.0000000   6.0000000   6.0000000   6.0000000   6.0000000   6.0000000   6.0000000

  Atom        21          22          23          24          25          26          27          28          29          30
 IAtWgt=          19          12          12          32          12          12          12          12          12          12
 AtmWgt=  18.9984033  12.0000000  12.0000000  31.9720718  12.0000000  12.0000000  12.0000000  12.0000000  12.0000000  12.0000000
 NucSpn=           1           0           0           0           0           0           0           0           0           0
 AtZEff=  -0.0000000  -0.0000000  -0.0000000  -0.0000000  -0.0000000  -0.0000000  -0.0000000  -0.0000000  -0.0000000  -0.0000000
 NQMom=    0.0000000   0.0000000   0.0000000   0.0000000   0.0000000   0.0000000   0.0000000   0.0000000   0.0000000   0.0000000
 NMagM=    2.6288670   0.0000000   0.0000000   0.0000000   0.0000000   0.0000000   0.0000000   0.0000000   0.0000000   0.0000000
 AtZNuc=   9.0000000   6.0000000   6.0000000  16.0000000   6.0000000   6.0000000   6.0000000   6.0000000   6.0000000   6.0000000

  Atom        31          32          33          34          35          36          37          38          39          40
 IAtWgt=          12          12          19          12          12          32           1           1           1           1
 AtmWgt=  12.0000000  12.0000000  18.9984033  12.0000000  12.0000000  31.9720718   1.0078250   1.0078250   1.0078250   1.0078250
 NucSpn=           0           0           1           0           0           0           1           1           1           1
 AtZEff=  -0.0000000  -0.0000000  -0.0000000  -0.0000000  -0.0000000  -0.0000000  -0.0000000  -0.0000000  -0.0000000  -0.0000000
 NQMom=    0.0000000   0.0000000   0.0000000   0.0000000   0.0000000   0.0000000   0.0000000   0.0000000   0.0000000   0.0000000
 NMagM=    0.0000000   0.0000000   2.6288670   0.0000000   0.0000000   0.0000000   2.7928460   2.7928460   2.7928460   2.7928460
 AtZNuc=   6.0000000   6.0000000   9.0000000   6.0000000   6.0000000  16.0000000   1.0000000   1.0000000   1.0000000   1.0000000

  Atom        41          42          43          44          45          46          47          48          49          50
 IAtWgt=           1           1           1           1           1           1           1           1           1           1
 AtmWgt=   1.0078250   1.0078250   1.0078250   1.0078250   1.0078250   1.0078250   1.0078250   1.0078250   1.0078250   1.0078250
 NucSpn=           1           1           1           1           1           1           1           1           1           1
 AtZEff=  -0.0000000  -0.0000000  -0.0000000  -0.0000000  -0.0000000  -0.0000000  -0.0000000  -0.0000000  -0.0000000  -0.0000000
 NQMom=    0.0000000   0.0000000   0.0000000   0.0000000   0.0000000   0.0000000   0.0000000   0.0000000   0.0000000   0.0000000
 NMagM=    2.7928460   2.7928460   2.7928460   2.7928460   2.7928460   2.7928460   2.7928460   2.7928460   2.7928460   2.7928460
 AtZNuc=   1.0000000   1.0000000   1.0000000   1.0000000   1.0000000   1.0000000   1.0000000   1.0000000   1.0000000   1.0000000

  Atom        51          52          53
 IAtWgt=           1           1           1
 AtmWgt=   1.0078250   1.0078250   1.0078250
 NucSpn=           1           1           1
 AtZEff=  -0.0000000  -0.0000000  -0.0000000
 NQMom=    0.0000000   0.0000000   0.0000000
 NMagM=    2.7928460   2.7928460   2.7928460
 AtZNuc=   1.0000000   1.0000000   1.0000000
 Leave Link  101 at Fri Jul 24 22:47:45 2020, MaxMem=  4026531840 cpu:               3.4 elap:               0.5
 (Enter /opt/ohpc/pub/libs/gaussian/g16-A.03/sandybridge/g16/l103.exe)

 GradGradGradGradGradGradGradGradGradGradGradGradGradGradGradGradGradGrad
 Berny optimization.
 Initialization pass.
                           ----------------------------
                           !    Initial Parameters    !
                           ! (Angstroms and Degrees)  !
 --------------------------                            --------------------------
 ! Name  Definition              Value          Derivative Info.                !
 --------------------------------------------------------------------------------
 ! R1    R(1,2)                  1.4814         estimate D2E/DX2                !
 ! R2    R(1,6)                  1.3743         estimate D2E/DX2                !
 ! R3    R(1,37)                 1.092          estimate D2E/DX2                !
 ! R4    R(2,3)                  1.334          estimate D2E/DX2                !
 ! R5    R(2,38)                 1.1149         estimate D2E/DX2                !
 ! R6    R(3,4)                  1.4586         estimate D2E/DX2                !
 ! R7    R(3,39)                 1.1152         estimate D2E/DX2                !
 ! R8    R(4,5)                  1.4003         estimate D2E/DX2                !
 ! R9    R(4,7)                  1.4051         estimate D2E/DX2                !
 ! R10   R(5,6)                  1.4328         estimate D2E/DX2                !
 ! R11   R(5,40)                 1.0467         estimate D2E/DX2                !
 ! R12   R(6,41)                 1.1372         estimate D2E/DX2                !
 ! R13   R(7,8)                  1.3269         estimate D2E/DX2                !
 ! R14   R(7,12)                 1.75           estimate D2E/DX2                !
 ! R15   R(8,9)                  1.3675         estimate D2E/DX2                !
 ! R16   R(8,10)                 1.4712         estimate D2E/DX2                !
 ! R17   R(10,11)                1.3862         estimate D2E/DX2                !
 ! R18   R(10,42)                1.0646         estimate D2E/DX2                !
 ! R19   R(11,12)                1.6284         estimate D2E/DX2                !
 ! R20   R(11,13)                1.526          estimate D2E/DX2                !
 ! R21   R(13,14)                1.4411         estimate D2E/DX2                !
 ! R22   R(13,18)                1.3847         estimate D2E/DX2                !
 ! R23   R(14,15)                1.3441         estimate D2E/DX2                !
 ! R24   R(14,43)                1.0594         estimate D2E/DX2                !
 ! R25   R(15,16)                1.4052         estimate D2E/DX2                !
 ! R26   R(15,44)                1.1163         estimate D2E/DX2                !
 ! R27   R(16,17)                1.4594         estimate D2E/DX2                !
 ! R28   R(16,19)                1.4749         estimate D2E/DX2                !
 ! R29   R(17,18)                1.318          estimate D2E/DX2                !
 ! R30   R(17,45)                1.144          estimate D2E/DX2                !
 ! R31   R(18,46)                1.1531         estimate D2E/DX2                !
 ! R32   R(19,20)                1.3156         estimate D2E/DX2                !
 ! R33   R(19,24)                1.7399         estimate D2E/DX2                !
 ! R34   R(20,21)                1.3413         estimate D2E/DX2                !
 ! R35   R(20,22)                1.5027         estimate D2E/DX2                !
 ! R36   R(22,23)                1.3621         estimate D2E/DX2                !
 ! R37   R(22,47)                1.0695         estimate D2E/DX2                !
 ! R38   R(23,24)                1.777          estimate D2E/DX2                !
 ! R39   R(23,25)                1.518          estimate D2E/DX2                !
 ! R40   R(25,26)                1.3803         estimate D2E/DX2                !
 ! R41   R(25,30)                1.4361         estimate D2E/DX2                !
 ! R42   R(26,27)                1.4239         estimate D2E/DX2                !
 ! R43   R(26,48)                1.0833         estimate D2E/DX2                !
 ! R44   R(27,28)                1.3338         estimate D2E/DX2                !
 ! R45   R(27,49)                1.0811         estimate D2E/DX2                !
 ! R46   R(28,29)                1.4284         estimate D2E/DX2                !
 ! R47   R(28,31)                1.4378         estimate D2E/DX2                !
 ! R48   R(29,30)                1.4146         estimate D2E/DX2                !
 ! R49   R(29,50)                1.0713         estimate D2E/DX2                !
 ! R50   R(30,51)                1.0983         estimate D2E/DX2                !
 ! R51   R(31,32)                1.4131         estimate D2E/DX2                !
 ! R52   R(31,36)                1.6731         estimate D2E/DX2                !
 ! R53   R(32,33)                1.3245         estimate D2E/DX2                !
 ! R54   R(32,34)                1.4946         estimate D2E/DX2                !
 ! R55   R(34,35)                1.3624         estimate D2E/DX2                !
 ! R56   R(34,52)                1.045          estimate D2E/DX2                !
 ! R57   R(35,36)                1.7298         estimate D2E/DX2                !
 ! R58   R(35,53)                1.1272         estimate D2E/DX2                !
 ! A1    A(2,1,6)              116.2607         estimate D2E/DX2                !
 ! A2    A(2,1,37)             120.7394         estimate D2E/DX2                !
 ! A3    A(6,1,37)             122.9925         estimate D2E/DX2                !
 ! A4    A(1,2,3)              119.3762         estimate D2E/DX2                !
 ! A5    A(1,2,38)             118.3557         estimate D2E/DX2                !
 ! A6    A(3,2,38)             122.0437         estimate D2E/DX2                !
 ! A7    A(2,3,4)              124.3322         estimate D2E/DX2                !
 ! A8    A(2,3,39)             120.2022         estimate D2E/DX2                !
 ! A9    A(4,3,39)             115.2516         estimate D2E/DX2                !
 ! A10   A(3,4,5)              116.6087         estimate D2E/DX2                !
 ! A11   A(3,4,7)              122.9329         estimate D2E/DX2                !
 ! A12   A(5,4,7)              120.3861         estimate D2E/DX2                !
 ! A13   A(4,5,6)              118.809          estimate D2E/DX2                !
 ! A14   A(4,5,40)             119.2669         estimate D2E/DX2                !
 ! A15   A(6,5,40)             121.7886         estimate D2E/DX2                !
 ! A16   A(1,6,5)              124.3406         estimate D2E/DX2                !
 ! A17   A(1,6,41)             119.5505         estimate D2E/DX2                !
 ! A18   A(5,6,41)             115.7405         estimate D2E/DX2                !
 ! A19   A(4,7,8)              132.3975         estimate D2E/DX2                !
 ! A20   A(4,7,12)             121.9483         estimate D2E/DX2                !
 ! A21   A(8,7,12)             105.4448         estimate D2E/DX2                !
 ! A22   A(7,8,9)              120.7444         estimate D2E/DX2                !
 ! A23   A(7,8,10)             118.5947         estimate D2E/DX2                !
 ! A24   A(9,8,10)             120.6497         estimate D2E/DX2                !
 ! A25   A(8,10,11)            106.4865         estimate D2E/DX2                !
 ! A26   A(8,10,42)            125.5399         estimate D2E/DX2                !
 ! A27   A(11,10,42)           127.9437         estimate D2E/DX2                !
 ! A28   A(10,11,12)           113.7622         estimate D2E/DX2                !
 ! A29   A(10,11,13)           122.1292         estimate D2E/DX2                !
 ! A30   A(12,11,13)           124.0576         estimate D2E/DX2                !
 ! A31   A(7,12,11)             95.6542         estimate D2E/DX2                !
 ! A32   A(11,13,14)           118.5013         estimate D2E/DX2                !
 ! A33   A(11,13,18)           122.7873         estimate D2E/DX2                !
 ! A34   A(14,13,18)           118.5131         estimate D2E/DX2                !
 ! A35   A(13,14,15)           117.0648         estimate D2E/DX2                !
 ! A36   A(13,14,43)           121.3359         estimate D2E/DX2                !
 ! A37   A(15,14,43)           120.8166         estimate D2E/DX2                !
 ! A38   A(14,15,16)           126.8984         estimate D2E/DX2                !
 ! A39   A(14,15,44)           115.6641         estimate D2E/DX2                !
 ! A40   A(16,15,44)           117.0721         estimate D2E/DX2                !
 ! A41   A(15,16,17)           111.9688         estimate D2E/DX2                !
 ! A42   A(15,16,19)           127.3846         estimate D2E/DX2                !
 ! A43   A(17,16,19)           120.5108         estimate D2E/DX2                !
 ! A44   A(16,17,18)           123.2578         estimate D2E/DX2                !
 ! A45   A(16,17,45)           114.67           estimate D2E/DX2                !
 ! A46   A(18,17,45)           121.9088         estimate D2E/DX2                !
 ! A47   A(13,18,17)           121.9485         estimate D2E/DX2                !
 ! A48   A(13,18,46)           116.3987         estimate D2E/DX2                !
 ! A49   A(17,18,46)           121.6523         estimate D2E/DX2                !
 ! A50   A(16,19,20)           128.4738         estimate D2E/DX2                !
 ! A51   A(16,19,24)           115.8945         estimate D2E/DX2                !
 ! A52   A(20,19,24)           115.627          estimate D2E/DX2                !
 ! A53   A(19,20,21)           126.5521         estimate D2E/DX2                !
 ! A54   A(19,20,22)           112.2721         estimate D2E/DX2                !
 ! A55   A(21,20,22)           121.1155         estimate D2E/DX2                !
 ! A56   A(20,22,23)           109.3297         estimate D2E/DX2                !
 ! A57   A(20,22,47)           122.5397         estimate D2E/DX2                !
 ! A58   A(23,22,47)           127.7428         estimate D2E/DX2                !
 ! A59   A(22,23,24)           114.1097         estimate D2E/DX2                !
 ! A60   A(22,23,25)           128.2628         estimate D2E/DX2                !
 ! A61   A(24,23,25)           117.3007         estimate D2E/DX2                !
 ! A62   A(19,24,23)            88.5097         estimate D2E/DX2                !
 ! A63   A(23,25,26)           123.5901         estimate D2E/DX2                !
 ! A64   A(23,25,30)           116.2189         estimate D2E/DX2                !
 ! A65   A(26,25,30)           120.0089         estimate D2E/DX2                !
 ! A66   A(25,26,27)           116.0001         estimate D2E/DX2                !
 ! A67   A(25,26,48)           122.0672         estimate D2E/DX2                !
 ! A68   A(27,26,48)           121.4143         estimate D2E/DX2                !
 ! A69   A(26,27,28)           126.7049         estimate D2E/DX2                !
 ! A70   A(26,27,49)           112.6834         estimate D2E/DX2                !
 ! A71   A(28,27,49)           120.5843         estimate D2E/DX2                !
 ! A72   A(27,28,29)           117.7507         estimate D2E/DX2                !
 ! A73   A(27,28,31)           125.0613         estimate D2E/DX2                !
 ! A74   A(29,28,31)           117.0862         estimate D2E/DX2                !
 ! A75   A(28,29,30)           118.4865         estimate D2E/DX2                !
 ! A76   A(28,29,50)           122.1031         estimate D2E/DX2                !
 ! A77   A(30,29,50)           119.3937         estimate D2E/DX2                !
 ! A78   A(25,30,29)           120.8028         estimate D2E/DX2                !
 ! A79   A(25,30,51)           119.1909         estimate D2E/DX2                !
 ! A80   A(29,30,51)           119.9854         estimate D2E/DX2                !
 ! A81   A(28,31,32)           123.0229         estimate D2E/DX2                !
 ! A82   A(28,31,36)           125.7504         estimate D2E/DX2                !
 ! A83   A(32,31,36)           111.2174         estimate D2E/DX2                !
 ! A84   A(31,32,33)           125.986          estimate D2E/DX2                !
 ! A85   A(31,32,34)           113.087          estimate D2E/DX2                !
 ! A86   A(33,32,34)           120.9043         estimate D2E/DX2                !
 ! A87   A(32,34,35)           107.8878         estimate D2E/DX2                !
 ! A88   A(32,34,52)           128.4987         estimate D2E/DX2                !
 ! A89   A(35,34,52)           123.6017         estimate D2E/DX2                !
 ! A90   A(34,35,36)           114.7323         estimate D2E/DX2                !
 ! A91   A(34,35,53)           128.0459         estimate D2E/DX2                !
 ! A92   A(36,35,53)           117.1707         estimate D2E/DX2                !
 ! A93   A(31,36,35)            92.9323         estimate D2E/DX2                !
 ! D1    D(6,1,2,3)             -1.5185         estimate D2E/DX2                !
 ! D2    D(6,1,2,38)          -176.1894         estimate D2E/DX2                !
 ! D3    D(37,1,2,3)           177.5177         estimate D2E/DX2                !
 ! D4    D(37,1,2,38)            2.8468         estimate D2E/DX2                !
 ! D5    D(2,1,6,5)             -3.4171         estimate D2E/DX2                !
 ! D6    D(2,1,6,41)          -176.142          estimate D2E/DX2                !
 ! D7    D(37,1,6,5)           177.5705         estimate D2E/DX2                !
 ! D8    D(37,1,6,41)            4.8457         estimate D2E/DX2                !
 ! D9    D(1,2,3,4)              4.6395         estimate D2E/DX2                !
 ! D10   D(1,2,3,39)           179.0653         estimate D2E/DX2                !
 ! D11   D(38,2,3,4)           179.1062         estimate D2E/DX2                !
 ! D12   D(38,2,3,39)           -6.4679         estimate D2E/DX2                !
 ! D13   D(2,3,4,5)             -2.7632         estimate D2E/DX2                !
 ! D14   D(2,3,4,7)            174.1502         estimate D2E/DX2                !
 ! D15   D(39,3,4,5)          -177.4374         estimate D2E/DX2                !
 ! D16   D(39,3,4,7)            -0.524          estimate D2E/DX2                !
 ! D17   D(3,4,5,6)             -2.1205         estimate D2E/DX2                !
 ! D18   D(3,4,5,40)          -177.965          estimate D2E/DX2                !
 ! D19   D(7,4,5,6)           -179.1174         estimate D2E/DX2                !
 ! D20   D(7,4,5,40)             5.0381         estimate D2E/DX2                !
 ! D21   D(3,4,7,8)           -144.3009         estimate D2E/DX2                !
 ! D22   D(3,4,7,12)            41.776          estimate D2E/DX2                !
 ! D23   D(5,4,7,8)             32.4999         estimate D2E/DX2                !
 ! D24   D(5,4,7,12)          -141.4233         estimate D2E/DX2                !
 ! D25   D(4,5,6,1)              5.2854         estimate D2E/DX2                !
 ! D26   D(4,5,6,41)           178.2607         estimate D2E/DX2                !
 ! D27   D(40,5,6,1)          -178.9795         estimate D2E/DX2                !
 ! D28   D(40,5,6,41)           -6.0042         estimate D2E/DX2                !
 ! D29   D(4,7,8,9)              5.7638         estimate D2E/DX2                !
 ! D30   D(4,7,8,10)          -175.4461         estimate D2E/DX2                !
 ! D31   D(12,7,8,9)          -179.5835         estimate D2E/DX2                !
 ! D32   D(12,7,8,10)           -0.7934         estimate D2E/DX2                !
 ! D33   D(4,7,12,11)          177.1202         estimate D2E/DX2                !
 ! D34   D(8,7,12,11)            1.7724         estimate D2E/DX2                !
 ! D35   D(7,8,10,11)           -0.8036         estimate D2E/DX2                !
 ! D36   D(7,8,10,42)         -178.9413         estimate D2E/DX2                !
 ! D37   D(9,8,10,11)          177.9877         estimate D2E/DX2                !
 ! D38   D(9,8,10,42)           -0.1501         estimate D2E/DX2                !
 ! D39   D(8,10,11,12)           2.1825         estimate D2E/DX2                !
 ! D40   D(8,10,11,13)         179.6835         estimate D2E/DX2                !
 ! D41   D(42,10,11,12)       -179.739          estimate D2E/DX2                !
 ! D42   D(42,10,11,13)         -2.238          estimate D2E/DX2                !
 ! D43   D(10,11,12,7)          -2.4083         estimate D2E/DX2                !
 ! D44   D(13,11,12,7)        -179.8538         estimate D2E/DX2                !
 ! D45   D(10,11,13,14)        141.9612         estimate D2E/DX2                !
 ! D46   D(10,11,13,18)        -43.2365         estimate D2E/DX2                !
 ! D47   D(12,11,13,14)        -40.7997         estimate D2E/DX2                !
 ! D48   D(12,11,13,18)        134.0026         estimate D2E/DX2                !
 ! D49   D(11,13,14,15)       -179.6801         estimate D2E/DX2                !
 ! D50   D(11,13,14,43)         -9.7352         estimate D2E/DX2                !
 ! D51   D(18,13,14,15)          5.2921         estimate D2E/DX2                !
 ! D52   D(18,13,14,43)        175.237          estimate D2E/DX2                !
 ! D53   D(11,13,18,17)       -177.8947         estimate D2E/DX2                !
 ! D54   D(11,13,18,46)          1.8721         estimate D2E/DX2                !
 ! D55   D(14,13,18,17)         -3.093          estimate D2E/DX2                !
 ! D56   D(14,13,18,46)        176.6738         estimate D2E/DX2                !
 ! D57   D(13,14,15,16)         -7.0328         estimate D2E/DX2                !
 ! D58   D(13,14,15,44)       -179.841          estimate D2E/DX2                !
 ! D59   D(43,14,15,16)       -177.033          estimate D2E/DX2                !
 ! D60   D(43,14,15,44)         10.1588         estimate D2E/DX2                !
 ! D61   D(14,15,16,17)          5.649          estimate D2E/DX2                !
 ! D62   D(14,15,16,19)       -178.6165         estimate D2E/DX2                !
 ! D63   D(44,15,16,17)        178.3686         estimate D2E/DX2                !
 ! D64   D(44,15,16,19)         -5.8969         estimate D2E/DX2                !
 ! D65   D(15,16,17,18)         -2.8451         estimate D2E/DX2                !
 ! D66   D(15,16,17,45)       -178.2732         estimate D2E/DX2                !
 ! D67   D(19,16,17,18)       -178.9116         estimate D2E/DX2                !
 ! D68   D(19,16,17,45)          5.6602         estimate D2E/DX2                !
 ! D69   D(15,16,19,20)       -137.2224         estimate D2E/DX2                !
 ! D70   D(15,16,19,24)         43.6071         estimate D2E/DX2                !
 ! D71   D(17,16,19,20)         38.1853         estimate D2E/DX2                !
 ! D72   D(17,16,19,24)       -140.9851         estimate D2E/DX2                !
 ! D73   D(16,17,18,13)          1.99           estimate D2E/DX2                !
 ! D74   D(16,17,18,46)       -177.7646         estimate D2E/DX2                !
 ! D75   D(45,17,18,13)        177.0951         estimate D2E/DX2                !
 ! D76   D(45,17,18,46)         -2.6594         estimate D2E/DX2                !
 ! D77   D(16,19,20,21)          1.9404         estimate D2E/DX2                !
 ! D78   D(16,19,20,22)        179.1193         estimate D2E/DX2                !
 ! D79   D(24,19,20,21)       -178.8873         estimate D2E/DX2                !
 ! D80   D(24,19,20,22)         -1.7084         estimate D2E/DX2                !
 ! D81   D(16,19,24,23)        178.7722         estimate D2E/DX2                !
 ! D82   D(20,19,24,23)         -0.5075         estimate D2E/DX2                !
 ! D83   D(19,20,22,23)          3.7543         estimate D2E/DX2                !
 ! D84   D(19,20,22,47)        177.1128         estimate D2E/DX2                !
 ! D85   D(21,20,22,23)       -178.8927         estimate D2E/DX2                !
 ! D86   D(21,20,22,47)         -5.5342         estimate D2E/DX2                !
 ! D87   D(20,22,23,24)         -4.1562         estimate D2E/DX2                !
 ! D88   D(20,22,23,25)       -177.3435         estimate D2E/DX2                !
 ! D89   D(47,22,23,24)       -177.0736         estimate D2E/DX2                !
 ! D90   D(47,22,23,25)          9.7391         estimate D2E/DX2                !
 ! D91   D(22,23,24,19)          2.8508         estimate D2E/DX2                !
 ! D92   D(25,23,24,19)        176.8342         estimate D2E/DX2                !
 ! D93   D(22,23,25,26)        136.0589         estimate D2E/DX2                !
 ! D94   D(22,23,25,30)        -48.8569         estimate D2E/DX2                !
 ! D95   D(24,23,25,26)        -36.9423         estimate D2E/DX2                !
 ! D96   D(24,23,25,30)        138.1418         estimate D2E/DX2                !
 ! D97   D(23,25,26,27)        179.9498         estimate D2E/DX2                !
 ! D98   D(23,25,26,48)         -8.2042         estimate D2E/DX2                !
 ! D99   D(30,25,26,27)          5.043          estimate D2E/DX2                !
 ! D100  D(30,25,26,48)        176.889          estimate D2E/DX2                !
 ! D101  D(23,25,30,29)        179.4515         estimate D2E/DX2                !
 ! D102  D(23,25,30,51)          1.1168         estimate D2E/DX2                !
 ! D103  D(26,25,30,29)         -5.277          estimate D2E/DX2                !
 ! D104  D(26,25,30,51)        176.3884         estimate D2E/DX2                !
 ! D105  D(25,26,27,28)         -3.9034         estimate D2E/DX2                !
 ! D106  D(25,26,27,49)        178.0091         estimate D2E/DX2                !
 ! D107  D(48,26,27,28)       -175.8071         estimate D2E/DX2                !
 ! D108  D(48,26,27,49)          6.1054         estimate D2E/DX2                !
 ! D109  D(26,27,28,29)          2.4608         estimate D2E/DX2                !
 ! D110  D(26,27,28,31)        178.6746         estimate D2E/DX2                !
 ! D111  D(49,27,28,29)       -179.5889         estimate D2E/DX2                !
 ! D112  D(49,27,28,31)         -3.3751         estimate D2E/DX2                !
 ! D113  D(27,28,29,30)         -2.235          estimate D2E/DX2                !
 ! D114  D(27,28,29,50)        179.2596         estimate D2E/DX2                !
 ! D115  D(31,28,29,30)       -178.7545         estimate D2E/DX2                !
 ! D116  D(31,28,29,50)          2.7401         estimate D2E/DX2                !
 ! D117  D(27,28,31,32)         41.356          estimate D2E/DX2                !
 ! D118  D(27,28,31,36)       -139.8511         estimate D2E/DX2                !
 ! D119  D(29,28,31,32)       -142.4074         estimate D2E/DX2                !
 ! D120  D(29,28,31,36)         36.3855         estimate D2E/DX2                !
 ! D121  D(28,29,30,25)          3.6916         estimate D2E/DX2                !
 ! D122  D(28,29,30,51)       -177.987          estimate D2E/DX2                !
 ! D123  D(50,29,30,25)       -177.7616         estimate D2E/DX2                !
 ! D124  D(50,29,30,51)          0.5599         estimate D2E/DX2                !
 ! D125  D(28,31,32,33)         -1.1008         estimate D2E/DX2                !
 ! D126  D(28,31,32,34)       -179.3669         estimate D2E/DX2                !
 ! D127  D(36,31,32,33)        179.9501         estimate D2E/DX2                !
 ! D128  D(36,31,32,34)          1.6841         estimate D2E/DX2                !
 ! D129  D(28,31,36,35)        178.1179         estimate D2E/DX2                !
 ! D130  D(32,31,36,35)         -2.9678         estimate D2E/DX2                !
 ! D131  D(31,32,34,35)          1.0073         estimate D2E/DX2                !
 ! D132  D(31,32,34,52)        179.7772         estimate D2E/DX2                !
 ! D133  D(33,32,34,35)       -177.3575         estimate D2E/DX2                !
 ! D134  D(33,32,34,52)          1.4123         estimate D2E/DX2                !
 ! D135  D(32,34,35,36)         -3.2556         estimate D2E/DX2                !
 ! D136  D(32,34,35,53)        179.444          estimate D2E/DX2                !
 ! D137  D(52,34,35,36)        177.9003         estimate D2E/DX2                !
 ! D138  D(52,34,35,53)          0.5999         estimate D2E/DX2                !
 ! D139  D(34,35,36,31)          3.7944         estimate D2E/DX2                !
 ! D140  D(53,35,36,31)       -178.595          estimate D2E/DX2                !
 --------------------------------------------------------------------------------
 Trust Radius=3.00D-01 FncErr=1.00D-07 GrdErr=1.00D-06 EigMax=2.50D+02 EigMin=1.00D-04
 Number of steps in this run=    301 maximum allowed number of steps=    318.
 GradGradGradGradGradGradGradGradGradGradGradGradGradGradGradGradGradGrad

 Leave Link  103 at Fri Jul 24 22:47:45 2020, MaxMem=  4026531840 cpu:               0.3 elap:               0.1
 (Enter /opt/ohpc/pub/libs/gaussian/g16-A.03/sandybridge/g16/l202.exe)
 Stoichiometry    C30H17F3S3
 Framework group  C1[X(C30H17F3S3)]
 Deg. of freedom   153
 Full point group                 C1      NOp   1
 Largest Abelian subgroup         C1      NOp   1
 Largest concise Abelian subgroup C1      NOp   1
                         Standard orientation:                         
 ---------------------------------------------------------------------
 Center     Atomic      Atomic             Coordinates (Angstroms)
 Number     Number       Type             X           Y           Z
 ---------------------------------------------------------------------
      1          6           0      -10.740196    2.889239    0.383507
      2          6           0       -9.556807    3.278827   -0.417984
      3          6           0       -8.500046    2.465855   -0.462400
      4          6           0       -8.451412    1.145428    0.155366
      5          6           0       -9.580591    0.751941    0.884098
      6          6           0      -10.672674    1.670286    1.014586
      7          6           0       -7.369208    0.264472   -0.009180
      8          6           0       -7.298637   -1.056512   -0.112794
      9          9           0       -8.435065   -1.813978   -0.182542
     10          6           0       -5.971329   -1.687776   -0.178311
     11          6           0       -5.043561   -0.659042   -0.128476
     12         16           0       -5.709533    0.817684    0.036746
     13          6           0       -3.540344   -0.919306   -0.165942
     14          6           0       -2.702828   -0.007871   -0.903941
     15          6           0       -1.384306   -0.268119   -0.923240
     16          6           0       -0.708816   -1.257590   -0.188912
     17          6           0       -1.630993   -2.114532    0.549456
     18          6           0       -2.935960   -1.930050    0.562410
     19          6           0        0.739896   -1.534067   -0.180487
     20          6           0        1.351096   -2.698606   -0.211477
     21          9           0        0.769180   -3.904176   -0.294769
     22          6           0        2.847062   -2.556868   -0.210080
     23          6           0        3.175073   -1.240096   -0.092392
     24         16           0        1.778888   -0.140805   -0.099303
     25          6           0        4.556540   -0.611053   -0.101094
     26          6           0        4.869162    0.535471   -0.803239
     27          6           0        6.215942    0.985218   -0.696307
     28          6           0        7.175229    0.455760    0.064289
     29          6           0        6.854994   -0.712390    0.821351
     30          6           0        5.533507   -1.213595    0.761972
     31          6           0        8.533578    0.923132    0.124840
     32          6           0        8.876096    2.293878    0.146253
     33          9           0        8.027053    3.309135    0.094208
     34          6           0       10.351354    2.528652    0.195470
     35          6           0       10.968969    1.314346    0.183310
     36         16           0        9.897042   -0.043059    0.207213
     37          1           0      -11.600986    3.555753    0.468155
     38          1           0       -9.547170    4.287927   -0.891986
     39          1           0       -7.608092    2.738141   -1.073865
     40          1           0       -9.577804   -0.174276    1.371559
     41          1           0      -11.574888    1.286120    1.590424
     42          1           0       -5.786715   -2.731541   -0.277830
     43          1           0       -3.118786    0.734609   -1.534910
     44          1           0       -0.757394    0.453946   -1.499108
     45          1           0       -1.127538   -2.918427    1.189092
     46          1           0       -3.635834   -2.601456    1.186124
     47          1           0        3.504757   -3.399921   -0.187411
     48          1           0        4.175853    0.989821   -1.500615
     49          1           0        6.410193    1.865356   -1.293215
     50          1           0        7.575250   -1.201332    1.445814
     51          1           0        5.251736   -2.090681    1.359893
     52          1           0       10.864956    3.438553    0.215705
     53          1           0       12.074868    1.097262    0.201773
 ---------------------------------------------------------------------
 Rotational constants (GHZ):           0.2862017           0.0207007           0.0194758
 Leave Link  202 at Fri Jul 24 22:47:45 2020, MaxMem=  4026531840 cpu:               0.3 elap:               0.1
 (Enter /opt/ohpc/pub/libs/gaussian/g16-A.03/sandybridge/g16/l301.exe)
 Standard basis: CC-pVDZ (5D, 7F)
 Ernie: Thresh=  0.10000D-02 Tol=  0.10000D-05 Strict=F.
 Ernie:  96 primitive shells out of 961 were deleted.
 There are   637 symmetry adapted cartesian basis functions of A   symmetry.
 There are   601 symmetry adapted basis functions of A   symmetry.
   601 basis functions,  1421 primitive gaussians,   637 cartesian basis functions
   136 alpha electrons      136 beta electrons
       nuclear repulsion energy      3609.5653657573 Hartrees.
 IExCor=32609 DFT=T Ex+Corr=LC-wPBE ExCW=0 ScaHFX=  1.000000
 ScaDFX=  1.000000  0.000000  1.000000  1.000000 ScalE2=  1.000000  1.000000
 IRadAn=      5 IRanWt=     -1 IRanGd=            0 ICorTp=0 IEmpDi=  4
 HFx  wShort=  0.000000 wLong=  0.429100 cFull=  0.000000 cShort=  0.000000 cLong=  1.000000
 DFx  wShort=  0.000000 wLong=  0.429100 cFull=  0.000000 cShort=  0.000000 cLong=  1.000000
 NAtoms=   53 NActive=   53 NUniq=   53 SFac= 1.00D+00 NAtFMM=   60 NAOKFM=F Big=F
 Integral buffers will be    131072 words long.
 Raffenetti 2 integral format.
 Two-electron integral symmetry is turned on.
 Leave Link  301 at Fri Jul 24 22:47:45 2020, MaxMem=  4026531840 cpu:               0.7 elap:               0.1
 (Enter /opt/ohpc/pub/libs/gaussian/g16-A.03/sandybridge/g16/l302.exe)
 NPDir=0 NMtPBC=     1 NCelOv=     1 NCel=       1 NClECP=     1 NCelD=      1
         NCelK=      1 NCelE2=     1 NClLst=     1 CellRange=     0.0.
 One-electron integrals computed using PRISM.
 One-electron integral symmetry used in STVInt
 NBasis=   601 RedAO= T EigKep=  2.86D-04  NBF=   601
 NBsUse=   601 1.00D-06 EigRej= -1.00D+00 NBFU=   601
 Precomputing XC quadrature grid using
 IXCGrd= 4 IRadAn=           5 IRanWt=          -1 IRanGd=           0 AccXCQ= 0.00D+00.
 Generated NRdTot=       0 NPtTot=           0 NUsed=           0 NTot=          32
 NSgBfM=   562   562   562   562   562 MxSgAt=    53 MxSgA2=    53.
 Leave Link  302 at Fri Jul 24 22:47:47 2020, MaxMem=  4026531840 cpu:              15.8 elap:               2.0
 (Enter /opt/ohpc/pub/libs/gaussian/g16-A.03/sandybridge/g16/l303.exe)
 DipDrv:  MaxL=1.
 Leave Link  303 at Fri Jul 24 22:47:48 2020, MaxMem=  4026531840 cpu:               1.2 elap:               0.2
 (Enter /opt/ohpc/pub/libs/gaussian/g16-A.03/sandybridge/g16/l401.exe)
 ExpMin= 1.22D-01 ExpMax= 1.11D+05 ExpMxC= 1.07D+03 IAcc=3 IRadAn=         5 AccDes= 0.00D+00
 Harris functional with IExCor=32609 and IRadAn=       5 diagonalized for initial guess.
 HarFok:  IExCor=32609 AccDes= 0.00D+00 IRadAn=         5 IDoV= 1 UseB2=F ITyADJ=14
 ICtDFT=  3500011 ScaDFX=  1.000000  1.000000  1.000000  1.000000
 FoFCou: FMM=F IPFlag=           0 FMFlag=      100000 FMFlg1=           0
         NFxFlg=           0 DoJE=T BraDBF=F KetDBF=T FulRan=T
         wScrn=  0.000000 ICntrl=       500 IOpCl=  0 I1Cent=   200000004 NGrid=           0
         NMat0=    1 NMatS0=      1 NMatT0=    0 NMatD0=    1 NMtDS0=    0 NMtDT0=    0
 Petite list used in FoFCou.
 Harris En= -2645.80190131241    
 JPrj=0 DoOrth=F DoCkMO=F.
 Initial guess <Sx>= 0.0000 <Sy>= 0.0000 <Sz>= 0.0000 <S**2>=-0.0000 S=-0.0000
 Leave Link  401 at Fri Jul 24 22:47:57 2020, MaxMem=  4026531840 cpu:              72.7 elap:               9.2
 (Enter /opt/ohpc/pub/libs/gaussian/g16-A.03/sandybridge/g16/l502.exe)
 Integral symmetry usage will be decided dynamically.
 UHF open shell SCF:
 Using DIIS extrapolation, IDIIS=  1040.
 NGot=  4026531840 LenX=  4025708801 LenY=  4025302395
 Requested convergence on RMS density matrix=1.00D-08 within 128 cycles.
 Requested convergence on MAX density matrix=1.00D-06.
 Requested convergence on             energy=1.00D-06.
 No special actions if energy rises.
 Fock matrices will be formed incrementally for  20 cycles.
 Integral accuracy reduced to 1.0D-05 until final iterations.

 Cycle   1  Pass 0  IDiag  1:
 FoFJK:  IHMeth= 1 ICntrl=       0 DoSepK=T KAlg= 0 I1Cent=           0 FoldK=F
 IRaf=         1 NMat=       1 IRICut=       1 DoRegI=T DoRafI=F ISym2E= 0 IDoP0=0 IntGTp=1.
 FoFCou: FMM=F IPFlag=           0 FMFlag=      100000 FMFlg1=           0
         NFxFlg=           0 DoJE=T BraDBF=F KetDBF=F FulRan=T
         wScrn=  0.000000 ICntrl=       500 IOpCl=  0 I1Cent=           0 NGrid=           0
         NMat0=    1 NMatS0=      1 NMatT0=    0 NMatD0=    1 NMtDS0=    0 NMtDT0=    0
 Symmetry not used in FoFCou.
 E= -2645.39358971934    
 DIIS: error= 2.49D-02 at cycle   1 NSaved=   1.
 NSaved= 1 IEnMin= 1 EnMin= -2645.39358971934     IErMin= 1 ErrMin= 2.49D-02
 ErrMax= 2.49D-02  0.00D+00 EMaxC= 1.00D-01 BMatC= 2.51D+00 BMatP= 2.51D+00
 IDIUse=3 WtCom= 7.51D-01 WtEn= 2.49D-01
 Coeff-Com:  0.100D+01
 Coeff-En:   0.100D+01
 Coeff:      0.100D+01
 Gap=     0.397 Goal=   None    Shift=    0.000
 Gap=     0.397 Goal=   None    Shift=    0.000
 GapD=    0.397 DampG=1.000 DampE=0.500 DampFc=0.5000 IDamp=-1.
 Damping current iteration by 5.00D-01
 RMSDP=2.85D-03 MaxDP=1.25D-01              OVMax= 1.54D-01

 Cycle   2  Pass 0  IDiag  1:
 RMSU=  1.40D-03    CP:  9.82D-01
 E= -2645.78786180969     Delta-E=       -0.394272090351 Rises=F Damp=T
 DIIS: error= 6.61D-03 at cycle   2 NSaved=   2.
 NSaved= 2 IEnMin= 2 EnMin= -2645.78786180969     IErMin= 2 ErrMin= 6.61D-03
 ErrMax= 6.61D-03  0.00D+00 EMaxC= 1.00D-01 BMatC= 1.57D-01 BMatP= 2.51D+00
 IDIUse=3 WtCom= 9.34D-01 WtEn= 6.61D-02
 Coeff-Com: -0.176D+00 0.118D+01
 Coeff-En:   0.000D+00 0.100D+01
 Coeff:     -0.164D+00 0.116D+01
 Gap=     0.318 Goal=   None    Shift=    0.000
 Gap=     0.318 Goal=   None    Shift=    0.000
 RMSDP=9.64D-04 MaxDP=2.85D-02 DE=-3.94D-01 OVMax= 8.96D-02

 Cycle   3  Pass 0  IDiag  1:
 RMSU=  7.64D-04    CP:  9.68D-01  1.39D+00
 E= -2646.13302435120     Delta-E=       -0.345162541511 Rises=F Damp=F
 DIIS: error= 1.31D-03 at cycle   3 NSaved=   3.
 NSaved= 3 IEnMin= 3 EnMin= -2646.13302435120     IErMin= 3 ErrMin= 1.31D-03
 ErrMax= 1.31D-03  0.00D+00 EMaxC= 1.00D-01 BMatC= 1.55D-02 BMatP= 1.57D-01
 IDIUse=3 WtCom= 9.87D-01 WtEn= 1.31D-02
 Coeff-Com: -0.502D-01 0.236D+00 0.814D+00
 Coeff-En:   0.000D+00 0.000D+00 0.100D+01
 Coeff:     -0.495D-01 0.233D+00 0.817D+00
 Gap=     0.307 Goal=   None    Shift=    0.000
 Gap=     0.307 Goal=   None    Shift=    0.000
 RMSDP=1.87D-04 MaxDP=1.06D-02 DE=-3.45D-01 OVMax= 2.92D-02

 Cycle   4  Pass 0  IDiag  1:
 RMSU=  1.79D-04    CP:  9.67D-01  1.43D+00  9.84D-01
 E= -2646.13785848300     Delta-E=       -0.004834131798 Rises=F Damp=F
 DIIS: error= 7.51D-04 at cycle   4 NSaved=   4.
 NSaved= 4 IEnMin= 4 EnMin= -2646.13785848300     IErMin= 4 ErrMin= 7.51D-04
 ErrMax= 7.51D-04  0.00D+00 EMaxC= 1.00D-01 BMatC= 5.11D-03 BMatP= 1.55D-02
 IDIUse=3 WtCom= 9.92D-01 WtEn= 7.51D-03
 Coeff-Com:  0.236D-02-0.258D-01 0.331D+00 0.693D+00
 Coeff-En:   0.000D+00 0.000D+00 0.000D+00 0.100D+01
 Coeff:      0.234D-02-0.257D-01 0.328D+00 0.695D+00
 Gap=     0.310 Goal=   None    Shift=    0.000
 Gap=     0.310 Goal=   None    Shift=    0.000
 RMSDP=8.52D-05 MaxDP=4.37D-03 DE=-4.83D-03 OVMax= 9.53D-03

 Cycle   5  Pass 0  IDiag  1:
 RMSU=  6.52D-05    CP:  9.67D-01  1.43D+00  1.05D+00  9.01D-01
 E= -2646.13963353072     Delta-E=       -0.001775047725 Rises=F Damp=F
 DIIS: error= 2.28D-04 at cycle   5 NSaved=   5.
 NSaved= 5 IEnMin= 5 EnMin= -2646.13963353072     IErMin= 5 ErrMin= 2.28D-04
 ErrMax= 2.28D-04  0.00D+00 EMaxC= 1.00D-01 BMatC= 4.03D-04 BMatP= 5.11D-03
 IDIUse=3 WtCom= 9.98D-01 WtEn= 2.28D-03
 Coeff-Com:  0.975D-02-0.403D-01-0.429D-01 0.117D+00 0.956D+00
 Coeff-En:   0.000D+00 0.000D+00 0.000D+00 0.000D+00 0.100D+01
 Coeff:      0.973D-02-0.402D-01-0.428D-01 0.117D+00 0.956D+00
 Gap=     0.312 Goal=   None    Shift=    0.000
 Gap=     0.312 Goal=   None    Shift=    0.000
 RMSDP=4.39D-05 MaxDP=2.81D-03 DE=-1.78D-03 OVMax= 7.43D-03

 Cycle   6  Pass 0  IDiag  1:
 RMSU=  2.49D-05    CP:  9.66D-01  1.43D+00  1.08D+00  1.04D+00  1.29D+00
 E= -2646.13998175473     Delta-E=       -0.000348224008 Rises=F Damp=F
 DIIS: error= 1.27D-04 at cycle   6 NSaved=   6.
 NSaved= 6 IEnMin= 6 EnMin= -2646.13998175473     IErMin= 6 ErrMin= 1.27D-04
 ErrMax= 1.27D-04  0.00D+00 EMaxC= 1.00D-01 BMatC= 7.45D-05 BMatP= 4.03D-04
 IDIUse=3 WtCom= 9.99D-01 WtEn= 1.27D-03
 Coeff-Com:  0.227D-02-0.571D-02-0.480D-01-0.769D-01 0.144D+00 0.985D+00
 Coeff-En:   0.000D+00 0.000D+00 0.000D+00 0.000D+00 0.000D+00 0.100D+01
 Coeff:      0.226D-02-0.570D-02-0.479D-01-0.768D-01 0.143D+00 0.985D+00
 Gap=     0.312 Goal=   None    Shift=    0.000
 Gap=     0.312 Goal=   None    Shift=    0.000
 RMSDP=2.32D-05 MaxDP=1.28D-03 DE=-3.48D-04 OVMax= 3.82D-03

 Cycle   7  Pass 0  IDiag  1:
 RMSU=  1.13D-05    CP:  9.67D-01  1.43D+00  1.09D+00  1.09D+00  1.52D+00
                    CP:  1.33D+00
 E= -2646.14006101928     Delta-E=       -0.000079264550 Rises=F Damp=F
 DIIS: error= 4.36D-05 at cycle   7 NSaved=   7.
 NSaved= 7 IEnMin= 7 EnMin= -2646.14006101928     IErMin= 7 ErrMin= 4.36D-05
 ErrMax= 4.36D-05  0.00D+00 EMaxC= 1.00D-01 BMatC= 2.21D-05 BMatP= 7.45D-05
 IDIUse=1 WtCom= 1.00D+00 WtEn= 0.00D+00
 Coeff-Com: -0.944D-03 0.594D-02-0.557D-02-0.533D-01-0.167D+00 0.363D+00
 Coeff-Com:  0.858D+00
 Coeff:     -0.944D-03 0.594D-02-0.557D-02-0.533D-01-0.167D+00 0.363D+00
 Coeff:      0.858D+00
 Gap=     0.313 Goal=   None    Shift=    0.000
 Gap=     0.313 Goal=   None    Shift=    0.000
 RMSDP=1.16D-05 MaxDP=6.66D-04 DE=-7.93D-05 OVMax= 1.84D-03

 Cycle   8  Pass 0  IDiag  1:
 RMSU=  4.74D-06    CP:  9.67D-01  1.43D+00  1.09D+00  1.10D+00  1.61D+00
                    CP:  1.64D+00  1.13D+00
 E= -2646.14007525164     Delta-E=       -0.000014232364 Rises=F Damp=F
 DIIS: error= 2.28D-05 at cycle   8 NSaved=   8.
 NSaved= 8 IEnMin= 8 EnMin= -2646.14007525164     IErMin= 8 ErrMin= 2.28D-05
 ErrMax= 2.28D-05  0.00D+00 EMaxC= 1.00D-01 BMatC= 3.00D-06 BMatP= 2.21D-05
 IDIUse=1 WtCom= 1.00D+00 WtEn= 0.00D+00
 Coeff-Com: -0.511D-03 0.255D-02 0.457D-02-0.914D-02-0.758D-01-0.657D-02
 Coeff-Com:  0.279D+00 0.805D+00
 Coeff:     -0.511D-03 0.255D-02 0.457D-02-0.914D-02-0.758D-01-0.657D-02
 Coeff:      0.279D+00 0.805D+00
 Gap=     0.313 Goal=   None    Shift=    0.000
 Gap=     0.313 Goal=   None    Shift=    0.000
 RMSDP=3.89D-06 MaxDP=2.04D-04 DE=-1.42D-05 OVMax= 5.72D-04

 Initial convergence to 1.0D-05 achieved.  Increase integral accuracy.
 Cycle   9  Pass 1  IDiag  1:
 E= -2646.13956042540     Delta-E=        0.000514826248 Rises=F Damp=F
 DIIS: error= 1.91D-04 at cycle   1 NSaved=   1.
 NSaved= 1 IEnMin= 1 EnMin= -2646.13956042540     IErMin= 1 ErrMin= 1.91D-04
 ErrMax= 1.91D-04  0.00D+00 EMaxC= 1.00D-01 BMatC= 3.51D-05 BMatP= 3.51D-05
 IDIUse=3 WtCom= 9.98D-01 WtEn= 1.91D-03
 Coeff-Com:  0.100D+01
 Coeff-En:   0.100D+01
 Coeff:      0.100D+01
 Gap=     0.313 Goal=   None    Shift=    0.000
 Gap=     0.313 Goal=   None    Shift=    0.000
 RMSDP=3.89D-06 MaxDP=2.04D-04 DE= 5.15D-04 OVMax= 2.80D-04

 Cycle  10  Pass 1  IDiag  1:
 RMSU=  9.22D-05    CP:  1.00D+00
 E= -2646.13956705623     Delta-E=       -0.000006630835 Rises=F Damp=F
 DIIS: error= 1.18D-05 at cycle   2 NSaved=   2.
 NSaved= 2 IEnMin= 2 EnMin= -2646.13956705623     IErMin= 2 ErrMin= 1.18D-05
 ErrMax= 1.18D-05  0.00D+00 EMaxC= 1.00D-01 BMatC= 7.62D-07 BMatP= 3.51D-05
 IDIUse=1 WtCom= 1.00D+00 WtEn= 0.00D+00
 Coeff-Com:  0.265D-02 0.997D+00
 Coeff:      0.265D-02 0.997D+00
 Gap=     0.313 Goal=   None    Shift=    0.000
 Gap=     0.313 Goal=   None    Shift=    0.000
 RMSDP=4.69D-06 MaxDP=1.25D-04 DE=-6.63D-06 OVMax= 1.86D-04

 Cycle  11  Pass 1  IDiag  1:
 RMSU=  2.05D-06    CP:  1.00D+00  1.05D+00
 E= -2646.13956701175     Delta-E=        0.000000044482 Rises=F Damp=F
 DIIS: error= 1.43D-05 at cycle   3 NSaved=   3.
 NSaved= 3 IEnMin= 2 EnMin= -2646.13956705623     IErMin= 2 ErrMin= 1.18D-05
 ErrMax= 1.43D-05  0.00D+00 EMaxC= 1.00D-01 BMatC= 1.02D-06 BMatP= 7.62D-07
 IDIUse=1 WtCom= 1.00D+00 WtEn= 0.00D+00
 Coeff-Com: -0.198D-01 0.548D+00 0.472D+00
 Coeff:     -0.198D-01 0.548D+00 0.472D+00
 Gap=     0.313 Goal=   None    Shift=    0.000
 Gap=     0.313 Goal=   None    Shift=    0.000
 RMSDP=8.94D-07 MaxDP=5.99D-05 DE= 4.45D-08 OVMax= 1.00D-04

 Cycle  12  Pass 1  IDiag  1:
 RMSU=  6.79D-07    CP:  1.00D+00  1.05D+00  7.39D-01
 E= -2646.13956728403     Delta-E=       -0.000000272284 Rises=F Damp=F
 DIIS: error= 2.27D-06 at cycle   4 NSaved=   4.
 NSaved= 4 IEnMin= 4 EnMin= -2646.13956728403     IErMin= 4 ErrMin= 2.27D-06
 ErrMax= 2.27D-06  0.00D+00 EMaxC= 1.00D-01 BMatC= 9.41D-09 BMatP= 7.62D-07
 IDIUse=1 WtCom= 1.00D+00 WtEn= 0.00D+00
 Coeff-Com: -0.988D-03-0.589D-02 0.204D-01 0.986D+00
 Coeff:     -0.988D-03-0.589D-02 0.204D-01 0.986D+00
 Gap=     0.313 Goal=   None    Shift=    0.000
 Gap=     0.313 Goal=   None    Shift=    0.000
 RMSDP=2.36D-07 MaxDP=1.08D-05 DE=-2.72D-07 OVMax= 3.39D-05

 Cycle  13  Pass 1  IDiag  1:
 RMSU=  1.78D-07    CP:  1.00D+00  1.05D+00  7.89D-01  1.14D+00
 E= -2646.13956728703     Delta-E=       -0.000000002999 Rises=F Damp=F
 DIIS: error= 1.31D-06 at cycle   5 NSaved=   5.
 NSaved= 5 IEnMin= 5 EnMin= -2646.13956728703     IErMin= 5 ErrMin= 1.31D-06
 ErrMax= 1.31D-06  0.00D+00 EMaxC= 1.00D-01 BMatC= 3.99D-09 BMatP= 9.41D-09
 IDIUse=1 WtCom= 1.00D+00 WtEn= 0.00D+00
 Coeff-Com:  0.590D-02-0.175D+00-0.142D+00 0.356D+00 0.955D+00
 Coeff:      0.590D-02-0.175D+00-0.142D+00 0.356D+00 0.955D+00
 Gap=     0.313 Goal=   None    Shift=    0.000
 Gap=     0.313 Goal=   None    Shift=    0.000
 RMSDP=1.73D-07 MaxDP=9.12D-06 DE=-3.00D-09 OVMax= 2.86D-05

 Cycle  14  Pass 1  IDiag  1:
 RMSU=  9.48D-08    CP:  1.00D+00  1.05D+00  8.10D-01  1.26D+00  1.60D+00
 E= -2646.13956734014     Delta-E=       -0.000000053106 Rises=F Damp=F
 DIIS: error= 4.62D-07 at cycle   6 NSaved=   6.
 NSaved= 6 IEnMin= 6 EnMin= -2646.13956734014     IErMin= 6 ErrMin= 4.62D-07
 ErrMax= 4.62D-07  0.00D+00 EMaxC= 1.00D-01 BMatC= 4.43D-10 BMatP= 3.99D-09
 IDIUse=1 WtCom= 1.00D+00 WtEn= 0.00D+00
 Coeff-Com:  0.955D-03-0.222D-01-0.229D-01-0.129D+00 0.124D+00 0.105D+01
 Coeff:      0.955D-03-0.222D-01-0.229D-01-0.129D+00 0.124D+00 0.105D+01
 Gap=     0.313 Goal=   None    Shift=    0.000
 Gap=     0.313 Goal=   None    Shift=    0.000
 RMSDP=7.47D-08 MaxDP=3.41D-06 DE=-5.31D-08 OVMax= 1.25D-05

 Cycle  15  Pass 1  IDiag  1:
 RMSU=  2.71D-08    CP:  1.00D+00  1.05D+00  8.10D-01  1.28D+00  1.95D+00
                    CP:  1.26D+00
 E= -2646.13956734074     Delta-E=       -0.000000000600 Rises=F Damp=F
 DIIS: error= 2.33D-07 at cycle   7 NSaved=   7.
 NSaved= 7 IEnMin= 7 EnMin= -2646.13956734074     IErMin= 7 ErrMin= 2.33D-07
 ErrMax= 2.33D-07  0.00D+00 EMaxC= 1.00D-01 BMatC= 1.10D-10 BMatP= 4.43D-10
 IDIUse=1 WtCom= 1.00D+00 WtEn= 0.00D+00
 Coeff-Com: -0.512D-03 0.178D-01 0.124D-01-0.109D+00-0.931D-01 0.459D+00
 Coeff-Com:  0.714D+00
 Coeff:     -0.512D-03 0.178D-01 0.124D-01-0.109D+00-0.931D-01 0.459D+00
 Coeff:      0.714D+00
 Gap=     0.313 Goal=   None    Shift=    0.000
 Gap=     0.313 Goal=   None    Shift=    0.000
 RMSDP=2.04D-08 MaxDP=8.35D-07 DE=-6.00D-10 OVMax= 3.19D-06

 Cycle  16  Pass 1  IDiag  1:
 RMSU=  1.08D-08    CP:  1.00D+00  1.05D+00  8.09D-01  1.28D+00  2.02D+00
                    CP:  1.36D+00  9.96D-01
 E= -2646.13956734071     Delta-E=        0.000000000027 Rises=F Damp=F
 DIIS: error= 6.93D-08 at cycle   8 NSaved=   8.
 NSaved= 8 IEnMin= 7 EnMin= -2646.13956734074     IErMin= 8 ErrMin= 6.93D-08
 ErrMax= 6.93D-08  0.00D+00 EMaxC= 1.00D-01 BMatC= 6.14D-12 BMatP= 1.10D-10
 IDIUse=1 WtCom= 1.00D+00 WtEn= 0.00D+00
 Coeff-Com: -0.957D-04 0.243D-02 0.230D-02 0.614D-02-0.160D-01-0.733D-01
 Coeff-Com:  0.397D-01 0.104D+01
 Coeff:     -0.957D-04 0.243D-02 0.230D-02 0.614D-02-0.160D-01-0.733D-01
 Coeff:      0.397D-01 0.104D+01
 Gap=     0.313 Goal=   None    Shift=    0.000
 Gap=     0.313 Goal=   None    Shift=    0.000
 RMSDP=6.45D-09 MaxDP=2.13D-07 DE= 2.73D-11 OVMax= 1.21D-06

 SCF Done:  E(ULC-wPBE) =  -2646.13956734     A.U. after   16 cycles
            NFock= 16  Conv=0.65D-08     -V/T= 2.0047
 <Sx>= 0.0000 <Sy>= 0.0000 <Sz>= 0.0000 <S**2>=-0.0000 S=-0.0000
 <L.S>= 0.000000000000E+00
 KE= 2.633667071093D+03 PE=-1.344367190488D+04 EE= 4.554299900691D+03
 Annihilation of the first spin contaminant:
 S**2 before annihilation    -0.0000,   after     0.0000
 Leave Link  502 at Fri Jul 24 22:58:57 2020, MaxMem=  4026531840 cpu:            5260.4 elap:             659.7
 (Enter /opt/ohpc/pub/libs/gaussian/g16-A.03/sandybridge/g16/l601.exe)
 Copying SCF densities to generalized density rwf, IOpCl= 1 IROHF=0.

 **********************************************************************

            Population analysis using the SCF density.

 **********************************************************************

 Orbital symmetries:
 Alpha Orbitals:
       Occupied  (A) (A) (A) (A) (A) (A) (A) (A) (A) (A) (A) (A)
                 (A) (A) (A) (A) (A) (A) (A) (A) (A) (A) (A) (A)
                 (A) (A) (A) (A) (A) (A) (A) (A) (A) (A) (A) (A)
                 (A) (A) (A) (A) (A) (A) (A) (A) (A) (A) (A) (A)
                 (A) (A) (A) (A) (A) (A) (A) (A) (A) (A) (A) (A)
                 (A) (A) (A) (A) (A) (A) (A) (A) (A) (A) (A) (A)
                 (A) (A) (A) (A) (A) (A) (A) (A) (A) (A) (A) (A)
                 (A) (A) (A) (A) (A) (A) (A) (A) (A) (A) (A) (A)
                 (A) (A) (A) (A) (A) (A) (A) (A) (A) (A) (A) (A)
                 (A) (A) (A) (A) (A) (A) (A) (A) (A) (A) (A) (A)
                 (A) (A) (A) (A) (A) (A) (A) (A) (A) (A) (A) (A)
                 (A) (A) (A) (A)
       Virtual   (A) (A) (A) (A) (A) (A) (A) (A) (A) (A) (A) (A)
                 (A) (A) (A) (A) (A) (A) (A) (A) (A) (A) (A) (A)
                 (A) (A) (A) (A) (A) (A) (A) (A) (A) (A) (A) (A)
                 (A) (A) (A) (A) (A) (A) (A) (A) (A) (A) (A) (A)
                 (A) (A) (A) (A) (A) (A) (A) (A) (A) (A) (A) (A)
                 (A) (A) (A) (A) (A) (A) (A) (A) (A) (A) (A) (A)
                 (A) (A) (A) (A) (A) (A) (A) (A) (A) (A) (A) (A)
                 (A) (A) (A) (A) (A) (A) (A) (A) (A) (A) (A) (A)
                 (A) (A) (A) (A) (A) (A) (A) (A) (A) (A) (A) (A)
                 (A) (A) (A) (A) (A) (A) (A) (A) (A) (A) (A) (A)
                 (A) (A) (A) (A) (A) (A) (A) (A) (A) (A) (A) (A)
                 (A) (A) (A) (A) (A) (A) (A) (A) (A) (A) (A) (A)
                 (A) (A) (A) (A) (A) (A) (A) (A) (A) (A) (A) (A)
                 (A) (A) (A) (A) (A) (A) (A) (A) (A) (A) (A) (A)
                 (A) (A) (A) (A) (A) (A) (A) (A) (A) (A) (A) (A)
                 (A) (A) (A) (A) (A) (A) (A) (A) (A) (A) (A) (A)
                 (A) (A) (A) (A) (A) (A) (A) (A) (A) (A) (A) (A)
                 (A) (A) (A) (A) (A) (A) (A) (A) (A) (A) (A) (A)
                 (A) (A) (A) (A) (A) (A) (A) (A) (A) (A) (A) (A)
                 (A) (A) (A) (A) (A) (A) (A) (A) (A) (A) (A) (A)
                 (A) (A) (A) (A) (A) (A) (A) (A) (A) (A) (A) (A)
                 (A) (A) (A) (A) (A) (A) (A) (A) (A) (A) (A) (A)
                 (A) (A) (A) (A) (A) (A) (A) (A) (A) (A) (A) (A)
                 (A) (A) (A) (A) (A) (A) (A) (A) (A) (A) (A) (A)
                 (A) (A) (A) (A) (A) (A) (A) (A) (A) (A) (A) (A)
                 (A) (A) (A) (A) (A) (A) (A) (A) (A) (A) (A) (A)
                 (A) (A) (A) (A) (A) (A) (A) (A) (A) (A) (A) (A)
                 (A) (A) (A) (A) (A) (A) (A) (A) (A) (A) (A) (A)
                 (A) (A) (A) (A) (A) (A) (A) (A) (A) (A) (A) (A)
                 (A) (A) (A) (A) (A) (A) (A) (A) (A) (A) (A) (A)
                 (A) (A) (A) (A) (A) (A) (A) (A) (A) (A) (A) (A)
                 (A) (A) (A) (A) (A) (A) (A) (A) (A) (A) (A) (A)
                 (A) (A) (A) (A) (A) (A) (A) (A) (A) (A) (A) (A)
                 (A) (A) (A) (A) (A) (A) (A) (A) (A) (A) (A) (A)
                 (A) (A) (A) (A) (A) (A) (A) (A) (A) (A) (A) (A)
                 (A) (A) (A) (A) (A) (A) (A) (A) (A) (A) (A) (A)
                 (A) (A) (A) (A) (A) (A) (A) (A) (A) (A) (A) (A)
                 (A) (A) (A) (A) (A) (A) (A) (A) (A) (A) (A) (A)
                 (A) (A) (A) (A) (A) (A) (A) (A) (A)
 Beta  Orbitals:
       Occupied  (A) (A) (A) (A) (A) (A) (A) (A) (A) (A) (A) (A)
                 (A) (A) (A) (A) (A) (A) (A) (A) (A) (A) (A) (A)
                 (A) (A) (A) (A) (A) (A) (A) (A) (A) (A) (A) (A)
                 (A) (A) (A) (A) (A) (A) (A) (A) (A) (A) (A) (A)
                 (A) (A) (A) (A) (A) (A) (A) (A) (A) (A) (A) (A)
                 (A) (A) (A) (A) (A) (A) (A) (A) (A) (A) (A) (A)
                 (A) (A) (A) (A) (A) (A) (A) (A) (A) (A) (A) (A)
                 (A) (A) (A) (A) (A) (A) (A) (A) (A) (A) (A) (A)
                 (A) (A) (A) (A) (A) (A) (A) (A) (A) (A) (A) (A)
                 (A) (A) (A) (A) (A) (A) (A) (A) (A) (A) (A) (A)
                 (A) (A) (A) (A) (A) (A) (A) (A) (A) (A) (A) (A)
                 (A) (A) (A) (A)
       Virtual   (A) (A) (A) (A) (A) (A) (A) (A) (A) (A) (A) (A)
                 (A) (A) (A) (A) (A) (A) (A) (A) (A) (A) (A) (A)
                 (A) (A) (A) (A) (A) (A) (A) (A) (A) (A) (A) (A)
                 (A) (A) (A) (A) (A) (A) (A) (A) (A) (A) (A) (A)
                 (A) (A) (A) (A) (A) (A) (A) (A) (A) (A) (A) (A)
                 (A) (A) (A) (A) (A) (A) (A) (A) (A) (A) (A) (A)
                 (A) (A) (A) (A) (A) (A) (A) (A) (A) (A) (A) (A)
                 (A) (A) (A) (A) (A) (A) (A) (A) (A) (A) (A) (A)
                 (A) (A) (A) (A) (A) (A) (A) (A) (A) (A) (A) (A)
                 (A) (A) (A) (A) (A) (A) (A) (A) (A) (A) (A) (A)
                 (A) (A) (A) (A) (A) (A) (A) (A) (A) (A) (A) (A)
                 (A) (A) (A) (A) (A) (A) (A) (A) (A) (A) (A) (A)
                 (A) (A) (A) (A) (A) (A) (A) (A) (A) (A) (A) (A)
                 (A) (A) (A) (A) (A) (A) (A) (A) (A) (A) (A) (A)
                 (A) (A) (A) (A) (A) (A) (A) (A) (A) (A) (A) (A)
                 (A) (A) (A) (A) (A) (A) (A) (A) (A) (A) (A) (A)
                 (A) (A) (A) (A) (A) (A) (A) (A) (A) (A) (A) (A)
                 (A) (A) (A) (A) (A) (A) (A) (A) (A) (A) (A) (A)
                 (A) (A) (A) (A) (A) (A) (A) (A) (A) (A) (A) (A)
                 (A) (A) (A) (A) (A) (A) (A) (A) (A) (A) (A) (A)
                 (A) (A) (A) (A) (A) (A) (A) (A) (A) (A) (A) (A)
                 (A) (A) (A) (A) (A) (A) (A) (A) (A) (A) (A) (A)
                 (A) (A) (A) (A) (A) (A) (A) (A) (A) (A) (A) (A)
                 (A) (A) (A) (A) (A) (A) (A) (A) (A) (A) (A) (A)
                 (A) (A) (A) (A) (A) (A) (A) (A) (A) (A) (A) (A)
                 (A) (A) (A) (A) (A) (A) (A) (A) (A) (A) (A) (A)
                 (A) (A) (A) (A) (A) (A) (A) (A) (A) (A) (A) (A)
                 (A) (A) (A) (A) (A) (A) (A) (A) (A) (A) (A) (A)
                 (A) (A) (A) (A) (A) (A) (A) (A) (A) (A) (A) (A)
                 (A) (A) (A) (A) (A) (A) (A) (A) (A) (A) (A) (A)
                 (A) (A) (A) (A) (A) (A) (A) (A) (A) (A) (A) (A)
                 (A) (A) (A) (A) (A) (A) (A) (A) (A) (A) (A) (A)
                 (A) (A) (A) (A) (A) (A) (A) (A) (A) (A) (A) (A)
                 (A) (A) (A) (A) (A) (A) (A) (A) (A) (A) (A) (A)
                 (A) (A) (A) (A) (A) (A) (A) (A) (A) (A) (A) (A)
                 (A) (A) (A) (A) (A) (A) (A) (A) (A) (A) (A) (A)
                 (A) (A) (A) (A) (A) (A) (A) (A) (A) (A) (A) (A)
                 (A) (A) (A) (A) (A) (A) (A) (A) (A) (A) (A) (A)
                 (A) (A) (A) (A) (A) (A) (A) (A) (A)
 The electronic state is 1-A.
 Alpha  occ. eigenvalues --  -88.35078 -88.34809 -88.34313 -24.53258 -24.53101
 Alpha  occ. eigenvalues --  -24.51142 -10.24030 -10.23441 -10.22592 -10.19744
 Alpha  occ. eigenvalues --  -10.18743 -10.18724 -10.18052 -10.18036 -10.17520
 Alpha  occ. eigenvalues --  -10.17507 -10.17462 -10.17068 -10.16580 -10.16434
 Alpha  occ. eigenvalues --  -10.16381 -10.16181 -10.16112 -10.15901 -10.15856
 Alpha  occ. eigenvalues --  -10.15552 -10.15366 -10.15236 -10.15218 -10.15137
 Alpha  occ. eigenvalues --  -10.15106 -10.15064 -10.15010 -10.14925 -10.14823
 Alpha  occ. eigenvalues --  -10.14554  -7.95973  -7.95522  -7.95352  -5.97373
 Alpha  occ. eigenvalues --   -5.96970  -5.96835  -5.96746  -5.96470  -5.96401
 Alpha  occ. eigenvalues --   -5.96183  -5.95880  -5.95773  -1.38121  -1.37397
 Alpha  occ. eigenvalues --   -1.34902  -1.08525  -1.07573  -1.07128  -1.04374
 Alpha  occ. eigenvalues --   -1.03474  -1.02306  -0.97265  -0.95722  -0.93605
 Alpha  occ. eigenvalues --   -0.92894  -0.91857  -0.91045  -0.90892  -0.90116
 Alpha  occ. eigenvalues --   -0.89721  -0.89220  -0.87364  -0.85698  -0.79715
 Alpha  occ. eigenvalues --   -0.78373  -0.77792  -0.77024  -0.75652  -0.74831
 Alpha  occ. eigenvalues --   -0.72874  -0.72543  -0.72037  -0.71200  -0.70581
 Alpha  occ. eigenvalues --   -0.70468  -0.69420  -0.68613  -0.67749  -0.64174
 Alpha  occ. eigenvalues --   -0.62896  -0.62429  -0.62183  -0.61729  -0.61492
 Alpha  occ. eigenvalues --   -0.61305  -0.60816  -0.60329  -0.60234  -0.59799
 Alpha  occ. eigenvalues --   -0.58970  -0.58524  -0.57960  -0.57590  -0.56812
 Alpha  occ. eigenvalues --   -0.56304  -0.55768  -0.55542  -0.55365  -0.54495
 Alpha  occ. eigenvalues --   -0.54247  -0.53634  -0.52997  -0.52627  -0.52308
 Alpha  occ. eigenvalues --   -0.51082  -0.50738  -0.50552  -0.49991  -0.49906
 Alpha  occ. eigenvalues --   -0.49413  -0.48495  -0.48329  -0.47995  -0.47411
 Alpha  occ. eigenvalues --   -0.47018  -0.46083  -0.45041  -0.44162  -0.41646
 Alpha  occ. eigenvalues --   -0.40349  -0.38745  -0.38164  -0.37140  -0.36967
 Alpha  occ. eigenvalues --   -0.36605  -0.36403  -0.35775  -0.34132  -0.32159
 Alpha  occ. eigenvalues --   -0.30559
 Alpha virt. eigenvalues --    0.00698   0.02664   0.04921   0.05389   0.07038
 Alpha virt. eigenvalues --    0.07560   0.08004   0.09661   0.10582   0.11340
 Alpha virt. eigenvalues --    0.12819   0.13716   0.14583   0.15116   0.15582
 Alpha virt. eigenvalues --    0.15789   0.16245   0.16815   0.17030   0.18070
 Alpha virt. eigenvalues --    0.18308   0.19122   0.19287   0.19903   0.20046
 Alpha virt. eigenvalues --    0.20969   0.21331   0.21864   0.22447   0.22797
 Alpha virt. eigenvalues --    0.23410   0.24265   0.24332   0.25188   0.25481
 Alpha virt. eigenvalues --    0.25995   0.26748   0.27186   0.27755   0.28541
 Alpha virt. eigenvalues --    0.29308   0.31416   0.32702   0.32806   0.34377
 Alpha virt. eigenvalues --    0.34727   0.35666   0.35800   0.36710   0.36881
 Alpha virt. eigenvalues --    0.37080   0.37755   0.38197   0.39052   0.39533
 Alpha virt. eigenvalues --    0.40383   0.40865   0.41395   0.41747   0.43562
 Alpha virt. eigenvalues --    0.43872   0.45549   0.46493   0.47972   0.49472
 Alpha virt. eigenvalues --    0.50301   0.51155   0.51945   0.52865   0.52909
 Alpha virt. eigenvalues --    0.53079   0.53411   0.54078   0.54510   0.54796
 Alpha virt. eigenvalues --    0.54916   0.55234   0.55367   0.55736   0.55877
 Alpha virt. eigenvalues --    0.56046   0.56409   0.56544   0.56975   0.57352
 Alpha virt. eigenvalues --    0.57437   0.57993   0.58148   0.58470   0.59006
 Alpha virt. eigenvalues --    0.59037   0.59371   0.59515   0.59941   0.60118
 Alpha virt. eigenvalues --    0.60215   0.60354   0.60915   0.61015   0.61513
 Alpha virt. eigenvalues --    0.62009   0.62080   0.62510   0.62586   0.62638
 Alpha virt. eigenvalues --    0.63416   0.63579   0.63801   0.63957   0.64202
 Alpha virt. eigenvalues --    0.64374   0.64591   0.64950   0.65275   0.65872
 Alpha virt. eigenvalues --    0.65975   0.66447   0.66951   0.67008   0.67796
 Alpha virt. eigenvalues --    0.68163   0.68349   0.68656   0.68822   0.69693
 Alpha virt. eigenvalues --    0.70524   0.71073   0.71339   0.71713   0.72313
 Alpha virt. eigenvalues --    0.72533   0.72782   0.73405   0.73605   0.74257
 Alpha virt. eigenvalues --    0.74919   0.75019   0.75390   0.75763   0.76428
 Alpha virt. eigenvalues --    0.76728   0.77000   0.77488   0.77954   0.78204
 Alpha virt. eigenvalues --    0.78616   0.78795   0.78905   0.79586   0.79817
 Alpha virt. eigenvalues --    0.80848   0.81007   0.81082   0.81592   0.81714
 Alpha virt. eigenvalues --    0.81978   0.82929   0.83039   0.83496   0.83872
 Alpha virt. eigenvalues --    0.84843   0.85396   0.85797   0.86341   0.86680
 Alpha virt. eigenvalues --    0.87704   0.88875   0.89628   0.90046   0.90761
 Alpha virt. eigenvalues --    0.91475   0.92683   0.93538   0.94897   0.95730
 Alpha virt. eigenvalues --    0.95921   0.96990   0.97129   0.97506   0.98573
 Alpha virt. eigenvalues --    0.98752   0.99062   1.00123   1.00512   1.01521
 Alpha virt. eigenvalues --    1.01801   1.02631   1.02766   1.03374   1.03660
 Alpha virt. eigenvalues --    1.04080   1.04729   1.05436   1.05775   1.06292
 Alpha virt. eigenvalues --    1.06628   1.06871   1.07065   1.07760   1.08537
 Alpha virt. eigenvalues --    1.08677   1.09047   1.09504   1.09939   1.10141
 Alpha virt. eigenvalues --    1.10645   1.11402   1.12182   1.12586   1.12862
 Alpha virt. eigenvalues --    1.13196   1.13545   1.14090   1.14667   1.14891
 Alpha virt. eigenvalues --    1.15422   1.16097   1.16403   1.16773   1.17142
 Alpha virt. eigenvalues --    1.17273   1.17918   1.18149   1.18444   1.19070
 Alpha virt. eigenvalues --    1.19416   1.19868   1.20772   1.21390   1.22633
 Alpha virt. eigenvalues --    1.22710   1.23269   1.24379   1.25298   1.26005
 Alpha virt. eigenvalues --    1.26203   1.26837   1.27756   1.28808   1.29956
 Alpha virt. eigenvalues --    1.30638   1.31160   1.31524   1.33109   1.33558
 Alpha virt. eigenvalues --    1.34071   1.34797   1.35324   1.36827   1.37475
 Alpha virt. eigenvalues --    1.39808   1.40167   1.40831   1.41647   1.42000
 Alpha virt. eigenvalues --    1.42780   1.43377   1.43765   1.43899   1.44373
 Alpha virt. eigenvalues --    1.45145   1.45835   1.46426   1.47437   1.49147
 Alpha virt. eigenvalues --    1.50406   1.50728   1.52056   1.52492   1.54124
 Alpha virt. eigenvalues --    1.55270   1.55434   1.55818   1.56027   1.56220
 Alpha virt. eigenvalues --    1.56915   1.57702   1.58345   1.58785   1.60342
 Alpha virt. eigenvalues --    1.60982   1.61146   1.61413   1.61712   1.61981
 Alpha virt. eigenvalues --    1.63090   1.63345   1.63924   1.64079   1.64429
 Alpha virt. eigenvalues --    1.64712   1.65161   1.66383   1.66681   1.67133
 Alpha virt. eigenvalues --    1.68378   1.69063   1.69511   1.69935   1.71122
 Alpha virt. eigenvalues --    1.71193   1.71355   1.71862   1.72566   1.72972
 Alpha virt. eigenvalues --    1.73415   1.73843   1.74352   1.74877   1.75254
 Alpha virt. eigenvalues --    1.75901   1.75988   1.76772   1.77047   1.77330
 Alpha virt. eigenvalues --    1.77768   1.78717   1.79028   1.79814   1.80231
 Alpha virt. eigenvalues --    1.80662   1.81474   1.82195   1.82608   1.82718
 Alpha virt. eigenvalues --    1.83160   1.83486   1.84746   1.84793   1.86083
 Alpha virt. eigenvalues --    1.86595   1.87244   1.87770   1.88108   1.88626
 Alpha virt. eigenvalues --    1.89599   1.90038   1.90249   1.90632   1.91718
 Alpha virt. eigenvalues --    1.92349   1.92855   1.93126   1.93530   1.93705
 Alpha virt. eigenvalues --    1.94189   1.94354   1.94985   1.95065   1.95810
 Alpha virt. eigenvalues --    1.96488   1.96553   1.96834   1.98467   1.98604
 Alpha virt. eigenvalues --    1.99238   2.00094   2.00214   2.00950   2.01631
 Alpha virt. eigenvalues --    2.02620   2.03198   2.03666   2.04538   2.05951
 Alpha virt. eigenvalues --    2.06904   2.08053   2.08438   2.08736   2.09231
 Alpha virt. eigenvalues --    2.09515   2.09688   2.10064   2.10460   2.10852
 Alpha virt. eigenvalues --    2.11732   2.12309   2.13327   2.14243   2.15235
 Alpha virt. eigenvalues --    2.15985   2.16501   2.17548   2.17916   2.18500
 Alpha virt. eigenvalues --    2.18800   2.19141   2.20281   2.21426   2.24949
 Alpha virt. eigenvalues --    2.26191   2.26601   2.28076   2.29111   2.29928
 Alpha virt. eigenvalues --    2.33237   2.33998   2.34408   2.35264   2.37804
 Alpha virt. eigenvalues --    2.39012   2.39374   2.40452   2.40978   2.42979
 Alpha virt. eigenvalues --    2.44047   2.47027   2.47783   2.49610   2.51155
 Alpha virt. eigenvalues --    2.51445   2.52342   2.52898   2.53572   2.54129
 Alpha virt. eigenvalues --    2.54535   2.56036   2.56502   2.57533   2.59273
 Alpha virt. eigenvalues --    2.61169   2.61791   2.62016   2.67708   2.67820
 Alpha virt. eigenvalues --    2.68645   2.74266   2.74436   2.74696   2.75721
 Alpha virt. eigenvalues --    2.77255   2.77928   2.79254   2.79788   2.81433
 Alpha virt. eigenvalues --    2.84898   2.85128   2.87281   2.91631   2.93375
 Alpha virt. eigenvalues --    2.93514   3.01784   3.02421   3.03623   3.06640
 Alpha virt. eigenvalues --    3.11390   3.15018   3.52630   3.56726   3.61956
 Alpha virt. eigenvalues --    3.67692   3.67958   3.68999   3.69567   3.69796
 Alpha virt. eigenvalues --    3.71566   3.87939   3.88872   3.89200   4.06564
 Alpha virt. eigenvalues --    4.06684   4.06794   4.28172   4.28439   4.30103
  Beta  occ. eigenvalues --  -88.35078 -88.34809 -88.34313 -24.53258 -24.53101
  Beta  occ. eigenvalues --  -24.51142 -10.24030 -10.23441 -10.22592 -10.19744
  Beta  occ. eigenvalues --  -10.18743 -10.18724 -10.18052 -10.18036 -10.17520
  Beta  occ. eigenvalues --  -10.17507 -10.17462 -10.17068 -10.16580 -10.16434
  Beta  occ. eigenvalues --  -10.16381 -10.16181 -10.16112 -10.15901 -10.15856
  Beta  occ. eigenvalues --  -10.15552 -10.15366 -10.15236 -10.15218 -10.15137
  Beta  occ. eigenvalues --  -10.15106 -10.15064 -10.15010 -10.14925 -10.14823
  Beta  occ. eigenvalues --  -10.14554  -7.95973  -7.95522  -7.95352  -5.97373
  Beta  occ. eigenvalues --   -5.96970  -5.96835  -5.96746  -5.96470  -5.96401
  Beta  occ. eigenvalues --   -5.96183  -5.95880  -5.95773  -1.38121  -1.37397
  Beta  occ. eigenvalues --   -1.34902  -1.08525  -1.07573  -1.07128  -1.04374
  Beta  occ. eigenvalues --   -1.03474  -1.02306  -0.97265  -0.95722  -0.93605
  Beta  occ. eigenvalues --   -0.92894  -0.91857  -0.91045  -0.90892  -0.90116
  Beta  occ. eigenvalues --   -0.89721  -0.89220  -0.87364  -0.85698  -0.79715
  Beta  occ. eigenvalues --   -0.78373  -0.77792  -0.77024  -0.75652  -0.74831
  Beta  occ. eigenvalues --   -0.72874  -0.72543  -0.72037  -0.71200  -0.70581
  Beta  occ. eigenvalues --   -0.70468  -0.69420  -0.68613  -0.67749  -0.64174
  Beta  occ. eigenvalues --   -0.62896  -0.62429  -0.62183  -0.61729  -0.61492
  Beta  occ. eigenvalues --   -0.61305  -0.60816  -0.60329  -0.60234  -0.59799
  Beta  occ. eigenvalues --   -0.58970  -0.58524  -0.57960  -0.57590  -0.56812
  Beta  occ. eigenvalues --   -0.56304  -0.55768  -0.55542  -0.55365  -0.54495
  Beta  occ. eigenvalues --   -0.54247  -0.53634  -0.52997  -0.52627  -0.52308
  Beta  occ. eigenvalues --   -0.51082  -0.50738  -0.50552  -0.49991  -0.49906
  Beta  occ. eigenvalues --   -0.49413  -0.48495  -0.48329  -0.47995  -0.47411
  Beta  occ. eigenvalues --   -0.47018  -0.46083  -0.45041  -0.44162  -0.41646
  Beta  occ. eigenvalues --   -0.40349  -0.38745  -0.38164  -0.37140  -0.36967
  Beta  occ. eigenvalues --   -0.36605  -0.36403  -0.35775  -0.34132  -0.32159
  Beta  occ. eigenvalues --   -0.30559
  Beta virt. eigenvalues --    0.00698   0.02664   0.04921   0.05389   0.07038
  Beta virt. eigenvalues --    0.07560   0.08004   0.09661   0.10582   0.11340
  Beta virt. eigenvalues --    0.12819   0.13716   0.14583   0.15116   0.15582
  Beta virt. eigenvalues --    0.15789   0.16245   0.16815   0.17030   0.18070
  Beta virt. eigenvalues --    0.18308   0.19122   0.19287   0.19903   0.20046
  Beta virt. eigenvalues --    0.20969   0.21331   0.21864   0.22447   0.22797
  Beta virt. eigenvalues --    0.23410   0.24265   0.24332   0.25188   0.25481
  Beta virt. eigenvalues --    0.25995   0.26748   0.27186   0.27755   0.28541
  Beta virt. eigenvalues --    0.29308   0.31416   0.32702   0.32806   0.34377
  Beta virt. eigenvalues --    0.34727   0.35666   0.35800   0.36710   0.36881
  Beta virt. eigenvalues --    0.37080   0.37755   0.38197   0.39052   0.39533
  Beta virt. eigenvalues --    0.40383   0.40865   0.41395   0.41747   0.43562
  Beta virt. eigenvalues --    0.43872   0.45549   0.46493   0.47972   0.49472
  Beta virt. eigenvalues --    0.50301   0.51155   0.51945   0.52865   0.52909
  Beta virt. eigenvalues --    0.53079   0.53411   0.54078   0.54510   0.54796
  Beta virt. eigenvalues --    0.54916   0.55234   0.55367   0.55736   0.55877
  Beta virt. eigenvalues --    0.56046   0.56409   0.56544   0.56975   0.57352
[...]
     5   Atom       -0.000000      0.000000      0.000000
     6   Atom       -0.000000      0.000000      0.000000
     7   Atom       -0.000000      0.000000      0.000000
     8   Atom        0.000000      0.000000      0.000000
     9   Atom       -0.000000     -0.000000     -0.000000
    10   Atom       -0.000000     -0.000000      0.000000
    11   Atom        0.000000      0.000000      0.000000
    12   Atom        0.000000      0.000000      0.000000
    13   Atom       -0.000000      0.000000      0.000000
    14   Atom       -0.000000      0.000000      0.000000
    15   Atom       -0.000000     -0.000000     -0.000000
    16   Atom        0.000000     -0.000000     -0.000000
    17   Atom        0.000000     -0.000000     -0.000000
    18   Atom        0.000000      0.000000      0.000000
    19   Atom       -0.000000     -0.000000      0.000000
    20   Atom       -0.000000      0.000000      0.000000
    21   Atom        0.000000      0.000000     -0.000000
    22   Atom        0.000000      0.000000      0.000000
    23   Atom       -0.000000      0.000000     -0.000000
    24   Atom       -0.000000     -0.000000     -0.000000
    25   Atom        0.000000     -0.000000      0.000000
    26   Atom        0.000000      0.000000      0.000000
    27   Atom       -0.000000     -0.000000      0.000000
    28   Atom       -0.000000     -0.000000     -0.000000
    29   Atom       -0.000000     -0.000000      0.000000
    30   Atom        0.000000     -0.000000      0.000000
    31   Atom       -0.000000      0.000000      0.000000
    32   Atom        0.000000     -0.000000      0.000000
    33   Atom       -0.000000      0.000000     -0.000000
    34   Atom        0.000000      0.000000      0.000000
    35   Atom       -0.000000     -0.000000     -0.000000
    36   Atom        0.000000      0.000000     -0.000000
    37   Atom        0.000000      0.000000      0.000000
    38   Atom        0.000000     -0.000000     -0.000000
    39   Atom       -0.000000      0.000000     -0.000000
    40   Atom       -0.000000     -0.000000      0.000000
    41   Atom       -0.000000      0.000000      0.000000
    42   Atom       -0.000000     -0.000000      0.000000
    43   Atom        0.000000     -0.000000      0.000000
    44   Atom        0.000000     -0.000000     -0.000000
    45   Atom        0.000000      0.000000      0.000000
    46   Atom       -0.000000      0.000000      0.000000
    47   Atom        0.000000      0.000000      0.000000
    48   Atom        0.000000     -0.000000      0.000000
    49   Atom       -0.000000      0.000000      0.000000
    50   Atom        0.000000     -0.000000      0.000000
    51   Atom       -0.000000      0.000000      0.000000
    52   Atom        0.000000     -0.000000     -0.000000
    53   Atom       -0.000000      0.000000     -0.000000
 --------------------------------------------------------


 ---------------------------------------------------------------------------------
              Anisotropic Spin Dipole Couplings in Principal Axis System
 ---------------------------------------------------------------------------------

       Atom             a.u.   MegaHertz   Gauss  10(-4) cm-1        Axes

              Baa    -0.0000    -0.000    -0.000    -0.000 -0.4400  0.8969 -0.0444
     1 C(13)  Bbb     0.0000     0.000     0.000     0.000  0.8892  0.4421  0.1177
              Bcc     0.0000     0.000     0.000     0.000 -0.1252 -0.0123  0.9921
 
              Baa    -0.0000    -0.000    -0.000    -0.000  0.2922  0.3475  0.8910
     2 C(13)  Bbb    -0.0000    -0.000    -0.000    -0.000  0.1409  0.9058 -0.3995
              Bcc     0.0000     0.000     0.000     0.000  0.9459 -0.2422 -0.2157
 
              Baa    -0.0000    -0.000    -0.000    -0.000  0.3225  0.9387 -0.1220
     3 C(13)  Bbb     0.0000     0.000     0.000     0.000 -0.1994  0.1933  0.9607
              Bcc     0.0000     0.000     0.000     0.000  0.9254 -0.2855  0.2495
 
              Baa    -0.0000    -0.000    -0.000    -0.000 -0.2150 -0.4353  0.8742
     4 C(13)  Bbb    -0.0000    -0.000    -0.000    -0.000  0.4654  0.7413  0.4836
              Bcc     0.0000     0.000     0.000     0.000  0.8586 -0.5108 -0.0431
 
              Baa    -0.0000    -0.000    -0.000    -0.000  0.1385  0.9617 -0.2365
     5 C(13)  Bbb     0.0000     0.000     0.000     0.000  0.9717 -0.1781 -0.1554
              Bcc     0.0000     0.000     0.000     0.000  0.1915  0.2083  0.9591
 
              Baa    -0.0000    -0.000    -0.000    -0.000  0.7625  0.5501 -0.3404
     6 C(13)  Bbb    -0.0000    -0.000    -0.000    -0.000 -0.5790  0.8150  0.0201
              Bcc     0.0000     0.000     0.000     0.000  0.2885  0.1818  0.9400
 
              Baa    -0.0000    -0.000    -0.000    -0.000  0.2168  0.8870 -0.4077
     7 C(13)  Bbb    -0.0000    -0.000    -0.000    -0.000  0.1212  0.3900  0.9128
              Bcc     0.0000     0.000     0.000     0.000  0.9687 -0.2473 -0.0229
 
              Baa    -0.0000    -0.000    -0.000    -0.000 -0.1413 -0.1840  0.9727
     8 C(13)  Bbb    -0.0000    -0.000    -0.000    -0.000  0.8060 -0.5920  0.0051
              Bcc     0.0000     0.000     0.000     0.000  0.5749  0.7847  0.2320
 
              Baa    -0.0000    -0.000    -0.000    -0.000  0.1443  0.9158  0.3749
     9 F(19)  Bbb     0.0000     0.000     0.000     0.000  0.0775 -0.3881  0.9183
              Bcc     0.0000     0.000     0.000     0.000  0.9865 -0.1035 -0.1270
 
              Baa    -0.0000    -0.000    -0.000    -0.000  0.1356  0.0268  0.9904
    10 C(13)  Bbb    -0.0000    -0.000    -0.000    -0.000  0.3287  0.9418 -0.0705
              Bcc     0.0000     0.000     0.000     0.000  0.9346 -0.3351 -0.1189
 
              Baa    -0.0000    -0.000    -0.000    -0.000  0.9387 -0.0993 -0.3300
    11 C(13)  Bbb    -0.0000    -0.000    -0.000    -0.000  0.3220 -0.0886  0.9426
              Bcc     0.0000     0.000     0.000     0.000  0.1228  0.9911  0.0512
 
              Baa    -0.0000    -0.000    -0.000    -0.000 -0.5538  0.7509  0.3599
    12 S(33)  Bbb    -0.0000    -0.000    -0.000    -0.000 -0.0875 -0.4823  0.8716
              Bcc     0.0000     0.000     0.000     0.000  0.8281  0.4512  0.3328
 
              Baa    -0.0000    -0.000    -0.000    -0.000  0.0747  0.9483 -0.3086
    13 C(13)  Bbb    -0.0000    -0.000    -0.000    -0.000  0.0334  0.3069  0.9511
              Bcc     0.0000     0.000     0.000     0.000  0.9967 -0.0813 -0.0087
 
              Baa    -0.0000    -0.000    -0.000    -0.000  0.1608  0.9234 -0.3485
    14 C(13)  Bbb     0.0000     0.000     0.000     0.000  0.9617 -0.2260 -0.1551
              Bcc     0.0000     0.000     0.000     0.000  0.2220  0.3102  0.9244
 
              Baa    -0.0000    -0.000    -0.000    -0.000  0.0627  0.2533  0.9654
    15 C(13)  Bbb    -0.0000    -0.000    -0.000    -0.000 -0.0236  0.9674 -0.2523
              Bcc     0.0000     0.000     0.000     0.000  0.9978  0.0070 -0.0667
 
              Baa    -0.0000    -0.000    -0.000    -0.000  0.9595 -0.2579  0.1134
    16 C(13)  Bbb    -0.0000    -0.000    -0.000    -0.000 -0.0798  0.1372  0.9873
              Bcc     0.0000     0.000     0.000     0.000  0.2702  0.9564 -0.1111
 
              Baa    -0.0000    -0.000    -0.000    -0.000  0.2410  0.0318  0.9700
    17 C(13)  Bbb    -0.0000    -0.000    -0.000    -0.000 -0.0629  0.9979 -0.0171
              Bcc     0.0000     0.000     0.000     0.000  0.9685  0.0568 -0.2425
 
              Baa    -0.0000    -0.000    -0.000    -0.000  0.7290 -0.6746  0.1160
    18 C(13)  Bbb    -0.0000    -0.000    -0.000    -0.000  0.6833  0.7070 -0.1822
              Bcc     0.0000     0.000     0.000     0.000  0.0409  0.2121  0.9764
 
              Baa    -0.0000    -0.000    -0.000    -0.000  0.8460  0.5309  0.0488
    19 C(13)  Bbb     0.0000     0.000     0.000     0.000 -0.5011  0.8231 -0.2672
              Bcc     0.0000     0.000     0.000     0.000 -0.1820  0.2016  0.9624
 
              Baa    -0.0000    -0.000    -0.000    -0.000 -0.2280 -0.1896  0.9550
    20 C(13)  Bbb    -0.0000    -0.000    -0.000    -0.000  0.7092  0.6398  0.2963
              Bcc     0.0000     0.000     0.000     0.000 -0.6672  0.7448 -0.0114
 
              Baa    -0.0000    -0.000    -0.000    -0.000  0.7460 -0.6388 -0.1881
    21 F(19)  Bbb     0.0000     0.000     0.000     0.000  0.0662 -0.2099  0.9755
              Bcc     0.0000     0.000     0.000     0.000  0.6626  0.7402  0.1143
 
              Baa    -0.0000    -0.000    -0.000    -0.000 -0.0193 -0.1921  0.9812
    22 C(13)  Bbb    -0.0000    -0.000    -0.000    -0.000 -0.6913  0.7115  0.1257
              Bcc     0.0000     0.000     0.000     0.000  0.7223  0.6759  0.1465
 
              Baa    -0.0000    -0.000    -0.000    -0.000  0.5554  0.8311  0.0278
    23 C(13)  Bbb     0.0000     0.000     0.000     0.000 -0.1281  0.0525  0.9904
              Bcc     0.0000     0.000     0.000     0.000  0.8216 -0.5536  0.1356
 
              Baa    -0.0000    -0.000    -0.000    -0.000  0.3367  0.9373  0.0903
    24 S(33)  Bbb     0.0000     0.000     0.000     0.000  0.9336 -0.3199 -0.1616
              Bcc     0.0000     0.000     0.000     0.000  0.1226 -0.1387  0.9827
 
              Baa    -0.0000    -0.000    -0.000    -0.000 -0.6222  0.6569 -0.4258
    25 C(13)  Bbb     0.0000     0.000     0.000     0.000 -0.5484  0.0225  0.8359
              Bcc     0.0000     0.000     0.000     0.000  0.5587  0.7536  0.3462
 
              Baa    -0.0000    -0.000    -0.000    -0.000 -0.0829  0.9005 -0.4268
    26 C(13)  Bbb     0.0000     0.000     0.000     0.000  0.9272 -0.0873 -0.3643
              Bcc     0.0000     0.000     0.000     0.000  0.3654  0.4259  0.8277
 
              Baa    -0.0000    -0.000    -0.000    -0.000  0.1423  0.8937 -0.4256
    27 C(13)  Bbb     0.0000     0.000     0.000     0.000  0.3233  0.3644  0.8733
              Bcc     0.0000     0.000     0.000     0.000  0.9355 -0.2619 -0.2371
 
              Baa    -0.0000    -0.000    -0.000    -0.000  0.9401  0.2158  0.2639
    28 C(13)  Bbb     0.0000     0.000     0.000     0.000 -0.2796  0.0450  0.9591
              Bcc     0.0000     0.000     0.000     0.000 -0.1950  0.9754 -0.1027
 
              Baa    -0.0000    -0.000    -0.000    -0.000  0.4851  0.7936 -0.3672
    29 C(13)  Bbb    -0.0000    -0.000    -0.000    -0.000  0.8536 -0.3386  0.3959
              Bcc     0.0000     0.000     0.000     0.000 -0.1899  0.5055  0.8417
 
              Baa    -0.0000    -0.000    -0.000    -0.000  0.7885 -0.4490  0.4204
    30 C(13)  Bbb    -0.0000    -0.000    -0.000    -0.000  0.5824  0.7648 -0.2755
              Bcc     0.0000     0.000     0.000     0.000 -0.1978  0.4621  0.8645
 
              Baa    -0.0000    -0.000    -0.000    -0.000  0.5005  0.8616 -0.0843
    31 C(13)  Bbb    -0.0000    -0.000    -0.000    -0.000  0.8642 -0.5030 -0.0101
              Bcc     0.0000     0.000     0.000     0.000  0.0511  0.0678  0.9964
 
              Baa    -0.0000    -0.000    -0.000    -0.000  0.0072 -0.0222  0.9997
    32 C(13)  Bbb    -0.0000    -0.000    -0.000    -0.000 -0.1809  0.9832  0.0231
              Bcc     0.0000     0.000     0.000     0.000  0.9835  0.1811 -0.0031
 
              Baa    -0.0000    -0.000    -0.000    -0.000  0.4998  0.8653  0.0381
    33 F(19)  Bbb     0.0000     0.000     0.000     0.000 -0.3734  0.1756  0.9109
              Bcc     0.0000     0.000     0.000     0.000  0.7815 -0.4695  0.4109
 
              Baa    -0.0000    -0.000    -0.000    -0.000 -0.5287  0.8127  0.2449
    34 C(13)  Bbb    -0.0000    -0.000    -0.000    -0.000  0.1001 -0.2268  0.9688
              Bcc     0.0000     0.000     0.000     0.000  0.8429  0.5367  0.0386
 
              Baa    -0.0000    -0.000    -0.000    -0.000  0.1589  0.0627  0.9853
    35 C(13)  Bbb    -0.0000    -0.000    -0.000    -0.000  0.9775  0.1301 -0.1660
              Bcc     0.0000     0.000     0.000     0.000 -0.1386  0.9895 -0.0406
 
              Baa    -0.0000    -0.000    -0.000    -0.000  0.7711 -0.5286 -0.3549
    36 S(33)  Bbb    -0.0000    -0.000    -0.000    -0.000  0.3343 -0.1381  0.9323
              Bcc     0.0000     0.000     0.000     0.000  0.5418  0.8376 -0.0702
 
              Baa    -0.0000    -0.000    -0.000    -0.000 -0.6902  0.7233  0.0229
    37 H(1)   Bbb     0.0000     0.000     0.000     0.000  0.6497  0.6333 -0.4205
              Bcc     0.0000     0.000     0.000     0.000  0.3186  0.2753  0.9070
 
              Baa    -0.0000    -0.000    -0.000    -0.000 -0.6528  0.7536  0.0769
    38 H(1)   Bbb    -0.0000    -0.000    -0.000    -0.000  0.2357  0.1056  0.9661
              Bcc     0.0000     0.000     0.000     0.000  0.7200  0.6488 -0.2465
 
              Baa    -0.0000    -0.000    -0.000    -0.000  0.9551  0.2061 -0.2130
    39 H(1)   Bbb     0.0000     0.000     0.000     0.000  0.0962  0.4642  0.8805
              Bcc     0.0000     0.000     0.000     0.000 -0.2804  0.8614 -0.4235
 
              Baa    -0.0000    -0.000    -0.000    -0.000  0.0728  0.9653 -0.2509
    40 H(1)   Bbb     0.0000     0.000     0.000     0.000  0.1701  0.2358  0.9568
              Bcc     0.0000     0.000     0.000     0.000  0.9827 -0.1123 -0.1470
 
              Baa    -0.0000    -0.000    -0.000    -0.000  0.8072  0.5119 -0.2939
    41 H(1)   Bbb     0.0000     0.000     0.000     0.000 -0.5605  0.8208 -0.1098
              Bcc     0.0000     0.000     0.000     0.000  0.1851  0.2534  0.9495
 
              Baa    -0.0000    -0.000    -0.000    -0.000 -0.1147 -0.2511  0.9611
    42 H(1)   Bbb    -0.0000    -0.000    -0.000    -0.000  0.9774  0.1445  0.1544
              Bcc     0.0000     0.000     0.000     0.000 -0.1776  0.9571  0.2289
 
              Baa    -0.0000    -0.000    -0.000    -0.000 -0.6183  0.7079 -0.3415
    43 H(1)   Bbb     0.0000     0.000     0.000     0.000  0.7684  0.6357 -0.0733
              Bcc     0.0000     0.000     0.000     0.000 -0.1652  0.3078  0.9370
 
              Baa    -0.0000    -0.000    -0.000    -0.000  0.9255 -0.2193  0.3089
    44 H(1)   Bbb    -0.0000    -0.000    -0.000    -0.000 -0.1354  0.5701  0.8103
              Bcc     0.0000     0.000     0.000     0.000  0.3538  0.7918 -0.4979
 
              Baa    -0.0000    -0.000    -0.000    -0.000 -0.6840  0.7152  0.1433
    45 H(1)   Bbb    -0.0000    -0.000    -0.000    -0.000  0.6011  0.6639 -0.4449
              Bcc     0.0000     0.000     0.000     0.000  0.4133  0.2182  0.8841
 
              Baa    -0.0000    -0.000    -0.000    -0.000  0.6987  0.6282 -0.3422
    46 H(1)   Bbb     0.0000     0.000     0.000     0.000  0.7154 -0.6112  0.3387
              Bcc     0.0000     0.000     0.000     0.000 -0.0036  0.4815  0.8765
 
              Baa    -0.0000    -0.000    -0.000    -0.000 -0.6237  0.0551  0.7797
    47 H(1)   Bbb    -0.0000    -0.000    -0.000    -0.000  0.7445 -0.2618  0.6141
              Bcc     0.0000     0.000     0.000     0.000  0.2379  0.9636  0.1222
 
              Baa    -0.0000    -0.000    -0.000    -0.000  0.8817 -0.2828  0.3776
    48 H(1)   Bbb     0.0000     0.000     0.000     0.000  0.3848  0.8942 -0.2288
              Bcc     0.0000     0.000     0.000     0.000 -0.2729  0.3471  0.8972
 
              Baa    -0.0000    -0.000    -0.000    -0.000  0.2611  0.8825 -0.3913
    49 H(1)   Bbb     0.0000     0.000     0.000     0.000  0.7248  0.0885  0.6833
              Bcc     0.0000     0.000     0.000     0.000  0.6376 -0.4620 -0.6165
 
              Baa    -0.0000    -0.000    -0.000    -0.000  0.7523 -0.5148  0.4112
    50 H(1)   Bbb     0.0000     0.000     0.000     0.000  0.6374  0.7267 -0.2563
              Bcc     0.0000     0.000     0.000     0.000 -0.1669  0.4549  0.8748
 
              Baa    -0.0000    -0.000    -0.000    -0.000  0.4416  0.8242 -0.3544
    51 H(1)   Bbb     0.0000     0.000     0.000     0.000  0.8971 -0.3985  0.1909
              Bcc     0.0000     0.000     0.000     0.000 -0.0161  0.4023  0.9154
 
              Baa    -0.0000    -0.000    -0.000    -0.000  0.9914 -0.1228  0.0447
    52 H(1)   Bbb     0.0000     0.000     0.000     0.000 -0.0350  0.0801  0.9962
              Bcc     0.0000     0.000     0.000     0.000  0.1259  0.9892 -0.0751
 
              Baa    -0.0000    -0.000    -0.000    -0.000 -0.0387  0.0479  0.9981
    53 H(1)   Bbb    -0.0000    -0.000    -0.000    -0.000  0.1680  0.9850 -0.0408
              Bcc     0.0000     0.000     0.000     0.000  0.9850 -0.1661  0.0462
 

 ---------------------------------------------------------------------------------

 No NMR shielding tensors so no spin-rotation constants.
 Leave Link  601 at Sat Jul 25 02:07:01 2020, MaxMem=  4026531840 cpu:               8.8 elap:               1.2
 (Enter /opt/ohpc/pub/libs/gaussian/g16-A.03/sandybridge/g16/l9999.exe)

 Test job not archived.
 1\1\GINC-SKYLAKE050\FOpt\ULC-wPBE\CC-pVDZ\C30H17F3S3\RDU230\25-Jul-202
 0\0\\#P uLC-wPBE/cc-pVDZ iop(3/107=0429100000, 3/108=0429100000) opt\\
 H17 C30 S3 F3\\0,1\C,-10.7173540698,2.859206728,0.188187604\C,-9.49387
 66173,3.3387892687,-0.2572413612\C,-8.3952636871,2.4964143387,-0.31957
 98612\C,-8.4974095142,1.1601271553,0.070252265\C,-9.7322818452,0.68676
 47755,0.5187061894\C,-10.8302929939,1.5305606619,0.5733383863\C,-7.328
 1322955,0.270305477,0.013399851\C,-7.277167514,-1.0835646836,-0.129859
 4455\F,-8.3640541354,-1.8538520419,-0.2553516514\C,-5.9791782828,-1.64
 69619091,-0.1604555963\C,-5.0137791965,-0.693221119,-0.0343347139\S,-5
 .71377337,0.8721086659,0.1345826304\C,-3.555208706,-0.8794078306,-0.01
 7591381\C,-2.6915198217,0.0975643941,-0.5104084668\C,-1.3219067322,-0.
 0957885165,-0.4989637425\C,-0.7651015173,-1.2712589187,0.0063321128\C,
 -1.6306827667,-2.24977032,0.5010607805\C,-2.9994257748,-2.0536702297,0
 .4903762519\C,0.6896759665,-1.470338228,0.0228731166\C,1.4042679483,-2
 .6308427727,0.0422577091\F,0.8410363987,-3.844325201,0.0431393376\C,2.
 8112795018,-2.4826467952,0.0403976768\C,3.1785768595,-1.1701379436,0.0
 212334049\S,1.7955616623,-0.1432071101,0.0212127132\C,4.538986565,-0.6
 116940603,0.0166591637\C,4.8281290291,0.5949421573,-0.619202945\C,6.11
 30308324,1.107883662,-0.627741863\C,7.1569573946,0.4271794882,0.000914
 7531\C,6.8654801656,-0.7783242749,0.6414789536\C,5.5804734847,-1.28875
 34388,0.6503528434\C,8.5252736579,0.9630077231,-0.0119758691\C,8.94434
 85881,2.2534456273,-0.1446602002\F,8.1102101816,3.2887548553,-0.292438
 9695\C,10.3487173744,2.4451119084,-0.1055160286\C,10.9935455303,1.2626
 550238,0.0578030703\S,9.9100824176,-0.0556479854,0.1564743927\H,-11.58
 27303325,3.5203991794,0.2346088166\H,-9.3928291342,4.3792122112,-0.566
 6767513\H,-7.4436148165,2.8814639349,-0.6883998768\H,-9.8298373169,-0.
 351198628,0.8302103157\H,-11.7862639161,1.1437623213,0.9270557603\H,-5
 .7928837988,-2.7081827549,-0.3037260313\H,-3.0973067698,1.0177520037,-
 0.932096851\H,-0.6742168966,0.6791983462,-0.9102914333\H,-1.2248267256
 ,-3.1713050619,0.9124363591\H,-3.6511205183,-2.8209351284,0.9079983685
 \H,3.4994434973,-3.3236829671,0.0206496265\H,4.036384561,1.1367001449,
 -1.1379586096\H,6.3117525075,2.0463903834,-1.1404655701\H,7.6550090099
 ,-1.3208428909,1.1627163967\H,5.3766842032,-2.2182767401,1.1814741175\
 H,10.8258864738,3.4176305724,-0.1923322098\H,12.0648932545,1.093209542
 8,0.1197734611\\Version=EM64L-G16RevA.03\State=1-A\HF=-2646.2360706\S2
 =0.\S2-1=0.\S2A=0.\RMSD=7.978e-09\RMSF=3.201e-06\Dipole=1.3195397,0.19
 99254,0.0409326\Quadrupole=21.2469087,-3.3964392,-17.8504694,-4.176590
 6,-0.7838804,-6.2124987\PG=C01 [X(C30H17F3S3)]\\@


  DISAPPOINTMENT IS THE NURSE OF WISDOM.               
                              SIR BOYLE ROCHE                 
 Job cpu time:       1 days  2 hours 24 minutes 49.4 seconds.
 Elapsed time:       0 days  3 hours 19 minutes 14.8 seconds.
 File lengths (MBytes):  RWF=    456 Int=      0 D2E=      0 Chk=     40 Scr=      8
 Normal termination of Gaussian 16 at Sat Jul 25 02:07:01 2020.
