 Entering Gaussian System, Link 0=g16
 Input=mols_65_1_31_cF-cF-COC_opt_0.gjf
 Output=mols_65_1_31_cF-cF-COC_opt_0.log
 Initial command:
 /opt/ohpc/pub/libs/gaussian/g16-A.03/sandybridge/g16/l1.exe "/mnt/gpfs2_4m/scratch/rdu230/ondemand/projects/dihedral_energies/7trial/wtuning/mols_65_1_31_cF-cF-COC/Gau-85571.inp" -scrdir="/mnt/gpfs2_4m/scratch/rdu230/ondemand/projects/dihedral_energies/7trial/wtuning/mols_65_1_31_cF-cF-COC/"
 Entering Link 1 = /opt/ohpc/pub/libs/gaussian/g16-A.03/sandybridge/g16/l1.exe PID=     85572.
  
 Copyright (c) 1988,1990,1992,1993,1995,1998,2003,2009,2016,
            Gaussian, Inc.  All Rights Reserved.
  
 This is part of the Gaussian(R) 16 program.  It is based on
 the Gaussian(R) 09 system (copyright 2009, Gaussian, Inc.),
 the Gaussian(R) 03 system (copyright 2003, Gaussian, Inc.),
 the Gaussian(R) 98 system (copyright 1998, Gaussian, Inc.),
 the Gaussian(R) 94 system (copyright 1995, Gaussian, Inc.),
 the Gaussian 92(TM) system (copyright 1992, Gaussian, Inc.),
 the Gaussian 90(TM) system (copyright 1990, Gaussian, Inc.),
 the Gaussian 88(TM) system (copyright 1988, Gaussian, Inc.),
 the Gaussian 86(TM) system (copyright 1986, Carnegie Mellon
 University), and the Gaussian 82(TM) system (copyright 1983,
 Carnegie Mellon University). Gaussian is a federally registered
 trademark of Gaussian, Inc.
  
 This software contains proprietary and confidential information,
 including trade secrets, belonging to Gaussian, Inc.
  
 This software is provided under written license and may be
 used, copied, transmitted, or stored only in accord with that
 written license.
  
 The following legend is applicable only to US Government
 contracts under FAR:
  
                    RESTRICTED RIGHTS LEGEND
  
 Use, reproduction and disclosure by the US Government is
 subject to restrictions as set forth in subparagraphs (a)
 and (c) of the Commercial Computer Software - Restricted
 Rights clause in FAR 52.227-19.
  
 Gaussian, Inc.
 340 Quinnipiac St., Bldg. 40, Wallingford CT 06492
  
  
 ---------------------------------------------------------------
 Warning -- This program may not be used in any manner that
 competes with the business of Gaussian, Inc. or will provide
 assistance to any competitor of Gaussian, Inc.  The licensee
 of this program is prohibited from giving any competitor of
 Gaussian, Inc. access to this program.  By using this program,
 the user acknowledges that Gaussian, Inc. is engaged in the
 business of creating and licensing software in the field of
 computational chemistry and represents and warrants to the
 licensee that it is not a competitor of Gaussian, Inc. and that
 it will not use this program in any manner prohibited above.
 ---------------------------------------------------------------
  

 Cite this work as:
 Gaussian 16, Revision A.03,
 M. J. Frisch, G. W. Trucks, H. B. Schlegel, G. E. Scuseria, 
 M. A. Robb, J. R. Cheeseman, G. Scalmani, V. Barone, 
 G. A. Petersson, H. Nakatsuji, X. Li, M. Caricato, A. V. Marenich, 
 J. Bloino, B. G. Janesko, R. Gomperts, B. Mennucci, H. P. Hratchian, 
 J. V. Ortiz, A. F. Izmaylov, J. L. Sonnenberg, D. Williams-Young, 
 F. Ding, F. Lipparini, F. Egidi, J. Goings, B. Peng, A. Petrone, 
 T. Henderson, D. Ranasinghe, V. G. Zakrzewski, J. Gao, N. Rega, 
 G. Zheng, W. Liang, M. Hada, M. Ehara, K. Toyota, R. Fukuda, 
 J. Hasegawa, M. Ishida, T. Nakajima, Y. Honda, O. Kitao, H. Nakai, 
 T. Vreven, K. Throssell, J. A. Montgomery, Jr., J. E. Peralta, 
 F. Ogliaro, M. J. Bearpark, J. J. Heyd, E. N. Brothers, K. N. Kudin, 
 V. N. Staroverov, T. A. Keith, R. Kobayashi, J. Normand, 
 K. Raghavachari, A. P. Rendell, J. C. Burant, S. S. Iyengar, 
 J. Tomasi, M. Cossi, J. M. Millam, M. Klene, C. Adamo, R. Cammi, 
 J. W. Ochterski, R. L. Martin, K. Morokuma, O. Farkas, 
 J. B. Foresman, and D. J. Fox, Gaussian, Inc., Wallingford CT, 2016.
 
 ******************************************
 Gaussian 16:  EM64L-G16RevA.03 25-Dec-2016
                25-Jul-2020 
 ******************************************
 %mem=30GB
 %nproc=8
 Will use up to    8 processors via shared memory.
 ---------------------------------------------------------------
 #P uLC-wPBE/cc-pVDZ iop(3/107=0218600000, 3/108=0218600000) opt
 ---------------------------------------------------------------
 1/18=20,19=15,26=3,38=1/1,3;
 2/9=110,12=2,17=6,18=5,40=1/2;
 3/5=16,11=2,25=1,30=1,71=1,74=-41,107=218600000,108=218600000,116=2/1,2,3;
 4//1;
 5/5=2,38=5/2;
 6/7=2,8=2,9=2,10=2,28=1/1;
 7//1,2,3,16;
 1/18=20,19=15,26=3/3(2);
 2/9=110/2;
 99//99;
 2/9=110/2;
 3/5=16,11=2,25=1,30=1,71=1,74=-41,107=218600000,108=218600000,116=2/1,2,3;
 4/5=5,16=3,69=1/1;
 5/5=2,38=5/2;
 7//1,2,3,16;
 1/18=20,19=15,26=3/3(-5);
 2/9=110/2;
 6/7=2,8=2,9=2,10=2,19=2,28=1/1;
 99/9=1/99;
 Leave Link    1 at Sat Jul 25 13:52:27 2020, MaxMem=  4026531840 cpu:               1.5 elap:               0.2
 (Enter /opt/ohpc/pub/libs/gaussian/g16-A.03/sandybridge/g16/l101.exe)
 ---------------
 H8 C11 S1 O1 F2
 ---------------
 Symbolic Z-matrix:
 Charge =  0 Multiplicity = 1
 C                    -3.57168   0.42819   0.10582 
 C                    -3.02029  -0.53816   0.90126 
 C                    -1.62248  -0.86401   0.80908 
 F                    -1.19144  -1.77531   1.58129 
 C                    -0.81838  -0.10915  -0.11672 
 C                    -1.43106   0.84566  -0.9058 
 F                    -0.64929   1.60226  -1.70674 
 C                    -2.78614   1.10176  -0.75857 
 C                     0.61681  -0.33469  -0.17693 
 C                     1.61197   0.39563   0.26353 
 O                     1.38052   1.66043   0.89926 
 C                     2.5455    2.3498    1.19173 
 C                     2.92941  -0.12464   0.00164 
 C                     2.77725  -1.38087  -0.65227 
 S                     1.16096  -1.86197  -0.8952 
 H                    -4.66162   0.59214   0.09032 
 H                    -3.64432  -1.15844   1.62187 
 H                    -3.18906   1.92556  -1.44861 
 H                     3.19823   1.90437   1.93171 
 H                     3.06155   2.62772   0.29963 
 H                     2.20292   3.36679   1.66869 
 H                     3.87872   0.21472   0.215 
 H                     3.59202  -2.022    -0.90846 
 
 ITRead=  0  0  0  0  0  0  0  0  0  0  0  0  0  0  0  0  0  0  0  0
 ITRead=  0  0  0
 MicOpt= -1 -1 -1 -1 -1 -1 -1 -1 -1 -1 -1 -1 -1 -1 -1 -1 -1 -1 -1 -1
 MicOpt= -1 -1 -1
 NAtoms=     23 NQM=       23 NQMF=       0 NMMI=      0 NMMIF=      0
                NMic=       0 NMicF=      0.
                    Isotopes and Nuclear Properties:
 (Nuclear quadrupole moments (NQMom) in fm**2, nuclear magnetic moments (NMagM)
  in nuclear magnetons)

  Atom         1           2           3           4           5           6           7           8           9          10
 IAtWgt=          12          12          12          19          12          12          19          12          12          12
 AtmWgt=  12.0000000  12.0000000  12.0000000  18.9984033  12.0000000  12.0000000  18.9984033  12.0000000  12.0000000  12.0000000
 NucSpn=           0           0           0           1           0           0           1           0           0           0
 AtZEff=  -0.0000000  -0.0000000  -0.0000000  -0.0000000  -0.0000000  -0.0000000  -0.0000000  -0.0000000  -0.0000000  -0.0000000
 NQMom=    0.0000000   0.0000000   0.0000000   0.0000000   0.0000000   0.0000000   0.0000000   0.0000000   0.0000000   0.0000000
 NMagM=    0.0000000   0.0000000   0.0000000   2.6288670   0.0000000   0.0000000   2.6288670   0.0000000   0.0000000   0.0000000
 AtZNuc=   6.0000000   6.0000000   6.0000000   9.0000000   6.0000000   6.0000000   9.0000000   6.0000000   6.0000000   6.0000000

  Atom        11          12          13          14          15          16          17          18          19          20
 IAtWgt=          16          12          12          12          32           1           1           1           1           1
 AtmWgt=  15.9949146  12.0000000  12.0000000  12.0000000  31.9720718   1.0078250   1.0078250   1.0078250   1.0078250   1.0078250
 NucSpn=           0           0           0           0           0           1           1           1           1           1
 AtZEff=  -0.0000000  -0.0000000  -0.0000000  -0.0000000  -0.0000000  -0.0000000  -0.0000000  -0.0000000  -0.0000000  -0.0000000
 NQMom=    0.0000000   0.0000000   0.0000000   0.0000000   0.0000000   0.0000000   0.0000000   0.0000000   0.0000000   0.0000000
 NMagM=    0.0000000   0.0000000   0.0000000   0.0000000   0.0000000   2.7928460   2.7928460   2.7928460   2.7928460   2.7928460
 AtZNuc=   8.0000000   6.0000000   6.0000000   6.0000000  16.0000000   1.0000000   1.0000000   1.0000000   1.0000000   1.0000000

  Atom        21          22          23
 IAtWgt=           1           1           1
 AtmWgt=   1.0078250   1.0078250   1.0078250
 NucSpn=           1           1           1
 AtZEff=  -0.0000000  -0.0000000  -0.0000000
 NQMom=    0.0000000   0.0000000   0.0000000
 NMagM=    2.7928460   2.7928460   2.7928460
 AtZNuc=   1.0000000   1.0000000   1.0000000
 Leave Link  101 at Sat Jul 25 13:52:28 2020, MaxMem=  4026531840 cpu:               2.9 elap:               0.4
 (Enter /opt/ohpc/pub/libs/gaussian/g16-A.03/sandybridge/g16/l103.exe)

 GradGradGradGradGradGradGradGradGradGradGradGradGradGradGradGradGradGrad
 Berny optimization.
 Initialization pass.
                           ----------------------------
                           !    Initial Parameters    !
                           ! (Angstroms and Degrees)  !
 --------------------------                            --------------------------
 ! Name  Definition              Value          Derivative Info.                !
 --------------------------------------------------------------------------------
 ! R1    R(1,2)                  1.3677         estimate D2E/DX2                !
 ! R2    R(1,8)                  1.3483         estimate D2E/DX2                !
 ! R3    R(1,16)                 1.1023         estimate D2E/DX2                !
 ! R4    R(2,3)                  1.4382         estimate D2E/DX2                !
 ! R5    R(2,17)                 1.1373         estimate D2E/DX2                !
 ! R6    R(3,4)                  1.2699         estimate D2E/DX2                !
 ! R7    R(3,5)                  1.44           estimate D2E/DX2                !
 ! R8    R(5,6)                  1.3819         estimate D2E/DX2                !
 ! R9    R(5,9)                  1.4541         estimate D2E/DX2                !
 ! R10   R(6,7)                  1.351          estimate D2E/DX2                !
 ! R11   R(6,8)                  1.3869         estimate D2E/DX2                !
 ! R12   R(8,18)                 1.1477         estimate D2E/DX2                !
 ! R13   R(9,10)                 1.3106         estimate D2E/DX2                !
 ! R14   R(9,15)                 1.7733         estimate D2E/DX2                !
 ! R15   R(10,11)                1.4344         estimate D2E/DX2                !
 ! R16   R(10,13)                1.4405         estimate D2E/DX2                !
 ! R17   R(11,12)                1.3849         estimate D2E/DX2                !
 ! R18   R(12,19)                1.0826         estimate D2E/DX2                !
 ! R19   R(12,20)                1.0674         estimate D2E/DX2                !
 ! R20   R(12,21)                1.1744         estimate D2E/DX2                !
 ! R21   R(13,14)                1.4244         estimate D2E/DX2                !
 ! R22   R(13,22)                1.0305         estimate D2E/DX2                !
 ! R23   R(14,15)                1.7038         estimate D2E/DX2                !
 ! R24   R(14,23)                1.068          estimate D2E/DX2                !
 ! A1    A(2,1,8)              119.4025         estimate D2E/DX2                !
 ! A2    A(2,1,16)             120.7898         estimate D2E/DX2                !
 ! A3    A(8,1,16)             119.5222         estimate D2E/DX2                !
 ! A4    A(1,2,3)              120.9722         estimate D2E/DX2                !
 ! A5    A(1,2,17)             122.185          estimate D2E/DX2                !
 ! A6    A(3,2,17)             116.7636         estimate D2E/DX2                !
 ! A7    A(2,3,4)              116.9687         estimate D2E/DX2                !
 ! A8    A(2,3,5)              117.7204         estimate D2E/DX2                !
 ! A9    A(4,3,5)              125.2833         estimate D2E/DX2                !
 ! A10   A(3,5,6)              118.7992         estimate D2E/DX2                !
 ! A11   A(3,5,9)              119.768          estimate D2E/DX2                !
 ! A12   A(6,5,9)              121.4079         estimate D2E/DX2                !
 ! A13   A(5,6,7)              117.9642         estimate D2E/DX2                !
 ! A14   A(5,6,8)              120.0101         estimate D2E/DX2                !
 ! A15   A(7,6,8)              121.6627         estimate D2E/DX2                !
 ! A16   A(1,8,6)              123.0279         estimate D2E/DX2                !
 ! A17   A(1,8,18)             122.6501         estimate D2E/DX2                !
 ! A18   A(6,8,18)             114.3143         estimate D2E/DX2                !
 ! A19   A(5,9,10)             130.4748         estimate D2E/DX2                !
 ! A20   A(5,9,15)             116.9515         estimate D2E/DX2                !
 ! A21   A(10,9,15)            112.5227         estimate D2E/DX2                !
 ! A22   A(9,10,11)            121.1831         estimate D2E/DX2                !
 ! A23   A(9,10,13)            115.601          estimate D2E/DX2                !
 ! A24   A(11,10,13)           123.1372         estimate D2E/DX2                !
 ! A25   A(10,11,12)           113.3772         estimate D2E/DX2                !
 ! A26   A(11,12,19)           116.5334         estimate D2E/DX2                !
 ! A27   A(11,12,20)           111.0876         estimate D2E/DX2                !
 ! A28   A(11,12,21)           105.7507         estimate D2E/DX2                !
 ! A29   A(19,12,20)           112.7611         estimate D2E/DX2                !
 ! A30   A(19,12,21)           104.7485         estimate D2E/DX2                !
 ! A31   A(20,12,21)           104.7734         estimate D2E/DX2                !
 ! A32   A(10,13,14)           107.7164         estimate D2E/DX2                !
 ! A33   A(10,13,22)           133.3124         estimate D2E/DX2                !
 ! A34   A(14,13,22)           118.9409         estimate D2E/DX2                !
 ! A35   A(13,14,15)           114.5718         estimate D2E/DX2                !
 ! A36   A(13,14,23)           123.9234         estimate D2E/DX2                !
 ! A37   A(15,14,23)           121.3346         estimate D2E/DX2                !
 ! A38   A(9,15,14)             89.4357         estimate D2E/DX2                !
 ! D1    D(8,1,2,3)             -1.2858         estimate D2E/DX2                !
 ! D2    D(8,1,2,17)          -177.9444         estimate D2E/DX2                !
 ! D3    D(16,1,2,3)           172.5488         estimate D2E/DX2                !
 ! D4    D(16,1,2,17)           -4.1098         estimate D2E/DX2                !
 ! D5    D(2,1,8,6)              1.3091         estimate D2E/DX2                !
 ! D6    D(2,1,8,18)          -179.756          estimate D2E/DX2                !
 ! D7    D(16,1,8,6)          -172.6045         estimate D2E/DX2                !
 ! D8    D(16,1,8,18)            6.3303         estimate D2E/DX2                !
 ! D9    D(1,2,3,4)           -179.8464         estimate D2E/DX2                !
 ! D10   D(1,2,3,5)              1.9595         estimate D2E/DX2                !
 ! D11   D(17,2,3,4)            -3.0135         estimate D2E/DX2                !
 ! D12   D(17,2,3,5)           178.7924         estimate D2E/DX2                !
 ! D13   D(2,3,5,6)             -2.6326         estimate D2E/DX2                !
 ! D14   D(2,3,5,9)            175.5793         estimate D2E/DX2                !
 ! D15   D(4,3,5,6)            179.3392         estimate D2E/DX2                !
 ! D16   D(4,3,5,9)             -2.449          estimate D2E/DX2                !
 ! D17   D(3,5,6,7)            175.8861         estimate D2E/DX2                !
 ! D18   D(3,5,6,8)              2.6881         estimate D2E/DX2                !
 ! D19   D(9,5,6,7)             -2.2952         estimate D2E/DX2                !
 ! D20   D(9,5,6,8)           -175.4933         estimate D2E/DX2                !
 ! D21   D(3,5,9,10)          -105.6181         estimate D2E/DX2                !
 ! D22   D(3,5,9,15)            71.5601         estimate D2E/DX2                !
 ! D23   D(6,5,9,10)            72.5459         estimate D2E/DX2                !
 ! D24   D(6,5,9,15)          -110.2759         estimate D2E/DX2                !
 ! D25   D(5,6,8,1)             -2.0597         estimate D2E/DX2                !
 ! D26   D(5,6,8,18)           178.9244         estimate D2E/DX2                !
 ! D27   D(7,6,8,1)           -175.0001         estimate D2E/DX2                !
 ! D28   D(7,6,8,18)             5.984          estimate D2E/DX2                !
 ! D29   D(5,9,10,11)           -1.7235         estimate D2E/DX2                !
 ! D30   D(5,9,10,13)         -178.5954         estimate D2E/DX2                !
 ! D31   D(15,9,10,11)        -179.0006         estimate D2E/DX2                !
 ! D32   D(15,9,10,13)           4.1275         estimate D2E/DX2                !
 ! D33   D(5,9,15,14)          178.6727         estimate D2E/DX2                !
 ! D34   D(10,9,15,14)          -3.6507         estimate D2E/DX2                !
 ! D35   D(9,10,11,12)        -174.4709         estimate D2E/DX2                !
 ! D36   D(13,10,11,12)          2.1599         estimate D2E/DX2                !
 ! D37   D(9,10,13,14)          -2.3426         estimate D2E/DX2                !
 ! D38   D(9,10,13,22)         179.7489         estimate D2E/DX2                !
 ! D39   D(11,10,13,14)       -179.1466         estimate D2E/DX2                !
 ! D40   D(11,10,13,22)          2.9449         estimate D2E/DX2                !
 ! D41   D(10,11,12,19)        -65.9714         estimate D2E/DX2                !
 ! D42   D(10,11,12,20)         65.0255         estimate D2E/DX2                !
 ! D43   D(10,11,12,21)        178.1496         estimate D2E/DX2                !
 ! D44   D(10,13,14,15)         -0.5766         estimate D2E/DX2                !
 ! D45   D(10,13,14,23)       -175.8786         estimate D2E/DX2                !
 ! D46   D(22,13,14,15)        177.6845         estimate D2E/DX2                !
 ! D47   D(22,13,14,23)          2.3826         estimate D2E/DX2                !
 ! D48   D(13,14,15,9)           2.3001         estimate D2E/DX2                !
 ! D49   D(23,14,15,9)         177.7363         estimate D2E/DX2                !
 --------------------------------------------------------------------------------
 Trust Radius=3.00D-01 FncErr=1.00D-07 GrdErr=1.00D-06 EigMax=2.50D+02 EigMin=1.00D-04
 Number of steps in this run=    121 maximum allowed number of steps=    138.
 GradGradGradGradGradGradGradGradGradGradGradGradGradGradGradGradGradGrad

 Leave Link  103 at Sat Jul 25 13:52:28 2020, MaxMem=  4026531840 cpu:               0.2 elap:               0.0
 (Enter /opt/ohpc/pub/libs/gaussian/g16-A.03/sandybridge/g16/l202.exe)
                          Input orientation:                          
 ---------------------------------------------------------------------
 Center     Atomic      Atomic             Coordinates (Angstroms)
 Number     Number       Type             X           Y           Z
 ---------------------------------------------------------------------
      1          6           0       -3.571679    0.428189    0.105818
      2          6           0       -3.020288   -0.538159    0.901257
      3          6           0       -1.622479   -0.864007    0.809079
      4          9           0       -1.191440   -1.775312    1.581292
      5          6           0       -0.818382   -0.109154   -0.116715
      6          6           0       -1.431064    0.845657   -0.905803
      7          9           0       -0.649288    1.602257   -1.706740
      8          6           0       -2.786137    1.101764   -0.758571
      9          6           0        0.616810   -0.334687   -0.176929
     10          6           0        1.611974    0.395626    0.263534
     11          8           0        1.380515    1.660429    0.899262
     12          6           0        2.545501    2.349802    1.191725
     13          6           0        2.929410   -0.124637    0.001641
     14          6           0        2.777248   -1.380872   -0.652274
     15         16           0        1.160956   -1.861970   -0.895198
     16          1           0       -4.661624    0.592136    0.090324
     17          1           0       -3.644316   -1.158443    1.621871
     18          1           0       -3.189056    1.925561   -1.448609
     19          1           0        3.198228    1.904373    1.931706
     20          1           0        3.061550    2.627718    0.299633
     21          1           0        2.202924    3.366793    1.668692
     22          1           0        3.878722    0.214719    0.214998
     23          1           0        3.592024   -2.022001   -0.908456
 ---------------------------------------------------------------------
                    Distance matrix (angstroms):
                    1          2          3          4          5
     1  C    0.000000
     2  C    1.367693   0.000000
     3  C    2.442074   1.438243   0.000000
     4  F    3.563422   2.310342   1.269876   0.000000
     5  C    2.814055   2.463474   1.439955   2.408004   0.000000
     6  C    2.404140   2.775976   2.429076   3.621124   1.381920
     7  F    3.633754   4.123672   3.654983   4.744792   2.342157
     8  C    1.348313   2.345038   2.770538   4.036779   2.397991
     9  C    4.266775   3.798996   2.503359   2.904567   1.454052
    10  C    5.186154   4.768280   3.513685   3.782669   2.511179
    11  O    5.164513   4.919437   3.924141   4.345622   2.999797
    12  C    6.503205   6.277157   5.277030   5.579700   4.367401
    13  C    6.525383   6.031519   4.681700   4.711839   3.749692
    14  C    6.645019   6.060944   4.664794   4.571092   3.851317
    15  S    5.352074   4.739465   3.412917   3.416764   2.756117
    16  H    1.102315   2.151549   3.445775   4.457575   3.912184
    17  H    2.195699   1.137298   2.198897   2.529580   3.479884
    18  H    2.191978   3.408852   3.915739   5.183361   3.396189
    19  H    7.165517   6.760010   5.671282   5.738646   4.937963
    20  H    6.991081   6.882840   5.864453   6.254378   4.766307
    21  H    6.665134   6.566548   5.768216   6.162028   4.939451
    22  H    7.454258   6.973816   5.637357   5.615472   4.719927
    23  H    7.638771   7.014237   5.610875   5.398262   4.872116
                    6          7          8          9         10
     6  C    0.000000
     7  F    1.350969   0.000000
     8  C    1.386900   2.390741   0.000000
     9  C    2.473511   2.774000   3.739217   0.000000
    10  C    3.290890   3.232838   4.570198   1.310617   0.000000
    11  O    3.439054   3.303745   4.519016   2.392054   1.434381
    12  C    4.740796   4.377968   5.812712   3.577645   2.356229
    13  C    4.558361   4.325252   5.894867   2.328976   1.440451
    14  C    4.767767   4.663915   6.093114   2.447028   2.313550
    15  S    3.748323   3.992049   4.937806   1.773302   2.577366
    16  H    3.390142   4.510945   2.120801   5.365845   6.279064
    17  H    3.912037   5.260352   3.392862   4.698026   5.647016
    18  H    2.133393   2.573243   1.147666   4.605487   5.321844
    19  H    5.531969   5.304050   6.610174   4.015402   2.752329
    20  H    4.981204   4.341362   6.135452   3.870363   2.661730
    21  H    5.117619   4.758386   5.992720   4.429789   3.339390
    22  H    5.463342   5.110892   6.793749   3.330994   2.274473
    23  H    5.784020   5.635710   7.103613   3.497722   3.337526
                   11         12         13         14         15
    11  O    0.000000
    12  C    1.384905   0.000000
    13  C    2.528094   2.772460   0.000000
    14  C    3.688853   4.167969   1.424389   0.000000
    15  S    3.959241   4.900126   2.636300   1.703780   0.000000
    16  H    6.188948   7.499675   7.625315   7.731819   6.395024
    17  H    5.806645   7.127878   6.848925   6.815988   5.470030
    18  H    5.144295   6.327439   6.613786   6.867564   5.794330
    19  H    2.104645   1.082604   2.813236   4.200835   5.131004
    20  H    2.030045   1.067414   2.771591   4.129861   5.019679
    21  H    2.044519   1.174362   3.936613   5.315736   5.916011
    22  H    2.966367   2.700010   1.030474   2.123986   3.596029
    23  H    4.660355   4.961717   2.206201   1.067959   2.436366
                   16         17         18         19         20
    16  H    0.000000
    17  H    2.538716   0.000000
    18  H    2.512925   4.375636   0.000000
    19  H    8.178626   7.503149   7.226643   0.000000
    20  H    7.989670   7.813576   6.528357   1.790411   0.000000
    21  H    7.570468   7.393928   6.392821   1.788429   1.777018
    22  H    8.549590   7.775665   7.459762   2.503016   2.549019
    23  H    8.715158   7.714461   7.864989   4.861893   4.833298
                   21         22         23
    21  H    0.000000
    22  H    3.854490   0.000000
    23  H    6.132731   2.519377   0.000000
 Stoichiometry    C11H8F2OS
 Framework group  C1[X(C11H8F2OS)]
 Deg. of freedom    63
 Full point group                 C1      NOp   1
 Largest Abelian subgroup         C1      NOp   1
 Largest concise Abelian subgroup C1      NOp   1
                         Standard orientation:                         
 ---------------------------------------------------------------------
 Center     Atomic      Atomic             Coordinates (Angstroms)
 Number     Number       Type             X           Y           Z
 ---------------------------------------------------------------------
      1          6           0       -3.578576    0.442051    0.073369
      2          6           0       -3.036732   -0.505786    0.897137
      3          6           0       -1.639327   -0.838211    0.824349
      4          9           0       -1.217463   -1.731228    1.622557
      5          6           0       -0.825403   -0.109306   -0.113571
      6          6           0       -1.428624    0.827349   -0.931192
      7          9           0       -0.638005    1.561198   -1.744521
      8          6           0       -2.783963    1.091300   -0.801282
      9          6           0        0.609464   -0.340764   -0.156616
     10          6           0        1.603526    0.397239    0.273395
     11          8           0        1.371239    1.678289    0.875395
     12          6           0        2.536155    2.371126    1.159843
     13          6           0        2.921260   -0.133539    0.035173
     14          6           0        2.770113   -1.405280   -0.588298
     15         16           0        1.154207   -1.887255   -0.832053
     16          1           0       -4.667812    0.608966    0.045040
     17          1           0       -3.668518   -1.105868    1.628023
     18          1           0       -3.178651    1.898808   -1.514928
     19          1           0        3.181504    1.942335    1.915948
     20          1           0        3.060188    2.624991    0.265240
     21          1           0        2.193189    3.400813    1.608448
     22          1           0        3.869973    0.208085    0.247572
     23          1           0        3.584758   -2.055170   -0.821815
 ---------------------------------------------------------------------
 Rotational constants (GHZ):           0.7937491           0.4405324           0.3711287
 Leave Link  202 at Sat Jul 25 13:52:28 2020, MaxMem=  4026531840 cpu:               0.1 elap:               0.0
 (Enter /opt/ohpc/pub/libs/gaussian/g16-A.03/sandybridge/g16/l301.exe)
 Standard basis: CC-pVDZ (5D, 7F)
 Ernie: Thresh=  0.10000D-02 Tol=  0.10000D-05 Strict=F.
 Ernie:  38 primitive shells out of 398 were deleted.
 There are   269 symmetry adapted cartesian basis functions of A   symmetry.
 There are   254 symmetry adapted basis functions of A   symmetry.
   254 basis functions,   589 primitive gaussians,   269 cartesian basis functions
    58 alpha electrons       58 beta electrons
       nuclear repulsion energy      1094.4399448580 Hartrees.
 IExCor=32609 DFT=T Ex+Corr=LC-wPBE ExCW=0 ScaHFX=  1.000000
 ScaDFX=  1.000000  0.000000  1.000000  1.000000 ScalE2=  1.000000  1.000000
 IRadAn=      5 IRanWt=     -1 IRanGd=            0 ICorTp=0 IEmpDi=  4
 HFx  wShort=  0.000000 wLong=  0.218600 cFull=  0.000000 cShort=  0.000000 cLong=  1.000000
 DFx  wShort=  0.000000 wLong=  0.218600 cFull=  0.000000 cShort=  0.000000 cLong=  1.000000
 NAtoms=   23 NActive=   23 NUniq=   23 SFac= 1.00D+00 NAtFMM=   60 NAOKFM=F Big=F
 Integral buffers will be    131072 words long.
 Raffenetti 2 integral format.
 Two-electron integral symmetry is turned on.
 Leave Link  301 at Sat Jul 25 13:52:28 2020, MaxMem=  4026531840 cpu:               0.4 elap:               0.1
 (Enter /opt/ohpc/pub/libs/gaussian/g16-A.03/sandybridge/g16/l302.exe)
 NPDir=0 NMtPBC=     1 NCelOv=     1 NCel=       1 NClECP=     1 NCelD=      1
         NCelK=      1 NCelE2=     1 NClLst=     1 CellRange=     0.0.
 One-electron integrals computed using PRISM.
 One-electron integral symmetry used in STVInt
 NBasis=   254 RedAO= T EigKep=  4.24D-04  NBF=   254
 NBsUse=   254 1.00D-06 EigRej= -1.00D+00 NBFU=   254
 Precomputing XC quadrature grid using
 IXCGrd= 4 IRadAn=           5 IRanWt=          -1 IRanGd=           0 AccXCQ= 0.00D+00.
 Generated NRdTot=       0 NPtTot=           0 NUsed=           0 NTot=          32
 NSgBfM=   268   268   268   268   268 MxSgAt=    23 MxSgA2=    23.
 Leave Link  302 at Sat Jul 25 13:52:28 2020, MaxMem=  4026531840 cpu:               2.2 elap:               0.3
 (Enter /opt/ohpc/pub/libs/gaussian/g16-A.03/sandybridge/g16/l303.exe)
 DipDrv:  MaxL=1.
 Leave Link  303 at Sat Jul 25 13:52:28 2020, MaxMem=  4026531840 cpu:               0.6 elap:               0.1
 (Enter /opt/ohpc/pub/libs/gaussian/g16-A.03/sandybridge/g16/l401.exe)
 ExpMin= 1.22D-01 ExpMax= 1.11D+05 ExpMxC= 1.07D+03 IAcc=3 IRadAn=         5 AccDes= 0.00D+00
 Harris functional with IExCor=32609 and IRadAn=       5 diagonalized for initial guess.
 HarFok:  IExCor=32609 AccDes= 0.00D+00 IRadAn=         5 IDoV= 1 UseB2=F ITyADJ=14
 ICtDFT=  3500011 ScaDFX=  1.000000  1.000000  1.000000  1.000000
 FoFCou: FMM=F IPFlag=           0 FMFlag=      100000 FMFlg1=           0
         NFxFlg=           0 DoJE=T BraDBF=F KetDBF=T FulRan=T
         wScrn=  0.000000 ICntrl=       500 IOpCl=  0 I1Cent=   200000004 NGrid=           0
         NMat0=    1 NMatS0=      1 NMatT0=    0 NMatD0=    1 NMtDS0=    0 NMtDT0=    0
 Petite list used in FoFCou.
 Harris En= -1096.31757916227    
 JPrj=0 DoOrth=F DoCkMO=F.
 Initial guess <Sx>= 0.0000 <Sy>= 0.0000 <Sz>= 0.0000 <S**2>=-0.0000 S=-0.0000
 Leave Link  401 at Sat Jul 25 13:52:30 2020, MaxMem=  4026531840 cpu:              12.8 elap:               1.6
 (Enter /opt/ohpc/pub/libs/gaussian/g16-A.03/sandybridge/g16/l502.exe)
 Integral symmetry usage will be decided dynamically.
 UHF open shell SCF:
 Using DIIS extrapolation, IDIIS=  1040.
 NGot=  4026531840 LenX=  4026382097 LenY=  4026309295
 Requested convergence on RMS density matrix=1.00D-08 within 128 cycles.
 Requested convergence on MAX density matrix=1.00D-06.
 Requested convergence on             energy=1.00D-06.
 No special actions if energy rises.
 Fock matrices will be formed incrementally for  20 cycles.
 Integral accuracy reduced to 1.0D-05 until final iterations.

 Cycle   1  Pass 0  IDiag  1:
 FoFJK:  IHMeth= 1 ICntrl=       0 DoSepK=T KAlg= 0 I1Cent=           0 FoldK=F
 IRaf=         1 NMat=       1 IRICut=       1 DoRegI=T DoRafI=F ISym2E= 0 IDoP0=0 IntGTp=1.
 FoFCou: FMM=F IPFlag=           0 FMFlag=      100000 FMFlg1=           0
         NFxFlg=           0 DoJE=T BraDBF=F KetDBF=F FulRan=T
         wScrn=  0.000000 ICntrl=       500 IOpCl=  0 I1Cent=           0 NGrid=           0
         NMat0=    1 NMatS0=      1 NMatT0=    0 NMatD0=    1 NMtDS0=    0 NMtDT0=    0
 Symmetry not used in FoFCou.
 E= -1096.02350016761    
 DIIS: error= 2.13D-02 at cycle   1 NSaved=   1.
 NSaved= 1 IEnMin= 1 EnMin= -1096.02350016761     IErMin= 1 ErrMin= 2.13D-02
 ErrMax= 2.13D-02  0.00D+00 EMaxC= 1.00D-01 BMatC= 1.13D+00 BMatP= 1.13D+00
 IDIUse=3 WtCom= 7.87D-01 WtEn= 2.13D-01
 Coeff-Com:  0.100D+01
 Coeff-En:   0.100D+01
 Coeff:      0.100D+01
 Gap=     0.412 Goal=   None    Shift=    0.000
 Gap=     0.412 Goal=   None    Shift=    0.000
 GapD=    0.412 DampG=2.000 DampE=0.500 DampFc=1.0000 IDamp=-1.
 RMSDP=4.45D-03 MaxDP=1.52D-01              OVMax= 2.18D-01

 Cycle   2  Pass 0  IDiag  1:
 RMSU=  4.44D-03    CP:  9.86D-01
 E= -1095.98821545771     Delta-E=        0.035284709902 Rises=F Damp=F
 DIIS: error= 1.98D-02 at cycle   2 NSaved=   2.
 NSaved= 2 IEnMin= 1 EnMin= -1096.02350016761     IErMin= 2 ErrMin= 1.98D-02
 ErrMax= 1.98D-02  0.00D+00 EMaxC= 1.00D-01 BMatC= 1.33D+00 BMatP= 1.13D+00
 IDIUse=2 WtCom= 0.00D+00 WtEn= 1.00D+00
 Coeff-En:   0.527D+00 0.473D+00
 Coeff:      0.527D+00 0.473D+00
 Gap=     0.369 Goal=   None    Shift=    0.000
 Gap=     0.369 Goal=   None    Shift=    0.000
 RMSDP=2.48D-03 MaxDP=9.66D-02 DE= 3.53D-02 OVMax= 1.58D-01

 Cycle   3  Pass 0  IDiag  1:
 RMSU=  1.17D-03    CP:  9.93D-01  5.09D-01
 E= -1096.33784602412     Delta-E=       -0.349630566412 Rises=F Damp=F
 DIIS: error= 2.75D-03 at cycle   3 NSaved=   3.
 NSaved= 3 IEnMin= 3 EnMin= -1096.33784602412     IErMin= 3 ErrMin= 2.75D-03
 ErrMax= 2.75D-03  0.00D+00 EMaxC= 1.00D-01 BMatC= 1.88D-02 BMatP= 1.13D+00
 IDIUse=3 WtCom= 9.72D-01 WtEn= 2.75D-02
 Coeff-Com:  0.160D+00 0.156D+00 0.684D+00
 Coeff-En:   0.000D+00 0.000D+00 0.100D+01
 Coeff:      0.155D+00 0.152D+00 0.692D+00
 Gap=     0.322 Goal=   None    Shift=    0.000
 Gap=     0.322 Goal=   None    Shift=    0.000
 RMSDP=3.81D-04 MaxDP=1.04D-02 DE=-3.50D-01 OVMax= 2.76D-02

 Cycle   4  Pass 0  IDiag  1:
 RMSU=  2.94D-04    CP:  9.93D-01  5.29D-01  8.09D-01
 E= -1096.34154387632     Delta-E=       -0.003697852198 Rises=F Damp=F
 DIIS: error= 1.42D-03 at cycle   4 NSaved=   4.
 NSaved= 4 IEnMin= 4 EnMin= -1096.34154387632     IErMin= 4 ErrMin= 1.42D-03
 ErrMax= 1.42D-03  0.00D+00 EMaxC= 1.00D-01 BMatC= 4.44D-03 BMatP= 1.88D-02
 IDIUse=3 WtCom= 9.86D-01 WtEn= 1.42D-02
 Coeff-Com:  0.131D-01 0.622D-02 0.315D+00 0.665D+00
 Coeff-En:   0.000D+00 0.000D+00 0.125D+00 0.875D+00
 Coeff:      0.129D-01 0.613D-02 0.313D+00 0.668D+00
 Gap=     0.321 Goal=   None    Shift=    0.000
 Gap=     0.321 Goal=   None    Shift=    0.000
 RMSDP=1.52D-04 MaxDP=5.23D-03 DE=-3.70D-03 OVMax= 9.78D-03

 Cycle   5  Pass 0  IDiag  1:
 RMSU=  1.01D-04    CP:  9.93D-01  5.21D-01  8.84D-01  7.97D-01
 E= -1096.34262112478     Delta-E=       -0.001077248455 Rises=F Damp=F
 DIIS: error= 3.45D-04 at cycle   5 NSaved=   5.
 NSaved= 5 IEnMin= 5 EnMin= -1096.34262112478     IErMin= 5 ErrMin= 3.45D-04
 ErrMax= 3.45D-04  0.00D+00 EMaxC= 1.00D-01 BMatC= 3.19D-04 BMatP= 4.44D-03
 IDIUse=3 WtCom= 9.97D-01 WtEn= 3.45D-03
 Coeff-Com: -0.664D-02-0.127D-01 0.787D-01 0.275D+00 0.665D+00
 Coeff-En:   0.000D+00 0.000D+00 0.000D+00 0.000D+00 0.100D+01
 Coeff:     -0.661D-02-0.127D-01 0.784D-01 0.275D+00 0.666D+00
 Gap=     0.322 Goal=   None    Shift=    0.000
 Gap=     0.322 Goal=   None    Shift=    0.000
 RMSDP=4.55D-05 MaxDP=1.55D-03 DE=-1.08D-03 OVMax= 2.37D-03

 Cycle   6  Pass 0  IDiag  1:
 RMSU=  3.47D-05    CP:  9.93D-01  5.20D-01  9.01D-01  8.65D-01  9.16D-01
 E= -1096.34270664499     Delta-E=       -0.000085520209 Rises=F Damp=F
 DIIS: error= 1.11D-04 at cycle   6 NSaved=   6.
 NSaved= 6 IEnMin= 6 EnMin= -1096.34270664499     IErMin= 6 ErrMin= 1.11D-04
 ErrMax= 1.11D-04  0.00D+00 EMaxC= 1.00D-01 BMatC= 3.76D-05 BMatP= 3.19D-04
 IDIUse=3 WtCom= 9.99D-01 WtEn= 1.11D-03
 Coeff-Com: -0.478D-02-0.787D-02-0.377D-02 0.339D-01 0.256D+00 0.727D+00
 Coeff-En:   0.000D+00 0.000D+00 0.000D+00 0.000D+00 0.000D+00 0.100D+01
 Coeff:     -0.477D-02-0.787D-02-0.377D-02 0.339D-01 0.255D+00 0.727D+00
 Gap=     0.322 Goal=   None    Shift=    0.000
 Gap=     0.322 Goal=   None    Shift=    0.000
 RMSDP=2.08D-05 MaxDP=7.42D-04 DE=-8.55D-05 OVMax= 1.31D-03

 Cycle   7  Pass 0  IDiag  1:
 RMSU=  1.41D-05    CP:  9.93D-01  5.19D-01  9.06D-01  8.82D-01  1.03D+00
                    CP:  1.04D+00
 E= -1096.34272087770     Delta-E=       -0.000014232719 Rises=F Damp=F
 DIIS: error= 4.91D-05 at cycle   7 NSaved=   7.
 NSaved= 7 IEnMin= 7 EnMin= -1096.34272087770     IErMin= 7 ErrMin= 4.91D-05
 ErrMax= 4.91D-05  0.00D+00 EMaxC= 1.00D-01 BMatC= 6.43D-06 BMatP= 3.76D-05
 IDIUse=1 WtCom= 1.00D+00 WtEn= 0.00D+00
 Coeff-Com: -0.109D-02-0.175D-02-0.107D-01-0.277D-01-0.197D-01 0.265D+00
 Coeff-Com:  0.796D+00
 Coeff:     -0.109D-02-0.175D-02-0.107D-01-0.277D-01-0.197D-01 0.265D+00
 Coeff:      0.796D+00
 Gap=     0.322 Goal=   None    Shift=    0.000
 Gap=     0.322 Goal=   None    Shift=    0.000
 RMSDP=1.18D-05 MaxDP=3.58D-04 DE=-1.42D-05 OVMax= 8.39D-04

 Cycle   8  Pass 0  IDiag  1:
 RMSU=  6.79D-06    CP:  9.93D-01  5.19D-01  9.10D-01  8.95D-01  1.07D+00
                    CP:  1.24D+00  1.00D+00
 E= -1096.34272409903     Delta-E=       -0.000003221325 Rises=F Damp=F
 DIIS: error= 2.40D-05 at cycle   8 NSaved=   8.
 NSaved= 8 IEnMin= 8 EnMin= -1096.34272409903     IErMin= 8 ErrMin= 2.40D-05
 ErrMax= 2.40D-05  0.00D+00 EMaxC= 1.00D-01 BMatC= 1.65D-06 BMatP= 6.43D-06
 IDIUse=1 WtCom= 1.00D+00 WtEn= 0.00D+00
 Coeff-Com:  0.470D-03 0.729D-03-0.450D-02-0.229D-01-0.730D-01-0.366D-01
 Coeff-Com:  0.417D+00 0.719D+00
 Coeff:      0.470D-03 0.729D-03-0.450D-02-0.229D-01-0.730D-01-0.366D-01
 Coeff:      0.417D+00 0.719D+00
 Gap=     0.322 Goal=   None    Shift=    0.000
 Gap=     0.322 Goal=   None    Shift=    0.000
 RMSDP=5.29D-06 MaxDP=2.02D-04 DE=-3.22D-06 OVMax= 5.19D-04

 Initial convergence to 1.0D-05 achieved.  Increase integral accuracy.
 Cycle   9  Pass 1  IDiag  1:
 E= -1096.34257015525     Delta-E=        0.000153943777 Rises=F Damp=F
 DIIS: error= 7.96D-05 at cycle   1 NSaved=   1.
 NSaved= 1 IEnMin= 1 EnMin= -1096.34257015525     IErMin= 1 ErrMin= 7.96D-05
 ErrMax= 7.96D-05  0.00D+00 EMaxC= 1.00D-01 BMatC= 2.26D-06 BMatP= 2.26D-06
 IDIUse=1 WtCom= 1.00D+00 WtEn= 0.00D+00
 Coeff-Com:  0.100D+01
 Coeff:      0.100D+01
 Gap=     0.322 Goal=   None    Shift=    0.000
 Gap=     0.322 Goal=   None    Shift=    0.000
 RMSDP=5.29D-06 MaxDP=2.02D-04 DE= 1.54D-04 OVMax= 1.50D-04

 Cycle  10  Pass 1  IDiag  1:
 RMSU=  4.00D-05    CP:  1.00D+00
 E= -1096.34257057566     Delta-E=       -0.000000420410 Rises=F Damp=F
 DIIS: error= 8.33D-06 at cycle   2 NSaved=   2.
 NSaved= 2 IEnMin= 2 EnMin= -1096.34257057566     IErMin= 2 ErrMin= 8.33D-06
 ErrMax= 8.33D-06  0.00D+00 EMaxC= 1.00D-01 BMatC= 1.46D-07 BMatP= 2.26D-06
 IDIUse=1 WtCom= 1.00D+00 WtEn= 0.00D+00
 Coeff-Com:  0.689D-01 0.931D+00
 Coeff:      0.689D-01 0.931D+00
 Gap=     0.322 Goal=   None    Shift=    0.000
 Gap=     0.322 Goal=   None    Shift=    0.000
 RMSDP=2.49D-06 MaxDP=8.05D-05 DE=-4.20D-07 OVMax= 1.23D-04

 Cycle  11  Pass 1  IDiag  1:
 RMSU=  1.60D-06    CP:  1.00D+00  1.05D+00
 E= -1096.34257055693     Delta-E=        0.000000018729 Rises=F Damp=F
 DIIS: error= 1.07D-05 at cycle   3 NSaved=   3.
 NSaved= 3 IEnMin= 2 EnMin= -1096.34257057566     IErMin= 2 ErrMin= 8.33D-06
 ErrMax= 1.07D-05  0.00D+00 EMaxC= 1.00D-01 BMatC= 2.18D-07 BMatP= 1.46D-07
 IDIUse=1 WtCom= 1.00D+00 WtEn= 0.00D+00
 Coeff-Com: -0.218D-01 0.558D+00 0.464D+00
 Coeff:     -0.218D-01 0.558D+00 0.464D+00
 Gap=     0.322 Goal=   None    Shift=    0.000
 Gap=     0.322 Goal=   None    Shift=    0.000
 RMSDP=8.71D-07 MaxDP=4.69D-05 DE= 1.87D-08 OVMax= 6.78D-05

 Cycle  12  Pass 1  IDiag  1:
 RMSU=  4.92D-07    CP:  1.00D+00  1.05D+00  5.76D-01
 E= -1096.34257061032     Delta-E=       -0.000000053383 Rises=F Damp=F
 DIIS: error= 1.17D-06 at cycle   4 NSaved=   4.
 NSaved= 4 IEnMin= 4 EnMin= -1096.34257061032     IErMin= 4 ErrMin= 1.17D-06
 ErrMax= 1.17D-06  0.00D+00 EMaxC= 1.00D-01 BMatC= 2.40D-09 BMatP= 1.46D-07
 IDIUse=1 WtCom= 1.00D+00 WtEn= 0.00D+00
 Coeff-Com: -0.104D-01 0.202D+00 0.178D+00 0.630D+00
 Coeff:     -0.104D-01 0.202D+00 0.178D+00 0.630D+00
 Gap=     0.322 Goal=   None    Shift=    0.000
 Gap=     0.322 Goal=   None    Shift=    0.000
 RMSDP=1.61D-07 MaxDP=4.84D-06 DE=-5.34D-08 OVMax= 1.11D-05

 Cycle  13  Pass 1  IDiag  1:
 RMSU=  1.45D-07    CP:  1.00D+00  1.05D+00  6.09D-01  1.05D+00
 E= -1096.34257061131     Delta-E=       -0.000000000999 Rises=F Damp=F
 DIIS: error= 5.55D-07 at cycle   5 NSaved=   5.
 NSaved= 5 IEnMin= 5 EnMin= -1096.34257061131     IErMin= 5 ErrMin= 5.55D-07
 ErrMax= 5.55D-07  0.00D+00 EMaxC= 1.00D-01 BMatC= 5.26D-10 BMatP= 2.40D-09
 IDIUse=1 WtCom= 1.00D+00 WtEn= 0.00D+00
 Coeff-Com:  0.357D-02-0.114D+00-0.991D-01 0.199D+00 0.101D+01
 Coeff:      0.357D-02-0.114D+00-0.991D-01 0.199D+00 0.101D+01
 Gap=     0.322 Goal=   None    Shift=    0.000
 Gap=     0.322 Goal=   None    Shift=    0.000
 RMSDP=1.46D-07 MaxDP=4.61D-06 DE=-9.99D-10 OVMax= 1.47D-05

 Cycle  14  Pass 1  IDiag  1:
 RMSU=  8.33D-08    CP:  1.00D+00  1.06D+00  6.24D-01  1.27D+00  1.24D+00
 E= -1096.34257061181     Delta-E=       -0.000000000494 Rises=F Damp=F
 DIIS: error= 2.00D-07 at cycle   6 NSaved=   6.
 NSaved= 6 IEnMin= 6 EnMin= -1096.34257061181     IErMin= 6 ErrMin= 2.00D-07
 ErrMax= 2.00D-07  0.00D+00 EMaxC= 1.00D-01 BMatC= 1.09D-10 BMatP= 5.26D-10
 IDIUse=1 WtCom= 1.00D+00 WtEn= 0.00D+00
 Coeff-Com:  0.314D-02-0.811D-01-0.718D-01-0.113D-01 0.452D+00 0.709D+00
 Coeff:      0.314D-02-0.811D-01-0.718D-01-0.113D-01 0.452D+00 0.709D+00
 Gap=     0.322 Goal=   None    Shift=    0.000
 Gap=     0.322 Goal=   None    Shift=    0.000
 RMSDP=4.62D-08 MaxDP=1.24D-06 DE=-4.94D-10 OVMax= 4.89D-06

 Cycle  15  Pass 1  IDiag  1:
 RMSU=  2.55D-08    CP:  1.00D+00  1.06D+00  6.29D-01  1.32D+00  1.41D+00
                    CP:  1.20D+00
 E= -1096.34257061183     Delta-E=       -0.000000000017 Rises=F Damp=F
 DIIS: error= 6.46D-08 at cycle   7 NSaved=   7.
 NSaved= 7 IEnMin= 7 EnMin= -1096.34257061183     IErMin= 7 ErrMin= 6.46D-08
 ErrMax= 6.46D-08  0.00D+00 EMaxC= 1.00D-01 BMatC= 1.06D-11 BMatP= 1.09D-10
 IDIUse=1 WtCom= 1.00D+00 WtEn= 0.00D+00
 Coeff-Com:  0.529D-03-0.106D-01-0.980D-02-0.346D-01 0.140D-01 0.252D+00
 Coeff-Com:  0.788D+00
 Coeff:      0.529D-03-0.106D-01-0.980D-02-0.346D-01 0.140D-01 0.252D+00
 Coeff:      0.788D+00
 Gap=     0.322 Goal=   None    Shift=    0.000
 Gap=     0.322 Goal=   None    Shift=    0.000
 RMSDP=1.55D-08 MaxDP=4.85D-07 DE=-1.73D-11 OVMax= 1.57D-06

 Cycle  16  Pass 1  IDiag  1:
 RMSU=  7.51D-09    CP:  1.00D+00  1.06D+00  6.29D-01  1.32D+00  1.45D+00
                    CP:  1.33D+00  1.00D+00
 E= -1096.34257061180     Delta-E=        0.000000000027 Rises=F Damp=F
 DIIS: error= 3.07D-08 at cycle   8 NSaved=   8.
 NSaved= 8 IEnMin= 7 EnMin= -1096.34257061183     IErMin= 8 ErrMin= 3.07D-08
 ErrMax= 3.07D-08  0.00D+00 EMaxC= 1.00D-01 BMatC= 1.93D-12 BMatP= 1.06D-11
 IDIUse=1 WtCom= 1.00D+00 WtEn= 0.00D+00
 Coeff-Com: -0.141D-03 0.510D-02 0.444D-02-0.159D-01-0.507D-01 0.252D-01
 Coeff-Com:  0.366D+00 0.666D+00
 Coeff:     -0.141D-03 0.510D-02 0.444D-02-0.159D-01-0.507D-01 0.252D-01
 Coeff:      0.366D+00 0.666D+00
 Gap=     0.322 Goal=   None    Shift=    0.000
 Gap=     0.322 Goal=   None    Shift=    0.000
 RMSDP=5.38D-09 MaxDP=1.47D-07 DE= 2.73D-11 OVMax= 4.38D-07

 SCF Done:  E(ULC-wPBE) =  -1096.34257061     A.U. after   16 cycles
            NFock= 16  Conv=0.54D-08     -V/T= 2.0044
 <Sx>= 0.0000 <Sy>= 0.0000 <Sz>= 0.0000 <S**2>=-0.0000 S=-0.0000
 <L.S>= 0.000000000000E+00
 KE= 1.091555724234D+03 PE=-4.771698105788D+03 EE= 1.489359866084D+03
 Annihilation of the first spin contaminant:
 S**2 before annihilation    -0.0000,   after     0.0000
 Leave Link  502 at Sat Jul 25 13:53:51 2020, MaxMem=  4026531840 cpu:             639.8 elap:              80.4
 (Enter /opt/ohpc/pub/libs/gaussian/g16-A.03/sandybridge/g16/l601.exe)
 Copying SCF densities to generalized density rwf, IOpCl= 1 IROHF=0.

 **********************************************************************

            Population analysis using the SCF density.

 **********************************************************************

 Orbital symmetries:
 Alpha Orbitals:
       Occupied  (A) (A) (A) (A) (A) (A) (A) (A) (A) (A) (A) (A)
                 (A) (A) (A) (A) (A) (A) (A) (A) (A) (A) (A) (A)
                 (A) (A) (A) (A) (A) (A) (A) (A) (A) (A) (A) (A)
                 (A) (A) (A) (A) (A) (A) (A) (A) (A) (A) (A) (A)
                 (A) (A) (A) (A) (A) (A) (A) (A) (A) (A)
       Virtual   (A) (A) (A) (A) (A) (A) (A) (A) (A) (A) (A) (A)
                 (A) (A) (A) (A) (A) (A) (A) (A) (A) (A) (A) (A)
                 (A) (A) (A) (A) (A) (A) (A) (A) (A) (A) (A) (A)
                 (A) (A) (A) (A) (A) (A) (A) (A) (A) (A) (A) (A)
                 (A) (A) (A) (A) (A) (A) (A) (A) (A) (A) (A) (A)
                 (A) (A) (A) (A) (A) (A) (A) (A) (A) (A) (A) (A)
                 (A) (A) (A) (A) (A) (A) (A) (A) (A) (A) (A) (A)
                 (A) (A) (A) (A) (A) (A) (A) (A) (A) (A) (A) (A)
                 (A) (A) (A) (A) (A) (A) (A) (A) (A) (A) (A) (A)
                 (A) (A) (A) (A) (A) (A) (A) (A) (A) (A) (A) (A)
                 (A) (A) (A) (A) (A) (A) (A) (A) (A) (A) (A) (A)
                 (A) (A) (A) (A) (A) (A) (A) (A) (A) (A) (A) (A)
                 (A) (A) (A) (A) (A) (A) (A) (A) (A) (A) (A) (A)
                 (A) (A) (A) (A) (A) (A) (A) (A) (A) (A) (A) (A)
                 (A) (A) (A) (A) (A) (A) (A) (A) (A) (A) (A) (A)
                 (A) (A) (A) (A) (A) (A) (A) (A) (A) (A) (A) (A)
                 (A) (A) (A) (A)
 Beta  Orbitals:
       Occupied  (A) (A) (A) (A) (A) (A) (A) (A) (A) (A) (A) (A)
                 (A) (A) (A) (A) (A) (A) (A) (A) (A) (A) (A) (A)
                 (A) (A) (A) (A) (A) (A) (A) (A) (A) (A) (A) (A)
                 (A) (A) (A) (A) (A) (A) (A) (A) (A) (A) (A) (A)
                 (A) (A) (A) (A) (A) (A) (A) (A) (A) (A)
       Virtual   (A) (A) (A) (A) (A) (A) (A) (A) (A) (A) (A) (A)
                 (A) (A) (A) (A) (A) (A) (A) (A) (A) (A) (A) (A)
                 (A) (A) (A) (A) (A) (A) (A) (A) (A) (A) (A) (A)
                 (A) (A) (A) (A) (A) (A) (A) (A) (A) (A) (A) (A)
                 (A) (A) (A) (A) (A) (A) (A) (A) (A) (A) (A) (A)
                 (A) (A) (A) (A) (A) (A) (A) (A) (A) (A) (A) (A)
                 (A) (A) (A) (A) (A) (A) (A) (A) (A) (A) (A) (A)
                 (A) (A) (A) (A) (A) (A) (A) (A) (A) (A) (A) (A)
                 (A) (A) (A) (A) (A) (A) (A) (A) (A) (A) (A) (A)
                 (A) (A) (A) (A) (A) (A) (A) (A) (A) (A) (A) (A)
                 (A) (A) (A) (A) (A) (A) (A) (A) (A) (A) (A) (A)
                 (A) (A) (A) (A) (A) (A) (A) (A) (A) (A) (A) (A)
                 (A) (A) (A) (A) (A) (A) (A) (A) (A) (A) (A) (A)
                 (A) (A) (A) (A) (A) (A) (A) (A) (A) (A) (A) (A)
                 (A) (A) (A) (A) (A) (A) (A) (A) (A) (A) (A) (A)
                 (A) (A) (A) (A) (A) (A) (A) (A) (A) (A) (A) (A)
                 (A) (A) (A) (A)
 The electronic state is 1-A.
 Alpha  occ. eigenvalues --  -88.22439 -24.43303 -24.40876 -18.91208 -10.11900
 Alpha  occ. eigenvalues --  -10.10606 -10.07728 -10.06558 -10.05286 -10.04549
 Alpha  occ. eigenvalues --  -10.04379 -10.03333 -10.03089 -10.02907 -10.02712
 Alpha  occ. eigenvalues --   -7.82824  -5.84805  -5.84361  -5.83935  -1.29816
 Alpha  occ. eigenvalues --   -1.24539  -1.08994  -0.94250  -0.91852  -0.84248
 Alpha  occ. eigenvalues --   -0.80483  -0.80122  -0.77795  -0.73593  -0.69542
 Alpha  occ. eigenvalues --   -0.68816  -0.64132  -0.63172  -0.60968  -0.59768
 Alpha  occ. eigenvalues --   -0.59071  -0.55648  -0.55499  -0.54187  -0.53213
 Alpha  occ. eigenvalues --   -0.52208  -0.51293  -0.49843  -0.49540  -0.47459
 Alpha  occ. eigenvalues --   -0.46284  -0.46241  -0.44563  -0.42897  -0.42620
 Alpha  occ. eigenvalues --   -0.41826  -0.40803  -0.38623  -0.38146  -0.33150
 Alpha  occ. eigenvalues --   -0.30914  -0.30776  -0.28794
 Alpha virt. eigenvalues --    0.03375   0.04814   0.05646   0.08787   0.12256
 Alpha virt. eigenvalues --    0.13285   0.13926   0.15938   0.17061   0.17727
 Alpha virt. eigenvalues --    0.18137   0.19321   0.20305   0.21174   0.21969
 Alpha virt. eigenvalues --    0.22244   0.23665   0.26021   0.29219   0.31880
 Alpha virt. eigenvalues --    0.32440   0.33883   0.35025   0.39510   0.42607
 Alpha virt. eigenvalues --    0.43251   0.43843   0.47534   0.49454   0.50043
 Alpha virt. eigenvalues --    0.50596   0.50959   0.51348   0.52318   0.52434
 Alpha virt. eigenvalues --    0.53098   0.53865   0.54121   0.55293   0.55892
 Alpha virt. eigenvalues --    0.56000   0.56175   0.57039   0.57361   0.58890
 Alpha virt. eigenvalues --    0.60209   0.61294   0.62396   0.63922   0.64144
 Alpha virt. eigenvalues --    0.64530   0.65166   0.67423   0.68085   0.68519
 Alpha virt. eigenvalues --    0.69119   0.70599   0.71042   0.72013   0.73562
 Alpha virt. eigenvalues --    0.74535   0.75196   0.77457   0.78022   0.78054
 Alpha virt. eigenvalues --    0.79294   0.82185   0.82554   0.83977   0.84246
 Alpha virt. eigenvalues --    0.89261   0.91060   0.92848   0.93412   0.95227
 Alpha virt. eigenvalues --    0.95715   0.97971   0.98935   1.00129   1.00866
 Alpha virt. eigenvalues --    1.02280   1.03470   1.05461   1.07129   1.07761
 Alpha virt. eigenvalues --    1.08370   1.09694   1.10855   1.12460   1.13800
 Alpha virt. eigenvalues --    1.14950   1.16404   1.19799   1.21368   1.21993
 Alpha virt. eigenvalues --    1.22749   1.24140   1.26492   1.29047   1.29594
 Alpha virt. eigenvalues --    1.33103   1.33774   1.35500   1.37066   1.38221
 Alpha virt. eigenvalues --    1.40675   1.43316   1.44466   1.45121   1.46120
 Alpha virt. eigenvalues --    1.49656   1.51598   1.53234   1.54264   1.54934
 Alpha virt. eigenvalues --    1.58126   1.58278   1.59870   1.60856   1.62407
 Alpha virt. eigenvalues --    1.63454   1.64331   1.65283   1.66650   1.68104
 Alpha virt. eigenvalues --    1.68465   1.69718   1.70340   1.71620   1.72821
 Alpha virt. eigenvalues --    1.73310   1.74572   1.75041   1.76579   1.79075
 Alpha virt. eigenvalues --    1.81096   1.81894   1.82321   1.83190   1.85790
 Alpha virt. eigenvalues --    1.87290   1.87419   1.88335   1.90975   1.91439
 Alpha virt. eigenvalues --    1.94724   1.95575   1.99677   2.01121   2.01684
 Alpha virt. eigenvalues --    2.03282   2.07792   2.09885   2.10061   2.10456
 Alpha virt. eigenvalues --    2.12200   2.14103   2.15697   2.22767   2.23770
 Alpha virt. eigenvalues --    2.27392   2.30594   2.32017   2.33241   2.38642
 Alpha virt. eigenvalues --    2.40902   2.41889   2.46118   2.47404   2.49583
 Alpha virt. eigenvalues --    2.51723   2.54255   2.56762   2.59100   2.60493
 Alpha virt. eigenvalues --    2.63540   2.69172   2.77266   2.79812   2.91945
 Alpha virt. eigenvalues --    3.00692   3.08169   3.09035   3.34375   3.34879
 Alpha virt. eigenvalues --    3.47949   3.56880   3.59667   3.60762   3.63623
 Alpha virt. eigenvalues --    3.77916   3.83140   3.98930   4.04869   4.14948
 Alpha virt. eigenvalues --    4.29153
  Beta  occ. eigenvalues --  -88.22439 -24.43303 -24.40876 -18.91208 -10.11900
  Beta  occ. eigenvalues --  -10.10606 -10.07728 -10.06558 -10.05286 -10.04549
  Beta  occ. eigenvalues --  -10.04379 -10.03333 -10.03089 -10.02907 -10.02712
  Beta  occ. eigenvalues --   -7.82824  -5.84805  -5.84361  -5.83935  -1.29816
  Beta  occ. eigenvalues --   -1.24539  -1.08994  -0.94250  -0.91852  -0.84248
  Beta  occ. eigenvalues --   -0.80483  -0.80122  -0.77795  -0.73593  -0.69542
  Beta  occ. eigenvalues --   -0.68816  -0.64132  -0.63172  -0.60968  -0.59768
  Beta  occ. eigenvalues --   -0.59071  -0.55648  -0.55499  -0.54187  -0.53213
  Beta  occ. eigenvalues --   -0.52208  -0.51293  -0.49843  -0.49540  -0.47459
  Beta  occ. eigenvalues --   -0.46284  -0.46241  -0.44563  -0.42897  -0.42620
  Beta  occ. eigenvalues --   -0.41826  -0.40803  -0.38623  -0.38146  -0.33150
  Beta  occ. eigenvalues --   -0.30914  -0.30776  -0.28794
  Beta virt. eigenvalues --    0.03375   0.04814   0.05646   0.08787   0.12256
  Beta virt. eigenvalues --    0.13285   0.13926   0.15938   0.17061   0.17727
  Beta virt. eigenvalues --    0.18137   0.19321   0.20305   0.21174   0.21969
  Beta virt. eigenvalues --    0.22244   0.23665   0.26021   0.29219   0.31880
  Beta virt. eigenvalues --    0.32440   0.33883   0.35025   0.39510   0.42607
  Beta virt. eigenvalues --    0.43251   0.43843   0.47534   0.49454   0.50043
  Beta virt. eigenvalues --    0.50596   0.50959   0.51348   0.52318   0.52434
  Beta virt. eigenvalues --    0.53098   0.53865   0.54121   0.55293   0.55892
  Beta virt. eigenvalues --    0.56000   0.56175   0.57039   0.57361   0.58890
  Beta virt. eigenvalues --    0.60209   0.61294   0.62396   0.63922   0.64144
  Beta virt. eigenvalues --    0.64530   0.65166   0.67423   0.68085   0.68519
  Beta virt. eigenvalues --    0.69119   0.70599   0.71042   0.72013   0.73562
  Beta virt. eigenvalues --    0.74535   0.75196   0.77457   0.78022   0.78054
  Beta virt. eigenvalues --    0.79294   0.82185   0.82554   0.83977   0.84246
  Beta virt. eigenvalues --    0.89261   0.91060   0.92848   0.93412   0.95227
  Beta virt. eigenvalues --    0.95715   0.97971   0.98935   1.00129   1.00866
  Beta virt. eigenvalues --    1.02280   1.03470   1.05461   1.07129   1.07761
  Beta virt. eigenvalues --    1.08370   1.09694   1.10855   1.12460   1.13800
  Beta virt. eigenvalues --    1.14950   1.16404   1.19799   1.21368   1.21993
  Beta virt. eigenvalues --    1.22749   1.24140   1.26492   1.29047   1.29594
  Beta virt. eigenvalues --    1.33103   1.33774   1.35500   1.37066   1.38221
  Beta virt. eigenvalues --    1.40675   1.43316   1.44466   1.45121   1.46120
  Beta virt. eigenvalues --    1.49656   1.51598   1.53234   1.54264   1.54934
  Beta virt. eigenvalues --    1.58126   1.58278   1.59870   1.60856   1.62407
  Beta virt. eigenvalues --    1.63454   1.64331   1.65283   1.66650   1.68104
  Beta virt. eigenvalues --    1.68465   1.69718   1.70340   1.71620   1.72821
  Beta virt. eigenvalues --    1.73310   1.74572   1.75041   1.76579   1.79075
  Beta virt. eigenvalues --    1.81096   1.81894   1.82321   1.83190   1.85790
  Beta virt. eigenvalues --    1.87290   1.87419   1.88335   1.90975   1.91439
  Beta virt. eigenvalues --    1.94724   1.95575   1.99677   2.01121   2.01684
  Beta virt. eigenvalues --    2.03282   2.07792   2.09885   2.10061   2.10456
  Beta virt. eigenvalues --    2.12200   2.14103   2.15697   2.22767   2.23770
  Beta virt. eigenvalues --    2.27392   2.30594   2.32017   2.33241   2.38642
  Beta virt. eigenvalues --    2.40902   2.41889   2.46118   2.47404   2.49583
  Beta virt. eigenvalues --    2.51723   2.54255   2.56762   2.59100   2.60493
  Beta virt. eigenvalues --    2.63540   2.69172   2.77266   2.79812   2.91945
  Beta virt. eigenvalues --    3.00692   3.08169   3.09035   3.34375   3.34879
  Beta virt. eigenvalues --    3.47949   3.56880   3.59667   3.60762   3.63623
  Beta virt. eigenvalues --    3.77916   3.83140   3.98930   4.04869   4.14948
  Beta virt. eigenvalues --    4.29153
          Condensed to atoms (all electrons):
               1          2          3          4          5          6
     1  C    4.771560   0.400853   0.041874   0.004939  -0.084494   0.056592
     2  C    0.400853   5.068533   0.403768  -0.061966  -0.021265  -0.100640
     3  C    0.041874   0.403768   4.835727   0.478695   0.260221   0.060206
     4  F    0.004939  -0.061966   0.478695   8.676822  -0.073546   0.002538
     5  C   -0.084494  -0.021265   0.260221  -0.073546   5.828898   0.233040
     6  C    0.056592  -0.100640   0.060206   0.002538   0.233040   4.882841
     7  F    0.004264  -0.000311   0.003114  -0.000000  -0.087824   0.471841
     8  C    0.419486   0.036582  -0.099161  -0.000200  -0.019181   0.383504
     9  C   -0.001628   0.013384  -0.096627   0.007050   0.167822  -0.100697
    10  C   -0.000055   0.000235  -0.001712  -0.000677  -0.053829  -0.005794
    11  O   -0.000007   0.000004  -0.000459  -0.000001   0.007429   0.002402
    12  C    0.000000  -0.000000  -0.000004  -0.000001  -0.000183  -0.000086
    13  C   -0.000001   0.000012  -0.000043   0.000037   0.010886   0.000612
    14  C   -0.000000  -0.000001   0.000111  -0.000002   0.003026  -0.000134
    15  S    0.000003  -0.000104  -0.006741   0.001052  -0.063141   0.000742
    16  H    0.400966  -0.051686   0.008941  -0.000044  -0.001974   0.010489
    17  H   -0.045513   0.372622  -0.034899   0.002158   0.012169  -0.000221
    18  H   -0.054535   0.009787  -0.000426   0.000002   0.015837  -0.030303
    19  H   -0.000000   0.000000   0.000002   0.000000   0.000036   0.000007
    20  H    0.000000   0.000000  -0.000004  -0.000000   0.000198   0.000003
    21  H   -0.000000  -0.000000   0.000002  -0.000000  -0.000081  -0.000000
    22  H   -0.000000  -0.000000   0.000000   0.000001  -0.000290   0.000010
    23  H    0.000000  -0.000000  -0.000005   0.000000  -0.000353   0.000003
               7          8          9         10         11         12
     1  C    0.004264   0.419486  -0.001628  -0.000055  -0.000007   0.000000
     2  C   -0.000311   0.036582   0.013384   0.000235   0.000004  -0.000000
     3  C    0.003114  -0.099161  -0.096627  -0.001712  -0.000459  -0.000004
     4  F   -0.000000  -0.000200   0.007050  -0.000677  -0.000001  -0.000001
     5  C   -0.087824  -0.019181   0.167822  -0.053829   0.007429  -0.000183
     6  C    0.471841   0.383504  -0.100697  -0.005794   0.002402  -0.000086
     7  F    8.773482  -0.059525   0.003521   0.002124  -0.000303  -0.000039
     8  C   -0.059525   5.026919   0.013899   0.000733   0.000089   0.000002
     9  C    0.003521   0.013899   5.521688   0.501818  -0.078010   0.007088
    10  C    0.002124   0.000733   0.501818   4.832312   0.439742  -0.075430
    11  O   -0.000303   0.000089  -0.078010   0.439742   7.663341   0.369951
    12  C   -0.000039   0.000002   0.007088  -0.075430   0.369951   4.468518
    13  C    0.000146   0.000017  -0.049514   0.319034  -0.066811  -0.001714
    14  C    0.000003   0.000002  -0.083780  -0.013964   0.003727   0.000572
    15  S   -0.000121  -0.000147   0.355030  -0.077337   0.002576  -0.000230
    16  H   -0.000035  -0.046327   0.000011   0.000001  -0.000000  -0.000000
    17  H    0.000002   0.009291  -0.000411  -0.000000   0.000001  -0.000000
    18  H    0.001656   0.364566  -0.000512  -0.000019   0.000007  -0.000000
    19  H   -0.000001   0.000001   0.000347  -0.009923  -0.028810   0.389152
    20  H    0.000029   0.000000   0.001472  -0.010745  -0.034305   0.391397
    21  H   -0.000002  -0.000001  -0.000471   0.005079  -0.021795   0.384397
    22  H    0.000004  -0.000000   0.007860  -0.054637  -0.004633   0.005139
    23  H    0.000000  -0.000000   0.001021   0.008833  -0.000051   0.000012
              13         14         15         16         17         18
     1  C   -0.000001  -0.000000   0.000003   0.400966  -0.045513  -0.054535
     2  C    0.000012  -0.000001  -0.000104  -0.051686   0.372622   0.009787
     3  C   -0.000043   0.000111  -0.006741   0.008941  -0.034899  -0.000426
     4  F    0.000037  -0.000002   0.001052  -0.000044   0.002158   0.000002
     5  C    0.010886   0.003026  -0.063141  -0.001974   0.012169   0.015837
     6  C    0.000612  -0.000134   0.000742   0.010489  -0.000221  -0.030303
     7  F    0.000146   0.000003  -0.000121  -0.000035   0.000002   0.001656
     8  C    0.000017   0.000002  -0.000147  -0.046327   0.009291   0.364566
     9  C   -0.049514  -0.083780   0.355030   0.000011  -0.000411  -0.000512
    10  C    0.319034  -0.013964  -0.077337   0.000001  -0.000000  -0.000019
    11  O   -0.066811   0.003727   0.002576  -0.000000   0.000001   0.000007
    12  C   -0.001714   0.000572  -0.000230  -0.000000  -0.000000  -0.000000
    13  C    4.891601   0.536567  -0.090443   0.000000  -0.000000  -0.000000
    14  C    0.536567   4.953610   0.367594  -0.000000   0.000000  -0.000000
    15  S   -0.090443   0.367594  15.364306  -0.000000   0.000002   0.000009
    16  H    0.000000  -0.000000  -0.000000   0.710799  -0.014010  -0.016024
    17  H   -0.000000   0.000000   0.000002  -0.014010   0.691324  -0.000180
    18  H   -0.000000  -0.000000   0.000009  -0.016024  -0.000180   0.701098
    19  H    0.008054   0.000047  -0.000086  -0.000000  -0.000000   0.000000
    20  H    0.010883  -0.000016  -0.000139   0.000000   0.000000  -0.000000
    21  H   -0.000345  -0.000021   0.000020   0.000000  -0.000000  -0.000000
    22  H    0.410194  -0.042057   0.007657  -0.000000   0.000000   0.000000
    23  H   -0.017416   0.391001  -0.042546  -0.000000   0.000000   0.000000
              19         20         21         22         23
     1  C   -0.000000   0.000000  -0.000000  -0.000000   0.000000
     2  C    0.000000   0.000000  -0.000000  -0.000000  -0.000000
     3  C    0.000002  -0.000004   0.000002   0.000000  -0.000005
     4  F    0.000000  -0.000000  -0.000000   0.000001   0.000000
     5  C    0.000036   0.000198  -0.000081  -0.000290  -0.000353
     6  C    0.000007   0.000003  -0.000000   0.000010   0.000003
     7  F   -0.000001   0.000029  -0.000002   0.000004   0.000000
     8  C    0.000001   0.000000  -0.000001  -0.000000  -0.000000
     9  C    0.000347   0.001472  -0.000471   0.007860   0.001021
    10  C   -0.009923  -0.010745   0.005079  -0.054637   0.008833
    11  O   -0.028810  -0.034305  -0.021795  -0.004633  -0.000051
    12  C    0.389152   0.391397   0.384397   0.005139   0.000012
    13  C    0.008054   0.010883  -0.000345   0.410194  -0.017416
    14  C    0.000047  -0.000016  -0.000021  -0.042057   0.391001
    15  S   -0.000086  -0.000139   0.000020   0.007657  -0.042546
    16  H   -0.000000   0.000000   0.000000  -0.000000  -0.000000
    17  H   -0.000000   0.000000  -0.000000   0.000000   0.000000
    18  H    0.000000  -0.000000  -0.000000   0.000000   0.000000
    19  H    0.691542  -0.051041  -0.031465   0.001405   0.000008
    20  H   -0.051041   0.689128  -0.027764   0.002096   0.000007
    21  H   -0.031465  -0.027764   0.644829  -0.000262   0.000000
    22  H    0.001405   0.002096  -0.000262   0.708766  -0.009899
    23  H    0.000008   0.000007   0.000000  -0.009899   0.659790
          Atomic-Atomic Spin Densities.
               1          2          3          4          5          6
     1  C    0.000000   0.000000   0.000000  -0.000000  -0.000000   0.000000
     2  C    0.000000  -0.000000  -0.000000   0.000000   0.000000  -0.000000
     3  C    0.000000  -0.000000  -0.000000   0.000000  -0.000000   0.000000
     4  F   -0.000000   0.000000   0.000000  -0.000000  -0.000000   0.000000
     5  C   -0.000000   0.000000  -0.000000  -0.000000   0.000000  -0.000000
     6  C    0.000000  -0.000000   0.000000   0.000000  -0.000000   0.000000
     7  F    0.000000  -0.000000  -0.000000  -0.000000  -0.000000   0.000000
     8  C   -0.000000   0.000000  -0.000000  -0.000000   0.000000   0.000000
     9  C    0.000000  -0.000000   0.000000   0.000000   0.000000  -0.000000
    10  C    0.000000  -0.000000   0.000000  -0.000000   0.000000   0.000000
    11  O   -0.000000   0.000000  -0.000000   0.000000   0.000000  -0.000000
    12  C    0.000000  -0.000000   0.000000  -0.000000  -0.000000  -0.000000
    13  C   -0.000000   0.000000  -0.000000  -0.000000   0.000000   0.000000
    14  C   -0.000000  -0.000000   0.000000   0.000000  -0.000000  -0.000000
    15  S    0.000000  -0.000000   0.000000   0.000000   0.000000   0.000000
    16  H    0.000000   0.000000   0.000000  -0.000000  -0.000000  -0.000000
    17  H   -0.000000   0.000000   0.000000   0.000000   0.000000  -0.000000
    18  H   -0.000000   0.000000  -0.000000  -0.000000   0.000000  -0.000000
    19  H   -0.000000   0.000000   0.000000  -0.000000   0.000000  -0.000000
    20  H   -0.000000   0.000000  -0.000000   0.000000   0.000000   0.000000
    21  H    0.000000  -0.000000   0.000000  -0.000000  -0.000000  -0.000000
    22  H    0.000000   0.000000   0.000000  -0.000000   0.000000   0.000000
    23  H    0.000000  -0.000000   0.000000   0.000000  -0.000000  -0.000000
               7          8          9         10         11         12
     1  C    0.000000  -0.000000   0.000000   0.000000  -0.000000   0.000000
     2  C   -0.000000   0.000000  -0.000000  -0.000000   0.000000  -0.000000
     3  C   -0.000000  -0.000000   0.000000   0.000000  -0.000000   0.000000
     4  F   -0.000000  -0.000000   0.000000  -0.000000   0.000000  -0.000000
     5  C   -0.000000   0.000000   0.000000   0.000000   0.000000  -0.000000
     6  C    0.000000   0.000000  -0.000000   0.000000  -0.000000  -0.000000
     7  F   -0.000000   0.000000  -0.000000  -0.000000  -0.000000  -0.000000
     8  C    0.000000   0.000000  -0.000000  -0.000000   0.000000  -0.000000
     9  C   -0.000000  -0.000000   0.000000  -0.000000  -0.000000   0.000000
    10  C   -0.000000  -0.000000  -0.000000   0.000000   0.000000   0.000000
    11  O   -0.000000   0.000000  -0.000000   0.000000  -0.000000  -0.000000
    12  C   -0.000000  -0.000000   0.000000   0.000000  -0.000000   0.000000
    13  C    0.000000   0.000000   0.000000  -0.000000  -0.000000  -0.000000
    14  C   -0.000000  -0.000000   0.000000   0.000000   0.000000  -0.000000
    15  S    0.000000  -0.000000  -0.000000   0.000000   0.000000  -0.000000
    16  H   -0.000000  -0.000000   0.000000  -0.000000   0.000000   0.000000
    17  H   -0.000000   0.000000  -0.000000   0.000000   0.000000  -0.000000
    18  H    0.000000   0.000000   0.000000   0.000000   0.000000  -0.000000
    19  H   -0.000000   0.000000   0.000000   0.000000   0.000000   0.000000
    20  H   -0.000000   0.000000   0.000000  -0.000000   0.000000  -0.000000
    21  H   -0.000000  -0.000000  -0.000000  -0.000000  -0.000000   0.000000
    22  H    0.000000  -0.000000   0.000000  -0.000000  -0.000000   0.000000
    23  H   -0.000000  -0.000000  -0.000000   0.000000   0.000000  -0.000000
              13         14         15         16         17         18
     1  C   -0.000000  -0.000000   0.000000   0.000000  -0.000000  -0.000000
     2  C    0.000000  -0.000000  -0.000000   0.000000   0.000000   0.000000
     3  C   -0.000000   0.000000   0.000000   0.000000   0.000000  -0.000000
     4  F   -0.000000   0.000000   0.000000  -0.000000   0.000000  -0.000000
     5  C    0.000000  -0.000000   0.000000  -0.000000   0.000000   0.000000
     6  C    0.000000  -0.000000   0.000000  -0.000000  -0.000000  -0.000000
     7  F    0.000000  -0.000000   0.000000  -0.000000  -0.000000   0.000000
     8  C    0.000000  -0.000000  -0.000000  -0.000000   0.000000   0.000000
     9  C    0.000000   0.000000  -0.000000   0.000000  -0.000000   0.000000
    10  C   -0.000000   0.000000   0.000000  -0.000000   0.000000   0.000000
    11  O   -0.000000   0.000000   0.000000   0.000000   0.000000   0.000000
    12  C   -0.000000  -0.000000  -0.000000   0.000000  -0.000000  -0.000000
    13  C    0.000000  -0.000000  -0.000000  -0.000000   0.000000   0.000000
    14  C   -0.000000  -0.000000   0.000000   0.000000  -0.000000   0.000000
    15  S   -0.000000   0.000000  -0.000000   0.000000  -0.000000  -0.000000
    16  H   -0.000000   0.000000   0.000000  -0.000000  -0.000000  -0.000000
    17  H    0.000000  -0.000000  -0.000000  -0.000000   0.000000   0.000000
    18  H    0.000000   0.000000  -0.000000  -0.000000   0.000000   0.000000
    19  H   -0.000000  -0.000000   0.000000  -0.000000   0.000000   0.000000
    20  H    0.000000  -0.000000   0.000000  -0.000000   0.000000   0.000000
    21  H   -0.000000   0.000000   0.000000   0.000000  -0.000000  -0.000000
    22  H    0.000000   0.000000  -0.000000  -0.000000   0.000000   0.000000
    23  H   -0.000000  -0.000000  -0.000000   0.000000  -0.000000  -0.000000
              19         20         21         22         23
     1  C   -0.000000  -0.000000   0.000000   0.000000   0.000000
     2  C    0.000000   0.000000  -0.000000   0.000000  -0.000000
     3  C    0.000000  -0.000000   0.000000   0.000000   0.000000
     4  F   -0.000000   0.000000  -0.000000  -0.000000   0.000000
     5  C    0.000000   0.000000  -0.000000   0.000000  -0.000000
     6  C   -0.000000   0.000000  -0.000000   0.000000  -0.000000
     7  F   -0.000000  -0.000000  -0.000000   0.000000  -0.000000
     8  C    0.000000   0.000000  -0.000000  -0.000000  -0.000000
     9  C    0.000000   0.000000  -0.000000   0.000000  -0.000000
    10  C    0.000000  -0.000000  -0.000000  -0.000000   0.000000
    11  O    0.000000   0.000000  -0.000000  -0.000000   0.000000
    12  C    0.000000  -0.000000   0.000000   0.000000  -0.000000
    13  C   -0.000000   0.000000  -0.000000   0.000000  -0.000000
    14  C   -0.000000  -0.000000   0.000000   0.000000  -0.000000
    15  S    0.000000   0.000000   0.000000  -0.000000  -0.000000
    16  H   -0.000000  -0.000000   0.000000  -0.000000   0.000000
    17  H    0.000000   0.000000  -0.000000   0.000000  -0.000000
    18  H    0.000000   0.000000  -0.000000   0.000000  -0.000000
    19  H   -0.000000   0.000000  -0.000000   0.000000  -0.000000
    20  H    0.000000  -0.000000   0.000000   0.000000  -0.000000
    21  H   -0.000000   0.000000   0.000000  -0.000000   0.000000
    22  H    0.000000   0.000000  -0.000000   0.000000  -0.000000
    23  H   -0.000000  -0.000000   0.000000  -0.000000   0.000000
 Mulliken charges and spin densities:
               1          2
     1  C    0.085698  -0.000000
     2  C   -0.069806   0.000000
     3  C    0.147420  -0.000000
     4  F   -0.036857   0.000000
     5  C   -0.133404   0.000000
     6  C    0.133046  -0.000000
     7  F   -0.112025  -0.000000
     8  C   -0.030547   0.000000
     9  C   -0.190361   0.000000
    10  C    0.194212  -0.000000
    11  O   -0.254083  -0.000000
    12  C    0.061458   0.000000
    13  C    0.038244   0.000000
    14  C   -0.116285  -0.000000
    15  S    0.182044  -0.000000
    16  H   -0.001106  -0.000000
    17  H    0.007666   0.000000
    18  H    0.009037   0.000000
    19  H    0.030724  -0.000000
    20  H    0.028803  -0.000000
    21  H    0.047880  -0.000000
    22  H   -0.031353   0.000000
    23  H    0.009594   0.000000
 Sum of Mulliken charges =  -0.00000   0.00000
 Mulliken charges and spin densities with hydrogens summed into heavy atoms:
               1          2
     1  C    0.084592  -0.000000
     2  C   -0.062139   0.000000
     3  C    0.147420  -0.000000
     4  F   -0.036857   0.000000
     5  C   -0.133404   0.000000
     6  C    0.133046  -0.000000
     7  F   -0.112025  -0.000000
     8  C   -0.021509   0.000000
     9  C   -0.190361   0.000000
    10  C    0.194212  -0.000000
    11  O   -0.254083  -0.000000
    12  C    0.168866   0.000000
    13  C    0.006891   0.000000
    14  C   -0.106690  -0.000000
    15  S    0.182044  -0.000000
 Electronic spatial extent (au):  <R**2>=           3225.8434
 Charge=              0.0000 electrons
 Dipole moment (field-independent basis, Debye):
    X=              0.6595    Y=              0.1045    Z=              0.4215  Tot=              0.7896
 Quadrupole moment (field-independent basis, Debye-Ang):
   XX=            -73.2369   YY=            -88.3936   ZZ=            -93.1265
   XY=              0.7014   XZ=              1.0594   YZ=              1.8133
 Traceless Quadrupole moment (field-independent basis, Debye-Ang):
   XX=             11.6821   YY=             -3.4746   ZZ=             -8.2075
   XY=              0.7014   XZ=              1.0594   YZ=              1.8133
 Octapole moment (field-independent basis, Debye-Ang**2):
  XXX=              0.2970  YYY=              8.8074  ZZZ=              6.8328  XYY=             13.4002
  XXY=              8.8671  XXZ=              6.6849  XZZ=             -2.0710  YZZ=              2.5442
  YYZ=              0.1260  XYZ=             15.0028
 Hexadecapole moment (field-independent basis, Debye-Ang**3):
 XXXX=          -2293.3088 YYYY=          -1038.7006 ZZZZ=           -538.6727 XXXY=             -4.6707
 XXXZ=             -6.9740 YYYX=             25.8164 YYYZ=            -10.6054 ZZZX=              4.6961
 ZZZY=            -32.3926 XXYY=           -557.3415 XXZZ=           -516.3989 YYZZ=           -261.5742
 XXYZ=             -7.4317 YYXZ=              5.4481 ZZXY=             13.8423
 N-N= 1.094439944858D+03 E-N=-4.771698099833D+03  KE= 1.091555724234D+03
                          Isotropic Fermi Contact Couplings
        Atom                 a.u.       MegaHertz       Gauss      10(-4) cm-1
     1  C(13)             -0.00000      -0.00000      -0.00000      -0.00000
     2  C(13)             -0.00000      -0.00000      -0.00000      -0.00000
     3  C(13)             -0.00000      -0.00000      -0.00000      -0.00000
     4  F(19)              0.00000       0.00000       0.00000       0.00000
     5  C(13)              0.00000       0.00000       0.00000       0.00000
     6  C(13)              0.00000       0.00000       0.00000       0.00000
     7  F(19)             -0.00000      -0.00000      -0.00000      -0.00000
     8  C(13)              0.00000       0.00000       0.00000       0.00000
     9  C(13)             -0.00000      -0.00000      -0.00000      -0.00000
    10  C(13)              0.00000       0.00000       0.00000       0.00000
    11  O(17)             -0.00000       0.00000       0.00000       0.00000
    12  C(13)             -0.00000      -0.00000      -0.00000      -0.00000
    13  C(13)              0.00000       0.00000       0.00000       0.00000
    14  C(13)             -0.00000      -0.00000      -0.00000      -0.00000
    15  S(33)             -0.00000      -0.00000      -0.00000      -0.00000
    16  H(1)              -0.00000      -0.00000      -0.00000      -0.00000
    17  H(1)               0.00000       0.00000       0.00000       0.00000
    18  H(1)               0.00000       0.00000       0.00000       0.00000
    19  H(1)              -0.00000      -0.00000      -0.00000      -0.00000
    20  H(1)              -0.00000      -0.00000      -0.00000      -0.00000
    21  H(1)              -0.00000      -0.00000      -0.00000      -0.00000
    22  H(1)              -0.00000      -0.00000      -0.00000      -0.00000
    23  H(1)               0.00000       0.00000       0.00000       0.00000
 --------------------------------------------------------
       Center         ----  Spin Dipole Couplings  ----
                      3XX-RR        3YY-RR        3ZZ-RR
 --------------------------------------------------------
     1   Atom        0.000000     -0.000000     -0.000000
     2   Atom        0.000000     -0.000000     -0.000000
     3   Atom        0.000000     -0.000000     -0.000000
     4   Atom       -0.000000      0.000000      0.000000
     5   Atom        0.000000     -0.000000     -0.000000
     6   Atom       -0.000000      0.000000      0.000000
     7   Atom        0.000000      0.000000     -0.000000
     8   Atom        0.000000     -0.000000     -0.000000
     9   Atom       -0.000000      0.000000     -0.000000
    10   Atom        0.000000      0.000000     -0.000000
    11   Atom       -0.000000      0.000000      0.000000
    12   Atom       -0.000000      0.000000      0.000000
    13   Atom        0.000000     -0.000000     -0.000000
    14   Atom       -0.000000      0.000000     -0.000000
    15   Atom        0.000000     -0.000000      0.000000
    16   Atom        0.000000     -0.000000     -0.000000
    17   Atom       -0.000000     -0.000000      0.000000
    18   Atom       -0.000000      0.000000      0.000000
    19   Atom       -0.000000     -0.000000      0.000000
    20   Atom       -0.000000     -0.000000      0.000000
    21   Atom       -0.000000      0.000000     -0.000000
    22   Atom       -0.000000      0.000000      0.000000
    23   Atom        0.000000     -0.000000      0.000000
 --------------------------------------------------------
                        XY            XZ            YZ
 --------------------------------------------------------
     1   Atom       -0.000000     -0.000000      0.000000
     2   Atom        0.000000     -0.000000     -0.000000
     3   Atom        0.000000     -0.000000     -0.000000
     4   Atom        0.000000      0.000000     -0.000000
     5   Atom        0.000000      0.000000     -0.000000
     6   Atom       -0.000000      0.000000     -0.000000
     7   Atom       -0.000000     -0.000000      0.000000
     8   Atom       -0.000000      0.000000     -0.000000
     9   Atom        0.000000      0.000000     -0.000000
    10   Atom       -0.000000     -0.000000      0.000000
    11   Atom        0.000000      0.000000      0.000000
    12   Atom       -0.000000      0.000000      0.000000
    13   Atom       -0.000000     -0.000000     -0.000000
    14   Atom        0.000000      0.000000      0.000000
    15   Atom        0.000000     -0.000000      0.000000
    16   Atom        0.000000     -0.000000      0.000000
    17   Atom        0.000000     -0.000000     -0.000000
    18   Atom        0.000000     -0.000000     -0.000000
    19   Atom       -0.000000      0.000000     -0.000000
    20   Atom        0.000000     -0.000000     -0.000000
    21   Atom       -0.000000     -0.000000      0.000000
    22   Atom       -0.000000     -0.000000     -0.000000
    23   Atom        0.000000      0.000000     -0.000000
 --------------------------------------------------------


 ---------------------------------------------------------------------------------
              Anisotropic Spin Dipole Couplings in Principal Axis System
 ---------------------------------------------------------------------------------

       Atom             a.u.   MegaHertz   Gauss  10(-4) cm-1        Axes

              Baa    -0.0000    -0.000    -0.000    -0.000  0.0874  0.7627 -0.6408
     1 C(13)  Bbb     0.0000     0.000     0.000     0.000  0.2674  0.6017  0.7526
              Bcc     0.0000     0.000     0.000     0.000  0.9596 -0.2371 -0.1513
 
              Baa    -0.0000    -0.000    -0.000    -0.000  0.1099  0.4602  0.8810
     2 C(13)  Bbb     0.0000     0.000     0.000     0.000 -0.3892  0.8355 -0.3879
              Bcc     0.0000     0.000     0.000     0.000  0.9146  0.3002 -0.2709
 
              Baa    -0.0000    -0.000    -0.000    -0.000  0.0215  0.7698  0.6379
     3 C(13)  Bbb    -0.0000    -0.000    -0.000    -0.000  0.4195 -0.5861  0.6932
              Bcc     0.0000     0.000     0.000     0.000  0.9075  0.2527 -0.3355
 
              Baa    -0.0000    -0.000    -0.000    -0.000  0.8557 -0.3048 -0.4181
     4 F(19)  Bbb    -0.0000    -0.000    -0.000    -0.000  0.5169  0.4691  0.7160
              Bcc     0.0000     0.000     0.000     0.000  0.0221  0.8288 -0.5590
 
              Baa    -0.0000    -0.000    -0.000    -0.000 -0.3725  0.6107  0.6988
     5 C(13)  Bbb    -0.0000    -0.000    -0.000    -0.000  0.3547  0.7895 -0.5009
              Bcc     0.0000     0.000     0.000     0.000  0.8576 -0.0613  0.5107
 
              Baa    -0.0000    -0.000    -0.000    -0.000  0.1623  0.7189  0.6759
     6 C(13)  Bbb    -0.0000    -0.000    -0.000    -0.000  0.9148  0.1471 -0.3761
              Bcc     0.0000     0.000     0.000     0.000 -0.3698  0.6794 -0.6338
 
              Baa    -0.0000    -0.000    -0.000    -0.000  0.1412 -0.3717  0.9175
     7 F(19)  Bbb     0.0000     0.000     0.000     0.000  0.2745  0.9052  0.3245
[...]
    22  H    0.000000   0.000000   0.000000  -0.000000  -0.000000   0.000000
    23  H   -0.000000  -0.000000  -0.000000   0.000000   0.000000  -0.000000
              13         14         15         16         17         18
     1  C    0.000000  -0.000000   0.000000   0.000000  -0.000000  -0.000000
     2  C   -0.000000   0.000000  -0.000000  -0.000000  -0.000000   0.000000
     3  C   -0.000000   0.000000   0.000000   0.000000   0.000000  -0.000000
     4  F   -0.000000   0.000000  -0.000000   0.000000  -0.000000  -0.000000
     5  C    0.000000  -0.000000  -0.000000  -0.000000   0.000000   0.000000
     6  C    0.000000  -0.000000  -0.000000   0.000000  -0.000000  -0.000000
     7  F   -0.000000  -0.000000   0.000000   0.000000  -0.000000  -0.000000
     8  C   -0.000000   0.000000  -0.000000  -0.000000   0.000000   0.000000
     9  C    0.000000  -0.000000  -0.000000  -0.000000  -0.000000   0.000000
    10  C   -0.000000   0.000000  -0.000000   0.000000  -0.000000   0.000000
    11  O   -0.000000   0.000000  -0.000000   0.000000  -0.000000  -0.000000
    12  C   -0.000000  -0.000000   0.000000  -0.000000   0.000000   0.000000
    13  C    0.000000  -0.000000   0.000000   0.000000   0.000000  -0.000000
    14  C   -0.000000   0.000000  -0.000000  -0.000000  -0.000000   0.000000
    15  S    0.000000  -0.000000   0.000000   0.000000  -0.000000  -0.000000
    16  H    0.000000  -0.000000   0.000000   0.000000  -0.000000  -0.000000
    17  H    0.000000  -0.000000  -0.000000  -0.000000   0.000000   0.000000
    18  H   -0.000000   0.000000  -0.000000  -0.000000   0.000000   0.000000
    19  H    0.000000  -0.000000  -0.000000  -0.000000   0.000000   0.000000
    20  H    0.000000  -0.000000   0.000000   0.000000  -0.000000  -0.000000
    21  H    0.000000   0.000000  -0.000000   0.000000  -0.000000  -0.000000
    22  H    0.000000  -0.000000   0.000000  -0.000000   0.000000  -0.000000
    23  H   -0.000000   0.000000  -0.000000   0.000000  -0.000000   0.000000
              19         20         21         22         23
     1  C   -0.000000   0.000000   0.000000  -0.000000   0.000000
     2  C    0.000000  -0.000000  -0.000000  -0.000000   0.000000
     3  C    0.000000  -0.000000   0.000000  -0.000000   0.000000
     4  F   -0.000000   0.000000   0.000000  -0.000000   0.000000
     5  C    0.000000   0.000000   0.000000  -0.000000  -0.000000
     6  C   -0.000000   0.000000  -0.000000   0.000000  -0.000000
     7  F    0.000000  -0.000000  -0.000000   0.000000  -0.000000
     8  C   -0.000000   0.000000  -0.000000   0.000000  -0.000000
     9  C    0.000000  -0.000000  -0.000000   0.000000  -0.000000
    10  C   -0.000000  -0.000000  -0.000000  -0.000000   0.000000
    11  O   -0.000000   0.000000   0.000000  -0.000000   0.000000
    12  C   -0.000000  -0.000000   0.000000   0.000000  -0.000000
    13  C    0.000000   0.000000   0.000000   0.000000  -0.000000
    14  C   -0.000000  -0.000000   0.000000  -0.000000   0.000000
    15  S   -0.000000   0.000000  -0.000000   0.000000  -0.000000
    16  H   -0.000000   0.000000   0.000000  -0.000000   0.000000
    17  H    0.000000  -0.000000  -0.000000   0.000000  -0.000000
    18  H    0.000000  -0.000000  -0.000000  -0.000000   0.000000
    19  H    0.000000  -0.000000  -0.000000   0.000000  -0.000000
    20  H   -0.000000  -0.000000   0.000000   0.000000  -0.000000
    21  H   -0.000000   0.000000  -0.000000  -0.000000   0.000000
    22  H    0.000000   0.000000  -0.000000   0.000000  -0.000000
    23  H   -0.000000  -0.000000   0.000000  -0.000000   0.000000
 Mulliken charges and spin densities:
               1          2
     1  C    0.039775  -0.000000
     2  C    0.007801   0.000000
     3  C    0.111130  -0.000000
     4  F   -0.119215  -0.000000
     5  C   -0.053885  -0.000000
     6  C    0.115894   0.000000
     7  F   -0.115356  -0.000000
     8  C    0.006681  -0.000000
     9  C   -0.201562   0.000000
    10  C    0.164811   0.000000
    11  O   -0.233573  -0.000000
    12  C    0.057628   0.000000
    13  C    0.013493  -0.000000
    14  C   -0.122846  -0.000000
    15  S    0.180900   0.000000
    16  H   -0.002779  -0.000000
    17  H   -0.001093   0.000000
    18  H   -0.001730   0.000000
    19  H    0.042115   0.000000
    20  H    0.043403  -0.000000
    21  H    0.051041  -0.000000
    22  H   -0.006270   0.000000
    23  H    0.023636  -0.000000
 Sum of Mulliken charges =  -0.00000   0.00000
 Mulliken charges and spin densities with hydrogens summed into heavy atoms:
               1          2
     1  C    0.036996  -0.000000
     2  C    0.006709   0.000000
     3  C    0.111130  -0.000000
     4  F   -0.119215  -0.000000
     5  C   -0.053885  -0.000000
     6  C    0.115894   0.000000
     7  F   -0.115356  -0.000000
     8  C    0.004951  -0.000000
     9  C   -0.201562   0.000000
    10  C    0.164811   0.000000
    11  O   -0.233573  -0.000000
    12  C    0.194187  -0.000000
    13  C    0.007223  -0.000000
    14  C   -0.099210  -0.000000
    15  S    0.180900   0.000000
 Electronic spatial extent (au):  <R**2>=           3260.8383
 Charge=             -0.0000 electrons
 Dipole moment (field-independent basis, Debye):
    X=              0.8355    Y=              1.2760    Z=              0.3810  Tot=              1.5721
 Quadrupole moment (field-independent basis, Debye-Ang):
   XX=            -71.9657   YY=            -86.9920   ZZ=            -93.8680
   XY=              1.0359   XZ=              1.0501   YZ=              2.6891
 Traceless Quadrupole moment (field-independent basis, Debye-Ang):
   XX=             12.3095   YY=             -2.7168   ZZ=             -9.5927
   XY=              1.0359   XZ=              1.0501   YZ=              2.6891
 Octapole moment (field-independent basis, Debye-Ang**2):
  XXX=             -2.2656  YYY=             18.9297  ZZZ=              4.5337  XYY=             14.3474
  XXY=             11.2302  XXZ=              7.3790  XZZ=              0.5830  YZZ=              4.0883
  YYZ=              0.5045  XYZ=             14.2755
 Hexadecapole moment (field-independent basis, Debye-Ang**3):
 XXXX=          -2338.7216 YYYY=          -1196.7774 ZZZZ=           -355.1976 XXXY=              8.2769
 XXXZ=            -17.3046 YYYX=             27.9465 YYYZ=             -0.2348 ZZZX=              4.9328
 ZZZY=            -26.6023 XXYY=           -567.2817 XXZZ=           -511.2369 YYZZ=           -262.3271
 XXYZ=             -3.9204 YYXZ=              9.3394 ZZXY=             17.2213
 N-N= 1.094244543379D+03 E-N=-4.771374368397D+03  KE= 1.091216187555D+03
                          Isotropic Fermi Contact Couplings
        Atom                 a.u.       MegaHertz       Gauss      10(-4) cm-1
     1  C(13)              0.00000       0.00000       0.00000       0.00000
     2  C(13)              0.00000       0.00000       0.00000       0.00000
     3  C(13)             -0.00000      -0.00000      -0.00000      -0.00000
     4  F(19)             -0.00000      -0.00000      -0.00000      -0.00000
     5  C(13)             -0.00000      -0.00000      -0.00000      -0.00000
     6  C(13)              0.00000       0.00000       0.00000       0.00000
     7  F(19)              0.00000       0.00000       0.00000       0.00000
     8  C(13)              0.00000       0.00000       0.00000       0.00000
     9  C(13)              0.00000       0.00000       0.00000       0.00000
    10  C(13)              0.00000       0.00000       0.00000       0.00000
    11  O(17)              0.00000      -0.00000      -0.00000      -0.00000
    12  C(13)              0.00000       0.00000       0.00000       0.00000
    13  C(13)             -0.00000      -0.00000      -0.00000      -0.00000
    14  C(13)             -0.00000      -0.00000      -0.00000      -0.00000
    15  S(33)              0.00000       0.00000       0.00000       0.00000
    16  H(1)              -0.00000      -0.00000      -0.00000      -0.00000
    17  H(1)               0.00000       0.00000       0.00000       0.00000
    18  H(1)               0.00000       0.00000       0.00000       0.00000
    19  H(1)              -0.00000      -0.00000      -0.00000      -0.00000
    20  H(1)              -0.00000      -0.00000      -0.00000      -0.00000
    21  H(1)              -0.00000      -0.00000      -0.00000      -0.00000
    22  H(1)               0.00000       0.00000       0.00000       0.00000
    23  H(1)               0.00000       0.00000       0.00000       0.00000
 --------------------------------------------------------
       Center         ----  Spin Dipole Couplings  ----
                      3XX-RR        3YY-RR        3ZZ-RR
 --------------------------------------------------------
     1   Atom        0.000000     -0.000000     -0.000000
     2   Atom       -0.000000      0.000000     -0.000000
     3   Atom        0.000000     -0.000000     -0.000000
     4   Atom        0.000000      0.000000     -0.000000
     5   Atom        0.000000     -0.000000      0.000000
     6   Atom        0.000000      0.000000     -0.000000
     7   Atom        0.000000     -0.000000     -0.000000
     8   Atom        0.000000     -0.000000     -0.000000
     9   Atom        0.000000      0.000000     -0.000000
    10   Atom        0.000000     -0.000000      0.000000
    11   Atom       -0.000000      0.000000      0.000000
    12   Atom       -0.000000      0.000000      0.000000
    13   Atom       -0.000000      0.000000     -0.000000
    14   Atom       -0.000000      0.000000      0.000000
    15   Atom       -0.000000      0.000000     -0.000000
    16   Atom        0.000000     -0.000000     -0.000000
    17   Atom        0.000000     -0.000000     -0.000000
    18   Atom        0.000000      0.000000     -0.000000
    19   Atom       -0.000000      0.000000      0.000000
    20   Atom       -0.000000     -0.000000      0.000000
    21   Atom       -0.000000     -0.000000      0.000000
    22   Atom        0.000000     -0.000000     -0.000000
    23   Atom       -0.000000      0.000000     -0.000000
 --------------------------------------------------------
                        XY            XZ            YZ
 --------------------------------------------------------
     1   Atom       -0.000000     -0.000000      0.000000
     2   Atom       -0.000000     -0.000000     -0.000000
     3   Atom       -0.000000      0.000000      0.000000
     4   Atom       -0.000000     -0.000000      0.000000
     5   Atom       -0.000000      0.000000     -0.000000
     6   Atom       -0.000000      0.000000     -0.000000
     7   Atom        0.000000     -0.000000     -0.000000
     8   Atom       -0.000000      0.000000     -0.000000
     9   Atom       -0.000000      0.000000      0.000000
    10   Atom       -0.000000      0.000000      0.000000
    11   Atom       -0.000000     -0.000000     -0.000000
    12   Atom       -0.000000     -0.000000      0.000000
    13   Atom        0.000000      0.000000     -0.000000
    14   Atom       -0.000000     -0.000000      0.000000
    15   Atom        0.000000      0.000000      0.000000
    16   Atom       -0.000000     -0.000000      0.000000
    17   Atom       -0.000000      0.000000     -0.000000
    18   Atom        0.000000     -0.000000     -0.000000
    19   Atom        0.000000     -0.000000     -0.000000
    20   Atom        0.000000     -0.000000     -0.000000
    21   Atom       -0.000000     -0.000000      0.000000
    22   Atom        0.000000     -0.000000      0.000000
    23   Atom       -0.000000     -0.000000      0.000000
 --------------------------------------------------------


 ---------------------------------------------------------------------------------
              Anisotropic Spin Dipole Couplings in Principal Axis System
 ---------------------------------------------------------------------------------

       Atom             a.u.   MegaHertz   Gauss  10(-4) cm-1        Axes

              Baa    -0.0000    -0.000    -0.000    -0.000  0.1487  0.9806 -0.1281
     1 C(13)  Bbb    -0.0000    -0.000    -0.000    -0.000  0.0957  0.1147  0.9888
              Bcc     0.0000     0.000     0.000     0.000  0.9842 -0.1593 -0.0768
 
              Baa    -0.0000    -0.000    -0.000    -0.000  0.1952  0.3046  0.9323
     2 C(13)  Bbb    -0.0000    -0.000    -0.000    -0.000  0.9760  0.0329 -0.2151
              Bcc     0.0000     0.000     0.000     0.000 -0.0962  0.9519 -0.2909
 
              Baa    -0.0000    -0.000    -0.000    -0.000  0.6123  0.7417 -0.2737
     3 C(13)  Bbb     0.0000     0.000     0.000     0.000  0.3601  0.0466  0.9318
              Bcc     0.0000     0.000     0.000     0.000  0.7038 -0.6691 -0.2385
 
              Baa    -0.0000    -0.000    -0.000    -0.000  0.2862 -0.0428  0.9572
     4 F(19)  Bbb     0.0000     0.000     0.000     0.000  0.7439  0.6396 -0.1939
              Bcc     0.0000     0.000     0.000     0.000 -0.6039  0.7675  0.2149
 
              Baa    -0.0000    -0.000    -0.000    -0.000  0.2148  0.9261  0.3102
     5 C(13)  Bbb     0.0000     0.000     0.000     0.000  0.9226 -0.0881 -0.3757
              Bcc     0.0000     0.000     0.000     0.000  0.3206 -0.3669  0.8733
 
              Baa    -0.0000    -0.000    -0.000    -0.000 -0.0022  0.5829  0.8125
     6 C(13)  Bbb     0.0000     0.000     0.000     0.000  0.9529  0.2476 -0.1750
              Bcc     0.0000     0.000     0.000     0.000 -0.3032  0.7739 -0.5560
 
              Baa    -0.0000    -0.000    -0.000    -0.000  0.7217 -0.5628  0.4029
     7 F(19)  Bbb    -0.0000    -0.000    -0.000    -0.000  0.0242  0.6023  0.7979
              Bcc     0.0000     0.000     0.000     0.000  0.6918  0.5661 -0.4483
 
              Baa    -0.0000    -0.000    -0.000    -0.000  0.0742  0.3489  0.9342
     8 C(13)  Bbb    -0.0000    -0.000    -0.000    -0.000  0.4046  0.8457 -0.3480
              Bcc     0.0000     0.000     0.000     0.000  0.9115 -0.4038  0.0784
 
              Baa    -0.0000    -0.000    -0.000    -0.000 -0.2913 -0.5236  0.8006
     9 C(13)  Bbb     0.0000     0.000     0.000     0.000  0.5410  0.6001  0.5893
              Bcc     0.0000     0.000     0.000     0.000  0.7890 -0.6048 -0.1085
 
              Baa    -0.0000    -0.000    -0.000    -0.000  0.3884  0.8627 -0.3238
    10 C(13)  Bbb     0.0000     0.000     0.000     0.000  0.7329 -0.0763  0.6760
              Bcc     0.0000     0.000     0.000     0.000 -0.5585  0.4999  0.6620
 
              Baa    -0.0000     0.000     0.000     0.000  0.9714  0.0535  0.2313
    11 O(17)  Bbb     0.0000    -0.000    -0.000    -0.000 -0.2333  0.0348  0.9718
              Bcc     0.0000    -0.000    -0.000    -0.000 -0.0439  0.9980 -0.0462
 
              Baa    -0.0000    -0.000    -0.000    -0.000  0.8274  0.5603 -0.0375
    12 C(13)  Bbb     0.0000     0.000     0.000     0.000  0.2521 -0.3110  0.9164
              Bcc     0.0000     0.000     0.000     0.000 -0.5018  0.7677  0.3986
 
              Baa    -0.0000    -0.000    -0.000    -0.000  0.7286 -0.4023 -0.5544
    13 C(13)  Bbb     0.0000     0.000     0.000     0.000 -0.1297  0.7138 -0.6883
              Bcc     0.0000     0.000     0.000     0.000  0.6726  0.5734  0.4678
 
              Baa    -0.0000    -0.000    -0.000    -0.000  0.7447  0.6586 -0.1075
    14 C(13)  Bbb    -0.0000    -0.000    -0.000    -0.000  0.4435 -0.3680  0.8172
              Bcc     0.0000     0.000     0.000     0.000 -0.4987  0.6563  0.5662
 
              Baa    -0.0000    -0.000    -0.000    -0.000  0.8120 -0.4727 -0.3423
    15 S(33)  Bbb    -0.0000    -0.000    -0.000    -0.000  0.2301 -0.2796  0.9321
              Bcc     0.0000     0.000     0.000     0.000  0.5364  0.8357  0.1183
 
              Baa    -0.0000    -0.000    -0.000    -0.000 -0.2502 -0.5876  0.7694
    16 H(1)   Bbb    -0.0000    -0.000    -0.000    -0.000  0.3581  0.6822  0.6375
              Bcc     0.0000     0.000     0.000     0.000  0.8995 -0.4351 -0.0397
 
              Baa    -0.0000    -0.000    -0.000    -0.000  0.3930  0.9192  0.0255
    17 H(1)   Bbb    -0.0000    -0.000    -0.000    -0.000 -0.0327 -0.0138  0.9994
              Bcc     0.0000     0.000     0.000     0.000  0.9190 -0.3936  0.0246
 
              Baa    -0.0000    -0.000    -0.000    -0.000 -0.0479  0.5950  0.8023
    18 H(1)   Bbb     0.0000     0.000     0.000     0.000  0.9936 -0.0538  0.0992
              Bcc     0.0000     0.000     0.000     0.000  0.1022  0.8019 -0.5886
 
              Baa    -0.0000    -0.000    -0.000    -0.000  0.9534 -0.2272  0.1987
    19 H(1)   Bbb     0.0000     0.000     0.000     0.000  0.1698  0.9480  0.2692
              Bcc     0.0000     0.000     0.000     0.000 -0.2495 -0.2229  0.9424
 
              Baa    -0.0000    -0.000    -0.000    -0.000 -0.4395  0.8912  0.1121
    20 H(1)   Bbb    -0.0000    -0.000    -0.000    -0.000  0.7871  0.3219  0.5261
              Bcc     0.0000     0.000     0.000     0.000 -0.4328 -0.3195  0.8430
 
              Baa    -0.0000    -0.000    -0.000    -0.000  0.6437  0.7512 -0.1461
    21 H(1)   Bbb    -0.0000    -0.000    -0.000    -0.000  0.5195 -0.2887  0.8042
              Bcc     0.0000     0.000     0.000     0.000 -0.5619  0.5936  0.5761
 
              Baa    -0.0000    -0.000    -0.000    -0.000  0.2276 -0.4956  0.8382
    22 H(1)   Bbb    -0.0000    -0.000    -0.000    -0.000 -0.4691  0.6985  0.5404
              Bcc     0.0000     0.000     0.000     0.000  0.8533  0.5162  0.0735
 
              Baa    -0.0000    -0.000    -0.000    -0.000  0.1223 -0.3192  0.9398
    23 H(1)   Bbb    -0.0000    -0.000    -0.000    -0.000  0.9445  0.3284 -0.0114
              Bcc     0.0000     0.000     0.000     0.000 -0.3050  0.8890  0.3416
 

 ---------------------------------------------------------------------------------

 No NMR shielding tensors so no spin-rotation constants.
 Leave Link  601 at Sat Jul 25 14:13:20 2020, MaxMem=  4026531840 cpu:               2.0 elap:               0.3
 (Enter /opt/ohpc/pub/libs/gaussian/g16-A.03/sandybridge/g16/l9999.exe)

 Test job not archived.
 1\1\GINC-SKYLAKE038\FOpt\ULC-wPBE\CC-pVDZ\C11H8F2O1S1\RDU230\25-Jul-20
 20\0\\#P uLC-wPBE/cc-pVDZ iop(3/107=0218600000, 3/108=0218600000) opt\
 \H8 C11 S1 O1 F2\\0,1\C,-3.6016014401,0.4429161437,0.1123191308\C,-3.1
 141657632,-0.7212440044,0.7116387254\C,-1.7509543983,-0.9920072974,0.6
 352955935\F,-1.2842006405,-2.1181327169,1.2183188692\C,-0.8314232292,-
 0.1553593923,-0.0191560725\C,-1.3795781931,0.9923638642,-0.6182354637\
 F,-0.5583331313,1.81864857,-1.2952149571\C,-2.7347327246,1.3088728538,
 -0.5582093016\C,0.6092815387,-0.450236882,-0.0796216615\C,1.6547624801
 ,0.4039198961,0.240613047\O,1.392062239,1.6504493272,0.7163794353\C,2.
 5125580587,2.4899324902,0.9496243325\C,2.9452266624,-0.1843869095,0.04
 07163296\C,2.8547723712,-1.4744973492,-0.4227467462\S,1.2257322644,-1.
 9879029193,-0.6141426643\H,-4.6721202953,0.6757174129,0.1648920705\H,-
 3.76675723,-1.4221977894,1.2434958647\H,-3.0873922612,2.2235064041,-1.
 0474228932\H,3.1803683757,2.0763345716,1.7337394442\H,3.0990175484,2.6
 577380785,0.0227623819\H,2.1050070278,3.453633622,1.2974531287\H,3.897
 768517,0.3169259175,0.2337307419\H,3.6748112232,-2.1592118914,-0.65469
 23349\\Version=EM64L-G16RevA.03\State=1-A\HF=-1096.3860419\S2=0.\S2-1=
 0.\S2A=0.\RMSD=2.805e-09\RMSF=1.706e-05\Dipole=0.3255606,0.5088984,0.1
 32666\Quadrupole=9.1509705,-1.9005216,-7.2504489,0.9143319,0.5564174,1
 .8557381\PG=C01 [X(C11H8F2O1S1)]\\@


 "ANNA, YOU MUSN'T SPEAK OF OXIDIZED MURIATIC ACID
 ANYMORE, FROM NOW ON YOU MUST SAY CHLORINE."
   -- JENS JACOB BERZELIUS, IN 1820, TO HIS COOK, WHO HAD
 COMPLAINED OF THE SMELL OF THE FLASK SHE WAS CLEANING.
 Job cpu time:       0 days  2 hours 44 minutes 26.0 seconds.
 Elapsed time:       0 days  0 hours 20 minutes 51.1 seconds.
 File lengths (MBytes):  RWF=    132 Int=      0 D2E=      0 Chk=     12 Scr=      8
 Normal termination of Gaussian 16 at Sat Jul 25 14:13:20 2020.
