 Entering Gaussian System, Link 0=g16
 Input=mols_65_1_28_cF-cF-C_opt_0.gjf
 Output=mols_65_1_28_cF-cF-C_opt_0.log
 Initial command:
 /opt/ohpc/pub/libs/gaussian/g16-A.03/sandybridge/g16/l1.exe "/mnt/gpfs2_4m/scratch/rdu230/ondemand/projects/dihedral_energies/7trial/wtuning/mols_65_1_28_cF-cF-C/Gau-170679.inp" -scrdir="/mnt/gpfs2_4m/scratch/rdu230/ondemand/projects/dihedral_energies/7trial/wtuning/mols_65_1_28_cF-cF-C/"
 Entering Link 1 = /opt/ohpc/pub/libs/gaussian/g16-A.03/sandybridge/g16/l1.exe PID=    170680.
  
 Copyright (c) 1988,1990,1992,1993,1995,1998,2003,2009,2016,
            Gaussian, Inc.  All Rights Reserved.
  
 This is part of the Gaussian(R) 16 program.  It is based on
 the Gaussian(R) 09 system (copyright 2009, Gaussian, Inc.),
 the Gaussian(R) 03 system (copyright 2003, Gaussian, Inc.),
 the Gaussian(R) 98 system (copyright 1998, Gaussian, Inc.),
 the Gaussian(R) 94 system (copyright 1995, Gaussian, Inc.),
 the Gaussian 92(TM) system (copyright 1992, Gaussian, Inc.),
 the Gaussian 90(TM) system (copyright 1990, Gaussian, Inc.),
 the Gaussian 88(TM) system (copyright 1988, Gaussian, Inc.),
 the Gaussian 86(TM) system (copyright 1986, Carnegie Mellon
 University), and the Gaussian 82(TM) system (copyright 1983,
 Carnegie Mellon University). Gaussian is a federally registered
 trademark of Gaussian, Inc.
  
 This software contains proprietary and confidential information,
 including trade secrets, belonging to Gaussian, Inc.
  
 This software is provided under written license and may be
 used, copied, transmitted, or stored only in accord with that
 written license.
  
 The following legend is applicable only to US Government
 contracts under FAR:
  
                    RESTRICTED RIGHTS LEGEND
  
 Use, reproduction and disclosure by the US Government is
 subject to restrictions as set forth in subparagraphs (a)
 and (c) of the Commercial Computer Software - Restricted
 Rights clause in FAR 52.227-19.
  
 Gaussian, Inc.
 340 Quinnipiac St., Bldg. 40, Wallingford CT 06492
  
  
 ---------------------------------------------------------------
 Warning -- This program may not be used in any manner that
 competes with the business of Gaussian, Inc. or will provide
 assistance to any competitor of Gaussian, Inc.  The licensee
 of this program is prohibited from giving any competitor of
 Gaussian, Inc. access to this program.  By using this program,
 the user acknowledges that Gaussian, Inc. is engaged in the
 business of creating and licensing software in the field of
 computational chemistry and represents and warrants to the
 licensee that it is not a competitor of Gaussian, Inc. and that
 it will not use this program in any manner prohibited above.
 ---------------------------------------------------------------
  

 Cite this work as:
 Gaussian 16, Revision A.03,
 M. J. Frisch, G. W. Trucks, H. B. Schlegel, G. E. Scuseria, 
 M. A. Robb, J. R. Cheeseman, G. Scalmani, V. Barone, 
 G. A. Petersson, H. Nakatsuji, X. Li, M. Caricato, A. V. Marenich, 
 J. Bloino, B. G. Janesko, R. Gomperts, B. Mennucci, H. P. Hratchian, 
 J. V. Ortiz, A. F. Izmaylov, J. L. Sonnenberg, D. Williams-Young, 
 F. Ding, F. Lipparini, F. Egidi, J. Goings, B. Peng, A. Petrone, 
 T. Henderson, D. Ranasinghe, V. G. Zakrzewski, J. Gao, N. Rega, 
 G. Zheng, W. Liang, M. Hada, M. Ehara, K. Toyota, R. Fukuda, 
 J. Hasegawa, M. Ishida, T. Nakajima, Y. Honda, O. Kitao, H. Nakai, 
 T. Vreven, K. Throssell, J. A. Montgomery, Jr., J. E. Peralta, 
 F. Ogliaro, M. J. Bearpark, J. J. Heyd, E. N. Brothers, K. N. Kudin, 
 V. N. Staroverov, T. A. Keith, R. Kobayashi, J. Normand, 
 K. Raghavachari, A. P. Rendell, J. C. Burant, S. S. Iyengar, 
 J. Tomasi, M. Cossi, J. M. Millam, M. Klene, C. Adamo, R. Cammi, 
 J. W. Ochterski, R. L. Martin, K. Morokuma, O. Farkas, 
 J. B. Foresman, and D. J. Fox, Gaussian, Inc., Wallingford CT, 2016.
 
 ******************************************
 Gaussian 16:  EM64L-G16RevA.03 25-Dec-2016
                25-Jul-2020 
 ******************************************
 %mem=30GB
 %nproc=8
 Will use up to    8 processors via shared memory.
 ---------------------------------------------------------------
 #P uLC-wPBE/cc-pVDZ iop(3/107=0382600000, 3/108=0382600000) opt
 ---------------------------------------------------------------
 1/18=20,19=15,26=3,38=1/1,3;
 2/9=110,12=2,17=6,18=5,40=1/2;
 3/5=16,11=2,25=1,30=1,71=1,74=-41,107=382600000,108=382600000,116=2/1,2,3;
 4//1;
 5/5=2,38=5/2;
 6/7=2,8=2,9=2,10=2,28=1/1;
 7//1,2,3,16;
 1/18=20,19=15,26=3/3(2);
 2/9=110/2;
 99//99;
 2/9=110/2;
 3/5=16,11=2,25=1,30=1,71=1,74=-41,107=382600000,108=382600000,116=2/1,2,3;
 4/5=5,16=3,69=1/1;
 5/5=2,38=5/2;
 7//1,2,3,16;
 1/18=20,19=15,26=3/3(-5);
 2/9=110/2;
 6/7=2,8=2,9=2,10=2,19=2,28=1/1;
 99/9=1/99;
 Leave Link    1 at Sat Jul 25 14:20:21 2020, MaxMem=  4026531840 cpu:               1.9 elap:               0.3
 (Enter /opt/ohpc/pub/libs/gaussian/g16-A.03/sandybridge/g16/l101.exe)
 ------------
 H6 C10 S1 F2
 ------------
 Symbolic Z-matrix:
 Charge =  0 Multiplicity = 1
 C                     3.45483  -0.13575   0.01888 
 C                     2.58054  -1.27721  -0.0366 
 C                     1.24368  -1.13089  -0.01084 
 F                     0.51439  -2.34893  -0.03684 
 C                     0.55577   0.06932  -0.04992 
 C                     1.43186   1.16315  -0.01453 
 F                     0.93883   2.47194   0.01163 
 C                     2.84079   1.09685   0.02405 
 C                    -0.95172   0.2143    0.04181 
 C                    -1.72976   1.37334  -0.0308 
 C                    -3.08868   1.20017   0.01065 
 C                    -3.43339  -0.18832   0.02888 
 S                    -1.95623  -1.18352   0.00335 
 H                     4.53252  -0.20929   0.02351 
 H                     3.06651  -2.22315  -0.01178 
 H                     3.39553   1.97952   0.04013 
 H                    -1.28835   2.43167   0.0174 
 H                    -3.86106   1.96628   0.035 
 H                    -4.36836  -0.61034   0.02489 
 
 ITRead=  0  0  0  0  0  0  0  0  0  0  0  0  0  0  0  0  0  0  0
 MicOpt= -1 -1 -1 -1 -1 -1 -1 -1 -1 -1 -1 -1 -1 -1 -1 -1 -1 -1 -1
 NAtoms=     19 NQM=       19 NQMF=       0 NMMI=      0 NMMIF=      0
                NMic=       0 NMicF=      0.
                    Isotopes and Nuclear Properties:
 (Nuclear quadrupole moments (NQMom) in fm**2, nuclear magnetic moments (NMagM)
  in nuclear magnetons)

  Atom         1           2           3           4           5           6           7           8           9          10
 IAtWgt=          12          12          12          19          12          12          19          12          12          12
 AtmWgt=  12.0000000  12.0000000  12.0000000  18.9984033  12.0000000  12.0000000  18.9984033  12.0000000  12.0000000  12.0000000
 NucSpn=           0           0           0           1           0           0           1           0           0           0
 AtZEff=  -0.0000000  -0.0000000  -0.0000000  -0.0000000  -0.0000000  -0.0000000  -0.0000000  -0.0000000  -0.0000000  -0.0000000
 NQMom=    0.0000000   0.0000000   0.0000000   0.0000000   0.0000000   0.0000000   0.0000000   0.0000000   0.0000000   0.0000000
 NMagM=    0.0000000   0.0000000   0.0000000   2.6288670   0.0000000   0.0000000   2.6288670   0.0000000   0.0000000   0.0000000
 AtZNuc=   6.0000000   6.0000000   6.0000000   9.0000000   6.0000000   6.0000000   9.0000000   6.0000000   6.0000000   6.0000000

  Atom        11          12          13          14          15          16          17          18          19
 IAtWgt=          12          12          32           1           1           1           1           1           1
 AtmWgt=  12.0000000  12.0000000  31.9720718   1.0078250   1.0078250   1.0078250   1.0078250   1.0078250   1.0078250
 NucSpn=           0           0           0           1           1           1           1           1           1
 AtZEff=  -0.0000000  -0.0000000  -0.0000000  -0.0000000  -0.0000000  -0.0000000  -0.0000000  -0.0000000  -0.0000000
 NQMom=    0.0000000   0.0000000   0.0000000   0.0000000   0.0000000   0.0000000   0.0000000   0.0000000   0.0000000
 NMagM=    0.0000000   0.0000000   0.0000000   2.7928460   2.7928460   2.7928460   2.7928460   2.7928460   2.7928460
 AtZNuc=   6.0000000   6.0000000  16.0000000   1.0000000   1.0000000   1.0000000   1.0000000   1.0000000   1.0000000
 Leave Link  101 at Sat Jul 25 14:20:22 2020, MaxMem=  4026531840 cpu:               3.4 elap:               0.5
 (Enter /opt/ohpc/pub/libs/gaussian/g16-A.03/sandybridge/g16/l103.exe)

 GradGradGradGradGradGradGradGradGradGradGradGradGradGradGradGradGradGrad
 Berny optimization.
 Initialization pass.
                           ----------------------------
                           !    Initial Parameters    !
                           ! (Angstroms and Degrees)  !
 --------------------------                            --------------------------
 ! Name  Definition              Value          Derivative Info.                !
 --------------------------------------------------------------------------------
 ! R1    R(1,2)                  1.4389         estimate D2E/DX2                !
 ! R2    R(1,8)                  1.3771         estimate D2E/DX2                !
 ! R3    R(1,14)                 1.0802         estimate D2E/DX2                !
 ! R4    R(2,3)                  1.3451         estimate D2E/DX2                !
 ! R5    R(2,15)                 1.0638         estimate D2E/DX2                !
 ! R6    R(3,4)                  1.4199         estimate D2E/DX2                !
 ! R7    R(3,5)                  1.3839         estimate D2E/DX2                !
 ! R8    R(5,6)                  1.4019         estimate D2E/DX2                !
 ! R9    R(5,9)                  1.5172         estimate D2E/DX2                !
 ! R10   R(6,7)                  1.3988         estimate D2E/DX2                !
 ! R11   R(6,8)                  1.411          estimate D2E/DX2                !
 ! R12   R(8,16)                 1.0426         estimate D2E/DX2                !
 ! R13   R(9,10)                 1.3979         estimate D2E/DX2                !
 ! R14   R(9,13)                 1.7217         estimate D2E/DX2                !
 ! R15   R(10,11)                1.3705         estimate D2E/DX2                !
 ! R16   R(10,17)                1.1477         estimate D2E/DX2                !
 ! R17   R(11,12)                1.4308         estimate D2E/DX2                !
 ! R18   R(11,18)                1.0881         estimate D2E/DX2                !
 ! R19   R(12,13)                1.7813         estimate D2E/DX2                !
 ! R20   R(12,19)                1.0258         estimate D2E/DX2                !
 ! A1    A(2,1,8)              116.0572         estimate D2E/DX2                !
 ! A2    A(2,1,14)             123.5291         estimate D2E/DX2                !
 ! A3    A(8,1,14)             120.383          estimate D2E/DX2                !
 ! A4    A(1,2,3)              121.1221         estimate D2E/DX2                !
 ! A5    A(1,2,15)             115.2735         estimate D2E/DX2                !
 ! A6    A(3,2,15)             123.3903         estimate D2E/DX2                !
 ! A7    A(2,3,4)              114.6328         estimate D2E/DX2                !
 ! A8    A(2,3,5)              126.0033         estimate D2E/DX2                !
 ! A9    A(4,3,5)              119.2179         estimate D2E/DX2                !
 ! A10   A(3,5,6)              111.4278         estimate D2E/DX2                !
 ! A11   A(3,5,9)              125.1028         estimate D2E/DX2                !
 ! A12   A(6,5,9)              123.0146         estimate D2E/DX2                !
 ! A13   A(5,6,7)              120.6801         estimate D2E/DX2                !
 ! A14   A(5,6,8)              126.0184         estimate D2E/DX2                !
 ! A15   A(7,6,8)              113.2908         estimate D2E/DX2                !
 ! A16   A(1,8,6)              119.1563         estimate D2E/DX2                !
 ! A17   A(1,8,16)             121.37           estimate D2E/DX2                !
 ! A18   A(6,8,16)             119.4661         estimate D2E/DX2                !
 ! A19   A(5,9,10)             128.9847         estimate D2E/DX2                !
 ! A20   A(5,9,13)             120.0499         estimate D2E/DX2                !
 ! A21   A(10,9,13)            110.3206         estimate D2E/DX2                !
 ! A22   A(9,10,11)            116.4579         estimate D2E/DX2                !
 ! A23   A(9,10,17)            123.2533         estimate D2E/DX2                !
 ! A24   A(11,10,17)           119.7743         estimate D2E/DX2                !
 ! A25   A(10,11,12)           111.2164         estimate D2E/DX2                !
 ! A26   A(10,11,18)           127.9887         estimate D2E/DX2                !
 ! A27   A(12,11,18)           120.7938         estimate D2E/DX2                !
 ! A28   A(11,12,13)           110.0117         estimate D2E/DX2                !
 ! A29   A(11,12,19)           128.2282         estimate D2E/DX2                !
 ! A30   A(13,12,19)           121.7298         estimate D2E/DX2                !
 ! A31   A(9,13,12)             91.7137         estimate D2E/DX2                !
 ! D1    D(8,1,2,3)             -3.4597         estimate D2E/DX2                !
 ! D2    D(8,1,2,15)          -178.3173         estimate D2E/DX2                !
 ! D3    D(14,1,2,3)           178.5517         estimate D2E/DX2                !
 ! D4    D(14,1,2,15)            3.6941         estimate D2E/DX2                !
 ! D5    D(2,1,8,6)              0.4404         estimate D2E/DX2                !
 ! D6    D(2,1,8,16)          -178.5496         estimate D2E/DX2                !
 ! D7    D(14,1,8,6)           178.4968         estimate D2E/DX2                !
 ! D8    D(14,1,8,16)           -0.4932         estimate D2E/DX2                !
 ! D9    D(1,2,3,4)           -178.4122         estimate D2E/DX2                !
 ! D10   D(1,2,3,5)              6.0437         estimate D2E/DX2                !
 ! D11   D(15,2,3,4)            -3.9829         estimate D2E/DX2                !
 ! D12   D(15,2,3,5)          -179.527          estimate D2E/DX2                !
 ! D13   D(2,3,5,6)             -4.7232         estimate D2E/DX2                !
 ! D14   D(2,3,5,9)           -177.1523         estimate D2E/DX2                !
 ! D15   D(4,3,5,6)            179.918          estimate D2E/DX2                !
 ! D16   D(4,3,5,9)              7.489          estimate D2E/DX2                !
 ! D17   D(3,5,6,7)           -177.3054         estimate D2E/DX2                !
 ! D18   D(3,5,6,8)              1.421          estimate D2E/DX2                !
 ! D19   D(9,5,6,7)             -4.6911         estimate D2E/DX2                !
 ! D20   D(9,5,6,8)            174.0353         estimate D2E/DX2                !
 ! D21   D(3,5,9,10)          -177.7651         estimate D2E/DX2                !
 ! D22   D(3,5,9,13)            -7.9156         estimate D2E/DX2                !
 ! D23   D(6,5,9,10)            10.6454         estimate D2E/DX2                !
 ! D24   D(6,5,9,13)          -179.5051         estimate D2E/DX2                !
 ! D25   D(5,6,8,1)              0.4713         estimate D2E/DX2                !
 ! D26   D(5,6,8,16)           179.4809         estimate D2E/DX2                !
 ! D27   D(7,6,8,1)            179.2788         estimate D2E/DX2                !
 ! D28   D(7,6,8,16)            -1.7116         estimate D2E/DX2                !
 ! D29   D(5,9,10,11)          176.5322         estimate D2E/DX2                !
 ! D30   D(5,9,10,17)          -11.7322         estimate D2E/DX2                !
 ! D31   D(13,9,10,11)           5.8941         estimate D2E/DX2                !
 ! D32   D(13,9,10,17)         177.6297         estimate D2E/DX2                !
 ! D33   D(5,9,13,12)         -176.1113         estimate D2E/DX2                !
 ! D34   D(10,9,13,12)          -4.5112         estimate D2E/DX2                !
 ! D35   D(9,10,11,12)          -4.0814         estimate D2E/DX2                !
 ! D36   D(9,10,11,18)         175.5338         estimate D2E/DX2                !
 ! D37   D(17,10,11,12)       -176.1211         estimate D2E/DX2                !
 ! D38   D(17,10,11,18)          3.4941         estimate D2E/DX2                !
 ! D39   D(10,11,12,13)          0.4352         estimate D2E/DX2                !
 ! D40   D(10,11,12,19)       -177.5649         estimate D2E/DX2                !
 ! D41   D(18,11,12,13)       -179.2118         estimate D2E/DX2                !
 ! D42   D(18,11,12,19)          2.7881         estimate D2E/DX2                !
 ! D43   D(11,12,13,9)           2.3818         estimate D2E/DX2                !
 ! D44   D(19,12,13,9)        -179.4652         estimate D2E/DX2                !
 --------------------------------------------------------------------------------
 Trust Radius=3.00D-01 FncErr=1.00D-07 GrdErr=1.00D-06 EigMax=2.50D+02 EigMin=1.00D-04
 Number of steps in this run=    105 maximum allowed number of steps=    114.
 GradGradGradGradGradGradGradGradGradGradGradGradGradGradGradGradGradGrad

 Leave Link  103 at Sat Jul 25 14:20:22 2020, MaxMem=  4026531840 cpu:               0.1 elap:               0.0
 (Enter /opt/ohpc/pub/libs/gaussian/g16-A.03/sandybridge/g16/l202.exe)
                          Input orientation:                          
 ---------------------------------------------------------------------
 Center     Atomic      Atomic             Coordinates (Angstroms)
 Number     Number       Type             X           Y           Z
 ---------------------------------------------------------------------
      1          6           0        3.454828   -0.135751    0.018880
      2          6           0        2.580537   -1.277209   -0.036599
      3          6           0        1.243678   -1.130885   -0.010844
      4          9           0        0.514389   -2.348932   -0.036839
      5          6           0        0.555770    0.069322   -0.049917
      6          6           0        1.431863    1.163151   -0.014532
      7          9           0        0.938830    2.471936    0.011625
      8          6           0        2.840789    1.096848    0.024048
      9          6           0       -0.951720    0.214298    0.041810
     10          6           0       -1.729757    1.373342   -0.030799
     11          6           0       -3.088685    1.200171    0.010646
     12          6           0       -3.433395   -0.188315    0.028883
     13         16           0       -1.956228   -1.183523    0.003349
     14          1           0        4.532518   -0.209290    0.023514
     15          1           0        3.066514   -2.223148   -0.011777
     16          1           0        3.395532    1.979521    0.040134
     17          1           0       -1.288349    2.431667    0.017404
     18          1           0       -3.861055    1.966276    0.034998
     19          1           0       -4.368364   -0.610338    0.024885
 ---------------------------------------------------------------------
                    Distance matrix (angstroms):
                    1          2          3          4          5
     1  C    0.000000
     2  C    1.438885   0.000000
     3  C    2.424945   1.345090   0.000000
     4  F    3.680687   2.327565   1.419921   0.000000
     5  C    2.907116   2.431667   1.383922   2.418643   0.000000
     6  C    2.404298   2.697276   2.301745   3.630011   1.401875
     7  F    3.623580   4.093118   3.615765   4.839759   2.433737
     8  C    1.377088   2.389049   2.741309   4.158034   2.506510
     9  C    4.420489   3.835046   2.575279   2.953948   1.517220
    10  C    5.399977   5.060048   3.887527   4.346441   2.631438
    11  C    6.678497   6.187061   4.919721   5.057720   3.816352
    12  C    6.888431   6.112066   4.771271   4.500843   3.998253
    13  S    5.511587   4.537908   3.200370   2.731985   2.807595
    14  H    1.080206   2.225824   3.415697   4.552699   3.987172
    15  H    2.123430   1.063762   2.125034   2.555346   3.400104
    16  H    2.116210   3.358034   3.782552   5.200232   3.423626
    17  H    5.393456   5.359753   4.370782   5.109494   2.997663
    18  H    7.611893   7.212450   5.970997   6.145786   4.807701
    19  H    7.837576   6.981098   5.636245   5.183415   4.971381
                    6          7          8          9         10
     6  C    0.000000
     7  F    1.398815   0.000000
     8  C    1.411013   2.347013   0.000000
     9  C    2.566119   2.944829   3.893884   0.000000
    10  C    3.168641   2.886185   4.579230   1.397854   0.000000
    11  C    4.520770   4.223537   5.930389   2.353622   1.370544
    12  C    5.049661   5.117967   6.404456   2.514155   2.311864
    13  S    4.121451   4.663026   5.311487   1.721749   2.567102
    14  H    3.391033   4.483716   2.137275   5.500603   6.459393
    15  H    3.760201   5.154745   3.327853   4.700023   5.994941
    16  H    2.127309   2.505727   1.042646   4.691973   5.161499
    17  H    3.001617   2.227551   4.339535   2.242909   1.147700
    18  H    5.353732   4.826503   6.758013   3.396131   2.213217
    19  H    6.065431   6.137336   7.408534   3.514793   3.301565
                   11         12         13         14         15
    11  C    0.000000
    12  C    1.430752   0.000000
    13  S    2.639036   1.781323   0.000000
    14  H    7.750450   7.965942   6.561506   0.000000
    15  H    7.043159   6.811095   5.129229   2.491192   0.000000
    16  H    6.530951   7.164767   6.216714   2.466558   4.215848
    17  H    2.181247   3.386098   3.676392   6.391962   6.374401
    18  H    1.088148   2.196632   3.681114   8.670945   8.095967
    19  H    2.217143   1.025810   2.479396   8.909913   7.607885
                   16         17         18         19
    16  H    0.000000
    17  H    4.705709   0.000000
    18  H    7.256601   2.614520   0.000000
    19  H    8.184478   4.329012   2.626101   0.000000
 Stoichiometry    C10H6F2S
 Framework group  C1[X(C10H6F2S)]
 Deg. of freedom    51
 Full point group                 C1      NOp   1
 Largest Abelian subgroup         C1      NOp   1
 Largest concise Abelian subgroup C1      NOp   1
                         Standard orientation:                         
 ---------------------------------------------------------------------
 Center     Atomic      Atomic             Coordinates (Angstroms)
 Number     Number       Type             X           Y           Z
 ---------------------------------------------------------------------
      1          6           0       -3.446948   -0.158024   -0.029199
      2          6           0       -2.564751   -1.293660    0.020290
      3          6           0       -1.228904   -1.137753   -0.001404
      4          9           0       -0.491100   -2.350788    0.017737
      5          6           0       -0.549569    0.066964    0.047618
      6          6           0       -1.433276    1.154820    0.017886
      7          9           0       -0.949432    2.467194    0.001996
      8          6           0       -2.841610    1.078873   -0.024358
      9          6           0        0.957061    0.223186   -0.039667
     10          6           0        1.726738    1.387141    0.042807
     11          6           0        3.086943    1.223835    0.003242
     12          6           0        3.441480   -0.162029   -0.023914
     13         16           0        1.971317   -1.167764   -0.008692
     14          1           0       -4.524079   -0.239113   -0.036796
     15          1           0       -3.043987   -2.242800   -0.012246
     16          1           0       -3.402529    1.957710   -0.035537
     17          1           0        1.277983    2.442644    0.000997
     18          1           0        3.853941    1.995509   -0.014001
     19          1           0        4.379392   -0.577478   -0.020740
 ---------------------------------------------------------------------
 Rotational constants (GHZ):           1.2914063           0.5666170           0.3938926
 Leave Link  202 at Sat Jul 25 14:20:22 2020, MaxMem=  4026531840 cpu:               0.1 elap:               0.0
 (Enter /opt/ohpc/pub/libs/gaussian/g16-A.03/sandybridge/g16/l301.exe)
 Standard basis: CC-pVDZ (5D, 7F)
 Ernie: Thresh=  0.10000D-02 Tol=  0.10000D-05 Strict=F.
 Ernie:  34 primitive shells out of 344 were deleted.
 There are   229 symmetry adapted cartesian basis functions of A   symmetry.
 There are   216 symmetry adapted basis functions of A   symmetry.
   216 basis functions,   509 primitive gaussians,   229 cartesian basis functions
    50 alpha electrons       50 beta electrons
       nuclear repulsion energy       841.1853135604 Hartrees.
 IExCor=32609 DFT=T Ex+Corr=LC-wPBE ExCW=0 ScaHFX=  1.000000
 ScaDFX=  1.000000  0.000000  1.000000  1.000000 ScalE2=  1.000000  1.000000
 IRadAn=      5 IRanWt=     -1 IRanGd=            0 ICorTp=0 IEmpDi=  4
 HFx  wShort=  0.000000 wLong=  0.382600 cFull=  0.000000 cShort=  0.000000 cLong=  1.000000
 DFx  wShort=  0.000000 wLong=  0.382600 cFull=  0.000000 cShort=  0.000000 cLong=  1.000000
 NAtoms=   19 NActive=   19 NUniq=   19 SFac= 1.00D+00 NAtFMM=   60 NAOKFM=F Big=F
 Integral buffers will be    131072 words long.
 Raffenetti 2 integral format.
 Two-electron integral symmetry is turned on.
 Leave Link  301 at Sat Jul 25 14:20:22 2020, MaxMem=  4026531840 cpu:               0.4 elap:               0.1
 (Enter /opt/ohpc/pub/libs/gaussian/g16-A.03/sandybridge/g16/l302.exe)
 NPDir=0 NMtPBC=     1 NCelOv=     1 NCel=       1 NClECP=     1 NCelD=      1
         NCelK=      1 NCelE2=     1 NClLst=     1 CellRange=     0.0.
 One-electron integrals computed using PRISM.
 One-electron integral symmetry used in STVInt
 NBasis=   216 RedAO= T EigKep=  3.71D-04  NBF=   216
 NBsUse=   216 1.00D-06 EigRej= -1.00D+00 NBFU=   216
 Precomputing XC quadrature grid using
 IXCGrd= 4 IRadAn=           5 IRanWt=          -1 IRanGd=           0 AccXCQ= 0.00D+00.
 Generated NRdTot=       0 NPtTot=           0 NUsed=           0 NTot=          32
 NSgBfM=   229   229   229   229   229 MxSgAt=    19 MxSgA2=    19.
 Leave Link  302 at Sat Jul 25 14:20:22 2020, MaxMem=  4026531840 cpu:               1.9 elap:               0.3
 (Enter /opt/ohpc/pub/libs/gaussian/g16-A.03/sandybridge/g16/l303.exe)
 DipDrv:  MaxL=1.
 Leave Link  303 at Sat Jul 25 14:20:22 2020, MaxMem=  4026531840 cpu:               0.4 elap:               0.1
 (Enter /opt/ohpc/pub/libs/gaussian/g16-A.03/sandybridge/g16/l401.exe)
 ExpMin= 1.22D-01 ExpMax= 1.11D+05 ExpMxC= 1.07D+03 IAcc=3 IRadAn=         5 AccDes= 0.00D+00
 Harris functional with IExCor=32609 and IRadAn=       5 diagonalized for initial guess.
 HarFok:  IExCor=32609 AccDes= 0.00D+00 IRadAn=         5 IDoV= 1 UseB2=F ITyADJ=14
 ICtDFT=  3500011 ScaDFX=  1.000000  1.000000  1.000000  1.000000
 FoFCou: FMM=F IPFlag=           0 FMFlag=      100000 FMFlg1=           0
         NFxFlg=           0 DoJE=T BraDBF=F KetDBF=T FulRan=T
         wScrn=  0.000000 ICntrl=       500 IOpCl=  0 I1Cent=   200000004 NGrid=           0
         NMat0=    1 NMatS0=      1 NMatT0=    0 NMatD0=    1 NMtDS0=    0 NMtDT0=    0
 Petite list used in FoFCou.
 Harris En= -981.899936613235    
 JPrj=0 DoOrth=F DoCkMO=F.
 Initial guess <Sx>= 0.0000 <Sy>= 0.0000 <Sz>= 0.0000 <S**2>=-0.0000 S=-0.0000
 Leave Link  401 at Sat Jul 25 14:20:24 2020, MaxMem=  4026531840 cpu:               9.4 elap:               1.2
 (Enter /opt/ohpc/pub/libs/gaussian/g16-A.03/sandybridge/g16/l502.exe)
 Integral symmetry usage will be decided dynamically.
 UHF open shell SCF:
 Using DIIS extrapolation, IDIIS=  1040.
 NGot=  4026531840 LenX=  4026422715 LenY=  4026369833
 Requested convergence on RMS density matrix=1.00D-08 within 128 cycles.
 Requested convergence on MAX density matrix=1.00D-06.
 Requested convergence on             energy=1.00D-06.
 No special actions if energy rises.
 Fock matrices will be formed incrementally for  20 cycles.
 Integral accuracy reduced to 1.0D-05 until final iterations.

 Cycle   1  Pass 0  IDiag  1:
 FoFJK:  IHMeth= 1 ICntrl=       0 DoSepK=T KAlg= 0 I1Cent=           0 FoldK=F
 IRaf=         1 NMat=       1 IRICut=       1 DoRegI=T DoRafI=F ISym2E= 0 IDoP0=0 IntGTp=1.
 FoFCou: FMM=F IPFlag=           0 FMFlag=      100000 FMFlg1=           0
         NFxFlg=           0 DoJE=T BraDBF=F KetDBF=F FulRan=T
         wScrn=  0.000000 ICntrl=       500 IOpCl=  0 I1Cent=           0 NGrid=           0
         NMat0=    1 NMatS0=      1 NMatT0=    0 NMatD0=    1 NMtDS0=    0 NMtDT0=    0
 Symmetry not used in FoFCou.
 E= -981.719058665064    
 DIIS: error= 2.61D-02 at cycle   1 NSaved=   1.
 NSaved= 1 IEnMin= 1 EnMin= -981.719058665064     IErMin= 1 ErrMin= 2.61D-02
 ErrMax= 2.61D-02  0.00D+00 EMaxC= 1.00D-01 BMatC= 1.03D+00 BMatP= 1.03D+00
 IDIUse=3 WtCom= 7.39D-01 WtEn= 2.61D-01
 Coeff-Com:  0.100D+01
 Coeff-En:   0.100D+01
 Coeff:      0.100D+01
 Gap=     0.343 Goal=   None    Shift=    0.000
 Gap=     0.343 Goal=   None    Shift=    0.000
 GapD=    0.343 DampG=1.000 DampE=0.500 DampFc=0.5000 IDamp=-1.
 Damping current iteration by 5.00D-01
 RMSDP=4.67D-03 MaxDP=1.52D-01              OVMax= 2.42D-01

 Cycle   2  Pass 0  IDiag  1:
 RMSU=  2.31D-03    CP:  9.89D-01
 E= -981.866897792117     Delta-E=       -0.147839127053 Rises=F Damp=T
 DIIS: error= 6.92D-03 at cycle   2 NSaved=   2.
 NSaved= 2 IEnMin= 2 EnMin= -981.866897792117     IErMin= 2 ErrMin= 6.92D-03
 ErrMax= 6.92D-03  0.00D+00 EMaxC= 1.00D-01 BMatC= 4.94D-02 BMatP= 1.03D+00
 IDIUse=3 WtCom= 9.31D-01 WtEn= 6.92D-02
 Coeff-Com: -0.503D-01 0.105D+01
 Coeff-En:   0.000D+00 0.100D+01
 Coeff:     -0.469D-01 0.105D+01
 Gap=     0.330 Goal=   None    Shift=    0.000
 Gap=     0.330 Goal=   None    Shift=    0.000
 RMSDP=1.53D-03 MaxDP=2.87D-02 DE=-1.48D-01 OVMax= 1.44D-01

 Cycle   3  Pass 0  IDiag  1:
 RMSU=  1.45D-03    CP:  9.82D-01  1.19D+00
 E= -982.010336264024     Delta-E=       -0.143438471906 Rises=F Damp=F
 DIIS: error= 3.47D-03 at cycle   3 NSaved=   3.
 NSaved= 3 IEnMin= 3 EnMin= -982.010336264024     IErMin= 3 ErrMin= 3.47D-03
 ErrMax= 3.47D-03  0.00D+00 EMaxC= 1.00D-01 BMatC= 1.28D-02 BMatP= 4.94D-02
 IDIUse=3 WtCom= 9.65D-01 WtEn= 3.47D-02
 Coeff-Com: -0.374D-01 0.320D+00 0.718D+00
 Coeff-En:   0.000D+00 0.000D+00 0.100D+01
 Coeff:     -0.361D-01 0.309D+00 0.727D+00
 Gap=     0.328 Goal=   None    Shift=    0.000
 Gap=     0.328 Goal=   None    Shift=    0.000
 RMSDP=3.95D-04 MaxDP=1.16D-02 DE=-1.43D-01 OVMax= 2.52D-02

 Cycle   4  Pass 0  IDiag  1:
 RMSU=  3.60D-04    CP:  9.82D-01  1.25D+00  9.33D-01
 E= -982.013589501812     Delta-E=       -0.003253237788 Rises=F Damp=F
 DIIS: error= 1.78D-03 at cycle   4 NSaved=   4.
 NSaved= 4 IEnMin= 4 EnMin= -982.013589501812     IErMin= 4 ErrMin= 1.78D-03
 ErrMax= 1.78D-03  0.00D+00 EMaxC= 1.00D-01 BMatC= 2.57D-03 BMatP= 1.28D-02
 IDIUse=3 WtCom= 9.82D-01 WtEn= 1.78D-02
 Coeff-Com:  0.529D-03-0.260D-02 0.285D+00 0.717D+00
 Coeff-En:   0.000D+00 0.000D+00 0.000D+00 0.100D+01
 Coeff:      0.519D-03-0.255D-02 0.280D+00 0.722D+00
 Gap=     0.329 Goal=   None    Shift=    0.000
 Gap=     0.329 Goal=   None    Shift=    0.000
 RMSDP=1.54D-04 MaxDP=5.28D-03 DE=-3.25D-03 OVMax= 9.50D-03

 Cycle   5  Pass 0  IDiag  1:
 RMSU=  1.20D-04    CP:  9.81D-01  1.24D+00  9.88D-01  8.54D-01
 E= -982.014364913846     Delta-E=       -0.000775412034 Rises=F Damp=F
 DIIS: error= 6.06D-04 at cycle   5 NSaved=   5.
 NSaved= 5 IEnMin= 5 EnMin= -982.014364913846     IErMin= 5 ErrMin= 6.06D-04
 ErrMax= 6.06D-04  0.00D+00 EMaxC= 1.00D-01 BMatC= 3.10D-04 BMatP= 2.57D-03
 IDIUse=3 WtCom= 9.94D-01 WtEn= 6.06D-03
 Coeff-Com:  0.722D-02-0.412D-01 0.337D-01 0.274D+00 0.726D+00
 Coeff-En:   0.000D+00 0.000D+00 0.000D+00 0.000D+00 0.100D+01
 Coeff:      0.718D-02-0.410D-01 0.335D-01 0.273D+00 0.727D+00
 Gap=     0.330 Goal=   None    Shift=    0.000
 Gap=     0.330 Goal=   None    Shift=    0.000
 RMSDP=6.96D-05 MaxDP=1.74D-03 DE=-7.75D-04 OVMax= 4.12D-03

 Cycle   6  Pass 0  IDiag  1:
 RMSU=  4.70D-05    CP:  9.81D-01  1.24D+00  1.01D+00  9.58D-01  1.01D+00
 E= -982.014486847820     Delta-E=       -0.000121933975 Rises=F Damp=F
 DIIS: error= 2.30D-04 at cycle   6 NSaved=   6.
 NSaved= 6 IEnMin= 6 EnMin= -982.014486847820     IErMin= 6 ErrMin= 2.30D-04
 ErrMax= 2.30D-04  0.00D+00 EMaxC= 1.00D-01 BMatC= 4.42D-05 BMatP= 3.10D-04
 IDIUse=3 WtCom= 9.98D-01 WtEn= 2.30D-03
 Coeff-Com:  0.408D-02-0.160D-01-0.387D-01-0.433D-01 0.188D+00 0.906D+00
 Coeff-En:   0.000D+00 0.000D+00 0.000D+00 0.000D+00 0.000D+00 0.100D+01
 Coeff:      0.407D-02-0.159D-01-0.387D-01-0.432D-01 0.188D+00 0.906D+00
 Gap=     0.330 Goal=   None    Shift=    0.000
 Gap=     0.330 Goal=   None    Shift=    0.000
 RMSDP=3.59D-05 MaxDP=1.52D-03 DE=-1.22D-04 OVMax= 3.85D-03

 Cycle   7  Pass 0  IDiag  1:
 RMSU=  1.96D-05    CP:  9.81D-01  1.24D+00  1.02D+00  9.85D-01  1.19D+00
                    CP:  1.26D+00
 E= -982.014519442045     Delta-E=       -0.000032594225 Rises=F Damp=F
 DIIS: error= 9.77D-05 at cycle   7 NSaved=   7.
 NSaved= 7 IEnMin= 7 EnMin= -982.014519442045     IErMin= 7 ErrMin= 9.77D-05
 ErrMax= 9.77D-05  0.00D+00 EMaxC= 1.00D-01 BMatC= 8.30D-06 BMatP= 4.42D-05
 IDIUse=1 WtCom= 1.00D+00 WtEn= 0.00D+00
 Coeff-Com:  0.411D-03 0.132D-02-0.110D-01-0.501D-01-0.937D-01 0.222D+00
 Coeff-Com:  0.931D+00
 Coeff:      0.411D-03 0.132D-02-0.110D-01-0.501D-01-0.937D-01 0.222D+00
 Coeff:      0.931D+00
 Gap=     0.330 Goal=   None    Shift=    0.000
 Gap=     0.330 Goal=   None    Shift=    0.000
 RMSDP=1.95D-05 MaxDP=6.75D-04 DE=-3.26D-05 OVMax= 1.80D-03

 Cycle   8  Pass 0  IDiag  1:
 RMSU=  8.59D-06    CP:  9.81D-01  1.24D+00  1.03D+00  1.00D+00  1.25D+00
                    CP:  1.53D+00  1.23D+00
 E= -982.014526516255     Delta-E=       -0.000007074210 Rises=F Damp=F
 DIIS: error= 3.81D-05 at cycle   8 NSaved=   8.
 NSaved= 8 IEnMin= 8 EnMin= -982.014526516255     IErMin= 8 ErrMin= 3.81D-05
 ErrMax= 3.81D-05  0.00D+00 EMaxC= 1.00D-01 BMatC= 1.80D-06 BMatP= 8.30D-06
 IDIUse=1 WtCom= 1.00D+00 WtEn= 0.00D+00
 Coeff-Com: -0.397D-03 0.297D-02 0.386D-02-0.881D-02-0.704D-01-0.107D+00
 Coeff-Com:  0.329D+00 0.851D+00
 Coeff:     -0.397D-03 0.297D-02 0.386D-02-0.881D-02-0.704D-01-0.107D+00
 Coeff:      0.329D+00 0.851D+00
 Gap=     0.330 Goal=   None    Shift=    0.000
 Gap=     0.330 Goal=   None    Shift=    0.000
 RMSDP=8.53D-06 MaxDP=3.08D-04 DE=-7.07D-06 OVMax= 9.23D-04

 Initial convergence to 1.0D-05 achieved.  Increase integral accuracy.
 Cycle   9  Pass 1  IDiag  1:
 E= -982.014352709500     Delta-E=        0.000173806755 Rises=F Damp=F
 DIIS: error= 5.68D-05 at cycle   1 NSaved=   1.
 NSaved= 1 IEnMin= 1 EnMin= -982.014352709500     IErMin= 1 ErrMin= 5.68D-05
 ErrMax= 5.68D-05  0.00D+00 EMaxC= 1.00D-01 BMatC= 1.63D-06 BMatP= 1.63D-06
 IDIUse=1 WtCom= 1.00D+00 WtEn= 0.00D+00
 Coeff-Com:  0.100D+01
 Coeff:      0.100D+01
 Gap=     0.330 Goal=   None    Shift=    0.000
 Gap=     0.330 Goal=   None    Shift=    0.000
 RMSDP=8.53D-06 MaxDP=3.08D-04 DE= 1.74D-04 OVMax= 1.98D-04

 Cycle  10  Pass 1  IDiag  1:
 RMSU=  3.95D-05    CP:  1.00D+00
 E= -982.014353060176     Delta-E=       -0.000000350676 Rises=F Damp=F
 DIIS: error= 1.03D-05 at cycle   2 NSaved=   2.
 NSaved= 2 IEnMin= 2 EnMin= -982.014353060176     IErMin= 2 ErrMin= 1.03D-05
 ErrMax= 1.03D-05  0.00D+00 EMaxC= 1.00D-01 BMatC= 6.01D-08 BMatP= 1.63D-06
 IDIUse=1 WtCom= 1.00D+00 WtEn= 0.00D+00
 Coeff-Com:  0.556D-02 0.994D+00
 Coeff:      0.556D-02 0.994D+00
 Gap=     0.330 Goal=   None    Shift=    0.000
 Gap=     0.330 Goal=   None    Shift=    0.000
 RMSDP=2.55D-06 MaxDP=6.04D-05 DE=-3.51D-07 OVMax= 1.36D-04

 Cycle  11  Pass 1  IDiag  1:
 RMSU=  1.45D-06    CP:  1.00D+00  1.05D+00
 E= -982.014353090426     Delta-E=       -0.000000030250 Rises=F Damp=F
 DIIS: error= 7.10D-06 at cycle   3 NSaved=   3.
 NSaved= 3 IEnMin= 3 EnMin= -982.014353090426     IErMin= 3 ErrMin= 7.10D-06
 ErrMax= 7.10D-06  0.00D+00 EMaxC= 1.00D-01 BMatC= 4.65D-08 BMatP= 6.01D-08
 IDIUse=1 WtCom= 1.00D+00 WtEn= 0.00D+00
 Coeff-Com: -0.286D-01 0.468D+00 0.560D+00
 Coeff:     -0.286D-01 0.468D+00 0.560D+00
 Gap=     0.330 Goal=   None    Shift=    0.000
 Gap=     0.330 Goal=   None    Shift=    0.000
 RMSDP=6.32D-07 MaxDP=1.24D-05 DE=-3.03D-08 OVMax= 4.74D-05

 Cycle  12  Pass 1  IDiag  1:
 RMSU=  5.98D-07    CP:  1.00D+00  1.06D+00  9.43D-01
 E= -982.014353110338     Delta-E=       -0.000000019912 Rises=F Damp=F
 DIIS: error= 3.34D-06 at cycle   4 NSaved=   4.
 NSaved= 4 IEnMin= 4 EnMin= -982.014353110338     IErMin= 4 ErrMin= 3.34D-06
 ErrMax= 3.34D-06  0.00D+00 EMaxC= 1.00D-01 BMatC= 3.83D-09 BMatP= 4.65D-08
 IDIUse=1 WtCom= 1.00D+00 WtEn= 0.00D+00
 Coeff-Com:  0.375D-02-0.276D+00-0.133D+00 0.141D+01
 Coeff:      0.375D-02-0.276D+00-0.133D+00 0.141D+01
 Gap=     0.330 Goal=   None    Shift=    0.000
 Gap=     0.330 Goal=   None    Shift=    0.000
 RMSDP=6.26D-07 MaxDP=2.33D-05 DE=-1.99D-08 OVMax= 6.74D-05

 Cycle  13  Pass 1  IDiag  1:
 RMSU=  2.82D-07    CP:  1.00D+00  1.06D+00  1.22D+00  1.62D+00
 E= -982.014353116739     Delta-E=       -0.000000006400 Rises=F Damp=F
 DIIS: error= 9.24D-07 at cycle   5 NSaved=   5.
 NSaved= 5 IEnMin= 5 EnMin= -982.014353116739     IErMin= 5 ErrMin= 9.24D-07
 ErrMax= 9.24D-07  0.00D+00 EMaxC= 1.00D-01 BMatC= 1.14D-09 BMatP= 3.83D-09
 IDIUse=1 WtCom= 1.00D+00 WtEn= 0.00D+00
 Coeff-Com:  0.790D-02-0.223D+00-0.184D+00 0.617D+00 0.782D+00
 Coeff:      0.790D-02-0.223D+00-0.184D+00 0.617D+00 0.782D+00
 Gap=     0.330 Goal=   None    Shift=    0.000
 Gap=     0.330 Goal=   None    Shift=    0.000
 RMSDP=2.40D-07 MaxDP=7.54D-06 DE=-6.40D-09 OVMax= 2.43D-05

 Cycle  14  Pass 1  IDiag  1:
 RMSU=  9.71D-08    CP:  1.00D+00  1.06D+00  1.31D+00  1.91D+00  1.23D+00
 E= -982.014353117572     Delta-E=       -0.000000000833 Rises=F Damp=F
 DIIS: error= 2.61D-07 at cycle   6 NSaved=   6.
 NSaved= 6 IEnMin= 6 EnMin= -982.014353117572     IErMin= 6 ErrMin= 2.61D-07
 ErrMax= 2.61D-07  0.00D+00 EMaxC= 1.00D-01 BMatC= 4.47D-11 BMatP= 1.14D-09
 IDIUse=1 WtCom= 1.00D+00 WtEn= 0.00D+00
 Coeff-Com:  0.986D-03-0.158D-01-0.235D-01 0.273D-02 0.136D+00 0.900D+00
 Coeff:      0.986D-03-0.158D-01-0.235D-01 0.273D-02 0.136D+00 0.900D+00
 Gap=     0.330 Goal=   None    Shift=    0.000
 Gap=     0.330 Goal=   None    Shift=    0.000
 RMSDP=4.62D-08 MaxDP=1.49D-06 DE=-8.33D-10 OVMax= 4.31D-06

 Cycle  15  Pass 1  IDiag  1:
 RMSU=  2.31D-08    CP:  1.00D+00  1.06D+00  1.32D+00  1.94D+00  1.34D+00
                    CP:  1.08D+00
 E= -982.014353117625     Delta-E=       -0.000000000053 Rises=F Damp=F
 DIIS: error= 8.22D-08 at cycle   7 NSaved=   7.
 NSaved= 7 IEnMin= 7 EnMin= -982.014353117625     IErMin= 7 ErrMin= 8.22D-08
 ErrMax= 8.22D-08  0.00D+00 EMaxC= 1.00D-01 BMatC= 1.44D-11 BMatP= 4.47D-11
 IDIUse=1 WtCom= 1.00D+00 WtEn= 0.00D+00
 Coeff-Com: -0.817D-03 0.284D-01 0.175D-01-0.942D-01-0.715D-01 0.366D+00
 Coeff-Com:  0.755D+00
 Coeff:     -0.817D-03 0.284D-01 0.175D-01-0.942D-01-0.715D-01 0.366D+00
 Coeff:      0.755D+00
 Gap=     0.330 Goal=   None    Shift=    0.000
 Gap=     0.330 Goal=   None    Shift=    0.000
 RMSDP=1.80D-08 MaxDP=6.21D-07 DE=-5.34D-11 OVMax= 1.47D-06

 Cycle  16  Pass 1  IDiag  1:
 RMSU=  1.11D-08    CP:  1.00D+00  1.06D+00  1.32D+00  1.95D+00  1.36D+00
                    CP:  1.16D+00  1.03D+00
 E= -982.014353117611     Delta-E=        0.000000000014 Rises=F Damp=F
 DIIS: error= 4.06D-08 at cycle   8 NSaved=   8.
 NSaved= 8 IEnMin= 7 EnMin= -982.014353117625     IErMin= 8 ErrMin= 4.06D-08
 ErrMax= 4.06D-08  0.00D+00 EMaxC= 1.00D-01 BMatC= 1.01D-12 BMatP= 1.44D-11
 IDIUse=1 WtCom= 1.00D+00 WtEn= 0.00D+00
 Coeff-Com: -0.289D-03 0.796D-02 0.598D-02-0.209D-01-0.306D-01-0.164D-01
 Coeff-Com:  0.151D+00 0.904D+00
 Coeff:     -0.289D-03 0.796D-02 0.598D-02-0.209D-01-0.306D-01-0.164D-01
 Coeff:      0.151D+00 0.904D+00
 Gap=     0.330 Goal=   None    Shift=    0.000
 Gap=     0.330 Goal=   None    Shift=    0.000
 RMSDP=6.02D-09 MaxDP=1.40D-07 DE= 1.39D-11 OVMax= 4.57D-07

 SCF Done:  E(ULC-wPBE) =  -982.014353118     A.U. after   16 cycles
            NFock= 16  Conv=0.60D-08     -V/T= 2.0050
 <Sx>= 0.0000 <Sy>= 0.0000 <Sz>= 0.0000 <S**2>=-0.0000 S=-0.0000
 <L.S>= 0.000000000000E+00
 KE= 9.771715253265D+02 PE=-3.995916974506D+03 EE= 1.195545782502D+03
 Annihilation of the first spin contaminant:
 S**2 before annihilation    -0.0000,   after    -0.0000
 Leave Link  502 at Sat Jul 25 14:21:18 2020, MaxMem=  4026531840 cpu:             432.0 elap:              54.2
 (Enter /opt/ohpc/pub/libs/gaussian/g16-A.03/sandybridge/g16/l601.exe)
 Copying SCF densities to generalized density rwf, IOpCl= 1 IROHF=0.

 **********************************************************************

            Population analysis using the SCF density.

 **********************************************************************

 Orbital symmetries:
 Alpha Orbitals:
       Occupied  (A) (A) (A) (A) (A) (A) (A) (A) (A) (A) (A) (A)
                 (A) (A) (A) (A) (A) (A) (A) (A) (A) (A) (A) (A)
                 (A) (A) (A) (A) (A) (A) (A) (A) (A) (A) (A) (A)
                 (A) (A) (A) (A) (A) (A) (A) (A) (A) (A) (A) (A)
                 (A) (A)
       Virtual   (A) (A) (A) (A) (A) (A) (A) (A) (A) (A) (A) (A)
                 (A) (A) (A) (A) (A) (A) (A) (A) (A) (A) (A) (A)
                 (A) (A) (A) (A) (A) (A) (A) (A) (A) (A) (A) (A)
                 (A) (A) (A) (A) (A) (A) (A) (A) (A) (A) (A) (A)
                 (A) (A) (A) (A) (A) (A) (A) (A) (A) (A) (A) (A)
                 (A) (A) (A) (A) (A) (A) (A) (A) (A) (A) (A) (A)
                 (A) (A) (A) (A) (A) (A) (A) (A) (A) (A) (A) (A)
                 (A) (A) (A) (A) (A) (A) (A) (A) (A) (A) (A) (A)
                 (A) (A) (A) (A) (A) (A) (A) (A) (A) (A) (A) (A)
                 (A) (A) (A) (A) (A) (A) (A) (A) (A) (A) (A) (A)
                 (A) (A) (A) (A) (A) (A) (A) (A) (A) (A) (A) (A)
                 (A) (A) (A) (A) (A) (A) (A) (A) (A) (A) (A) (A)
                 (A) (A) (A) (A) (A) (A) (A) (A) (A) (A) (A) (A)
                 (A) (A) (A) (A) (A) (A) (A) (A) (A) (A)
 Beta  Orbitals:
       Occupied  (A) (A) (A) (A) (A) (A) (A) (A) (A) (A) (A) (A)
                 (A) (A) (A) (A) (A) (A) (A) (A) (A) (A) (A) (A)
                 (A) (A) (A) (A) (A) (A) (A) (A) (A) (A) (A) (A)
                 (A) (A) (A) (A) (A) (A) (A) (A) (A) (A) (A) (A)
                 (A) (A)
       Virtual   (A) (A) (A) (A) (A) (A) (A) (A) (A) (A) (A) (A)
                 (A) (A) (A) (A) (A) (A) (A) (A) (A) (A) (A) (A)
                 (A) (A) (A) (A) (A) (A) (A) (A) (A) (A) (A) (A)
                 (A) (A) (A) (A) (A) (A) (A) (A) (A) (A) (A) (A)
                 (A) (A) (A) (A) (A) (A) (A) (A) (A) (A) (A) (A)
                 (A) (A) (A) (A) (A) (A) (A) (A) (A) (A) (A) (A)
                 (A) (A) (A) (A) (A) (A) (A) (A) (A) (A) (A) (A)
                 (A) (A) (A) (A) (A) (A) (A) (A) (A) (A) (A) (A)
                 (A) (A) (A) (A) (A) (A) (A) (A) (A) (A) (A) (A)
                 (A) (A) (A) (A) (A) (A) (A) (A) (A) (A) (A) (A)
                 (A) (A) (A) (A) (A) (A) (A) (A) (A) (A) (A) (A)
                 (A) (A) (A) (A) (A) (A) (A) (A) (A) (A) (A) (A)
                 (A) (A) (A) (A) (A) (A) (A) (A) (A) (A) (A) (A)
                 (A) (A) (A) (A) (A) (A) (A) (A) (A) (A)
 The electronic state is 1-A.
 Alpha  occ. eigenvalues --  -88.31762 -24.49662 -24.49209 -10.22065 -10.21427
 Alpha  occ. eigenvalues --  -10.16593 -10.16381 -10.14560 -10.14434 -10.13228
 Alpha  occ. eigenvalues --  -10.13163 -10.12190 -10.12112  -7.92282  -5.93863
 Alpha  occ. eigenvalues --   -5.93339  -5.93000  -1.32597  -1.31684  -1.04011
 Alpha  occ. eigenvalues --   -1.01963  -0.93464  -0.90364  -0.87998  -0.85311
 Alpha  occ. eigenvalues --   -0.77495  -0.76394  -0.70904  -0.69163  -0.66409
 Alpha  occ. eigenvalues --   -0.64184  -0.63610  -0.61403  -0.60566  -0.59889
 Alpha  occ. eigenvalues --   -0.57022  -0.56214  -0.54203  -0.52034  -0.51528
 Alpha  occ. eigenvalues --   -0.50882  -0.50036  -0.49961  -0.48992  -0.46620
 Alpha  occ. eigenvalues --   -0.44438  -0.40315  -0.36534  -0.36051  -0.31435
 Alpha virt. eigenvalues --    0.01602   0.06665   0.08698   0.12899   0.13922
 Alpha virt. eigenvalues --    0.15759   0.17240   0.18764   0.19377   0.20445
 Alpha virt. eigenvalues --    0.22329   0.22693   0.23707   0.26147   0.26695
 Alpha virt. eigenvalues --    0.32922   0.33479   0.34641   0.37995   0.41513
 Alpha virt. eigenvalues --    0.44601   0.45585   0.48826   0.50352   0.51639
 Alpha virt. eigenvalues --    0.54029   0.54556   0.55643   0.57550   0.57723
 Alpha virt. eigenvalues --    0.58143   0.58784   0.58862   0.59311   0.59843
 Alpha virt. eigenvalues --    0.60653   0.61146   0.61469   0.61930   0.63246
 Alpha virt. eigenvalues --    0.64405   0.65544   0.67618   0.67774   0.70098
 Alpha virt. eigenvalues --    0.71354   0.72746   0.74268   0.74908   0.76162
 Alpha virt. eigenvalues --    0.76872   0.78436   0.79064   0.80068   0.81329
 Alpha virt. eigenvalues --    0.84408   0.85521   0.87213   0.88038   0.89190
 Alpha virt. eigenvalues --    0.92772   0.93385   0.94984   0.96783   0.97718
 Alpha virt. eigenvalues --    0.99987   1.01796   1.02662   1.05676   1.07022
 Alpha virt. eigenvalues --    1.08434   1.09194   1.11290   1.11608   1.12388
 Alpha virt. eigenvalues --    1.14112   1.16063   1.17896   1.19627   1.20358
 Alpha virt. eigenvalues --    1.22036   1.25725   1.27864   1.29248   1.31760
 Alpha virt. eigenvalues --    1.34848   1.37801   1.39587   1.42520   1.43489
 Alpha virt. eigenvalues --    1.43755   1.45337   1.48689   1.50908   1.52241
 Alpha virt. eigenvalues --    1.55488   1.56877   1.57459   1.59092   1.59452
 Alpha virt. eigenvalues --    1.61539   1.63714   1.64330   1.66126   1.69264
 Alpha virt. eigenvalues --    1.70317   1.71938   1.73493   1.74785   1.76304
 Alpha virt. eigenvalues --    1.77447   1.79043   1.79184   1.80297   1.82506
 Alpha virt. eigenvalues --    1.84434   1.85973   1.86309   1.87858   1.89824
 Alpha virt. eigenvalues --    1.91013   1.93986   1.94770   1.98038   1.98574
 Alpha virt. eigenvalues --    1.99317   2.03551   2.06204   2.06959   2.07862
 Alpha virt. eigenvalues --    2.09688   2.12223   2.16706   2.17946   2.20562
 Alpha virt. eigenvalues --    2.22060   2.27050   2.28717   2.30238   2.41971
 Alpha virt. eigenvalues --    2.44537   2.48589   2.51680   2.53801   2.54884
 Alpha virt. eigenvalues --    2.59445   2.61573   2.64115   2.70907   2.74331
 Alpha virt. eigenvalues --    2.77332   2.80414   2.84941   2.87287   3.23357
 Alpha virt. eigenvalues --    3.39196   3.66088   3.67007   3.70617   3.71247
 Alpha virt. eigenvalues --    3.80718   3.82611   4.01126   4.02632   4.17601
 Alpha virt. eigenvalues --    4.29735
  Beta  occ. eigenvalues --  -88.31762 -24.49662 -24.49209 -10.22065 -10.21427
  Beta  occ. eigenvalues --  -10.16593 -10.16381 -10.14560 -10.14434 -10.13228
  Beta  occ. eigenvalues --  -10.13163 -10.12190 -10.12112  -7.92282  -5.93863
  Beta  occ. eigenvalues --   -5.93339  -5.93000  -1.32597  -1.31684  -1.04011
  Beta  occ. eigenvalues --   -1.01963  -0.93464  -0.90364  -0.87998  -0.85311
  Beta  occ. eigenvalues --   -0.77495  -0.76394  -0.70904  -0.69163  -0.66409
  Beta  occ. eigenvalues --   -0.64184  -0.63610  -0.61403  -0.60566  -0.59889
  Beta  occ. eigenvalues --   -0.57022  -0.56214  -0.54203  -0.52034  -0.51528
  Beta  occ. eigenvalues --   -0.50882  -0.50036  -0.49961  -0.48992  -0.46620
  Beta  occ. eigenvalues --   -0.44438  -0.40315  -0.36534  -0.36051  -0.31435
  Beta virt. eigenvalues --    0.01602   0.06665   0.08698   0.12899   0.13922
  Beta virt. eigenvalues --    0.15759   0.17240   0.18764   0.19377   0.20445
  Beta virt. eigenvalues --    0.22329   0.22693   0.23707   0.26147   0.26695
  Beta virt. eigenvalues --    0.32922   0.33479   0.34641   0.37995   0.41513
  Beta virt. eigenvalues --    0.44601   0.45585   0.48826   0.50352   0.51639
  Beta virt. eigenvalues --    0.54029   0.54556   0.55643   0.57550   0.57723
  Beta virt. eigenvalues --    0.58143   0.58784   0.58862   0.59311   0.59843
  Beta virt. eigenvalues --    0.60653   0.61146   0.61469   0.61930   0.63246
  Beta virt. eigenvalues --    0.64405   0.65544   0.67618   0.67774   0.70098
  Beta virt. eigenvalues --    0.71354   0.72746   0.74268   0.74908   0.76162
  Beta virt. eigenvalues --    0.76872   0.78436   0.79064   0.80068   0.81329
  Beta virt. eigenvalues --    0.84408   0.85521   0.87213   0.88038   0.89190
  Beta virt. eigenvalues --    0.92772   0.93385   0.94984   0.96783   0.97718
  Beta virt. eigenvalues --    0.99987   1.01796   1.02662   1.05676   1.07022
  Beta virt. eigenvalues --    1.08434   1.09194   1.11290   1.11608   1.12388
  Beta virt. eigenvalues --    1.14112   1.16063   1.17896   1.19627   1.20358
  Beta virt. eigenvalues --    1.22036   1.25725   1.27864   1.29248   1.31760
  Beta virt. eigenvalues --    1.34848   1.37801   1.39587   1.42520   1.43489
  Beta virt. eigenvalues --    1.43755   1.45337   1.48689   1.50908   1.52241
  Beta virt. eigenvalues --    1.55488   1.56877   1.57459   1.59092   1.59452
  Beta virt. eigenvalues --    1.61539   1.63714   1.64330   1.66126   1.69264
  Beta virt. eigenvalues --    1.70317   1.71938   1.73493   1.74785   1.76304
  Beta virt. eigenvalues --    1.77447   1.79043   1.79184   1.80297   1.82506
  Beta virt. eigenvalues --    1.84434   1.85973   1.86309   1.87858   1.89824
  Beta virt. eigenvalues --    1.91013   1.93986   1.94770   1.98038   1.98574
  Beta virt. eigenvalues --    1.99317   2.03551   2.06204   2.06959   2.07862
  Beta virt. eigenvalues --    2.09688   2.12223   2.16706   2.17946   2.20562
  Beta virt. eigenvalues --    2.22060   2.27050   2.28717   2.30238   2.41971
  Beta virt. eigenvalues --    2.44537   2.48589   2.51680   2.53801   2.54884
  Beta virt. eigenvalues --    2.59445   2.61573   2.64115   2.70907   2.74331
  Beta virt. eigenvalues --    2.77332   2.80414   2.84941   2.87287   3.23357
  Beta virt. eigenvalues --    3.39196   3.66088   3.67007   3.70617   3.71247
  Beta virt. eigenvalues --    3.80718   3.82611   4.01126   4.02632   4.17601
  Beta virt. eigenvalues --    4.29735
          Condensed to atoms (all electrons):
               1          2          3          4          5          6
     1  C    4.807393   0.425947   0.025994   0.003868  -0.064589   0.018081
     2  C    0.425947   4.855253   0.453620  -0.053983  -0.000826  -0.094344
     3  C    0.025994   0.453620   4.973838   0.397756   0.199936   0.062792
     4  F    0.003868  -0.053983   0.397756   8.884255  -0.062323   0.003296
     5  C   -0.064589  -0.000826   0.199936  -0.062323   5.502138   0.230531
     6  C    0.018081  -0.094344   0.062792   0.003296   0.230531   4.997106
     7  F    0.004173  -0.000115   0.003050  -0.000000  -0.052129   0.384673
     8  C    0.462944  -0.000972  -0.081703  -0.000253  -0.009897   0.463947
     9  C   -0.001151   0.009339  -0.105747  -0.003939   0.306623  -0.099418
    10  C   -0.000066  -0.000128   0.007114   0.000219  -0.056224  -0.016670
    11  C    0.000000  -0.000002  -0.000272  -0.000035   0.006784   0.000659
    12  C   -0.000001   0.000009   0.000267   0.000382   0.001394  -0.000248
    13  S   -0.000033   0.000594  -0.010750   0.011250  -0.054743   0.004714
    14  H    0.409520  -0.041582   0.008911  -0.000018  -0.001169   0.008895
    15  H   -0.045731   0.391622  -0.031790  -0.000388   0.013445  -0.000941
    16  H   -0.047029   0.008979  -0.001252   0.000002   0.014618  -0.029085
    17  H   -0.000046   0.000015  -0.000197   0.000003  -0.013296  -0.000069
    18  H   -0.000000  -0.000000   0.000001  -0.000000  -0.000183   0.000015
    19  H   -0.000000   0.000000  -0.000001   0.000002  -0.000264   0.000003
               7          8          9         10         11         12
     1  C    0.004173   0.462944  -0.001151  -0.000066   0.000000  -0.000001
     2  C   -0.000115  -0.000972   0.009339  -0.000128  -0.000002   0.000009
     3  C    0.003050  -0.081703  -0.105747   0.007114  -0.000272   0.000267
     4  F   -0.000000  -0.000253  -0.003939   0.000219  -0.000035   0.000382
     5  C   -0.052129  -0.009897   0.306623  -0.056224   0.006784   0.001394
     6  C    0.384673   0.463947  -0.099418  -0.016670   0.000659  -0.000248
     7  F    8.866352  -0.047385  -0.011453   0.003504   0.000802  -0.000015
     8  C   -0.047385   4.778493   0.009410   0.000381  -0.000001   0.000002
     9  C   -0.011453   0.009410   5.314115   0.532243  -0.041471  -0.097753
    10  C    0.003504   0.000381   0.532243   4.842244   0.482482  -0.036649
    11  C    0.000802  -0.000001  -0.041471   0.482482   4.715224   0.515522
    12  C   -0.000015   0.000002  -0.097753  -0.036649   0.515522   5.015529
    13  S    0.000002  -0.000051   0.371133  -0.099384  -0.079591   0.355391
    14  H   -0.000039  -0.037814  -0.000001   0.000001   0.000000   0.000000
    15  H    0.000002   0.009036  -0.000215   0.000000   0.000000  -0.000000
    16  H    0.001440   0.390621  -0.000048   0.000004  -0.000001   0.000000
    17  H    0.015723   0.000711  -0.036889   0.401423  -0.037965   0.007805
    18  H    0.000004  -0.000000   0.008062  -0.037478   0.414833  -0.047204
    19  H   -0.000000   0.000000   0.000546   0.008659  -0.022303   0.411614
              13         14         15         16         17         18
     1  C   -0.000033   0.409520  -0.045731  -0.047029  -0.000046  -0.000000
     2  C    0.000594  -0.041582   0.391622   0.008979   0.000015  -0.000000
     3  C   -0.010750   0.008911  -0.031790  -0.001252  -0.000197   0.000001
     4  F    0.011250  -0.000018  -0.000388   0.000002   0.000003  -0.000000
     5  C   -0.054743  -0.001169   0.013445   0.014618  -0.013296  -0.000183
     6  C    0.004714   0.008895  -0.000941  -0.029085  -0.000069   0.000015
     7  F    0.000002  -0.000039   0.000002   0.001440   0.015723   0.000004
     8  C   -0.000051  -0.037814   0.009036   0.390621   0.000711  -0.000000
     9  C    0.371133  -0.000001  -0.000215  -0.000048  -0.036889   0.008062
    10  C   -0.099384   0.000001   0.000000   0.000004   0.401423  -0.037478
    11  C   -0.079591   0.000000   0.000000  -0.000001  -0.037965   0.414833
    12  C    0.355391   0.000000  -0.000000   0.000000   0.007805  -0.047204
    13  S   15.339267   0.000000   0.000009   0.000002   0.005393   0.005489
    14  H    0.000000   0.660354  -0.012039  -0.012840   0.000000  -0.000000
    15  H    0.000009  -0.012039   0.657391  -0.000177  -0.000000   0.000000
    16  H    0.000002  -0.012840  -0.000177   0.669469   0.000048  -0.000000
    17  H    0.005393   0.000000  -0.000000   0.000048   0.617744  -0.007284
    18  H    0.005489  -0.000000   0.000000  -0.000000  -0.007284   0.656613
    19  H   -0.033979  -0.000000  -0.000000   0.000000  -0.000139  -0.006798
              19
     1  C   -0.000000
     2  C    0.000000
     3  C   -0.000001
     4  F    0.000002
     5  C   -0.000264
     6  C    0.000003
     7  F   -0.000000
     8  C    0.000000
     9  C    0.000546
    10  C    0.008659
    11  C   -0.022303
    12  C    0.411614
    13  S   -0.033979
    14  H   -0.000000
    15  H   -0.000000
    16  H    0.000000
    17  H   -0.000139
    18  H   -0.006798
    19  H    0.631799
          Atomic-Atomic Spin Densities.
               1          2          3          4          5          6
     1  C    0.000000  -0.000000   0.000000   0.000000  -0.000000   0.000000
     2  C   -0.000000   0.000000  -0.000000   0.000000   0.000000  -0.000000
     3  C    0.000000  -0.000000   0.000000   0.000000  -0.000000   0.000000
     4  F    0.000000   0.000000   0.000000  -0.000000  -0.000000   0.000000
     5  C   -0.000000   0.000000  -0.000000  -0.000000   0.000000  -0.000000
     6  C    0.000000  -0.000000   0.000000   0.000000  -0.000000   0.000000
     7  F    0.000000  -0.000000   0.000000   0.000000  -0.000000   0.000000
     8  C   -0.000000   0.000000  -0.000000  -0.000000   0.000000  -0.000000
     9  C   -0.000000   0.000000   0.000000  -0.000000   0.000000  -0.000000
    10  C    0.000000   0.000000  -0.000000  -0.000000  -0.000000   0.000000
    11  C    0.000000  -0.000000   0.000000   0.000000   0.000000   0.000000
    12  C   -0.000000   0.000000   0.000000  -0.000000  -0.000000  -0.000000
    13  S    0.000000  -0.000000  -0.000000   0.000000   0.000000   0.000000
    14  H    0.000000  -0.000000   0.000000   0.000000  -0.000000   0.000000
    15  H   -0.000000  -0.000000   0.000000  -0.000000   0.000000  -0.000000
    16  H   -0.000000   0.000000  -0.000000  -0.000000   0.000000  -0.000000
    17  H   -0.000000   0.000000   0.000000  -0.000000   0.000000  -0.000000
    18  H    0.000000  -0.000000   0.000000   0.000000   0.000000   0.000000
    19  H   -0.000000  -0.000000  -0.000000  -0.000000   0.000000  -0.000000
               7          8          9         10         11         12
     1  C    0.000000  -0.000000  -0.000000   0.000000   0.000000  -0.000000
     2  C   -0.000000   0.000000   0.000000   0.000000  -0.000000   0.000000
     3  C    0.000000  -0.000000   0.000000  -0.000000   0.000000   0.000000
     4  F    0.000000  -0.000000  -0.000000  -0.000000   0.000000  -0.000000
     5  C   -0.000000   0.000000   0.000000  -0.000000   0.000000  -0.000000
     6  C    0.000000  -0.000000  -0.000000   0.000000   0.000000  -0.000000
     7  F   -0.000000   0.000000  -0.000000   0.000000   0.000000  -0.000000
     8  C    0.000000  -0.000000   0.000000   0.000000  -0.000000   0.000000
     9  C   -0.000000   0.000000   0.000000   0.000000  -0.000000  -0.000000
    10  C    0.000000   0.000000   0.000000  -0.000000   0.000000   0.000000
    11  C    0.000000  -0.000000  -0.000000   0.000000  -0.000000  -0.000000
    12  C   -0.000000   0.000000  -0.000000   0.000000  -0.000000   0.000000
    13  S    0.000000  -0.000000  -0.000000  -0.000000   0.000000  -0.000000
    14  H    0.000000   0.000000  -0.000000   0.000000   0.000000  -0.000000
    15  H   -0.000000  -0.000000   0.000000  -0.000000  -0.000000   0.000000
    16  H    0.000000   0.000000   0.000000  -0.000000  -0.000000   0.000000
    17  H   -0.000000   0.000000  -0.000000  -0.000000   0.000000   0.000000
    18  H   -0.000000  -0.000000   0.000000   0.000000   0.000000  -0.000000
    19  H   -0.000000   0.000000   0.000000  -0.000000   0.000000  -0.000000
              13         14         15         16         17         18
     1  C    0.000000   0.000000  -0.000000  -0.000000  -0.000000   0.000000
     2  C   -0.000000  -0.000000  -0.000000   0.000000   0.000000  -0.000000
     3  C   -0.000000   0.000000   0.000000  -0.000000   0.000000   0.000000
     4  F    0.000000   0.000000  -0.000000  -0.000000  -0.000000   0.000000
     5  C    0.000000  -0.000000   0.000000   0.000000   0.000000   0.000000
     6  C    0.000000   0.000000  -0.000000  -0.000000  -0.000000   0.000000
     7  F    0.000000   0.000000  -0.000000   0.000000  -0.000000  -0.000000
     8  C   -0.000000   0.000000  -0.000000   0.000000   0.000000  -0.000000
     9  C   -0.000000  -0.000000   0.000000   0.000000  -0.000000   0.000000
    10  C   -0.000000   0.000000  -0.000000  -0.000000  -0.000000   0.000000
    11  C    0.000000   0.000000  -0.000000  -0.000000   0.000000   0.000000
    12  C   -0.000000  -0.000000   0.000000   0.000000   0.000000  -0.000000
    13  S    0.000000   0.000000   0.000000  -0.000000  -0.000000   0.000000
    14  H    0.000000   0.000000  -0.000000  -0.000000  -0.000000   0.000000
    15  H    0.000000  -0.000000   0.000000   0.000000   0.000000  -0.000000
    16  H   -0.000000  -0.000000   0.000000   0.000000   0.000000  -0.000000
    17  H   -0.000000  -0.000000   0.000000   0.000000   0.000000  -0.000000
    18  H    0.000000   0.000000  -0.000000  -0.000000  -0.000000   0.000000
    19  H   -0.000000  -0.000000   0.000000   0.000000  -0.000000  -0.000000
              19
     1  C   -0.000000
     2  C   -0.000000
     3  C   -0.000000
     4  F   -0.000000
     5  C    0.000000
     6  C   -0.000000
     7  F   -0.000000
     8  C    0.000000
     9  C    0.000000
    10  C   -0.000000
    11  C    0.000000
    12  C   -0.000000
    13  S   -0.000000
    14  H   -0.000000
    15  H    0.000000
    16  H    0.000000
    17  H   -0.000000
    18  H   -0.000000
    19  H    0.000000
 Mulliken charges and spin densities:
               1          2
     1  C    0.000726   0.000000
     2  C    0.046575  -0.000000
     3  C    0.098433  -0.000000
     4  F   -0.180094  -0.000000
     5  C    0.040175  -0.000000
     6  C    0.066063   0.000000
     7  F   -0.168589  -0.000000
     8  C    0.062532  -0.000000
     9  C   -0.153386   0.000000
    10  C   -0.031672  -0.000000
    11  C    0.045335  -0.000000
    12  C   -0.126046   0.000000
    13  S    0.185286   0.000000
    14  H    0.017821   0.000000
    15  H    0.019776   0.000000
    16  H    0.005249   0.000000
    17  H    0.047022  -0.000000
    18  H    0.013931   0.000000
    19  H    0.010862   0.000000
 Sum of Mulliken charges =  -0.00000  -0.00000
 Mulliken charges and spin densities with hydrogens summed into heavy atoms:
               1          2
     1  C    0.018547   0.000000
     2  C    0.066351  -0.000000
     3  C    0.098433  -0.000000
     4  F   -0.180094  -0.000000
     5  C    0.040175  -0.000000
     6  C    0.066063   0.000000
     7  F   -0.168589  -0.000000
     8  C    0.067781  -0.000000
     9  C   -0.153386   0.000000
    10  C    0.015350  -0.000000
    11  C    0.059266  -0.000000
    12  C   -0.115183   0.000000
    13  S    0.185286   0.000000
 Electronic spatial extent (au):  <R**2>=           2605.4456
 Charge=             -0.0000 electrons
 Dipole moment (field-independent basis, Debye):
    X=             -1.3337    Y=              0.4780    Z=             -0.0337  Tot=              1.4172
 Quadrupole moment (field-independent basis, Debye-Ang):
   XX=            -60.6920   YY=            -79.3958   ZZ=            -83.6390
   XY=              1.8565   XZ=              0.1569   YZ=             -0.0294
 Traceless Quadrupole moment (field-independent basis, Debye-Ang):
   XX=             13.8836   YY=             -4.8202   ZZ=             -9.0634
   XY=              1.8565   XZ=              0.1569   YZ=             -0.0294
 Octapole moment (field-independent basis, Debye-Ang**2):
  XXX=            -18.3214  YYY=              3.7078  ZZZ=              0.1871  XYY=             -1.0378
  XXY=             -0.6398  XXZ=             -0.9078  XZZ=             -4.3296  YZZ=             -1.6875
  YYZ=             -0.1393  XYZ=             -0.2887
 Hexadecapole moment (field-independent basis, Debye-Ang**3):
 XXXX=          -2034.3657 YYYY=           -878.7508 ZZZZ=            -88.9211 XXXY=            -11.5861
 XXXZ=              1.9253 YYYX=             10.1684 YYYZ=             -0.7782 ZZZX=              0.1426
 ZZZY=             -0.4120 XXYY=           -486.0306 XXZZ=           -463.4457 YYZZ=           -165.2106
 XXYZ=             -0.7227 YYXZ=              0.4658 ZZXY=             -8.5799
 N-N= 8.411853135604D+02 E-N=-3.995916974827D+03  KE= 9.771715253265D+02
                          Isotropic Fermi Contact Couplings
        Atom                 a.u.       MegaHertz       Gauss      10(-4) cm-1
     1  C(13)              0.00000       0.00000       0.00000       0.00000
     2  C(13)             -0.00000      -0.00000      -0.00000      -0.00000
     3  C(13)             -0.00000      -0.00000      -0.00000      -0.00000
     4  F(19)              0.00000       0.00000       0.00000       0.00000
     5  C(13)              0.00000       0.00000       0.00000       0.00000
     6  C(13)              0.00000       0.00000       0.00000       0.00000
     7  F(19)              0.00000       0.00000       0.00000       0.00000
     8  C(13)             -0.00000      -0.00000      -0.00000      -0.00000
     9  C(13)              0.00000       0.00000       0.00000       0.00000
    10  C(13)             -0.00000      -0.00000      -0.00000      -0.00000
    11  C(13)             -0.00000      -0.00000      -0.00000      -0.00000
    12  C(13)              0.00000       0.00000       0.00000       0.00000
    13  S(33)              0.00000       0.00000       0.00000       0.00000
    14  H(1)              -0.00000      -0.00000      -0.00000      -0.00000
    15  H(1)               0.00000       0.00000       0.00000       0.00000
    16  H(1)              -0.00000      -0.00000      -0.00000      -0.00000
    17  H(1)               0.00000       0.00000       0.00000       0.00000
    18  H(1)               0.00000       0.00000       0.00000       0.00000
    19  H(1)               0.00000       0.00000       0.00000       0.00000
 --------------------------------------------------------
       Center         ----  Spin Dipole Couplings  ----
                      3XX-RR        3YY-RR        3ZZ-RR
 --------------------------------------------------------
     1   Atom        0.000000     -0.000000     -0.000000
     2   Atom        0.000000     -0.000000      0.000000
     3   Atom       -0.000000      0.000000     -0.000000
     4   Atom       -0.000000      0.000000     -0.000000
     5   Atom        0.000000      0.000000     -0.000000
     6   Atom       -0.000000      0.000000     -0.000000
     7   Atom       -0.000000      0.000000     -0.000000
     8   Atom        0.000000      0.000000     -0.000000
     9   Atom        0.000000     -0.000000      0.000000
    10   Atom       -0.000000     -0.000000      0.000000
    11   Atom        0.000000     -0.000000      0.000000
    12   Atom       -0.000000     -0.000000      0.000000
    13   Atom       -0.000000     -0.000000      0.000000
    14   Atom        0.000000     -0.000000     -0.000000
    15   Atom        0.000000     -0.000000      0.000000
    16   Atom       -0.000000     -0.000000      0.000000
    17   Atom       -0.000000     -0.000000      0.000000
    18   Atom       -0.000000      0.000000      0.000000
    19   Atom       -0.000000      0.000000      0.000000
 --------------------------------------------------------
                        XY            XZ            YZ
 --------------------------------------------------------
     1   Atom       -0.000000      0.000000     -0.000000
     2   Atom        0.000000      0.000000      0.000000
     3   Atom       -0.000000     -0.000000      0.000000
     4   Atom       -0.000000     -0.000000      0.000000
     5   Atom       -0.000000      0.000000      0.000000
     6   Atom        0.000000      0.000000     -0.000000
     7   Atom        0.000000     -0.000000     -0.000000
     8   Atom       -0.000000      0.000000     -0.000000
     9   Atom       -0.000000      0.000000      0.000000
    10   Atom        0.000000      0.000000     -0.000000
    11   Atom       -0.000000      0.000000      0.000000
    12   Atom       -0.000000     -0.000000      0.000000
    13   Atom        0.000000      0.000000     -0.000000
    14   Atom        0.000000     -0.000000     -0.000000
    15   Atom       -0.000000     -0.000000      0.000000
    16   Atom       -0.000000     -0.000000      0.000000
    17   Atom        0.000000     -0.000000      0.000000
    18   Atom       -0.000000      0.000000      0.000000
    19   Atom        0.000000      0.000000     -0.000000
 --------------------------------------------------------


 ---------------------------------------------------------------------------------
              Anisotropic Spin Dipole Couplings in Principal Axis System
 ---------------------------------------------------------------------------------

       Atom             a.u.   MegaHertz   Gauss  10(-4) cm-1        Axes

              Baa    -0.0000    -0.000    -0.000    -0.000  0.2965  0.9542  0.0413
     1 C(13)  Bbb    -0.0000    -0.000    -0.000    -0.000 -0.0615 -0.0241  0.9978
              Bcc     0.0000     0.000     0.000     0.000  0.9531 -0.2984  0.0515
 
              Baa    -0.0000    -0.000    -0.000    -0.000 -0.4177  0.8943 -0.1602
     2 C(13)  Bbb     0.0000     0.000     0.000     0.000 -0.4189 -0.0331  0.9075
              Bcc     0.0000     0.000     0.000     0.000  0.8063  0.4462  0.3884
 
              Baa    -0.0000    -0.000    -0.000    -0.000  0.9465  0.3228 -0.0003
     3 C(13)  Bbb    -0.0000    -0.000    -0.000    -0.000  0.0363 -0.1055  0.9938
              Bcc     0.0000     0.000     0.000     0.000 -0.3207  0.9406  0.1116
 
              Baa    -0.0000    -0.000    -0.000    -0.000  0.8904  0.2801  0.3587
     4 F(19)  Bbb    -0.0000    -0.000    -0.000    -0.000 -0.3205 -0.1736  0.9312
              Bcc     0.0000     0.000     0.000     0.000 -0.3231  0.9441  0.0648
 
              Baa    -0.0000    -0.000    -0.000    -0.000  0.5696  0.6090 -0.5519
     5 C(13)  Bbb    -0.0000    -0.000    -0.000    -0.000  0.4656  0.3143  0.8273
              Bcc     0.0000     0.000     0.000     0.000 -0.6773  0.7282  0.1046
 
              Baa    -0.0000    -0.000    -0.000    -0.000  0.9739 -0.2156 -0.0708
     6 C(13)  Bbb    -0.0000    -0.000    -0.000    -0.000  0.0811  0.0391  0.9959
              Bcc     0.0000     0.000     0.000     0.000  0.2119  0.9757 -0.0556
 
              Baa    -0.0000    -0.000    -0.000    -0.000  0.7491 -0.3840  0.5398
     7 F(19)  Bbb    -0.0000    -0.000    -0.000    -0.000 -0.4188  0.3568  0.8351
              Bcc     0.0000     0.000     0.000     0.000  0.5132  0.8516 -0.1065
 
              Baa    -0.0000    -0.000    -0.000    -0.000 -0.0474  0.0137  0.9988
     8 C(13)  Bbb    -0.0000    -0.000    -0.000    -0.000  0.8573  0.5137  0.0336
              Bcc     0.0000     0.000     0.000     0.000 -0.5126  0.8578 -0.0360
 
              Baa    -0.0000    -0.000    -0.000    -0.000  0.3481  0.9369 -0.0322
     9 C(13)  Bbb     0.0000     0.000     0.000     0.000  0.9321 -0.3495 -0.0945
              Bcc     0.0000     0.000     0.000     0.000  0.0998 -0.0029  0.9950
 
              Baa    -0.0000    -0.000    -0.000    -0.000 -0.4501  0.8900  0.0728
    10 C(13)  Bbb     0.0000     0.000     0.000     0.000  0.8921  0.4446  0.0805
              Bcc     0.0000     0.000     0.000     0.000 -0.0393 -0.1011  0.9941
 
              Baa    -0.0000    -0.000    -0.000    -0.000  0.4547  0.8891 -0.0530
    11 C(13)  Bbb     0.0000     0.000     0.000     0.000 -0.2664  0.1926  0.9444
              Bcc     0.0000     0.000     0.000     0.000  0.8499 -0.4153  0.3244
 
              Baa    -0.0000    -0.000    -0.000    -0.000  0.6541  0.7561 -0.0233
    12 C(13)  Bbb     0.0000     0.000     0.000     0.000  0.7136 -0.6066  0.3505
              Bcc     0.0000     0.000     0.000     0.000 -0.2509  0.2459  0.9363
 
              Baa    -0.0000    -0.000    -0.000    -0.000  0.7138 -0.6933 -0.0991
    13 S(33)  Bbb     0.0000     0.000     0.000     0.000  0.0492 -0.0915  0.9946
              Bcc     0.0000     0.000     0.000     0.000  0.6986  0.7148  0.0312
 
              Baa    -0.0000    -0.000    -0.000    -0.000  0.0410  0.2475  0.9680
    14 H(1)   Bbb    -0.0000    -0.000    -0.000    -0.000 -0.2228  0.9467 -0.2326
              Bcc     0.0000     0.000     0.000     0.000  0.9740  0.2061 -0.0940
 
              Baa    -0.0000    -0.000    -0.000    -0.000  0.3578  0.9307 -0.0764
    15 H(1)   Bbb     0.0000     0.000     0.000     0.000  0.3796 -0.0702  0.9225
              Bcc     0.0000     0.000     0.000     0.000  0.8532 -0.3591 -0.3784
 
              Baa    -0.0000    -0.000    -0.000    -0.000  0.6375  0.7695  0.0374
    16 H(1)   Bbb     0.0000     0.000     0.000     0.000  0.7133 -0.6079  0.3488
              Bcc     0.0000     0.000     0.000     0.000 -0.2911  0.1957  0.9365
 
              Baa    -0.0000    -0.000    -0.000    -0.000 -0.6075  0.7913 -0.0697
    17 H(1)   Bbb     0.0000     0.000     0.000     0.000  0.7902  0.6109  0.0485
              Bcc     0.0000     0.000     0.000     0.000 -0.0809  0.0256  0.9964
 
              Baa    -0.0000    -0.000    -0.000    -0.000  0.9996  0.0107 -0.0251
    18 H(1)   Bbb     0.0000     0.000     0.000     0.000  0.0252 -0.0087  0.9996
              Bcc     0.0000     0.000     0.000     0.000 -0.0104  0.9999  0.0090
 
              Baa    -0.0000    -0.000    -0.000    -0.000  0.8843 -0.4635 -0.0571
    19 H(1)   Bbb     0.0000     0.000     0.000     0.000  0.0589 -0.0105  0.9982
              Bcc     0.0000     0.000     0.000     0.000  0.4633  0.8860 -0.0180
 

 ---------------------------------------------------------------------------------

 No NMR shielding tensors so no spin-rotation constants.
 Leave Link  601 at Sat Jul 25 14:21:19 2020, MaxMem=  4026531840 cpu:               4.5 elap:               0.9
 (Enter /opt/ohpc/pub/libs/gaussian/g16-A.03/sandybridge/g16/l701.exe)
 ... and contract with generalized density number  0.
 Compute integral first derivatives.
 Leave Link  701 at Sat Jul 25 14:21:19 2020, MaxMem=  4026531840 cpu:               2.6 elap:               0.5
 (Enter /opt/ohpc/pub/libs/gaussian/g16-A.03/sandybridge/g16/l702.exe)
 L702 exits ... SP integral derivatives will be done elsewhere.
 Leave Link  702 at Sat Jul 25 14:21:19 2020, MaxMem=  4026531840 cpu:               0.2 elap:               0.0
 (Enter /opt/ohpc/pub/libs/gaussian/g16-A.03/sandybridge/g16/l703.exe)
 Integral derivatives from FoFJK, PRISM(SPDF).
 Compute integral first derivatives, UseDBF=F ICtDFT=           0.
 Calling FoFJK, ICntrl=      2127 FMM=F ISym2X=0 I1Cent= 0 IOpClX= 1 NMat=1 NMatS=1 NMatT=0.
 FoFJK:  IHMeth= 1 ICntrl=    2127 DoSepK=T KAlg= 0 I1Cent=           0 FoldK=F
 IRaf=         1 NMat=       1 IRICut=       1 DoRegI=T DoRafI=F ISym2E= 0 IDoP0=0 IntGTp=1.
 FoFCou: FMM=F IPFlag=           0 FMFlag=      100000 FMFlg1=         800
         NFxFlg=           0 DoJE=F BraDBF=F KetDBF=F FulRan=T
         wScrn=  0.000000 ICntrl=      2527 IOpCl=  0 I1Cent=           0 NGrid=           0
         NMat0=    1 NMatS0=      1 NMatT0=    0 NMatD0=    1 NMtDS0=    0 NMtDT0=    0
 Symmetry not used in FoFCou.
 Leave Link  703 at Sat Jul 25 14:21:32 2020, MaxMem=  4026531840 cpu:             101.8 elap:              13.0
 (Enter /opt/ohpc/pub/libs/gaussian/g16-A.03/sandybridge/g16/l716.exe)
 Dipole        =-5.24716703D-01 1.88072829D-01-1.32409246D-02
 ***** Axes restored to original set *****
 -------------------------------------------------------------------
 Center     Atomic                   Forces (Hartrees/Bohr)
 Number     Number              X              Y              Z
 -------------------------------------------------------------------
      1        6          -0.044233018   -0.017661134   -0.005545445
      2        6           0.059398117    0.036104883    0.009245599
      3        6          -0.035885343   -0.055102415   -0.010787288
      4        9           0.018157373    0.040679792    0.002752377
      5        6          -0.023166294    0.031877640    0.014987114
      6        6           0.003408236    0.034021835    0.001737778
      7        9           0.007175951   -0.036307964   -0.001590687
      8        6          -0.034969407   -0.032172477   -0.003224896
      9        6           0.014080940    0.008195405   -0.018745483
     10        6           0.060941727    0.039329094    0.014997512
     11        6          -0.046138531   -0.074988531    0.000012815
     12        6           0.091595599    0.053202543   -0.003472807
     13       16          -0.038730689    0.022499718    0.004142263
     14        1           0.006230904   -0.005338966    0.000660996
     15        1          -0.000645127   -0.022810775   -0.001669083
     16        1           0.016905001    0.034723106    0.001447352
     17        1          -0.008717982   -0.035250399   -0.004884115
     18        1           0.002874600    0.003336984   -0.001038367
     19        1          -0.048282058   -0.024338340    0.000974363
 -------------------------------------------------------------------
 Cartesian Forces:  Max     0.091595599 RMS     0.030699919
 Leave Link  716 at Sat Jul 25 14:21:33 2020, MaxMem=  4026531840 cpu:               0.3 elap:               0.1
 (Enter /opt/ohpc/pub/libs/gaussian/g16-A.03/sandybridge/g16/l103.exe)

 GradGradGradGradGradGradGradGradGradGradGradGradGradGradGradGradGradGrad
 Berny optimization.
 FormGI is forming the generalized inverse of G from B-inverse, IUseBI=4.
 Internal  Forces:  Max     0.054015814 RMS     0.014751317
 Search for a local minimum.
 Step number   1 out of a maximum of  105
 All quantities printed in internal units (Hartrees-Bohrs-Radians)
 RMS Force = .14751D-01 SwitMx=.10000D-02 MixMth= 1
 Mixed Optimization -- RFO/linear search
 Second derivative matrix not updated -- first step.
 ITU=  0
     Eigenvalues ---    0.00538   0.01253   0.01381   0.01569   0.01624
     Eigenvalues ---    0.01879   0.02002   0.02035   0.02083   0.02092
     Eigenvalues ---    0.02141   0.02193   0.02282   0.02330   0.02482
     Eigenvalues ---    0.02585   0.15826   0.15935   0.15990   0.15990
     Eigenvalues ---    0.15998   0.16000   0.22074   0.22103   0.23498
     Eigenvalues ---    0.23724   0.24678   0.24703   0.24825   0.24945
     Eigenvalues ---    0.24996   0.27299   0.28913   0.30636   0.32487
     Eigenvalues ---    0.35028   0.35969   0.38030   0.38261   0.39411
     Eigenvalues ---    0.40913   0.42021   0.42472   0.43424   0.44121
     Eigenvalues ---    0.44311   0.45817   0.46407   0.49129   0.49279
     Eigenvalues ---    0.54572
 RFO step:  Lambda=-5.03614929D-02 EMin= 5.38153597D-03
 Linear search not attempted -- first point.
 Maximum step size (   0.300) exceeded in Quadratic search.
    -- Step size scaled by   0.852
 Iteration  1 RMS(Cart)=  0.03748288 RMS(Int)=  0.00051900
 Iteration  2 RMS(Cart)=  0.00064913 RMS(Int)=  0.00020454
 Iteration  3 RMS(Cart)=  0.00000034 RMS(Int)=  0.00020454
 ITry= 1 IFail=0 DXMaxC= 1.10D-01 DCOld= 1.00D+10 DXMaxT= 3.00D-01 DXLimC= 3.00D+00 Rises=F
 Variable       Old X    -DE/DX   Delta X   Delta X   Delta X     New X
                                 (Linear)    (Quad)   (Total)
    R1        2.71910  -0.03271   0.00000  -0.06155  -0.06146   2.65764
    R2        2.60232   0.00769   0.00000   0.01017   0.01031   2.61263
    R3        2.04129   0.00658   0.00000   0.01367   0.01367   2.05496
    R4        2.54185   0.02254   0.00000   0.03338   0.03333   2.57518
    R5        2.01022   0.01995   0.00000   0.03945   0.03945   2.04967
    R6        2.68326  -0.04427   0.00000  -0.07935  -0.07935   2.60391
    R7        2.61523   0.01498   0.00000   0.02580   0.02566   2.64089
    R8        2.64916  -0.01323   0.00000  -0.02300  -0.02309   2.62607
    R9        2.86713  -0.02870   0.00000  -0.06850  -0.06850   2.79863
   R10        2.64338  -0.03653   0.00000  -0.06117  -0.06117   2.58221
   R11        2.66643  -0.01975   0.00000  -0.03682  -0.03678   2.62965
   R12        1.97031   0.03841   0.00000   0.07119   0.07119   2.04150
   R13        2.64156  -0.02642   0.00000  -0.04209  -0.04192   2.59964
   R14        3.25363   0.00227   0.00000   0.00592   0.00602   3.25965
   R15        2.58995   0.03468   0.00000   0.05370   0.05374   2.64369
   R16        2.16884  -0.03606   0.00000  -0.09046  -0.09046   2.07838
   R17        2.70373  -0.05082   0.00000  -0.09572  -0.09586   2.60787
   R18        2.05630   0.00029   0.00000   0.00061   0.00061   2.05691
   R19        3.36621  -0.03838   0.00000  -0.10298  -0.10313   3.26308
   R20        1.93850   0.05402   0.00000   0.09492   0.09492   2.03342
    A1        2.02558   0.01360   0.00000   0.03979   0.04002   2.06560
    A2        2.15599  -0.01178   0.00000  -0.03994  -0.04008   2.11591
    A3        2.10108  -0.00180   0.00000   0.00045   0.00032   2.10140
    A4        2.11398  -0.01255   0.00000  -0.03401  -0.03408   2.07990
[...]
    16  H    0.000003  -0.012478  -0.000084   0.654334   0.000033  -0.000000
    17  H    0.006418   0.000000  -0.000000   0.000033   0.653212  -0.006867
    18  H    0.007110  -0.000000   0.000000  -0.000000  -0.006867   0.667575
    19  H   -0.037987  -0.000000  -0.000000   0.000000  -0.000104  -0.007541
              19
     1  C   -0.000000
     2  C    0.000000
     3  C   -0.000005
     4  F    0.000001
     5  C   -0.000235
     6  C    0.000003
     7  F    0.000000
     8  C    0.000000
     9  C    0.001198
    10  C    0.007652
    11  C   -0.020938
    12  C    0.404810
    13  S   -0.037987
    14  H   -0.000000
    15  H   -0.000000
    16  H    0.000000
    17  H   -0.000104
    18  H   -0.007541
    19  H    0.612114
          Atomic-Atomic Spin Densities.
               1          2          3          4          5          6
     1  C   -0.000000   0.000000  -0.000000  -0.000000   0.000000  -0.000000
     2  C    0.000000  -0.000000   0.000000   0.000000  -0.000000   0.000000
     3  C   -0.000000   0.000000  -0.000000  -0.000000   0.000000  -0.000000
     4  F   -0.000000   0.000000  -0.000000   0.000000   0.000000  -0.000000
     5  C    0.000000  -0.000000   0.000000   0.000000  -0.000000   0.000000
     6  C   -0.000000   0.000000  -0.000000  -0.000000   0.000000  -0.000000
     7  F   -0.000000   0.000000  -0.000000   0.000000   0.000000  -0.000000
     8  C    0.000000  -0.000000   0.000000   0.000000  -0.000000   0.000000
     9  C    0.000000  -0.000000  -0.000000  -0.000000   0.000000   0.000000
    10  C    0.000000  -0.000000   0.000000  -0.000000   0.000000  -0.000000
    11  C    0.000000  -0.000000   0.000000   0.000000  -0.000000   0.000000
    12  C    0.000000  -0.000000  -0.000000  -0.000000   0.000000   0.000000
    13  S   -0.000000   0.000000  -0.000000   0.000000   0.000000   0.000000
    14  H   -0.000000   0.000000  -0.000000  -0.000000   0.000000  -0.000000
    15  H    0.000000  -0.000000   0.000000  -0.000000  -0.000000   0.000000
    16  H   -0.000000  -0.000000   0.000000   0.000000   0.000000   0.000000
    17  H    0.000000  -0.000000  -0.000000  -0.000000  -0.000000   0.000000
    18  H    0.000000  -0.000000   0.000000   0.000000  -0.000000  -0.000000
    19  H   -0.000000  -0.000000  -0.000000  -0.000000   0.000000   0.000000
               7          8          9         10         11         12
     1  C   -0.000000   0.000000   0.000000   0.000000   0.000000   0.000000
     2  C    0.000000  -0.000000  -0.000000  -0.000000  -0.000000  -0.000000
     3  C   -0.000000   0.000000  -0.000000   0.000000   0.000000  -0.000000
     4  F    0.000000   0.000000  -0.000000  -0.000000   0.000000  -0.000000
     5  C    0.000000  -0.000000   0.000000   0.000000  -0.000000   0.000000
     6  C   -0.000000   0.000000   0.000000  -0.000000   0.000000   0.000000
     7  F    0.000000  -0.000000  -0.000000  -0.000000   0.000000  -0.000000
     8  C   -0.000000  -0.000000   0.000000  -0.000000   0.000000  -0.000000
     9  C   -0.000000   0.000000   0.000000  -0.000000  -0.000000   0.000000
    10  C   -0.000000  -0.000000  -0.000000  -0.000000   0.000000  -0.000000
    11  C    0.000000   0.000000  -0.000000   0.000000  -0.000000   0.000000
    12  C   -0.000000  -0.000000   0.000000  -0.000000   0.000000  -0.000000
    13  S   -0.000000   0.000000  -0.000000   0.000000   0.000000  -0.000000
    14  H   -0.000000   0.000000   0.000000  -0.000000  -0.000000   0.000000
    15  H    0.000000  -0.000000  -0.000000  -0.000000  -0.000000   0.000000
    16  H    0.000000  -0.000000  -0.000000   0.000000  -0.000000   0.000000
    17  H   -0.000000   0.000000   0.000000  -0.000000   0.000000  -0.000000
    18  H    0.000000   0.000000  -0.000000   0.000000  -0.000000   0.000000
    19  H   -0.000000   0.000000   0.000000  -0.000000   0.000000  -0.000000
              13         14         15         16         17         18
     1  C   -0.000000  -0.000000   0.000000  -0.000000   0.000000   0.000000
     2  C    0.000000   0.000000  -0.000000  -0.000000  -0.000000  -0.000000
     3  C   -0.000000  -0.000000   0.000000   0.000000  -0.000000   0.000000
     4  F    0.000000  -0.000000  -0.000000   0.000000  -0.000000   0.000000
     5  C    0.000000   0.000000  -0.000000   0.000000  -0.000000  -0.000000
     6  C    0.000000  -0.000000   0.000000   0.000000   0.000000  -0.000000
     7  F   -0.000000  -0.000000   0.000000   0.000000  -0.000000   0.000000
     8  C    0.000000   0.000000  -0.000000  -0.000000   0.000000   0.000000
     9  C   -0.000000   0.000000  -0.000000  -0.000000   0.000000  -0.000000
    10  C    0.000000  -0.000000  -0.000000   0.000000  -0.000000   0.000000
    11  C    0.000000  -0.000000  -0.000000  -0.000000   0.000000  -0.000000
    12  C   -0.000000   0.000000   0.000000   0.000000  -0.000000   0.000000
    13  S    0.000000  -0.000000   0.000000  -0.000000   0.000000  -0.000000
    14  H   -0.000000  -0.000000   0.000000   0.000000   0.000000   0.000000
    15  H    0.000000   0.000000  -0.000000  -0.000000   0.000000  -0.000000
    16  H   -0.000000   0.000000  -0.000000   0.000000   0.000000  -0.000000
    17  H    0.000000   0.000000   0.000000   0.000000  -0.000000   0.000000
    18  H   -0.000000   0.000000  -0.000000  -0.000000   0.000000  -0.000000
    19  H    0.000000   0.000000   0.000000   0.000000  -0.000000   0.000000
              19
     1  C   -0.000000
     2  C   -0.000000
     3  C   -0.000000
     4  F   -0.000000
     5  C    0.000000
     6  C    0.000000
     7  F   -0.000000
     8  C    0.000000
     9  C    0.000000
    10  C   -0.000000
    11  C    0.000000
    12  C   -0.000000
    13  S    0.000000
    14  H    0.000000
    15  H    0.000000
    16  H    0.000000
    17  H   -0.000000
    18  H    0.000000
    19  H   -0.000000
 Mulliken charges and spin densities:
               1          2
     1  C    0.026703   0.000000
     2  C   -0.000538  -0.000000
     3  C    0.106899   0.000000
     4  F   -0.121947   0.000000
     5  C   -0.041870  -0.000000
     6  C    0.095316   0.000000
     7  F   -0.124788  -0.000000
     8  C   -0.001522  -0.000000
     9  C   -0.143437   0.000000
    10  C    0.006752  -0.000000
    11  C    0.043075   0.000000
    12  C   -0.143143  -0.000000
    13  S    0.174861  -0.000000
    14  H    0.019164  -0.000000
    15  H    0.022398  -0.000000
    16  H    0.022390   0.000000
    17  H    0.010995  -0.000000
    18  H    0.007660  -0.000000
    19  H    0.041032  -0.000000
 Sum of Mulliken charges =  -0.00000  -0.00000
 Mulliken charges and spin densities with hydrogens summed into heavy atoms:
               1          2
     1  C    0.045867   0.000000
     2  C    0.021860  -0.000000
     3  C    0.106899   0.000000
     4  F   -0.121947   0.000000
     5  C   -0.041870  -0.000000
     6  C    0.095316   0.000000
     7  F   -0.124788  -0.000000
     8  C    0.020868  -0.000000
     9  C   -0.143437   0.000000
    10  C    0.017746  -0.000000
    11  C    0.050736   0.000000
    12  C   -0.102111  -0.000000
    13  S    0.174861  -0.000000
 Electronic spatial extent (au):  <R**2>=           2526.3148
 Charge=              0.0000 electrons
 Dipole moment (field-independent basis, Debye):
    X=             -1.0987    Y=              0.3478    Z=              0.1509  Tot=              1.1623
 Quadrupole moment (field-independent basis, Debye-Ang):
   XX=            -63.0313   YY=            -78.4705   ZZ=            -82.5072
   XY=              1.2704   XZ=              0.2292   YZ=              1.9645
 Traceless Quadrupole moment (field-independent basis, Debye-Ang):
   XX=             11.6384   YY=             -3.8008   ZZ=             -7.8376
   XY=              1.2704   XZ=              0.2292   YZ=              1.9645
 Octapole moment (field-independent basis, Debye-Ang**2):
  XXX=             -9.3473  YYY=              1.2382  ZZZ=             -0.9046  XYY=             -5.4597
  XXY=             -1.8755  XXZ=             -2.8044  XZZ=             -1.1977  YZZ=              0.2158
  YYZ=              3.0019  XYZ=              6.9714
 Hexadecapole moment (field-independent basis, Debye-Ang**3):
 XXXX=          -2015.6795 YYYY=           -808.1920 ZZZZ=           -136.2201 XXXY=            -16.2918
 XXXZ=             -4.2248 YYYX=              5.7974 YYYZ=             -0.1476 ZZZX=             -3.0355
 ZZZY=            -10.6511 XXYY=           -474.1511 XXZZ=           -448.2630 YYZZ=           -156.3877
 XXYZ=              6.7060 YYXZ=              5.3948 ZZXY=             -4.3916
 N-N= 8.518099910622D+02 E-N=-4.017583079763D+03  KE= 9.776266029255D+02
                          Isotropic Fermi Contact Couplings
        Atom                 a.u.       MegaHertz       Gauss      10(-4) cm-1
     1  C(13)             -0.00000      -0.00000      -0.00000      -0.00000
     2  C(13)             -0.00000      -0.00000      -0.00000      -0.00000
     3  C(13)             -0.00000      -0.00000      -0.00000      -0.00000
     4  F(19)             -0.00000      -0.00000      -0.00000      -0.00000
     5  C(13)             -0.00000      -0.00000      -0.00000      -0.00000
     6  C(13)             -0.00000      -0.00000      -0.00000      -0.00000
     7  F(19)              0.00000       0.00000       0.00000       0.00000
     8  C(13)             -0.00000      -0.00000      -0.00000      -0.00000
     9  C(13)              0.00000       0.00000       0.00000       0.00000
    10  C(13)             -0.00000      -0.00000      -0.00000      -0.00000
    11  C(13)             -0.00000      -0.00000      -0.00000      -0.00000
    12  C(13)             -0.00000      -0.00000      -0.00000      -0.00000
    13  S(33)              0.00000       0.00000       0.00000       0.00000
    14  H(1)              -0.00000      -0.00000      -0.00000      -0.00000
    15  H(1)               0.00000       0.00000       0.00000       0.00000
    16  H(1)               0.00000       0.00000       0.00000       0.00000
    17  H(1)               0.00000       0.00000       0.00000       0.00000
    18  H(1)              -0.00000      -0.00000      -0.00000      -0.00000
    19  H(1)              -0.00000      -0.00000      -0.00000      -0.00000
 --------------------------------------------------------
       Center         ----  Spin Dipole Couplings  ----
                      3XX-RR        3YY-RR        3ZZ-RR
 --------------------------------------------------------
     1   Atom       -0.000000     -0.000000      0.000000
     2   Atom       -0.000000      0.000000      0.000000
     3   Atom        0.000000     -0.000000      0.000000
     4   Atom       -0.000000      0.000000     -0.000000
     5   Atom        0.000000     -0.000000      0.000000
     6   Atom        0.000000     -0.000000     -0.000000
     7   Atom       -0.000000      0.000000     -0.000000
     8   Atom       -0.000000      0.000000      0.000000
     9   Atom        0.000000      0.000000     -0.000000
    10   Atom       -0.000000     -0.000000      0.000000
    11   Atom       -0.000000     -0.000000      0.000000
    12   Atom        0.000000     -0.000000      0.000000
    13   Atom        0.000000     -0.000000     -0.000000
    14   Atom       -0.000000      0.000000      0.000000
    15   Atom        0.000000     -0.000000      0.000000
    16   Atom        0.000000     -0.000000     -0.000000
    17   Atom        0.000000     -0.000000      0.000000
    18   Atom       -0.000000      0.000000      0.000000
    19   Atom       -0.000000      0.000000      0.000000
 --------------------------------------------------------
                        XY            XZ            YZ
 --------------------------------------------------------
     1   Atom       -0.000000      0.000000     -0.000000
     2   Atom       -0.000000      0.000000     -0.000000
     3   Atom        0.000000     -0.000000      0.000000
     4   Atom        0.000000     -0.000000      0.000000
     5   Atom        0.000000      0.000000      0.000000
     6   Atom       -0.000000      0.000000     -0.000000
     7   Atom       -0.000000     -0.000000     -0.000000
     8   Atom       -0.000000     -0.000000      0.000000
     9   Atom       -0.000000     -0.000000      0.000000
    10   Atom        0.000000      0.000000     -0.000000
    11   Atom        0.000000      0.000000     -0.000000
    12   Atom        0.000000      0.000000     -0.000000
    13   Atom       -0.000000     -0.000000     -0.000000
    14   Atom        0.000000     -0.000000      0.000000
    15   Atom       -0.000000      0.000000      0.000000
    16   Atom       -0.000000      0.000000     -0.000000
    17   Atom        0.000000      0.000000     -0.000000
    18   Atom       -0.000000     -0.000000     -0.000000
    19   Atom        0.000000      0.000000     -0.000000
 --------------------------------------------------------


 ---------------------------------------------------------------------------------
              Anisotropic Spin Dipole Couplings in Principal Axis System
 ---------------------------------------------------------------------------------

       Atom             a.u.   MegaHertz   Gauss  10(-4) cm-1        Axes

              Baa    -0.0000    -0.000    -0.000    -0.000  0.7645  0.6434 -0.0400
     1 C(13)  Bbb     0.0000     0.000     0.000     0.000 -0.6344  0.7620  0.1298
              Bcc     0.0000     0.000     0.000     0.000  0.1140 -0.0738  0.9907
 
              Baa    -0.0000    -0.000    -0.000    -0.000  0.8174  0.5760 -0.0128
     2 C(13)  Bbb     0.0000     0.000     0.000     0.000 -0.0565  0.1022  0.9932
              Bcc     0.0000     0.000     0.000     0.000 -0.5734  0.8110 -0.1161
 
              Baa    -0.0000    -0.000    -0.000    -0.000 -0.1534  0.9768 -0.1493
     3 C(13)  Bbb     0.0000     0.000     0.000     0.000  0.0829  0.1633  0.9831
              Bcc     0.0000     0.000     0.000     0.000  0.9847  0.1384 -0.1060
 
              Baa    -0.0000    -0.000    -0.000    -0.000  0.4975 -0.3754  0.7820
     4 F(19)  Bbb    -0.0000    -0.000    -0.000    -0.000  0.6743 -0.3997 -0.6209
              Bcc     0.0000     0.000     0.000     0.000  0.5457  0.8362  0.0543
 
              Baa    -0.0000    -0.000    -0.000    -0.000 -0.2356  0.9717 -0.0179
     5 C(13)  Bbb     0.0000     0.000     0.000     0.000 -0.6565 -0.1455  0.7402
              Bcc     0.0000     0.000     0.000     0.000  0.7166  0.1862  0.6722
 
              Baa    -0.0000    -0.000    -0.000    -0.000  0.2539  0.9671 -0.0153
     6 C(13)  Bbb    -0.0000    -0.000    -0.000    -0.000 -0.0677  0.0336  0.9971
              Bcc     0.0000     0.000     0.000     0.000  0.9648 -0.2522  0.0740
 
              Baa    -0.0000    -0.000    -0.000    -0.000  0.6030  0.2958  0.7408
     7 F(19)  Bbb    -0.0000    -0.000    -0.000    -0.000  0.7453  0.1222 -0.6554
              Bcc     0.0000     0.000     0.000     0.000 -0.2844  0.9474 -0.1468
 
              Baa    -0.0000    -0.000    -0.000    -0.000  0.9905  0.0234  0.1353
     8 C(13)  Bbb     0.0000     0.000     0.000     0.000 -0.0116  0.9961 -0.0876
              Bcc     0.0000     0.000     0.000     0.000 -0.1368  0.0852  0.9869
 
              Baa    -0.0000    -0.000    -0.000    -0.000  0.1063 -0.0386  0.9936
     9 C(13)  Bbb     0.0000     0.000     0.000     0.000  0.9193  0.3847 -0.0834
              Bcc     0.0000     0.000     0.000     0.000 -0.3790  0.9222  0.0764
 
              Baa    -0.0000    -0.000    -0.000    -0.000  0.7672 -0.6038 -0.2165
    10 C(13)  Bbb    -0.0000    -0.000    -0.000    -0.000  0.6367  0.7576  0.1437
              Bcc     0.0000     0.000     0.000     0.000  0.0773 -0.2481  0.9657
 
              Baa    -0.0000    -0.000    -0.000    -0.000 -0.2563  0.9034  0.3437
    11 C(13)  Bbb    -0.0000    -0.000    -0.000    -0.000  0.9557  0.2900 -0.0496
              Bcc     0.0000     0.000     0.000     0.000  0.1445 -0.3158  0.9378
 
              Baa    -0.0000    -0.000    -0.000    -0.000 -0.3631  0.8944  0.2611
    12 C(13)  Bbb     0.0000     0.000     0.000     0.000 -0.2923 -0.3754  0.8796
              Bcc     0.0000     0.000     0.000     0.000  0.8847  0.2430  0.3978
 
              Baa    -0.0000    -0.000    -0.000    -0.000  0.1532  0.7745  0.6137
    13 S(33)  Bbb     0.0000     0.000     0.000     0.000 -0.1276 -0.6004  0.7895
              Bcc     0.0000     0.000     0.000     0.000  0.9799 -0.1993  0.0069
 
              Baa    -0.0000    -0.000    -0.000    -0.000  0.9446 -0.3179  0.0820
    14 H(1)   Bbb     0.0000     0.000     0.000     0.000  0.3239  0.9431 -0.0754
              Bcc     0.0000     0.000     0.000     0.000 -0.0534  0.0978  0.9938
 
              Baa    -0.0000    -0.000    -0.000    -0.000  0.2758  0.9505 -0.1432
    15 H(1)   Bbb     0.0000     0.000     0.000     0.000  0.8248 -0.3105 -0.4725
              Bcc     0.0000     0.000     0.000     0.000  0.4936 -0.0122  0.8696
 
              Baa    -0.0000    -0.000    -0.000    -0.000  0.0353  0.1537  0.9875
    16 H(1)   Bbb    -0.0000    -0.000    -0.000    -0.000  0.3406  0.9271 -0.1565
              Bcc     0.0000     0.000     0.000     0.000  0.9395 -0.3419  0.0196
 
              Baa    -0.0000    -0.000    -0.000    -0.000 -0.3189  0.8526  0.4140
    17 H(1)   Bbb     0.0000     0.000     0.000     0.000  0.5109 -0.2132  0.8328
              Bcc     0.0000     0.000     0.000     0.000  0.7983  0.4771 -0.3676
 
              Baa    -0.0000    -0.000    -0.000    -0.000  0.7933  0.5267  0.3054
    18 H(1)   Bbb     0.0000     0.000     0.000     0.000 -0.5836  0.8007  0.1352
              Bcc     0.0000     0.000     0.000     0.000 -0.1733 -0.2855  0.9426
 
              Baa    -0.0000    -0.000    -0.000    -0.000  0.8928 -0.4068 -0.1935
    19 H(1)   Bbb     0.0000     0.000     0.000     0.000  0.4479  0.7550  0.4790
              Bcc     0.0000     0.000     0.000     0.000 -0.0487 -0.5143  0.8562
 

 ---------------------------------------------------------------------------------

 No NMR shielding tensors so no spin-rotation constants.
 Leave Link  601 at Sat Jul 25 14:52:46 2020, MaxMem=  4026531840 cpu:               5.1 elap:               0.8
 (Enter /opt/ohpc/pub/libs/gaussian/g16-A.03/sandybridge/g16/l9999.exe)

 Test job not archived.
 1\1\GINC-SKYLAKE040\FOpt\ULC-wPBE\CC-pVDZ\C10H6F2S1\RDU230\25-Jul-2020
 \0\\#P uLC-wPBE/cc-pVDZ iop(3/107=0382600000, 3/108=0382600000) opt\\H
 6 C10 S1 F2\\0,1\C,3.3795047528,-0.1298515716,0.0249710499\C,2.5959097
 987,-1.2560644012,-0.181880245\C,1.2195324451,-1.1223581929,-0.1748528
 829\F,0.4820075251,-2.2265062648,-0.3714464949\C,0.5574784118,0.090899
 5768,0.0287962932\C,1.3993280652,1.1879040301,0.2355170546\F,0.8510175
 272,2.3943558525,0.4471857717\C,2.7800439161,1.103625074,0.2364493219\
 C,-0.9103711208,0.2203129403,0.0257224304\C,-1.6500987751,1.3160990846
 ,-0.3357272463\C,-3.0493937158,1.1213831235,-0.1814084021\C,-3.3487950
 393,-0.1150441696,0.30517597\S,-1.9469918721,-1.0579061919,0.561023418
 2\H,4.4673559757,-0.2142720018,0.0227788108\H,3.0260707458,-2.24307212
 21,-0.3513226734\H,3.3594467205,2.0108766671,0.4076689895\H,-1.2033156
 587,2.2382122424,-0.7006716596\H,-3.7992596093,1.8738193823,-0.4238290
 748\H,-4.3317750928,-0.5332720575,0.5147185689\\Version=EM64L-G16RevA.
 03\State=1-A\HF=-982.0480835\S2=0.\S2-1=0.\S2A=0.\RMSD=4.060e-09\RMSF=
 4.506e-06\Dipole=0.4312797,0.1375632,-0.0646093\Quadrupole=8.6401919,-
 2.6879521,-5.9522398,-1.0361424,-0.2733516,-1.2877658\PG=C01 [X(C10H6F
 2S1)]\\@


 BLESSED ARE THOSE WHO NOUGHT EXPECT,
 FOR THEY SHALL NOT BE DISAPPOINTED..  WALCOT - ODE TO PITT
 Job cpu time:       0 days  4 hours 15 minutes 10.6 seconds.
 Elapsed time:       0 days  0 hours 32 minutes 22.4 seconds.
 File lengths (MBytes):  RWF=    108 Int=      0 D2E=      0 Chk=     12 Scr=      8
 Normal termination of Gaussian 16 at Sat Jul 25 14:52:46 2020.
