 Entering Gaussian System, Link 0=g16
 Input=mols_65_7_20_n-cF-C_opt_0.gjf
 Output=mols_65_7_20_n-cF-C_opt_0.log
 Initial command:
 /opt/ohpc/pub/libs/gaussian/g16-A.03/sandybridge/g16/l1.exe "/mnt/gpfs2_4m/scratch/rdu230/ondemand/projects/dihedral_energies/7trial/wtuning/mols_65_7_20_n-cF-C/Gau-94155.inp" -scrdir="/mnt/gpfs2_4m/scratch/rdu230/ondemand/projects/dihedral_energies/7trial/wtuning/mols_65_7_20_n-cF-C/"
 Entering Link 1 = /opt/ohpc/pub/libs/gaussian/g16-A.03/sandybridge/g16/l1.exe PID=     94156.
  
 Copyright (c) 1988,1990,1992,1993,1995,1998,2003,2009,2016,
            Gaussian, Inc.  All Rights Reserved.
  
 This is part of the Gaussian(R) 16 program.  It is based on
 the Gaussian(R) 09 system (copyright 2009, Gaussian, Inc.),
 the Gaussian(R) 03 system (copyright 2003, Gaussian, Inc.),
 the Gaussian(R) 98 system (copyright 1998, Gaussian, Inc.),
 the Gaussian(R) 94 system (copyright 1995, Gaussian, Inc.),
 the Gaussian 92(TM) system (copyright 1992, Gaussian, Inc.),
 the Gaussian 90(TM) system (copyright 1990, Gaussian, Inc.),
 the Gaussian 88(TM) system (copyright 1988, Gaussian, Inc.),
 the Gaussian 86(TM) system (copyright 1986, Carnegie Mellon
 University), and the Gaussian 82(TM) system (copyright 1983,
 Carnegie Mellon University). Gaussian is a federally registered
 trademark of Gaussian, Inc.
  
 This software contains proprietary and confidential information,
 including trade secrets, belonging to Gaussian, Inc.
  
 This software is provided under written license and may be
 used, copied, transmitted, or stored only in accord with that
 written license.
  
 The following legend is applicable only to US Government
 contracts under FAR:
  
                    RESTRICTED RIGHTS LEGEND
  
 Use, reproduction and disclosure by the US Government is
 subject to restrictions as set forth in subparagraphs (a)
 and (c) of the Commercial Computer Software - Restricted
 Rights clause in FAR 52.227-19.
  
 Gaussian, Inc.
 340 Quinnipiac St., Bldg. 40, Wallingford CT 06492
  
  
 ---------------------------------------------------------------
 Warning -- This program may not be used in any manner that
 competes with the business of Gaussian, Inc. or will provide
 assistance to any competitor of Gaussian, Inc.  The licensee
 of this program is prohibited from giving any competitor of
 Gaussian, Inc. access to this program.  By using this program,
 the user acknowledges that Gaussian, Inc. is engaged in the
 business of creating and licensing software in the field of
 computational chemistry and represents and warrants to the
 licensee that it is not a competitor of Gaussian, Inc. and that
 it will not use this program in any manner prohibited above.
 ---------------------------------------------------------------
  

 Cite this work as:
 Gaussian 16, Revision A.03,
 M. J. Frisch, G. W. Trucks, H. B. Schlegel, G. E. Scuseria, 
 M. A. Robb, J. R. Cheeseman, G. Scalmani, V. Barone, 
 G. A. Petersson, H. Nakatsuji, X. Li, M. Caricato, A. V. Marenich, 
 J. Bloino, B. G. Janesko, R. Gomperts, B. Mennucci, H. P. Hratchian, 
 J. V. Ortiz, A. F. Izmaylov, J. L. Sonnenberg, D. Williams-Young, 
 F. Ding, F. Lipparini, F. Egidi, J. Goings, B. Peng, A. Petrone, 
 T. Henderson, D. Ranasinghe, V. G. Zakrzewski, J. Gao, N. Rega, 
 G. Zheng, W. Liang, M. Hada, M. Ehara, K. Toyota, R. Fukuda, 
 J. Hasegawa, M. Ishida, T. Nakajima, Y. Honda, O. Kitao, H. Nakai, 
 T. Vreven, K. Throssell, J. A. Montgomery, Jr., J. E. Peralta, 
 F. Ogliaro, M. J. Bearpark, J. J. Heyd, E. N. Brothers, K. N. Kudin, 
 V. N. Staroverov, T. A. Keith, R. Kobayashi, J. Normand, 
 K. Raghavachari, A. P. Rendell, J. C. Burant, S. S. Iyengar, 
 J. Tomasi, M. Cossi, J. M. Millam, M. Klene, C. Adamo, R. Cammi, 
 J. W. Ochterski, R. L. Martin, K. Morokuma, O. Farkas, 
 J. B. Foresman, and D. J. Fox, Gaussian, Inc., Wallingford CT, 2016.
 
 ******************************************
 Gaussian 16:  EM64L-G16RevA.03 25-Dec-2016
                25-Jul-2020 
 ******************************************
 %mem=30GB
 %nproc=8
 Will use up to    8 processors via shared memory.
 ---------------------------------------------------------------
 #P uLC-wPBE/cc-pVDZ iop(3/107=0343200000, 3/108=0343200000) opt
 ---------------------------------------------------------------
 1/18=20,19=15,26=3,38=1/1,3;
 2/9=110,12=2,17=6,18=5,40=1/2;
 3/5=16,11=2,25=1,30=1,71=1,74=-41,107=343200000,108=343200000,116=2/1,2,3;
 4//1;
 5/5=2,38=5/2;
 6/7=2,8=2,9=2,10=2,28=1/1;
 7//1,2,3,16;
 1/18=20,19=15,26=3/3(2);
 2/9=110/2;
 99//99;
 2/9=110/2;
 3/5=16,11=2,25=1,30=1,71=1,74=-41,107=343200000,108=343200000,116=2/1,2,3;
 4/5=5,16=3,69=1/1;
 5/5=2,38=5/2;
 7//1,2,3,16;
 1/18=20,19=15,26=3/3(-5);
 2/9=110/2;
 6/7=2,8=2,9=2,10=2,19=2,28=1/1;
 99/9=1/99;
 Leave Link    1 at Sat Jul 25 14:31:31 2020, MaxMem=  4026531840 cpu:               1.7 elap:               0.2
 (Enter /opt/ohpc/pub/libs/gaussian/g16-A.03/sandybridge/g16/l101.exe)
 ----------------
 H30 C63 S7 N7 F7
 ----------------
 Symbolic Z-matrix:
 Charge =  0 Multiplicity = 1
 C                    -26.99687   1.77027  -0.60893 
 C                    -26.19055   0.82406  -1.03039 
 N                    -24.89181   0.68621  -0.61476 
 C                    -24.37091   1.61195   0.18536 
 C                    -25.22771   2.71707   0.65022 
 F                    -24.71183   3.60157   1.48106 
 C                    -26.54576   2.76573   0.23086 
 C                    -22.9868   1.54466   0.57096 
 C                    -22.32577   2.04303   1.62899 
 C                    -20.93806   1.67331   1.68344 
 C                    -20.5035   0.92483   0.57964 
 S                    -21.86908   0.68639  -0.53416 
 C                    -19.25001   0.43183   0.19653 
 C                    -18.10555   1.22574   0.40406 
 N                    -16.82747   0.84701   0.13506 
 C                    -16.6343  -0.44923  -0.45256 
 C                    -17.71381  -1.23023  -0.63657 
 F                    -17.52236  -2.51282  -1.2369 
 C                    -19.0004  -0.78705  -0.4018 
 C                    -15.22813  -0.82967  -0.75363 
 C                    -14.77475  -1.66206  -1.66945 
 C                    -13.32277  -1.78437  -1.59081 
 C                    -12.72036  -0.96521  -0.68733 
 S                    -13.91533  -0.06445   0.16596 
 C                    -11.32545  -0.79112  -0.39073 
 C                    -10.87578  -0.71669   0.9552 
 N                    -9.53232  -0.59919   1.222 
 C                    -8.64748  -0.58452   0.27204 
 C                    -8.98536  -0.5967   -1.05234 
 F                    -8.1922   -0.49768  -2.06799 
 C                    -10.34085  -0.73481  -1.36438 
 C                    -7.24578  -0.43998   0.74484 
 C                    -6.8293   -0.07166   2.03125 
 C                    -5.38705  -0.09244   2.15023 
 C                    -4.78044  -0.26582   0.96045 
 S                    -5.87166  -0.64698  -0.32457 
 C                    -3.30577  -0.26549   0.62586 
 C                    -2.79387   0.27227  -0.46179 
 N                    -1.49806   0.2832   -0.81113 
 C                    -0.58062  -0.41465   0.03555 
 C                    -1.10479  -0.98063   1.19623 
 F                    -0.23486  -1.61858   2.06674 
 C                    -2.4308   -0.93894   1.44276 
 C                     0.81517  -0.36564  -0.41338 
 C                     1.24736   0.18148  -1.68782 
 C                     2.68337  -0.01105  -1.77535 
 C                     3.29016  -0.5307   -0.75165 
 S                     2.08535  -0.88876   0.45301 
 C                     4.74052  -0.829    -0.44367 
 C                     5.18846  -1.85446   0.25342 
 N                     6.48169  -2.15      0.48076 
 C                     7.46547  -1.33755  -0.06208 
 C                     7.0778   -0.24327  -0.874 
 F                     7.89902   0.55378  -1.46923 
 C                     5.65516   0.01277  -1.09604 
 C                     8.8149   -1.67008   0.3039 
 C                     9.25437  -2.76187   1.10902 
 C                     10.6667  -2.83855   1.1363 
 C                     11.31108  -1.84675   0.53161 
 S                     10.17861  -0.82325  -0.29071 
 C                     12.71858  -1.54801   0.35487 
 C                     13.69664  -2.6568    0.28852 
 N                     15.0425  -2.52166   0.18648 
 C                     15.5208  -1.24193   0.08732 
 C                     14.59993  -0.12496   0.17096 
 F                     15.1382   1.11563   0.1125 
 C                     13.22389  -0.29742   0.27914 
 C                     17.00805  -1.16511  -0.00631 
 C                     17.84085  -2.19351  -0.28486 
 C                     19.21022  -1.84264  -0.41567 
 C                     19.37243  -0.53016  -0.14591 
 S                     17.87198   0.30495   0.24198 
 C                     20.5833   0.26965  -0.10964 
 C                     20.6745   1.6309   -0.54035 
 N                     21.86655   2.35941  -0.47704 
 C                     23.01273   1.74952  -0.03959 
 C                     22.98377   0.48113   0.40754 
 F                     24.08866  -0.16415   0.89003 
 C                     21.78075  -0.24357   0.40939 
 C                     24.13861   2.60186   0.01861 
 C                     25.39978   2.46336   0.71543 
 C                     26.32546   3.54657   0.43313 
 C                     25.82424   4.44523  -0.39828 
 S                     24.25225   4.02643  -0.93403 
 H                    -28.07788   1.82818  -0.85134 
 H                    -26.55832   0.03316  -1.68746 
 H                    -27.15698   3.52734   0.6022 
 H                    -22.81333   2.59772   2.45011 
 H                    -20.24506   1.92869   2.45354 
 H                    -18.16966   2.23116   0.81843 
 H                    -19.86113  -1.46867  -0.57869 
 H                    -15.37055  -2.21557  -2.34516 
 H                    -12.77593  -2.4859   -2.24572 
 H                    -11.51894  -0.7618    1.77923 
 H                    -10.65822  -0.8234   -2.3849 
 H                    -7.48774   0.09434   2.83874 
 H                    -4.88628   0.15749   3.0137 
 H                    -3.42563   0.783    -1.19271 
 H                    -2.72011  -1.47992   2.38073 
 H                     0.62511   0.5475   -2.46579 
 H                     3.20607   0.30725  -2.66348 
 H                     4.45387  -2.57962   0.79747 
 H                     5.42243   0.86564  -1.72135 
 H                     8.55785  -3.44438   1.59551 
 H                     11.18937  -3.57267   1.74232 
 H                     13.32226  -3.63685   0.32988 
 H                     12.66958   0.60313   0.2933 
 H                     17.45274  -3.20078  -0.45849 
 H                     20.02308  -2.52247  -0.64984 
 H                     19.79585   2.10758  -0.92896 
 H                     21.79214  -1.26309   0.82065 
 H                     25.51117   1.61897   1.36637 
 H                     27.25045   3.59881   0.89744 
 H                     26.32401   5.29415  -0.83752 
 
 ITRead=  0  0  0  0  0  0  0  0  0  0  0  0  0  0  0  0  0  0  0  0
 ITRead=  0  0  0  0  0  0  0  0  0  0  0  0  0  0  0  0  0  0  0  0
 ITRead=  0  0  0  0  0  0  0  0  0  0  0  0  0  0  0  0  0  0  0  0
 ITRead=  0  0  0  0  0  0  0  0  0  0  0  0  0  0  0  0  0  0  0  0
 ITRead=  0  0  0  0  0  0  0  0  0  0  0  0  0  0  0  0  0  0  0  0
 ITRead=  0  0  0  0  0  0  0  0  0  0  0  0  0  0
 MicOpt= -1 -1 -1 -1 -1 -1 -1 -1 -1 -1 -1 -1 -1 -1 -1 -1 -1 -1 -1 -1
 MicOpt= -1 -1 -1 -1 -1 -1 -1 -1 -1 -1 -1 -1 -1 -1 -1 -1 -1 -1 -1 -1
 MicOpt= -1 -1 -1 -1 -1 -1 -1 -1 -1 -1 -1 -1 -1 -1 -1 -1 -1 -1 -1 -1
 MicOpt= -1 -1 -1 -1 -1 -1 -1 -1 -1 -1 -1 -1 -1 -1 -1 -1 -1 -1 -1 -1
 MicOpt= -1 -1 -1 -1 -1 -1 -1 -1 -1 -1 -1 -1 -1 -1 -1 -1 -1 -1 -1 -1
 MicOpt= -1 -1 -1 -1 -1 -1 -1 -1 -1 -1 -1 -1 -1 -1
 NAtoms=    114 NQM=      114 NQMF=       0 NMMI=      0 NMMIF=      0
                NMic=       0 NMicF=      0.
                    Isotopes and Nuclear Properties:
 (Nuclear quadrupole moments (NQMom) in fm**2, nuclear magnetic moments (NMagM)
  in nuclear magnetons)

  Atom         1           2           3           4           5           6           7           8           9          10
 IAtWgt=          12          12          14          12          12          19          12          12          12          12
 AtmWgt=  12.0000000  12.0000000  14.0030740  12.0000000  12.0000000  18.9984033  12.0000000  12.0000000  12.0000000  12.0000000
 NucSpn=           0           0           2           0           0           1           0           0           0           0
 AtZEff=  -0.0000000  -0.0000000  -0.0000000  -0.0000000  -0.0000000  -0.0000000  -0.0000000  -0.0000000  -0.0000000  -0.0000000
 NQMom=    0.0000000   0.0000000   2.0440000   0.0000000   0.0000000   0.0000000   0.0000000   0.0000000   0.0000000   0.0000000
 NMagM=    0.0000000   0.0000000   0.4037610   0.0000000   0.0000000   2.6288670   0.0000000   0.0000000   0.0000000   0.0000000
 AtZNuc=   6.0000000   6.0000000   7.0000000   6.0000000   6.0000000   9.0000000   6.0000000   6.0000000   6.0000000   6.0000000

  Atom        11          12          13          14          15          16          17          18          19          20
 IAtWgt=          12          32          12          12          14          12          12          19          12          12
 AtmWgt=  12.0000000  31.9720718  12.0000000  12.0000000  14.0030740  12.0000000  12.0000000  18.9984033  12.0000000  12.0000000
 NucSpn=           0           0           0           0           2           0           0           1           0           0
 AtZEff=  -0.0000000  -0.0000000  -0.0000000  -0.0000000  -0.0000000  -0.0000000  -0.0000000  -0.0000000  -0.0000000  -0.0000000
 NQMom=    0.0000000   0.0000000   0.0000000   0.0000000   2.0440000   0.0000000   0.0000000   0.0000000   0.0000000   0.0000000
 NMagM=    0.0000000   0.0000000   0.0000000   0.0000000   0.4037610   0.0000000   0.0000000   2.6288670   0.0000000   0.0000000
 AtZNuc=   6.0000000  16.0000000   6.0000000   6.0000000   7.0000000   6.0000000   6.0000000   9.0000000   6.0000000   6.0000000

  Atom        21          22          23          24          25          26          27          28          29          30
 IAtWgt=          12          12          12          32          12          12          14          12          12          19
 AtmWgt=  12.0000000  12.0000000  12.0000000  31.9720718  12.0000000  12.0000000  14.0030740  12.0000000  12.0000000  18.9984033
 NucSpn=           0           0           0           0           0           0           2           0           0           1
 AtZEff=  -0.0000000  -0.0000000  -0.0000000  -0.0000000  -0.0000000  -0.0000000  -0.0000000  -0.0000000  -0.0000000  -0.0000000
 NQMom=    0.0000000   0.0000000   0.0000000   0.0000000   0.0000000   0.0000000   2.0440000   0.0000000   0.0000000   0.0000000
 NMagM=    0.0000000   0.0000000   0.0000000   0.0000000   0.0000000   0.0000000   0.4037610   0.0000000   0.0000000   2.6288670
 AtZNuc=   6.0000000   6.0000000   6.0000000  16.0000000   6.0000000   6.0000000   7.0000000   6.0000000   6.0000000   9.0000000

  Atom        31          32          33          34          35          36          37          38          39          40
 IAtWgt=          12          12          12          12          12          32          12          12          14          12
 AtmWgt=  12.0000000  12.0000000  12.0000000  12.0000000  12.0000000  31.9720718  12.0000000  12.0000000  14.0030740  12.0000000
 NucSpn=           0           0           0           0           0           0           0           0           2           0
 AtZEff=  -0.0000000  -0.0000000  -0.0000000  -0.0000000  -0.0000000  -0.0000000  -0.0000000  -0.0000000  -0.0000000  -0.0000000
 NQMom=    0.0000000   0.0000000   0.0000000   0.0000000   0.0000000   0.0000000   0.0000000   0.0000000   2.0440000   0.0000000
 NMagM=    0.0000000   0.0000000   0.0000000   0.0000000   0.0000000   0.0000000   0.0000000   0.0000000   0.4037610   0.0000000
 AtZNuc=   6.0000000   6.0000000   6.0000000   6.0000000   6.0000000  16.0000000   6.0000000   6.0000000   7.0000000   6.0000000

  Atom        41          42          43          44          45          46          47          48          49          50
 IAtWgt=          12          19          12          12          12          12          12          32          12          12
 AtmWgt=  12.0000000  18.9984033  12.0000000  12.0000000  12.0000000  12.0000000  12.0000000  31.9720718  12.0000000  12.0000000
 NucSpn=           0           1           0           0           0           0           0           0           0           0
 AtZEff=  -0.0000000  -0.0000000  -0.0000000  -0.0000000  -0.0000000  -0.0000000  -0.0000000  -0.0000000  -0.0000000  -0.0000000
 NQMom=    0.0000000   0.0000000   0.0000000   0.0000000   0.0000000   0.0000000   0.0000000   0.0000000   0.0000000   0.0000000
 NMagM=    0.0000000   2.6288670   0.0000000   0.0000000   0.0000000   0.0000000   0.0000000   0.0000000   0.0000000   0.0000000
 AtZNuc=   6.0000000   9.0000000   6.0000000   6.0000000   6.0000000   6.0000000   6.0000000  16.0000000   6.0000000   6.0000000

  Atom        51          52          53          54          55          56          57          58          59          60
 IAtWgt=          14          12          12          19          12          12          12          12          12          32
 AtmWgt=  14.0030740  12.0000000  12.0000000  18.9984033  12.0000000  12.0000000  12.0000000  12.0000000  12.0000000  31.9720718
 NucSpn=           2           0           0           1           0           0           0           0           0           0
 AtZEff=  -0.0000000  -0.0000000  -0.0000000  -0.0000000  -0.0000000  -0.0000000  -0.0000000  -0.0000000  -0.0000000  -0.0000000
 NQMom=    2.0440000   0.0000000   0.0000000   0.0000000   0.0000000   0.0000000   0.0000000   0.0000000   0.0000000   0.0000000
 NMagM=    0.4037610   0.0000000   0.0000000   2.6288670   0.0000000   0.0000000   0.0000000   0.0000000   0.0000000   0.0000000
 AtZNuc=   7.0000000   6.0000000   6.0000000   9.0000000   6.0000000   6.0000000   6.0000000   6.0000000   6.0000000  16.0000000

  Atom        61          62          63          64          65          66          67          68          69          70
 IAtWgt=          12          12          14          12          12          19          12          12          12          12
 AtmWgt=  12.0000000  12.0000000  14.0030740  12.0000000  12.0000000  18.9984033  12.0000000  12.0000000  12.0000000  12.0000000
 NucSpn=           0           0           2           0           0           1           0           0           0           0
 AtZEff=  -0.0000000  -0.0000000  -0.0000000  -0.0000000  -0.0000000  -0.0000000  -0.0000000  -0.0000000  -0.0000000  -0.0000000
 NQMom=    0.0000000   0.0000000   2.0440000   0.0000000   0.0000000   0.0000000   0.0000000   0.0000000   0.0000000   0.0000000
 NMagM=    0.0000000   0.0000000   0.4037610   0.0000000   0.0000000   2.6288670   0.0000000   0.0000000   0.0000000   0.0000000
 AtZNuc=   6.0000000   6.0000000   7.0000000   6.0000000   6.0000000   9.0000000   6.0000000   6.0000000   6.0000000   6.0000000

  Atom        71          72          73          74          75          76          77          78          79          80
 IAtWgt=          12          32          12          12          14          12          12          19          12          12
 AtmWgt=  12.0000000  31.9720718  12.0000000  12.0000000  14.0030740  12.0000000  12.0000000  18.9984033  12.0000000  12.0000000
 NucSpn=           0           0           0           0           2           0           0           1           0           0
 AtZEff=  -0.0000000  -0.0000000  -0.0000000  -0.0000000  -0.0000000  -0.0000000  -0.0000000  -0.0000000  -0.0000000  -0.0000000
 NQMom=    0.0000000   0.0000000   0.0000000   0.0000000   2.0440000   0.0000000   0.0000000   0.0000000   0.0000000   0.0000000
 NMagM=    0.0000000   0.0000000   0.0000000   0.0000000   0.4037610   0.0000000   0.0000000   2.6288670   0.0000000   0.0000000
 AtZNuc=   6.0000000  16.0000000   6.0000000   6.0000000   7.0000000   6.0000000   6.0000000   9.0000000   6.0000000   6.0000000

  Atom        81          82          83          84          85          86          87          88          89          90
 IAtWgt=          12          12          12          32           1           1           1           1           1           1
 AtmWgt=  12.0000000  12.0000000  12.0000000  31.9720718   1.0078250   1.0078250   1.0078250   1.0078250   1.0078250   1.0078250
 NucSpn=           0           0           0           0           1           1           1           1           1           1
 AtZEff=  -0.0000000  -0.0000000  -0.0000000  -0.0000000  -0.0000000  -0.0000000  -0.0000000  -0.0000000  -0.0000000  -0.0000000
 NQMom=    0.0000000   0.0000000   0.0000000   0.0000000   0.0000000   0.0000000   0.0000000   0.0000000   0.0000000   0.0000000
 NMagM=    0.0000000   0.0000000   0.0000000   0.0000000   2.7928460   2.7928460   2.7928460   2.7928460   2.7928460   2.7928460
 AtZNuc=   6.0000000   6.0000000   6.0000000  16.0000000   1.0000000   1.0000000   1.0000000   1.0000000   1.0000000   1.0000000

  Atom        91          92          93          94          95          96          97          98          99         100
 IAtWgt=           1           1           1           1           1           1           1           1           1           1
 AtmWgt=   1.0078250   1.0078250   1.0078250   1.0078250   1.0078250   1.0078250   1.0078250   1.0078250   1.0078250   1.0078250
 NucSpn=           1           1           1           1           1           1           1           1           1           1
 AtZEff=  -0.0000000  -0.0000000  -0.0000000  -0.0000000  -0.0000000  -0.0000000  -0.0000000  -0.0000000  -0.0000000  -0.0000000
 NQMom=    0.0000000   0.0000000   0.0000000   0.0000000   0.0000000   0.0000000   0.0000000   0.0000000   0.0000000   0.0000000
 NMagM=    2.7928460   2.7928460   2.7928460   2.7928460   2.7928460   2.7928460   2.7928460   2.7928460   2.7928460   2.7928460
 AtZNuc=   1.0000000   1.0000000   1.0000000   1.0000000   1.0000000   1.0000000   1.0000000   1.0000000   1.0000000   1.0000000

  Atom       101         102         103         104         105         106         107         108         109         110
 IAtWgt=           1           1           1           1           1           1           1           1           1           1
 AtmWgt=   1.0078250   1.0078250   1.0078250   1.0078250   1.0078250   1.0078250   1.0078250   1.0078250   1.0078250   1.0078250
 NucSpn=           1           1           1           1           1           1           1           1           1           1
 AtZEff=  -0.0000000  -0.0000000  -0.0000000  -0.0000000  -0.0000000  -0.0000000  -0.0000000  -0.0000000  -0.0000000  -0.0000000
 NQMom=    0.0000000   0.0000000   0.0000000   0.0000000   0.0000000   0.0000000   0.0000000   0.0000000   0.0000000   0.0000000
 NMagM=    2.7928460   2.7928460   2.7928460   2.7928460   2.7928460   2.7928460   2.7928460   2.7928460   2.7928460   2.7928460
 AtZNuc=   1.0000000   1.0000000   1.0000000   1.0000000   1.0000000   1.0000000   1.0000000   1.0000000   1.0000000   1.0000000

  Atom       111         112         113         114
 IAtWgt=           1           1           1           1
 AtmWgt=   1.0078250   1.0078250   1.0078250   1.0078250
 NucSpn=           1           1           1           1
 AtZEff=  -0.0000000  -0.0000000  -0.0000000  -0.0000000
 NQMom=    0.0000000   0.0000000   0.0000000   0.0000000
 NMagM=    2.7928460   2.7928460   2.7928460   2.7928460
 AtZNuc=   1.0000000   1.0000000   1.0000000   1.0000000
 Leave Link  101 at Sat Jul 25 14:31:31 2020, MaxMem=  4026531840 cpu:               3.2 elap:               0.4
 (Enter /opt/ohpc/pub/libs/gaussian/g16-A.03/sandybridge/g16/l103.exe)

 GradGradGradGradGradGradGradGradGradGradGradGradGradGradGradGradGradGrad
 Berny optimization.
 Initialization pass.
                           ----------------------------
                           !    Initial Parameters    !
                           ! (Angstroms and Degrees)  !
 --------------------------                            --------------------------
 ! Name  Definition              Value          Derivative Info.                !
 --------------------------------------------------------------------------------
 ! R1    R(1,2)                  1.3127         estimate D2E/DX2                !
 ! R2    R(1,7)                  1.3783         estimate D2E/DX2                !
 ! R3    R(1,85)                 1.1094         estimate D2E/DX2                !
 ! R4    R(2,3)                  1.3706         estimate D2E/DX2                !
 ! R5    R(2,86)                 1.092          estimate D2E/DX2                !
 ! R6    R(3,4)                  1.3299         estimate D2E/DX2                !
 ! R7    R(4,5)                  1.4736         estimate D2E/DX2                !
 ! R8    R(4,8)                  1.4384         estimate D2E/DX2                !
 ! R9    R(5,6)                  1.3186         estimate D2E/DX2                !
 ! R10   R(5,7)                  1.384          estimate D2E/DX2                !
 ! R11   R(7,87)                 1.0448         estimate D2E/DX2                !
 ! R12   R(8,9)                  1.3434         estimate D2E/DX2                !
 ! R13   R(8,12)                 1.7909         estimate D2E/DX2                !
 ! R14   R(9,10)                 1.4372         estimate D2E/DX2                !
 ! R15   R(9,88)                 1.1044         estimate D2E/DX2                !
 ! R16   R(10,11)                1.4027         estimate D2E/DX2                !
 ! R17   R(10,89)                1.067          estimate D2E/DX2                !
 ! R18   R(11,12)                1.7783         estimate D2E/DX2                !
 ! R19   R(11,13)                1.4004         estimate D2E/DX2                !
 ! R20   R(13,14)                1.4082         estimate D2E/DX2                !
 ! R21   R(13,19)                1.3806         estimate D2E/DX2                !
 ! R22   R(14,15)                1.3599         estimate D2E/DX2                !
 ! R23   R(14,90)                1.0893         estimate D2E/DX2                !
 ! R24   R(15,16)                1.4363         estimate D2E/DX2                !
 ! R25   R(16,17)                1.3451         estimate D2E/DX2                !
 ! R26   R(16,20)                1.4875         estimate D2E/DX2                !
 ! R27   R(17,18)                1.429          estimate D2E/DX2                !
 ! R28   R(17,19)                1.3809         estimate D2E/DX2                !
 ! R29   R(19,91)                1.1121         estimate D2E/DX2                !
 ! R30   R(20,21)                1.318          estimate D2E/DX2                !
 ! R31   R(20,24)                1.7761         estimate D2E/DX2                !
 ! R32   R(21,22)                1.4592         estimate D2E/DX2                !
 ! R33   R(21,92)                1.0573         estimate D2E/DX2                !
 ! R34   R(22,23)                1.3602         estimate D2E/DX2                !
 ! R35   R(22,93)                1.1046         estimate D2E/DX2                !
 ! R36   R(23,24)                1.7226         estimate D2E/DX2                !
 ! R37   R(23,25)                1.4367         estimate D2E/DX2                !
 ! R38   R(25,26)                1.421          estimate D2E/DX2                !
 ! R39   R(25,31)                1.3859         estimate D2E/DX2                !
 ! R40   R(26,27)                1.3747         estimate D2E/DX2                !
 ! R41   R(26,94)                1.0463         estimate D2E/DX2                !
 ! R42   R(27,28)                1.2983         estimate D2E/DX2                !
 ! R43   R(28,29)                1.3669         estimate D2E/DX2                !
 ! R44   R(28,32)                1.4863         estimate D2E/DX2                !
 ! R45   R(29,30)                1.2925         estimate D2E/DX2                !
 ! R46   R(29,31)                1.3978         estimate D2E/DX2                !
 ! R47   R(31,95)                1.0724         estimate D2E/DX2                !
 ! R48   R(32,33)                1.4014         estimate D2E/DX2                !
 ! R49   R(32,36)                1.7535         estimate D2E/DX2                !
 ! R50   R(33,34)                1.4473         estimate D2E/DX2                !
 ! R51   R(33,96)                1.0551         estimate D2E/DX2                !
 ! R52   R(34,35)                1.3467         estimate D2E/DX2                !
 ! R53   R(34,97)                1.029          estimate D2E/DX2                !
 ! R54   R(35,36)                1.7284         estimate D2E/DX2                !
 ! R55   R(35,37)                1.5121         estimate D2E/DX2                !
 ! R56   R(37,38)                1.3169         estimate D2E/DX2                !
 ! R57   R(37,43)                1.3735         estimate D2E/DX2                !
 ! R58   R(38,39)                1.3421         estimate D2E/DX2                !
 ! R59   R(38,98)                1.0928         estimate D2E/DX2                !
 ! R60   R(39,40)                1.4302         estimate D2E/DX2                !
 ! R61   R(40,41)                1.3937         estimate D2E/DX2                !
 ! R62   R(40,44)                1.467          estimate D2E/DX2                !
 ! R63   R(41,42)                1.3862         estimate D2E/DX2                !
 ! R64   R(41,43)                1.3494         estimate D2E/DX2                !
 ! R65   R(43,99)                1.1208         estimate D2E/DX2                !
 ! R66   R(44,45)                1.4527         estimate D2E/DX2                !
 ! R67   R(44,48)                1.6241         estimate D2E/DX2                !
 ! R68   R(45,46)                1.4515         estimate D2E/DX2                !
 ! R69   R(45,100)               1.0613         estimate D2E/DX2                !
 ! R70   R(46,47)                1.2985         estimate D2E/DX2                !
 ! R71   R(46,101)               1.0786         estimate D2E/DX2                !
 ! R72   R(47,48)                1.741          estimate D2E/DX2                !
 ! R73   R(47,49)                1.5124         estimate D2E/DX2                !
 ! R74   R(49,50)                1.3184         estimate D2E/DX2                !
 ! R75   R(49,55)                1.4038         estimate D2E/DX2                !
 ! R76   R(50,51)                1.3459         estimate D2E/DX2                !
 ! R77   R(50,102)               1.1668         estimate D2E/DX2                !
 ! R78   R(51,52)                1.3866         estimate D2E/DX2                !
 ! R79   R(52,53)                1.4167         estimate D2E/DX2                !
 ! R80   R(52,56)                1.4372         estimate D2E/DX2                !
 ! R81   R(53,54)                1.29           estimate D2E/DX2                !
 ! R82   R(53,55)                1.4625         estimate D2E/DX2                !
 ! R83   R(55,103)               1.0828         estimate D2E/DX2                !
 ! R84   R(56,57)                1.426          estimate D2E/DX2                !
 ! R85   R(56,60)                1.7118         estimate D2E/DX2                !
 ! R86   R(57,58)                1.4147         estimate D2E/DX2                !
 ! R87   R(57,104)               1.0898         estimate D2E/DX2                !
 ! R88   R(58,59)                1.3284         estimate D2E/DX2                !
 ! R89   R(58,105)               1.086          estimate D2E/DX2                !
 ! R90   R(59,60)                1.7339         estimate D2E/DX2                !
 ! R91   R(59,61)                1.4497         estimate D2E/DX2                !
 ! R92   R(61,62)                1.48           estimate D2E/DX2                !
 ! R93   R(61,67)                1.3509         estimate D2E/DX2                !
 ! R94   R(62,63)                1.3565         estimate D2E/DX2                !
 ! R95   R(62,106)               1.0499         estimate D2E/DX2                !
 ! R96   R(63,64)                1.3698         estimate D2E/DX2                !
 ! R97   R(64,65)                1.45           estimate D2E/DX2                !
 ! R98   R(64,68)                1.4922         estimate D2E/DX2                !
 ! R99   R(65,66)                1.3536         estimate D2E/DX2                !
 ! R100  R(65,67)                1.391          estimate D2E/DX2                !
 ! R101  R(67,107)               1.0576         estimate D2E/DX2                !
 ! R102  R(68,69)                1.3523         estimate D2E/DX2                !
 ! R103  R(68,72)                1.7231         estimate D2E/DX2                !
 ! R104  R(69,70)                1.4197         estimate D2E/DX2                !
 ! R105  R(69,108)               1.0933         estimate D2E/DX2                !
 ! R106  R(70,71)                1.3497         estimate D2E/DX2                !
 ! R107  R(70,109)               1.0852         estimate D2E/DX2                !
 ! R108  R(71,72)                1.7605         estimate D2E/DX2                !
 ! R109  R(71,73)                1.4516         estimate D2E/DX2                !
 ! R110  R(73,74)                1.4307         estimate D2E/DX2                !
 ! R111  R(73,79)                1.4024         estimate D2E/DX2                !
 ! R112  R(74,75)                1.3985         estimate D2E/DX2                !
 ! R113  R(74,110)               1.0725         estimate D2E/DX2                !
 ! R114  R(75,76)                1.3701         estimate D2E/DX2                !
 ! R115  R(76,77)                1.3452         estimate D2E/DX2                !
 ! R116  R(76,80)                1.4133         estimate D2E/DX2                !
 ! R117  R(77,78)                1.3675         estimate D2E/DX2                !
 ! R118  R(77,79)                1.4044         estimate D2E/DX2                !
 ! R119  R(79,111)               1.0994         estimate D2E/DX2                !
 ! R120  R(80,81)                1.4475         estimate D2E/DX2                !
 ! R121  R(80,84)                1.7175         estimate D2E/DX2                !
 ! R122  R(81,82)                1.4526         estimate D2E/DX2                !
 ! R123  R(81,112)               1.072          estimate D2E/DX2                !
 ! R124  R(82,83)                1.3229         estimate D2E/DX2                !
 ! R125  R(82,113)               1.0363         estimate D2E/DX2                !
 ! R126  R(83,84)                1.7128         estimate D2E/DX2                !
 ! R127  R(83,114)               1.0786         estimate D2E/DX2                !
 ! A1    A(2,1,7)              121.0107         estimate D2E/DX2                !
 ! A2    A(2,1,85)             124.4737         estimate D2E/DX2                !
 ! A3    A(7,1,85)             114.4794         estimate D2E/DX2                !
 ! A4    A(1,2,3)              123.8623         estimate D2E/DX2                !
 ! A5    A(1,2,86)             120.5564         estimate D2E/DX2                !
 ! A6    A(3,2,86)             115.3879         estimate D2E/DX2                !
 ! A7    A(2,3,4)              118.921          estimate D2E/DX2                !
 ! A8    A(3,4,5)              118.9542         estimate D2E/DX2                !
 ! A9    A(3,4,8)              120.3737         estimate D2E/DX2                !
 ! A10   A(5,4,8)              120.6641         estimate D2E/DX2                !
 ! A11   A(4,5,6)              118.3162         estimate D2E/DX2                !
 ! A12   A(4,5,7)              118.9796         estimate D2E/DX2                !
 ! A13   A(6,5,7)              122.6784         estimate D2E/DX2                !
 ! A14   A(1,7,5)              118.0946         estimate D2E/DX2                !
 ! A15   A(1,7,87)             123.4756         estimate D2E/DX2                !
 ! A16   A(5,7,87)             118.3645         estimate D2E/DX2                !
 ! A17   A(4,8,9)              131.8557         estimate D2E/DX2                !
 ! A18   A(4,8,12)             117.2296         estimate D2E/DX2                !
 ! A19   A(9,8,12)             110.8969         estimate D2E/DX2                !
 ! A20   A(8,9,10)             114.1754         estimate D2E/DX2                !
 ! A21   A(8,9,88)             123.6882         estimate D2E/DX2                !
 ! A22   A(10,9,88)            121.8251         estimate D2E/DX2                !
 ! A23   A(9,10,11)            113.9922         estimate D2E/DX2                !
 ! A24   A(9,10,89)            126.3638         estimate D2E/DX2                !
 ! A25   A(11,10,89)           119.634          estimate D2E/DX2                !
 ! A26   A(10,11,12)           109.058          estimate D2E/DX2                !
 ! A27   A(10,11,13)           132.8795         estimate D2E/DX2                !
 ! A28   A(12,11,13)           117.9584         estimate D2E/DX2                !
 ! A29   A(8,12,11)             91.634          estimate D2E/DX2                !
 ! A30   A(11,13,14)           119.2523         estimate D2E/DX2                !
 ! A31   A(11,13,19)           126.2436         estimate D2E/DX2                !
 ! A32   A(14,13,19)           114.4982         estimate D2E/DX2                !
 ! A33   A(13,14,15)           125.2847         estimate D2E/DX2                !
 ! A34   A(13,14,90)           121.908          estimate D2E/DX2                !
 ! A35   A(15,14,90)           112.805          estimate D2E/DX2                !
 ! A36   A(14,15,16)           117.3024         estimate D2E/DX2                !
 ! A37   A(15,16,17)           118.1686         estimate D2E/DX2                !
 ! A38   A(15,16,20)           116.1534         estimate D2E/DX2                !
 ! A39   A(17,16,20)           125.6261         estimate D2E/DX2                !
 ! A40   A(16,17,18)           118.1056         estimate D2E/DX2                !
 ! A41   A(16,17,19)           122.5582         estimate D2E/DX2                !
 ! A42   A(18,17,19)           118.9672         estimate D2E/DX2                !
 ! A43   A(13,19,17)           121.7017         estimate D2E/DX2                !
 ! A44   A(13,19,91)           118.0427         estimate D2E/DX2                !
 ! A45   A(17,19,91)           119.8259         estimate D2E/DX2                !
 ! A46   A(16,20,21)           128.8547         estimate D2E/DX2                !
 ! A47   A(16,20,24)           118.9292         estimate D2E/DX2                !
 ! A48   A(21,20,24)           112.1846         estimate D2E/DX2                !
 ! A49   A(20,21,22)           110.9634         estimate D2E/DX2                !
 ! A50   A(20,21,92)           125.5092         estimate D2E/DX2                !
 ! A51   A(22,21,92)           123.4534         estimate D2E/DX2                !
 ! A52   A(21,22,23)           115.2134         estimate D2E/DX2                !
 ! A53   A(21,22,93)           120.9227         estimate D2E/DX2                !
 ! A54   A(23,22,93)           123.852          estimate D2E/DX2                !
 ! A55   A(22,23,24)           109.6761         estimate D2E/DX2                !
 ! A56   A(22,23,25)           129.7996         estimate D2E/DX2                !
 ! A57   A(24,23,25)           120.5236         estimate D2E/DX2                !
 ! A58   A(20,24,23)            91.7754         estimate D2E/DX2                !
 ! A59   A(23,25,26)           120.6062         estimate D2E/DX2                !
 ! A60   A(23,25,31)           123.3451         estimate D2E/DX2                !
 ! A61   A(26,25,31)           116.0078         estimate D2E/DX2                !
 ! A62   A(25,26,27)           119.8378         estimate D2E/DX2                !
 ! A63   A(25,26,94)           123.311          estimate D2E/DX2                !
 ! A64   A(27,26,94)           116.8439         estimate D2E/DX2                !
 ! A65   A(26,27,28)           121.6683         estimate D2E/DX2                !
 ! A66   A(27,28,29)           122.7095         estimate D2E/DX2                !
 ! A67   A(27,28,32)           114.273          estimate D2E/DX2                !
 ! A68   A(29,28,32)           122.8333         estimate D2E/DX2                !
 ! A69   A(28,29,30)           127.519          estimate D2E/DX2                !
 ! A70   A(28,29,31)           117.1871         estimate D2E/DX2                !
 ! A71   A(30,29,31)           115.2937         estimate D2E/DX2                !
 ! A72   A(25,31,29)           122.4213         estimate D2E/DX2                !
 ! A73   A(25,31,95)           117.0627         estimate D2E/DX2                !
 ! A74   A(29,31,95)           120.5035         estimate D2E/DX2                !
 ! A75   A(28,32,33)           126.7133         estimate D2E/DX2                !
 ! A76   A(28,32,36)           122.2458         estimate D2E/DX2                !
 ! A77   A(33,32,36)           110.9753         estimate D2E/DX2                !
 ! A78   A(32,33,34)           111.5825         estimate D2E/DX2                !
 ! A79   A(32,33,96)           123.9472         estimate D2E/DX2                !
 ! A80   A(34,33,96)           124.1419         estimate D2E/DX2                !
 ! A81   A(33,34,35)           112.2152         estimate D2E/DX2                !
 ! A82   A(33,34,97)           123.3986         estimate D2E/DX2                !
 ! A83   A(35,34,97)           123.6023         estimate D2E/DX2                !
 ! A84   A(34,35,36)           113.6312         estimate D2E/DX2                !
 ! A85   A(34,35,37)           129.4            estimate D2E/DX2                !
 ! A86   A(36,35,37)           116.8238         estimate D2E/DX2                !
 ! A87   A(32,36,35)            90.8765         estimate D2E/DX2                !
 ! A88   A(35,37,38)           124.1885         estimate D2E/DX2                !
 ! A89   A(35,37,43)           119.3108         estimate D2E/DX2                !
 ! A90   A(38,37,43)           116.3486         estimate D2E/DX2                !
 ! A91   A(37,38,39)           126.4129         estimate D2E/DX2                !
 ! A92   A(37,38,98)           121.2349         estimate D2E/DX2                !
 ! A93   A(39,38,98)           112.3505         estimate D2E/DX2                !
 ! A94   A(38,39,40)           117.4698         estimate D2E/DX2                !
 ! A95   A(39,40,41)           116.7381         estimate D2E/DX2                !
 ! A96   A(39,40,44)           114.3849         estimate D2E/DX2                !
 ! A97   A(41,40,44)           128.7757         estimate D2E/DX2                !
 ! A98   A(40,41,42)           118.2855         estimate D2E/DX2                !
 ! A99   A(40,41,43)           120.6112         estimate D2E/DX2                !
 ! A100  A(42,41,43)           121.077          estimate D2E/DX2                !
 ! A101  A(37,43,41)           122.1747         estimate D2E/DX2                !
 ! A102  A(37,43,99)           124.7493         estimate D2E/DX2                !
 ! A103  A(41,43,99)           113.057          estimate D2E/DX2                !
 ! A104  A(40,44,45)           124.3401         estimate D2E/DX2                !
 ! A105  A(40,44,48)           124.7579         estimate D2E/DX2                !
 ! A106  A(45,44,48)           110.8938         estimate D2E/DX2                !
 ! A107  A(44,45,46)           107.2943         estimate D2E/DX2                !
 ! A108  A(44,45,100)          126.7651         estimate D2E/DX2                !
 ! A109  A(46,45,100)          125.5616         estimate D2E/DX2                !
 ! A110  A(45,46,47)           117.8943         estimate D2E/DX2                !
 ! A111  A(45,46,101)          119.3389         estimate D2E/DX2                !
 ! A112  A(47,46,101)          122.7371         estimate D2E/DX2                !
 ! A113  A(46,47,48)           107.723          estimate D2E/DX2                !
 ! A114  A(46,47,49)           133.4389         estimate D2E/DX2                !
 ! A115  A(48,47,49)           118.8279         estimate D2E/DX2                !
 ! A116  A(44,48,47)            96.077          estimate D2E/DX2                !
 ! A117  A(47,49,50)           125.9375         estimate D2E/DX2                !
 ! A118  A(47,49,55)           114.3249         estimate D2E/DX2                !
 ! A119  A(50,49,55)           119.3892         estimate D2E/DX2                !
 ! A120  A(49,50,51)           125.9143         estimate D2E/DX2                !
 ! A121  A(49,50,102)          121.0662         estimate D2E/DX2                !
 ! A122  A(51,50,102)          112.9356         estimate D2E/DX2                !
 ! A123  A(50,51,52)           119.1395         estimate D2E/DX2                !
 ! A124  A(51,52,53)           118.8701         estimate D2E/DX2                !
 ! A125  A(51,52,56)           115.5254         estimate D2E/DX2                !
 ! A126  A(53,52,56)           125.5639         estimate D2E/DX2                !
 ! A127  A(52,53,54)           124.5779         estimate D2E/DX2                !
 ! A128  A(52,53,55)           119.2384         estimate D2E/DX2                !
 ! A129  A(54,53,55)           116.1715         estimate D2E/DX2                !
 ! A130  A(49,55,53)           117.2752         estimate D2E/DX2                !
 ! A131  A(49,55,103)          126.913          estimate D2E/DX2                !
 ! A132  A(53,55,103)          115.7621         estimate D2E/DX2                !
 ! A133  A(52,56,57)           127.6125         estimate D2E/DX2                !
 ! A134  A(52,56,60)           123.0302         estimate D2E/DX2                !
 ! A135  A(57,56,60)           109.23           estimate D2E/DX2                !
 ! A136  A(56,57,58)           111.1048         estimate D2E/DX2                !
 ! A137  A(56,57,104)          122.3157         estimate D2E/DX2                !
 ! A138  A(58,57,104)          126.5497         estimate D2E/DX2                !
 ! A139  A(57,58,59)           115.7878         estimate D2E/DX2                !
 ! A140  A(57,58,105)          121.8628         estimate D2E/DX2                !
 ! A141  A(59,58,105)          121.6871         estimate D2E/DX2                !
 ! A142  A(58,59,60)           109.8647         estimate D2E/DX2                !
 ! A143  A(58,59,61)           132.8702         estimate D2E/DX2                !
 ! A144  A(60,59,61)           117.0448         estimate D2E/DX2                !
 ! A145  A(56,60,59)            93.6445         estimate D2E/DX2                !
 ! A146  A(59,61,62)           119.5189         estimate D2E/DX2                !
 ! A147  A(59,61,67)           124.1087         estimate D2E/DX2                !
 ! A148  A(62,61,67)           116.3479         estimate D2E/DX2                !
 ! A149  A(61,62,63)           125.7618         estimate D2E/DX2                !
 ! A150  A(61,62,106)          117.5099         estimate D2E/DX2                !
 ! A151  A(63,62,106)          116.727          estimate D2E/DX2                !
 ! A152  A(62,63,64)           116.4214         estimate D2E/DX2                !
 ! A153  A(63,64,65)           119.5861         estimate D2E/DX2                !
 ! A154  A(63,64,68)           113.6197         estimate D2E/DX2                !
 ! A155  A(65,64,68)           126.6508         estimate D2E/DX2                !
 ! A156  A(64,65,66)           116.8054         estimate D2E/DX2                !
 ! A157  A(64,65,67)           122.4936         estimate D2E/DX2                !
 ! A158  A(66,65,67)           120.6886         estimate D2E/DX2                !
 ! A159  A(61,67,65)           119.285          estimate D2E/DX2                !
 ! A160  A(61,67,107)          126.2612         estimate D2E/DX2                !
 ! A161  A(65,67,107)          114.4538         estimate D2E/DX2                !
 ! A162  A(64,68,69)           125.9852         estimate D2E/DX2                !
 ! A163  A(64,68,72)           122.3167         estimate D2E/DX2                !
 ! A164  A(69,68,72)           111.698          estimate D2E/DX2                !
 ! A165  A(68,69,70)           115.1539         estimate D2E/DX2                !
 ! A166  A(68,69,108)          120.9792         estimate D2E/DX2                !
 ! A167  A(70,69,108)          123.7428         estimate D2E/DX2                !
 ! A168  A(69,70,71)           109.7456         estimate D2E/DX2                !
 ! A169  A(69,70,109)          125.9833         estimate D2E/DX2                !
 ! A170  A(71,70,109)          124.2127         estimate D2E/DX2                !
 ! A171  A(70,71,72)           113.7594         estimate D2E/DX2                !
 ! A172  A(70,71,73)           129.8686         estimate D2E/DX2                !
 ! A173  A(72,71,73)           116.364          estimate D2E/DX2                !
 ! A174  A(68,72,71)            89.4767         estimate D2E/DX2                !
 ! A175  A(71,73,74)           124.7427         estimate D2E/DX2                !
 ! A176  A(71,73,79)           121.3235         estimate D2E/DX2                !
 ! A177  A(74,73,79)           113.9029         estimate D2E/DX2                !
 ! A178  A(73,74,75)           122.4366         estimate D2E/DX2                !
 ! A179  A(73,74,110)          118.6687         estimate D2E/DX2                !
 ! A180  A(75,74,110)          118.8944         estimate D2E/DX2                !
 ! A181  A(74,75,76)           119.7136         estimate D2E/DX2                !
 ! A182  A(75,76,77)           120.521          estimate D2E/DX2                !
 ! A183  A(75,76,80)           114.2761         estimate D2E/DX2                !
 ! A184  A(77,76,80)           124.8967         estimate D2E/DX2                !
 ! A185  A(76,77,78)           123.0125         estimate D2E/DX2                !
 ! A186  A(76,77,79)           120.359          estimate D2E/DX2                !
 ! A187  A(78,77,79)           116.6248         estimate D2E/DX2                !
 ! A188  A(73,79,77)           122.8261         estimate D2E/DX2                !
 ! A189  A(73,79,111)          119.1214         estimate D2E/DX2                !
 ! A190  A(77,79,111)          118.0427         estimate D2E/DX2                !
 ! A191  A(76,80,81)           131.0099         estimate D2E/DX2                !
 ! A192  A(76,80,84)           122.0108         estimate D2E/DX2                !
 ! A193  A(81,80,84)           106.7818         estimate D2E/DX2                !
 ! A194  A(80,81,82)           112.9748         estimate D2E/DX2                !
 ! A195  A(80,81,112)          117.2726         estimate D2E/DX2                !
 ! A196  A(82,81,112)          129.7322         estimate D2E/DX2                !
 ! A197  A(81,82,83)           112.7849         estimate D2E/DX2                !
 ! A198  A(81,82,113)          121.2876         estimate D2E/DX2                !
 ! A199  A(83,82,113)          125.8407         estimate D2E/DX2                !
 ! A200  A(82,83,84)           112.2237         estimate D2E/DX2                !
 ! A201  A(82,83,114)          127.9549         estimate D2E/DX2                !
 ! A202  A(84,83,114)          119.3627         estimate D2E/DX2                !
 ! A203  A(80,84,83)            95.1659         estimate D2E/DX2                !
 ! D1    D(7,1,2,3)              4.6632         estimate D2E/DX2                !
 ! D2    D(7,1,2,86)           179.371          estimate D2E/DX2                !
 ! D3    D(85,1,2,3)          -173.0259         estimate D2E/DX2                !
 ! D4    D(85,1,2,86)            1.6818         estimate D2E/DX2                !
 ! D5    D(2,1,7,5)             -1.9206         estimate D2E/DX2                !
 ! D6    D(2,1,7,87)          -178.9279         estimate D2E/DX2                !
 ! D7    D(85,1,7,5)           175.9864         estimate D2E/DX2                !
 ! D8    D(85,1,7,87)           -1.0209         estimate D2E/DX2                !
 ! D9    D(1,2,3,4)             -5.2064         estimate D2E/DX2                !
 ! D10   D(86,2,3,4)           179.8374         estimate D2E/DX2                !
 ! D11   D(2,3,4,5)              2.9916         estimate D2E/DX2                !
 ! D12   D(2,3,4,8)           -175.9863         estimate D2E/DX2                !
 ! D13   D(3,4,5,6)            177.6221         estimate D2E/DX2                !
 ! D14   D(3,4,5,7)             -0.578          estimate D2E/DX2                !
 ! D15   D(8,4,5,6)             -3.4031         estimate D2E/DX2                !
 ! D16   D(8,4,5,7)            178.3969         estimate D2E/DX2                !
 ! D17   D(3,4,8,9)           -156.0858         estimate D2E/DX2                !
 ! D18   D(3,4,8,12)            25.6084         estimate D2E/DX2                !
 ! D19   D(5,4,8,9)             24.9539         estimate D2E/DX2                !
 ! D20   D(5,4,8,12)          -153.3518         estimate D2E/DX2                !
 ! D21   D(4,5,7,1)             -0.0358         estimate D2E/DX2                !
 ! D22   D(4,5,7,87)           177.1275         estimate D2E/DX2                !
 ! D23   D(6,5,7,1)           -178.1532         estimate D2E/DX2                !
 ! D24   D(6,5,7,87)            -0.9899         estimate D2E/DX2                !
 ! D25   D(4,8,9,10)           176.3028         estimate D2E/DX2                !
 ! D26   D(4,8,9,88)             2.619          estimate D2E/DX2                !
 ! D27   D(12,8,9,10)           -5.3098         estimate D2E/DX2                !
 ! D28   D(12,8,9,88)         -178.9935         estimate D2E/DX2                !
 ! D29   D(4,8,12,11)         -176.9255         estimate D2E/DX2                !
 ! D30   D(9,8,12,11)            4.4252         estimate D2E/DX2                !
 ! D31   D(8,9,10,11)            3.6306         estimate D2E/DX2                !
 ! D32   D(8,9,10,89)         -177.5328         estimate D2E/DX2                !
 ! D33   D(88,9,10,11)         177.4456         estimate D2E/DX2                !
 ! D34   D(88,9,10,89)          -3.7177         estimate D2E/DX2                !
 ! D35   D(9,10,11,12)          -0.109          estimate D2E/DX2                !
 ! D36   D(9,10,11,13)         175.9893         estimate D2E/DX2                !
 ! D37   D(89,10,11,12)       -179.0312         estimate D2E/DX2                !
 ! D38   D(89,10,11,13)         -2.9329         estimate D2E/DX2                !
 ! D39   D(10,11,12,8)          -2.3438         estimate D2E/DX2                !
 ! D40   D(13,11,12,8)        -179.1077         estimate D2E/DX2                !
 ! D41   D(10,11,13,14)        -38.9044         estimate D2E/DX2                !
 ! D42   D(10,11,13,19)        142.0277         estimate D2E/DX2                !
 ! D43   D(12,11,13,14)        136.92           estimate D2E/DX2                !
 ! D44   D(12,11,13,19)        -42.148          estimate D2E/DX2                !
 ! D45   D(11,13,14,15)        176.9069         estimate D2E/DX2                !
 ! D46   D(11,13,14,90)         -2.4909         estimate D2E/DX2                !
 ! D47   D(19,13,14,15)         -3.9192         estimate D2E/DX2                !
 ! D48   D(19,13,14,90)        176.683          estimate D2E/DX2                !
 ! D49   D(11,13,19,17)       -174.3146         estimate D2E/DX2                !
 ! D50   D(11,13,19,91)         -1.8542         estimate D2E/DX2                !
 ! D51   D(14,13,19,17)          6.579          estimate D2E/DX2                !
 ! D52   D(14,13,19,91)        179.0394         estimate D2E/DX2                !
 ! D53   D(13,14,15,16)          2.3549         estimate D2E/DX2                !
 ! D54   D(90,14,15,16)       -178.1997         estimate D2E/DX2                !
 ! D55   D(14,15,16,17)         -3.2976         estimate D2E/DX2                !
 ! D56   D(14,15,16,20)        179.1733         estimate D2E/DX2                !
 ! D57   D(15,16,17,18)        179.2194         estimate D2E/DX2                !
 ! D58   D(15,16,17,19)          6.2709         estimate D2E/DX2                !
 ! D59   D(20,16,17,18)         -3.5094         estimate D2E/DX2                !
 ! D60   D(20,16,17,19)       -176.4579         estimate D2E/DX2                !
 ! D61   D(15,16,20,21)       -153.2147         estimate D2E/DX2                !
 ! D62   D(15,16,20,24)         24.5727         estimate D2E/DX2                !
 ! D63   D(17,16,20,21)         29.4652         estimate D2E/DX2                !
 ! D64   D(17,16,20,24)       -152.7474         estimate D2E/DX2                !
 ! D65   D(16,17,19,13)         -8.2734         estimate D2E/DX2                !
 ! D66   D(16,17,19,91)        179.3979         estimate D2E/DX2                !
 ! D67   D(18,17,19,13)        178.8363         estimate D2E/DX2                !
 ! D68   D(18,17,19,91)          6.5076         estimate D2E/DX2                !
 ! D69   D(16,20,21,22)       -177.871          estimate D2E/DX2                !
 ! D70   D(16,20,21,92)         -0.9224         estimate D2E/DX2                !
 ! D71   D(24,20,21,22)          4.2203         estimate D2E/DX2                !
 ! D72   D(24,20,21,92)       -178.8311         estimate D2E/DX2                !
 ! D73   D(16,20,24,23)        179.5147         estimate D2E/DX2                !
 ! D74   D(21,20,24,23)         -2.346          estimate D2E/DX2                !
 ! D75   D(20,21,22,23)         -4.7631         estimate D2E/DX2                !
 ! D76   D(20,21,22,93)        176.4422         estimate D2E/DX2                !
 ! D77   D(92,21,22,23)        178.214          estimate D2E/DX2                !
 ! D78   D(92,21,22,93)         -0.5807         estimate D2E/DX2                !
 ! D79   D(21,22,23,24)          2.9088         estimate D2E/DX2                !
 ! D80   D(21,22,23,25)       -177.4124         estimate D2E/DX2                !
 ! D81   D(93,22,23,24)       -178.3362         estimate D2E/DX2                !
 ! D82   D(93,22,23,25)          1.3426         estimate D2E/DX2                !
 ! D83   D(22,23,24,20)         -0.4226         estimate D2E/DX2                !
 ! D84   D(25,23,24,20)        179.8639         estimate D2E/DX2                !
 ! D85   D(22,23,25,26)       -135.9061         estimate D2E/DX2                !
 ! D86   D(22,23,25,31)         41.674          estimate D2E/DX2                !
 ! D87   D(24,23,25,26)         43.7428         estimate D2E/DX2                !
 ! D88   D(24,23,25,31)       -138.677          estimate D2E/DX2                !
 ! D89   D(23,25,26,27)        177.6197         estimate D2E/DX2                !
 ! D90   D(23,25,26,94)         -1.3713         estimate D2E/DX2                !
 ! D91   D(31,25,26,27)         -0.1312         estimate D2E/DX2                !
 ! D92   D(31,25,26,94)       -179.1221         estimate D2E/DX2                !
 ! D93   D(23,25,31,29)       -178.439          estimate D2E/DX2                !
 ! D94   D(23,25,31,95)          0.277          estimate D2E/DX2                !
 ! D95   D(26,25,31,29)         -0.7563         estimate D2E/DX2                !
 ! D96   D(26,25,31,95)        177.9597         estimate D2E/DX2                !
 ! D97   D(25,26,27,28)         -1.6153         estimate D2E/DX2                !
 ! D98   D(94,26,27,28)        177.4395         estimate D2E/DX2                !
 ! D99   D(26,27,28,29)          4.3398         estimate D2E/DX2                !
 ! D100  D(26,27,28,32)        179.532          estimate D2E/DX2                !
 ! D101  D(27,28,29,30)        175.1607         estimate D2E/DX2                !
 ! D102  D(27,28,29,31)         -5.0167         estimate D2E/DX2                !
 ! D103  D(32,28,29,30)          0.3778         estimate D2E/DX2                !
 ! D104  D(32,28,29,31)       -179.7996         estimate D2E/DX2                !
 ! D105  D(27,28,32,33)        -13.0543         estimate D2E/DX2                !
 ! D106  D(27,28,32,36)        170.164          estimate D2E/DX2                !
 ! D107  D(29,28,32,33)        162.1312         estimate D2E/DX2                !
 ! D108  D(29,28,32,36)        -14.6505         estimate D2E/DX2                !
 ! D109  D(28,29,31,25)          3.1883         estimate D2E/DX2                !
 ! D110  D(28,29,31,95)       -175.4847         estimate D2E/DX2                !
 ! D111  D(30,29,31,25)       -176.9674         estimate D2E/DX2                !
 ! D112  D(30,29,31,95)          4.3597         estimate D2E/DX2                !
 ! D113  D(28,32,33,34)        177.3306         estimate D2E/DX2                !
 ! D114  D(28,32,33,96)          3.6826         estimate D2E/DX2                !
 ! D115  D(36,32,33,34)         -5.5842         estimate D2E/DX2                !
 ! D116  D(36,32,33,96)       -179.2323         estimate D2E/DX2                !
 ! D117  D(28,32,36,35)        178.0588         estimate D2E/DX2                !
 ! D118  D(33,32,36,35)          0.8214         estimate D2E/DX2                !
 ! D119  D(32,33,34,35)          9.1036         estimate D2E/DX2                !
 ! D120  D(32,33,34,97)        179.2751         estimate D2E/DX2                !
 ! D121  D(96,33,34,35)       -177.2631         estimate D2E/DX2                !
 ! D122  D(96,33,34,97)         -7.0915         estimate D2E/DX2                !
 ! D123  D(33,34,35,36)         -8.5734         estimate D2E/DX2                !
 ! D124  D(33,34,35,37)        176.0041         estimate D2E/DX2                !
 ! D125  D(97,34,35,36)       -178.7216         estimate D2E/DX2                !
 ! D126  D(97,34,35,37)          5.8559         estimate D2E/DX2                !
 ! D127  D(34,35,36,32)          4.5646         estimate D2E/DX2                !
 ! D128  D(37,35,36,32)       -179.398          estimate D2E/DX2                !
 ! D129  D(34,35,37,38)       -140.8274         estimate D2E/DX2                !
 ! D130  D(34,35,37,43)         43.8259         estimate D2E/DX2                !
 ! D131  D(36,35,37,38)         43.8721         estimate D2E/DX2                !
 ! D132  D(36,35,37,43)       -131.4746         estimate D2E/DX2                !
 ! D133  D(35,37,38,39)       -179.0776         estimate D2E/DX2                !
 ! D134  D(35,37,38,98)          1.4426         estimate D2E/DX2                !
 ! D135  D(43,37,38,39)         -3.6053         estimate D2E/DX2                !
 ! D136  D(43,37,38,98)        176.9149         estimate D2E/DX2                !
 ! D137  D(35,37,43,41)        179.7532         estimate D2E/DX2                !
 ! D138  D(35,37,43,99)         -1.945          estimate D2E/DX2                !
 ! D139  D(38,37,43,41)          4.0479         estimate D2E/DX2                !
 ! D140  D(38,37,43,99)       -177.6503         estimate D2E/DX2                !
 ! D141  D(37,38,39,40)          3.5589         estimate D2E/DX2                !
 ! D142  D(98,38,39,40)       -176.9221         estimate D2E/DX2                !
 ! D143  D(38,39,40,41)         -3.6763         estimate D2E/DX2                !
 ! D144  D(38,39,40,44)        179.6572         estimate D2E/DX2                !
 ! D145  D(39,40,41,42)       -177.4745         estimate D2E/DX2                !
 ! D146  D(39,40,41,43)          4.3698         estimate D2E/DX2                !
 ! D147  D(44,40,41,42)         -1.3698         estimate D2E/DX2                !
 ! D148  D(44,40,41,43)       -179.5255         estimate D2E/DX2                !
 ! D149  D(39,40,44,45)         -7.7545         estimate D2E/DX2                !
 ! D150  D(39,40,44,48)        171.102          estimate D2E/DX2                !
 ! D151  D(41,40,44,45)        176.0648         estimate D2E/DX2                !
 ! D152  D(41,40,44,48)         -5.0786         estimate D2E/DX2                !
 ! D153  D(40,41,43,37)         -4.698          estimate D2E/DX2                !
 ! D154  D(40,41,43,99)        176.8184         estimate D2E/DX2                !
 ! D155  D(42,41,43,37)        177.1983         estimate D2E/DX2                !
 ! D156  D(42,41,43,99)         -1.2853         estimate D2E/DX2                !
 ! D157  D(40,44,45,46)       -177.4829         estimate D2E/DX2                !
 ! D158  D(40,44,45,100)        -4.2746         estimate D2E/DX2                !
 ! D159  D(48,44,45,46)          3.5227         estimate D2E/DX2                !
 ! D160  D(48,44,45,100)       176.7309         estimate D2E/DX2                !
 ! D161  D(40,44,48,47)        178.5517         estimate D2E/DX2                !
 ! D162  D(45,44,48,47)         -2.4589         estimate D2E/DX2                !
 ! D163  D(44,45,46,47)         -3.3756         estimate D2E/DX2                !
 ! D164  D(44,45,46,101)       178.5497         estimate D2E/DX2                !
 ! D165  D(100,45,46,47)      -176.6878         estimate D2E/DX2                !
 ! D166  D(100,45,46,101)        5.2375         estimate D2E/DX2                !
 ! D167  D(45,46,47,48)          1.6474         estimate D2E/DX2                !
 ! D168  D(45,46,47,49)       -177.1386         estimate D2E/DX2                !
 ! D169  D(101,46,47,48)       179.6521         estimate D2E/DX2                !
 ! D170  D(101,46,47,49)         0.8661         estimate D2E/DX2                !
 ! D171  D(46,47,48,44)          0.5378         estimate D2E/DX2                !
 ! D172  D(49,47,48,44)        179.5317         estimate D2E/DX2                !
 ! D173  D(46,47,49,50)       -145.2979         estimate D2E/DX2                !
 ! D174  D(46,47,49,55)         27.8371         estimate D2E/DX2                !
 ! D175  D(48,47,49,50)         36.022          estimate D2E/DX2                !
 ! D176  D(48,47,49,55)       -150.843          estimate D2E/DX2                !
 ! D177  D(47,49,50,51)        177.0751         estimate D2E/DX2                !
 ! D178  D(47,49,50,102)        -6.4978         estimate D2E/DX2                !
 ! D179  D(55,49,50,51)          4.2563         estimate D2E/DX2                !
 ! D180  D(55,49,50,102)      -179.3166         estimate D2E/DX2                !
 ! D181  D(47,49,55,53)       -178.298          estimate D2E/DX2                !
 ! D182  D(47,49,55,103)         4.3907         estimate D2E/DX2                !
 ! D183  D(50,49,55,53)         -4.6752         estimate D2E/DX2                !
 ! D184  D(50,49,55,103)       178.0135         estimate D2E/DX2                !
 ! D185  D(49,50,51,52)         -0.8239         estimate D2E/DX2                !
 ! D186  D(102,50,51,52)      -177.501          estimate D2E/DX2                !
 ! D187  D(50,51,52,53)         -1.8924         estimate D2E/DX2                !
 ! D188  D(50,51,52,56)        175.9214         estimate D2E/DX2                !
 ! D189  D(51,52,53,54)       -177.5602         estimate D2E/DX2                !
 ! D190  D(51,52,53,55)          1.1169         estimate D2E/DX2                !
 ! D191  D(56,52,53,54)          4.8651         estimate D2E/DX2                !
 ! D192  D(56,52,53,55)       -176.4578         estimate D2E/DX2                !
 ! D193  D(51,52,56,57)          2.7683         estimate D2E/DX2                !
 ! D194  D(51,52,56,60)        178.2125         estimate D2E/DX2                !
 ! D195  D(53,52,56,57)       -179.5853         estimate D2E/DX2                !
 ! D196  D(53,52,56,60)         -4.141          estimate D2E/DX2                !
 ! D197  D(52,53,55,49)          2.1109         estimate D2E/DX2                !
 ! D198  D(52,53,55,103)       179.724          estimate D2E/DX2                !
 ! D199  D(54,53,55,49)       -179.1028         estimate D2E/DX2                !
 ! D200  D(54,53,55,103)        -1.4896         estimate D2E/DX2                !
 ! D201  D(52,56,57,58)        174.0805         estimate D2E/DX2                !
 ! D202  D(52,56,57,104)        -4.0551         estimate D2E/DX2                !
 ! D203  D(60,56,57,58)         -1.8752         estimate D2E/DX2                !
 ! D204  D(60,56,57,104)       179.9892         estimate D2E/DX2                !
 ! D205  D(52,56,60,59)       -177.6476         estimate D2E/DX2                !
 ! D206  D(57,56,60,59)         -1.4685         estimate D2E/DX2                !
 ! D207  D(56,57,58,59)          5.7225         estimate D2E/DX2                !
 ! D208  D(56,57,58,105)       176.5395         estimate D2E/DX2                !
 ! D209  D(104,57,58,59)      -176.2389         estimate D2E/DX2                !
 ! D210  D(104,57,58,105)       -5.4219         estimate D2E/DX2                !
 ! D211  D(57,58,59,60)         -6.7075         estimate D2E/DX2                !
 ! D212  D(57,58,59,61)        179.0036         estimate D2E/DX2                !
 ! D213  D(105,58,59,60)      -177.5421         estimate D2E/DX2                !
 ! D214  D(105,58,59,61)         8.169          estimate D2E/DX2                !
 ! D215  D(58,59,60,56)          4.6434         estimate D2E/DX2                !
 ! D216  D(61,59,60,56)        179.9464         estimate D2E/DX2                !
 ! D217  D(58,59,61,62)         29.771          estimate D2E/DX2                !
 ! D218  D(58,59,61,67)       -148.3609         estimate D2E/DX2                !
 ! D219  D(60,59,61,62)       -144.1972         estimate D2E/DX2                !
 ! D220  D(60,59,61,67)         37.671          estimate D2E/DX2                !
 ! D221  D(59,61,62,63)       -176.8727         estimate D2E/DX2                !
 ! D222  D(59,61,62,106)         2.7039         estimate D2E/DX2                !
 ! D223  D(67,61,62,63)          1.4012         estimate D2E/DX2                !
 ! D224  D(67,61,62,106)      -179.0222         estimate D2E/DX2                !
 ! D225  D(59,61,67,65)        177.0309         estimate D2E/DX2                !
 ! D226  D(59,61,67,107)        -2.9681         estimate D2E/DX2                !
 ! D227  D(62,61,67,65)         -1.155          estimate D2E/DX2                !
 ! D228  D(62,61,67,107)       178.846          estimate D2E/DX2                !
 ! D229  D(61,62,63,64)         -2.5602         estimate D2E/DX2                !
 ! D230  D(106,62,63,64)       177.8602         estimate D2E/DX2                !
 ! D231  D(62,63,64,65)          3.4235         estimate D2E/DX2                !
 ! D232  D(62,63,64,68)        179.3564         estimate D2E/DX2                !
 ! D233  D(63,64,65,66)        177.7818         estimate D2E/DX2                !
 ! D234  D(63,64,65,67)         -3.4871         estimate D2E/DX2                !
 ! D235  D(68,64,65,66)          2.4277         estimate D2E/DX2                !
 ! D236  D(68,64,65,67)       -178.8412         estimate D2E/DX2                !
 ! D237  D(63,64,68,69)         15.0496         estimate D2E/DX2                !
 ! D238  D(63,64,68,72)       -164.8796         estimate D2E/DX2                !
 ! D239  D(65,64,68,69)       -169.3594         estimate D2E/DX2                !
 ! D240  D(65,64,68,72)         10.7113         estimate D2E/DX2                !
 ! D241  D(64,65,67,61)          2.2711         estimate D2E/DX2                !
 ! D242  D(64,65,67,107)      -177.7298         estimate D2E/DX2                !
 ! D243  D(66,65,67,61)       -179.0459         estimate D2E/DX2                !
 ! D244  D(66,65,67,107)         0.9532         estimate D2E/DX2                !
 ! D245  D(64,68,69,70)        175.4822         estimate D2E/DX2                !
 ! D246  D(64,68,69,108)        -0.6143         estimate D2E/DX2                !
 ! D247  D(72,68,69,70)         -4.5822         estimate D2E/DX2                !
 ! D248  D(72,68,69,108)       179.3214         estimate D2E/DX2                !
 ! D249  D(64,68,72,71)       -176.8342         estimate D2E/DX2                !
 ! D250  D(69,68,72,71)          3.2274         estimate D2E/DX2                !
 ! D251  D(68,69,70,71)          3.603          estimate D2E/DX2                !
 ! D252  D(68,69,70,109)      -179.0936         estimate D2E/DX2                !
 ! D253  D(108,69,70,71)       179.5781         estimate D2E/DX2                !
 ! D254  D(108,69,70,109)       -3.1185         estimate D2E/DX2                !
 ! D255  D(69,70,71,72)         -1.0007         estimate D2E/DX2                !
 ! D256  D(69,70,71,73)        177.912          estimate D2E/DX2                !
 ! D257  D(109,70,71,72)      -178.3621         estimate D2E/DX2                !
 ! D258  D(109,70,71,73)         0.5507         estimate D2E/DX2                !
 ! D259  D(70,71,72,68)         -1.2278         estimate D2E/DX2                !
 ! D260  D(73,71,72,68)        179.7035         estimate D2E/DX2                !
 ! D261  D(70,71,73,74)        143.5655         estimate D2E/DX2                !
 ! D262  D(70,71,73,79)        -38.5829         estimate D2E/DX2                !
 ! D263  D(72,71,73,74)        -37.545          estimate D2E/DX2                !
 ! D264  D(72,71,73,79)        140.3065         estimate D2E/DX2                !
 ! D265  D(71,73,74,75)        179.6419         estimate D2E/DX2                !
 ! D266  D(71,73,74,110)        -0.568          estimate D2E/DX2                !
 ! D267  D(79,73,74,75)          1.6494         estimate D2E/DX2                !
 ! D268  D(79,73,74,110)      -178.5605         estimate D2E/DX2                !
 ! D269  D(71,73,79,77)        177.1861         estimate D2E/DX2                !
 ! D270  D(71,73,79,111)        -1.6483         estimate D2E/DX2                !
 ! D271  D(74,73,79,77)         -4.7449         estimate D2E/DX2                !
 ! D272  D(74,73,79,111)       176.4207         estimate D2E/DX2                !
 ! D273  D(73,74,75,76)          2.6911         estimate D2E/DX2                !
 ! D274  D(110,74,75,76)      -177.0985         estimate D2E/DX2                !
 ! D275  D(74,75,76,77)         -4.1463         estimate D2E/DX2                !
 ! D276  D(74,75,76,80)       -178.0956         estimate D2E/DX2                !
 ! D277  D(75,76,77,78)       -178.1318         estimate D2E/DX2                !
 ! D278  D(75,76,77,79)          1.1445         estimate D2E/DX2                !
 ! D279  D(80,76,77,78)         -4.8597         estimate D2E/DX2                !
 ! D280  D(80,76,77,79)        174.4167         estimate D2E/DX2                !
 ! D281  D(75,76,80,81)        162.3287         estimate D2E/DX2                !
 ! D282  D(75,76,80,84)        -23.4904         estimate D2E/DX2                !
 ! D283  D(77,76,80,81)        -11.315          estimate D2E/DX2                !
 ! D284  D(77,76,80,84)        162.8659         estimate D2E/DX2                !
 ! D285  D(76,77,79,73)          3.5769         estimate D2E/DX2                !
 ! D286  D(76,77,79,111)      -177.5768         estimate D2E/DX2                !
 ! D287  D(78,77,79,73)       -177.1019         estimate D2E/DX2                !
 ! D288  D(78,77,79,111)         1.7443         estimate D2E/DX2                !
 ! D289  D(76,80,81,82)        176.2665         estimate D2E/DX2                !
 ! D290  D(76,80,81,112)        -5.2153         estimate D2E/DX2                !
 ! D291  D(84,80,81,82)          1.4183         estimate D2E/DX2                !
 ! D292  D(84,80,81,112)       179.9366         estimate D2E/DX2                !
 ! D293  D(76,80,84,83)       -177.5937         estimate D2E/DX2                !
 ! D294  D(81,80,84,83)         -2.1771         estimate D2E/DX2                !
 ! D295  D(80,81,82,83)          0.3872         estimate D2E/DX2                !
 ! D296  D(80,81,82,113)       177.1883         estimate D2E/DX2                !
 ! D297  D(112,81,82,83)      -177.9001         estimate D2E/DX2                !
 ! D298  D(112,81,82,113)       -1.0991         estimate D2E/DX2                !
 ! D299  D(81,82,83,84)         -2.0649         estimate D2E/DX2                !
 ! D300  D(81,82,83,114)      -174.1448         estimate D2E/DX2                !
 ! D301  D(113,82,83,84)      -178.6924         estimate D2E/DX2                !
 ! D302  D(113,82,83,114)        9.2277         estimate D2E/DX2                !
 ! D303  D(82,83,84,80)          2.5672         estimate D2E/DX2                !
 ! D304  D(114,83,84,80)       175.4059         estimate D2E/DX2                !
 --------------------------------------------------------------------------------
 Trust Radius=3.00D-01 FncErr=1.00D-07 GrdErr=1.00D-06 EigMax=2.50D+02 EigMin=1.00D-04
 Number of steps in this run=    644 maximum allowed number of steps=    684.
 GradGradGradGradGradGradGradGradGradGradGradGradGradGradGradGradGradGrad

 Leave Link  103 at Sat Jul 25 14:31:31 2020, MaxMem=  4026531840 cpu:               0.2 elap:               0.0
 (Enter /opt/ohpc/pub/libs/gaussian/g16-A.03/sandybridge/g16/l202.exe)
 Stoichiometry    C63H30F7N7S7
 Framework group  C1[X(C63H30F7N7S7)]
 Deg. of freedom   336
 Full point group                 C1      NOp   1
 Largest Abelian subgroup         C1      NOp   1
 Largest concise Abelian subgroup C1      NOp   1
                         Standard orientation:                         
 ---------------------------------------------------------------------
 Center     Atomic      Atomic             Coordinates (Angstroms)
 Number     Number       Type             X           Y           Z
 ---------------------------------------------------------------------
      1          6           0      -26.997416    1.757860   -0.617322
      2          6           0      -26.191035    0.809053   -1.032791
      3          7           0      -24.892242    0.674004   -0.616407
      4          6           0      -24.371364    1.604916    0.177702
      5          6           0      -25.228238    2.712908    0.635557
      6          9           0      -24.712366    3.602771    1.460650
      7          6           0      -26.546332    2.758730    0.216021
      8          6           0      -22.987204    1.540245    0.563597
      9          6           0      -22.326130    2.045464    1.618337
     10          6           0      -20.938373    1.676253    1.675029
     11          6           0      -20.503838    0.920752    0.576004
     12         16           0      -21.869504    0.675033   -0.536108
     13          6           0      -19.250330    0.425440    0.195946
     14          6           0      -18.105939    1.220788    0.398265
     15          7           0      -16.827844    0.840479    0.131569
     16          6           0      -16.634588   -0.459487   -0.447733
     17          6           0      -17.714034   -1.241770   -0.626630
     18          9           0      -17.522503   -2.528153   -1.218735
     19          6           0      -19.000646   -0.797220   -0.394582
     20          6           0      -15.228415   -0.841700   -0.746504
     21          6           0      -14.775026   -1.679899   -1.657005
     22          6           0      -13.323025   -1.801543   -1.577727
     23          6           0      -12.720620   -0.976545   -0.679582
     24         16           0      -13.915606   -0.070454    0.168033
     25          6           0      -11.325701   -0.800405   -0.384234
     26          6           0      -10.875910   -0.717292    0.961139
     27          7           0       -9.532433   -0.597943    1.227053
     28          6           0       -8.647683   -0.589269    0.276935
     29          6           0       -8.985694   -0.609977   -1.047312
     30          9           0       -8.192649   -0.517397   -2.063647
     31          6           0      -10.341205   -0.750236   -1.358325
     32          6           0       -7.245952   -0.441551    0.748654
[...]
  Beta virt. eigenvalues --    1.72345   1.72557   1.72669   1.72942   1.73204
  Beta virt. eigenvalues --    1.73273   1.73337   1.73416   1.73652   1.73780
  Beta virt. eigenvalues --    1.73813   1.74158   1.74307   1.74325   1.74714
  Beta virt. eigenvalues --    1.74740   1.75072   1.75291   1.75571   1.75708
  Beta virt. eigenvalues --    1.75970   1.76101   1.76150   1.76412   1.76493
  Beta virt. eigenvalues --    1.76610   1.76818   1.77140   1.77379   1.77708
  Beta virt. eigenvalues --    1.77893   1.78131   1.78689   1.78886   1.79154
  Beta virt. eigenvalues --    1.79863   1.80631   1.81083   1.81534   1.81589
  Beta virt. eigenvalues --    1.82225   1.82401   1.82632   1.82834   1.83354
  Beta virt. eigenvalues --    1.83524   1.83687   1.83783   1.84285   1.84657
  Beta virt. eigenvalues --    1.84960   1.85255   1.85611   1.85658   1.85987
  Beta virt. eigenvalues --    1.86357   1.86614   1.86846   1.87114   1.87171
  Beta virt. eigenvalues --    1.87358   1.87742   1.87915   1.88400   1.88532
  Beta virt. eigenvalues --    1.88842   1.88925   1.89053   1.89259   1.89643
  Beta virt. eigenvalues --    1.89839   1.90702   1.90903   1.91080   1.91331
  Beta virt. eigenvalues --    1.91644   1.91730   1.92565   1.92832   1.93030
  Beta virt. eigenvalues --    1.93416   1.93451   1.93564   1.93625   1.93719
  Beta virt. eigenvalues --    1.94182   1.94475   1.94862   1.94955   1.95092
  Beta virt. eigenvalues --    1.95213   1.95612   1.95900   1.96105   1.96338
  Beta virt. eigenvalues --    1.96395   1.96755   1.96967   1.97201   1.97336
  Beta virt. eigenvalues --    1.97514   1.97630   1.98117   1.98226   1.98635
  Beta virt. eigenvalues --    1.98949   1.99030   1.99083   1.99243   1.99366
  Beta virt. eigenvalues --    1.99641   2.00060   2.00346   2.00905   2.01442
  Beta virt. eigenvalues --    2.01910   2.02046   2.02444   2.02983   2.03436
  Beta virt. eigenvalues --    2.03667   2.03685   2.04307   2.04699   2.05258
  Beta virt. eigenvalues --    2.05373   2.05791   2.05875   2.06111   2.06434
  Beta virt. eigenvalues --    2.06599   2.06959   2.07231   2.07421   2.07614
  Beta virt. eigenvalues --    2.07979   2.08257   2.08367   2.08613   2.09373
  Beta virt. eigenvalues --    2.09555   2.09668   2.09843   2.10212   2.10789
  Beta virt. eigenvalues --    2.10893   2.11090   2.11367   2.11400   2.11451
  Beta virt. eigenvalues --    2.14489   2.14904   2.15276   2.15361   2.15657
  Beta virt. eigenvalues --    2.15822   2.15893   2.16506   2.16555   2.16754
  Beta virt. eigenvalues --    2.17043   2.17605   2.17635   2.18143   2.19406
  Beta virt. eigenvalues --    2.19794   2.19928   2.20274   2.20621   2.20703
  Beta virt. eigenvalues --    2.21190   2.21773   2.22502   2.23256   2.23781
  Beta virt. eigenvalues --    2.24354   2.24456   2.25157   2.25200   2.25351
  Beta virt. eigenvalues --    2.25776   2.26392   2.27131   2.28233   2.30415
  Beta virt. eigenvalues --    2.30692   2.31172   2.31650   2.31832   2.32052
  Beta virt. eigenvalues --    2.32455   2.33389   2.34549   2.34627   2.34832
  Beta virt. eigenvalues --    2.34909   2.35653   2.37901   2.38529   2.38895
  Beta virt. eigenvalues --    2.39015   2.39276   2.39516   2.39834   2.40311
  Beta virt. eigenvalues --    2.40972   2.41162   2.41462   2.41845   2.42549
  Beta virt. eigenvalues --    2.42660   2.43264   2.44492   2.45150   2.45578
  Beta virt. eigenvalues --    2.46432   2.46474   2.46555   2.46712   2.46990
  Beta virt. eigenvalues --    2.47381   2.47995   2.48618   2.49481   2.49532
  Beta virt. eigenvalues --    2.50172   2.52390   2.53190   2.53851   2.54290
  Beta virt. eigenvalues --    2.54641   2.54900   2.55148   2.55430   2.55620
  Beta virt. eigenvalues --    2.55920   2.56239   2.56453   2.56717   2.56962
  Beta virt. eigenvalues --    2.57201   2.57570   2.57731   2.57826   2.58083
  Beta virt. eigenvalues --    2.58368   2.58560   2.59334   2.60598   2.61320
  Beta virt. eigenvalues --    2.61437   2.62174   2.62565   2.63011   2.63359
  Beta virt. eigenvalues --    2.63690   2.63985   2.64556   2.64831   2.65171
  Beta virt. eigenvalues --    2.65916   2.66556   2.67103   2.67983   2.68412
  Beta virt. eigenvalues --    2.68626   2.68636   2.69388   2.69861   2.70626
  Beta virt. eigenvalues --    2.71072   2.71793   2.72239   2.73783   2.74370
  Beta virt. eigenvalues --    2.76872   2.79177   2.80164   2.80754   2.80944
  Beta virt. eigenvalues --    2.81383   2.82926   2.83587   2.86636   2.88724
  Beta virt. eigenvalues --    2.88900   2.89083   2.89616   2.90100   2.90237
  Beta virt. eigenvalues --    2.94329   2.94639   2.94743   2.94876   2.95046
  Beta virt. eigenvalues --    2.95216   2.96214   3.01839   3.02678   3.02995
  Beta virt. eigenvalues --    3.03248   3.04184   3.04953   3.05093   3.20613
  Beta virt. eigenvalues --    3.22005   3.23042   3.23801   3.25220   3.26880
  Beta virt. eigenvalues --    3.27887   3.38672   3.39445   3.40086   3.41137
  Beta virt. eigenvalues --    3.42303   3.43073   3.46751   3.62623   3.62802
  Beta virt. eigenvalues --    3.62805   3.62827   3.62883   3.63147   3.63643
  Beta virt. eigenvalues --    3.67298   3.67380   3.67457   3.67675   3.67714
  Beta virt. eigenvalues --    3.68050   3.68608   3.82373   3.82507   3.82534
  Beta virt. eigenvalues --    3.82572   3.82583   3.82873   3.83358   4.05043
  Beta virt. eigenvalues --    4.05086   4.05133   4.05320   4.05407   4.05757
  Beta virt. eigenvalues --    4.06511   4.25404   4.25485   4.25570   4.25758
  Beta virt. eigenvalues --    4.25812   4.26237   4.26939
          Condensed to atoms (all electrons):
          Atomic-Atomic Spin Densities.
 Mulliken charges and spin densities:
               1          2
     1  C   -0.041025   0.000000
     2  C    0.087045   0.000000
     3  N   -0.210521  -0.000000
     4  C    0.106954   0.000000
     5  C    0.097327   0.000000
     6  F   -0.124332  -0.000000
     7  C    0.060985  -0.000000
     8  C   -0.153293  -0.000000
     9  C    0.003524   0.000000
    10  C    0.031700   0.000000
    11  C   -0.164818  -0.000000
    12  S    0.208922   0.000000
    13  C   -0.020747  -0.000000
    14  C    0.092887   0.000000
    15  N   -0.208057  -0.000000
    16  C    0.111290   0.000000
    17  C    0.106549  -0.000000
    18  F   -0.122857  -0.000000
    19  C    0.068210   0.000000
    20  C   -0.156295  -0.000000
    21  C    0.000495  -0.000000
    22  C    0.031213   0.000000
    23  C   -0.166635  -0.000000
    24  S    0.214319   0.000000
    25  C   -0.016794   0.000000
    26  C    0.088575  -0.000000
    27  N   -0.192746   0.000000
    28  C    0.072321   0.000000
    29  C    0.109879  -0.000000
    30  F   -0.122533  -0.000000
    31  C    0.063696  -0.000000
    32  C   -0.169839   0.000000
    33  C    0.072218   0.000000
    34  C    0.028826  -0.000000
    35  C   -0.166426  -0.000000
    36  S    0.178216   0.000000
    37  C   -0.012110   0.000000
    38  C    0.087256   0.000000
    39  N   -0.192544  -0.000000
    40  C    0.072191   0.000000
    41  C    0.110027   0.000000
    42  F   -0.122241   0.000000
    43  C    0.063621   0.000000
    44  C   -0.169890  -0.000000
    45  C    0.072200  -0.000000
    46  C    0.028808   0.000000
    47  C   -0.166299   0.000000
    48  S    0.178331   0.000000
    49  C   -0.012228  -0.000000
    50  C    0.087193   0.000000
    51  N   -0.192452  -0.000000
    52  C    0.072356   0.000000
    53  C    0.109938  -0.000000
    54  F   -0.122595  -0.000000
    55  C    0.063637  -0.000000
    56  C   -0.169836  -0.000000
    57  C    0.071327  -0.000000
    58  C    0.030009   0.000000
    59  C   -0.163714   0.000000
    60  S    0.173917   0.000000
    61  C   -0.017155  -0.000000
    62  C    0.089205  -0.000000
    63  N   -0.192883   0.000000
    64  C    0.071790  -0.000000
    65  C    0.108075   0.000000
    66  F   -0.121202  -0.000000
    67  C    0.065961  -0.000000
    68  C   -0.170535   0.000000
    69  C    0.071511  -0.000000
    70  C    0.028189  -0.000000
    71  C   -0.165681   0.000000
    72  S    0.179082   0.000000
    73  C   -0.013373  -0.000000
    74  C    0.087908  -0.000000
    75  N   -0.206714   0.000000
    76  C    0.119221   0.000000
    77  C    0.108066  -0.000000
    78  F   -0.124840   0.000000
    79  C    0.062050   0.000000
    80  C   -0.161429   0.000000
    81  C   -0.030454  -0.000000
    82  C    0.057910   0.000000
    83  C   -0.142095  -0.000000
    84  S    0.199304   0.000000
    85  H    0.016206   0.000000
    86  H    0.023403   0.000000
    87  H    0.027881  -0.000000
    88  H    0.006773   0.000000
    89  H    0.002906   0.000000
    90  H    0.017989   0.000000
    91  H    0.025278  -0.000000
    92  H    0.006040   0.000000
    93  H    0.000020   0.000000
    94  H    0.023627   0.000000
    95  H    0.016734   0.000000
    96  H    0.008303  -0.000000
    97  H    0.001755   0.000000
    98  H    0.022840  -0.000000
    99  H    0.017118  -0.000000
   100  H    0.008188  -0.000000
   101  H    0.001796  -0.000000
   102  H    0.022777   0.000000
   103  H    0.017042   0.000000
   104  H    0.008237   0.000000
   105  H    0.003980   0.000000
   106  H    0.015374  -0.000000
   107  H    0.024218   0.000000
   108  H    0.006507  -0.000000
   109  H    0.000570  -0.000000
   110  H    0.023508   0.000000
   111  H    0.014909  -0.000000
   112  H    0.004623   0.000000
   113  H    0.001073   0.000000
   114  H    0.033276   0.000000
 Sum of Mulliken charges =  -0.00000   0.00000
 Mulliken charges and spin densities with hydrogens summed into heavy atoms:
               1          2
     1  C   -0.024819   0.000000
     2  C    0.110448   0.000000
     3  N   -0.210521  -0.000000
     4  C    0.106954   0.000000
     5  C    0.097327   0.000000
     6  F   -0.124332  -0.000000
     7  C    0.088866  -0.000000
     8  C   -0.153293  -0.000000
     9  C    0.010297   0.000000
    10  C    0.034606   0.000000
    11  C   -0.164818  -0.000000
    12  S    0.208922   0.000000
    13  C   -0.020747  -0.000000
    14  C    0.110876   0.000000
    15  N   -0.208057  -0.000000
    16  C    0.111290   0.000000
    17  C    0.106549  -0.000000
    18  F   -0.122857  -0.000000
    19  C    0.093488   0.000000
    20  C   -0.156295  -0.000000
    21  C    0.006535  -0.000000
    22  C    0.031233   0.000000
    23  C   -0.166635  -0.000000
    24  S    0.214319   0.000000
    25  C   -0.016794   0.000000
    26  C    0.112202  -0.000000
    27  N   -0.192746   0.000000
    28  C    0.072321   0.000000
    29  C    0.109879  -0.000000
    30  F   -0.122533  -0.000000
    31  C    0.080430  -0.000000
    32  C   -0.169839   0.000000
    33  C    0.080521  -0.000000
    34  C    0.030581  -0.000000
    35  C   -0.166426  -0.000000
    36  S    0.178216   0.000000
    37  C   -0.012110   0.000000
    38  C    0.110096   0.000000
    39  N   -0.192544  -0.000000
    40  C    0.072191   0.000000
    41  C    0.110027   0.000000
    42  F   -0.122241   0.000000
    43  C    0.080739   0.000000
    44  C   -0.169890  -0.000000
    45  C    0.080387  -0.000000
    46  C    0.030604  -0.000000
    47  C   -0.166299   0.000000
    48  S    0.178331   0.000000
    49  C   -0.012228  -0.000000
    50  C    0.109969   0.000000
    51  N   -0.192452  -0.000000
    52  C    0.072356   0.000000
    53  C    0.109938  -0.000000
    54  F   -0.122595  -0.000000
    55  C    0.080679  -0.000000
    56  C   -0.169836  -0.000000
    57  C    0.079564  -0.000000
    58  C    0.033988   0.000000
    59  C   -0.163714   0.000000
    60  S    0.173917   0.000000
    61  C   -0.017155  -0.000000
    62  C    0.104579  -0.000000
    63  N   -0.192883   0.000000
    64  C    0.071790  -0.000000
    65  C    0.108075   0.000000
    66  F   -0.121202  -0.000000
    67  C    0.090179  -0.000000
    68  C   -0.170535   0.000000
    69  C    0.078018  -0.000000
    70  C    0.028759  -0.000000
    71  C   -0.165681   0.000000
    72  S    0.179082   0.000000
    73  C   -0.013373  -0.000000
    74  C    0.111416  -0.000000
    75  N   -0.206714   0.000000
    76  C    0.119221   0.000000
    77  C    0.108066  -0.000000
    78  F   -0.124840   0.000000
    79  C    0.076960   0.000000
    80  C   -0.161429   0.000000
    81  C   -0.025831  -0.000000
    82  C    0.058983   0.000000
    83  C   -0.108819  -0.000000
    84  S    0.199304   0.000000
 Electronic spatial extent (au):  <R**2>=         589853.7463
 Charge=             -0.0000 electrons
 Dipole moment (field-independent basis, Debye):
    X=            -13.3898    Y=             -0.5870    Z=              0.7116  Tot=             13.4215
 Quadrupole moment (field-independent basis, Debye-Ang):
   XX=           -322.6354   YY=           -511.9125   ZZ=           -502.9626
   XY=            -47.6662   XZ=              6.8799   YZ=             -2.4379
 Traceless Quadrupole moment (field-independent basis, Debye-Ang):
   XX=            123.2015   YY=            -66.0757   ZZ=            -57.1258
   XY=            -47.6662   XZ=              6.8799   YZ=             -2.4379
 Octapole moment (field-independent basis, Debye-Ang**2):
  XXX=          -9222.0337  YYY=             15.7383  ZZZ=             -3.3647  XYY=             39.5995
  XXY=            457.6897  XXZ=            524.9254  XZZ=           -254.9720  YZZ=              1.9629
  YYZ=             -2.3231  XYZ=           -192.2576
 Hexadecapole moment (field-independent basis, Debye-Ang**3):
 XXXX=        -551668.6741 YYYY=          -7743.9289 ZZZZ=          -4069.0292 XXXY=         -33315.8337
 XXXZ=            714.8552 YYYX=            236.2741 YYYZ=           -100.6173 ZZZX=            -76.7412
 ZZZY=             68.4473 XXYY=        -128687.8384 XXZZ=        -130650.2705 YYZZ=          -1965.5409
 XXYZ=            -20.8219 YYXZ=           -185.5943 ZZXY=            -53.4458
 N-N= 1.149023587427D+04 E-N=-3.776998284360D+04  KE= 6.257165197585D+03
 Leave Link  601 at Sat Jul 25 20:15:04 2020, MaxMem=  4026531840 cpu:              10.8 elap:               1.5
 (Enter /opt/ohpc/pub/libs/gaussian/g16-A.03/sandybridge/g16/l9999.exe)

 Test job not archived.
 1\1\GINC-SKYLAKE017\FOpt\ULC-wPBE\CC-pVDZ\C63H30F7N7S7\RDU230\25-Jul-2
 020\0\\#P uLC-wPBE/cc-pVDZ iop(3/107=0343200000, 3/108=0343200000) opt
 \\H30 C63 S7 N7 F7\\0,1\C,-26.7728722901,2.6476321349,-0.1817261272\C,
 -25.8022078347,2.2044328559,-1.0752688072\N,-24.565846832,1.8797842719
 ,-0.710489673\C,-24.2122666569,1.97655375,0.5770034268\C,-25.138805179
 4,2.4155067574,1.5273372179\F,-24.7878735664,2.5146073495,2.8221219753
 \C,-26.4271147222,2.7551114313,1.1592003662\C,-22.8286863081,1.6017429
 909,0.9002051423\C,-22.1536588191,1.5783928969,2.0957470188\C,-20.8092
 068305,1.1458427919,1.9567953097\C,-20.4758733022,0.8453729972,0.65969
 36426\S,-21.811821123,1.0982851256,-0.4045113303\C,-19.1795227974,0.36
 86401781,0.1545784516\C,-17.980719328,0.7464932985,0.7740358879\N,-16.
 7826539743,0.3370695351,0.3820059014\C,-16.6695685285,-0.4771279437,-0
 .6750843884\C,-17.8185694067,-0.8852600034,-1.3570559717\F,-17.7220504
 111,-1.7002932358,-2.4223725828\C,-19.0728303711,-0.4756358305,-0.9518
 050813\C,-15.3085133689,-0.8834813184,-1.0446605842\C,-14.8521230882,-
 1.7005291378,-2.0500747795\C,-13.4392172527,-1.8266101268,-2.052037125
 \C,-12.8355083125,-1.1074208026,-1.0505969518\S,-14.0015551412,-0.2612
 256567,-0.099040821\C,-11.3974017153,-1.014251298,-0.75778056\C,-10.91
 27688883,-0.8052375291,0.5409970604\N,-9.6274918414,-0.7208810819,0.85
 35405428\C,-8.7035464667,-0.8464808387,-0.1073012659\C,-9.1078053582,-
 1.0633324986,-1.4263064257\F,-8.1827173604,-1.18568684,-2.3963165115\C
 ,-10.4424541625,-1.1423507644,-1.7670002433\C,-7.2987514296,-0.7402428
 622,0.3187718444\C,-6.8919772408,-0.5241178332,1.6117666714\C,-5.48360
 56506,-0.4655675691,1.7467700172\C,-4.8239452411,-0.6358264286,0.55454
 57198\S,-5.9388517276,-0.8776973478,-0.7410814347\C,-3.372630413,-0.63
 03876022,0.3195643954\C,-2.8141005761,-0.2065033191,-0.8943967037\N,-1
 .513600144,-0.1791983321,-1.1485706459\C,-0.6468112876,-0.5663965908,-
 0.2044538534\C,-1.1262564251,-0.9955055044,1.0351006899\F,-0.259039698
 8,-1.3897413112,1.9858239145\C,-2.4777726933,-1.0399125691,1.308812700
 5\C,0.7795239306,-0.5075490596,-0.5625900062\C,1.2599267475,-0.0903533
 086,-1.7788130638\C,2.673137492,-0.1296702442,-1.8590939943\C,3.262760
 0727,-0.5786939792,-0.7031197248\S,2.0756473568,-0.9479090756,0.494625
 7899\C,4.6974666106,-0.7509141549,-0.4318675795\C,5.1786272061,-1.7268
 162446,0.4520503062\N,6.4614017792,-1.9216513346,0.7226422966\C,7.3866
 519923,-1.1609855742,0.1244048289\C,6.9858996374,-0.1710879392,-0.7756
 868931\F,7.9119641938,0.5991923174,-1.3762893344\C,5.653597047,0.04999
 98156,-1.0575708365\C,8.7884539296,-1.4377069341,0.4768833463\C,9.1922
 521512,-2.4052674237,1.362590006\C,10.5988756955,-2.4620600267,1.51943
 23928\C,11.2599543533,-1.5356144501,0.7514174322\S,10.1497775503,-0.59
 30076252,-0.1756300158\C,12.7094467872,-1.3064382505,0.6613757099\C,13
 .6178016404,-2.3604991504,0.8339282433\N,14.9350843051,-2.2254947503,0
 .7856744958\C,15.4687498173,-1.020629634,0.544981475\C,14.6279682892,0
 .0763591233,0.3465472898\F,15.1587134496,1.2885734485,0.1034125787\C,1
 3.2546954114,-0.0478967758,0.4059751883\C,16.9382209217,-0.9522066457,
 0.5060740699\C,17.7725914646,-2.0260391558,0.6925583451\C,19.143971923
 6,-1.6838726099,0.604905009\C,19.3478461146,-0.3500179599,0.3503794617
 \S,17.84672669,0.4929603788,0.2258144607\C,20.6304576902,0.3518618304,
 0.1925177714\C,20.770480248,1.4762211642,-0.6302115555\N,21.9096064563
 ,2.1326751875,-0.8034068306\C,23.0190872813,1.7215595004,-0.1775732168
 \C,22.9613226656,0.6006176609,0.6566298961\F,24.0637396336,0.173455530
 6,1.2990124181\C,21.7802678345,-0.0841368719,0.8540305983\C,24.2391561
 084,2.500810642,-0.4212440816\C,25.5168154657,2.3464016491,0.059439478
 8\C,26.4110972534,3.3355284054,-0.4358429183\C,25.7937418471,4.2157492
 849,-1.2788048074\S,24.1304881076,3.862568262,-1.4843560186\H,-27.7769
 528531,2.9030198853,-0.5273430307\H,-26.0292160986,2.1042770728,-2.142
 3278376\H,-27.12957208,3.0949763165,1.9238497811\H,-22.6081241749,1.85
 47723209,3.0452962514\H,-20.1200721571,1.0343811244,2.7956850304\H,-17
 .9978812946,1.43179209,1.6282852588\H,-19.9495843706,-0.8331990747,-1.
 4978290235\H,-15.5086218318,-2.2000857633,-2.760068332\H,-12.889777652
 4,-2.4527079308,-2.7574845167\H,-11.6152873716,-0.7110998904,1.3773686
 729\H,-10.716886201,-1.2847251534,-2.8145067308\H,-7.6108899645,-0.407
 8333387,2.4226202907\H,-4.9720381288,-0.2767305643,2.6922625255\H,-3.4
 664433837,0.1412356708,-1.7040531949\H,-2.8122928311,-1.4086258102,2.2
 80917924\H,0.5892317684,0.2249398949,-2.5779391514\H,3.2378626153,0.14
 04391325,-2.7532021756\H,4.4759163413,-2.3963541987,0.9619172259\H,5.3
 81129858,0.8529474934,-1.7459624746\H,8.472241699,-3.0402868298,1.8785
 864826\H,11.1072537256,-3.1474322833,2.1996125801\H,13.2461607765,-3.3
 762927528,1.0079980595\H,12.6339184907,0.8408472548,0.2669400485\H,17.
 3806256394,-3.025752145,0.8791316791\H,19.9571588591,-2.4056017513,0.7
 003118716\H,19.9084475582,1.8589707391,-1.1890124564\H,21.7701625384,-
 0.9380899068,1.535048548\H,25.8059994647,1.5514438897,0.7445105097\H,2
 7.4691660026,3.3874113097,-0.17402202\H,26.2387056699,5.0657619883,-1.
 7966948369\\Version=EM64L-G16RevA.03\State=1-A\HF=-6285.0352522\S2=0.\
 S2-1=0.\S2A=0.\RMSD=9.242e-09\RMSF=1.818e-06\Dipole=-5.2676741,-0.2177
 549,0.2951793\Quadrupole=91.6936533,-49.4481075,-42.2455458,-34.784141
 7,7.6510142,-1.3126566\PG=C01 [X(C63H30F7N7S7)]\\@


 SUPPORT THE RIGHT TO ARM BEARS!
 (ADD A CLAWS TO THE BILL OF RIGHTS)
 Job cpu time:       1 days 20 hours 56 minutes 40.5 seconds.
 Elapsed time:       0 days  5 hours 43 minutes 31.8 seconds.
 File lengths (MBytes):  RWF=   2052 Int=      0 D2E=      0 Chk=    184 Scr=      8
 Normal termination of Gaussian 16 at Sat Jul 25 20:15:05 2020.
