 Entering Gaussian System, Link 0=g16
 Input=mols_65_1_22_n-cF-CF_opt_0.gjf
 Output=mols_65_1_22_n-cF-CF_opt_0.log
 Initial command:
 /opt/ohpc/pub/libs/gaussian/g16-A.03/sandybridge/g16/l1.exe "/mnt/gpfs2_4m/scratch/rdu230/ondemand/projects/dihedral_energies/7trial/wtuning/redos_512cycles/mols_65_1_22_n-cF-CF/Gau-294607.inp" -scrdir="/mnt/gpfs2_4m/scratch/rdu230/ondemand/projects/dihedral_energies/7trial/wtuning/redos_512cycles/mols_65_1_22_n-cF-CF/"
 Entering Link 1 = /opt/ohpc/pub/libs/gaussian/g16-A.03/sandybridge/g16/l1.exe PID=    294608.
  
 Copyright (c) 1988,1990,1992,1993,1995,1998,2003,2009,2016,
            Gaussian, Inc.  All Rights Reserved.
  
 This is part of the Gaussian(R) 16 program.  It is based on
 the Gaussian(R) 09 system (copyright 2009, Gaussian, Inc.),
 the Gaussian(R) 03 system (copyright 2003, Gaussian, Inc.),
 the Gaussian(R) 98 system (copyright 1998, Gaussian, Inc.),
 the Gaussian(R) 94 system (copyright 1995, Gaussian, Inc.),
 the Gaussian 92(TM) system (copyright 1992, Gaussian, Inc.),
 the Gaussian 90(TM) system (copyright 1990, Gaussian, Inc.),
 the Gaussian 88(TM) system (copyright 1988, Gaussian, Inc.),
 the Gaussian 86(TM) system (copyright 1986, Carnegie Mellon
 University), and the Gaussian 82(TM) system (copyright 1983,
 Carnegie Mellon University). Gaussian is a federally registered
 trademark of Gaussian, Inc.
  
 This software contains proprietary and confidential information,
 including trade secrets, belonging to Gaussian, Inc.
  
 This software is provided under written license and may be
 used, copied, transmitted, or stored only in accord with that
 written license.
  
 The following legend is applicable only to US Government
 contracts under FAR:
  
                    RESTRICTED RIGHTS LEGEND
  
 Use, reproduction and disclosure by the US Government is
 subject to restrictions as set forth in subparagraphs (a)
 and (c) of the Commercial Computer Software - Restricted
 Rights clause in FAR 52.227-19.
  
 Gaussian, Inc.
 340 Quinnipiac St., Bldg. 40, Wallingford CT 06492
  
  
 ---------------------------------------------------------------
 Warning -- This program may not be used in any manner that
 competes with the business of Gaussian, Inc. or will provide
 assistance to any competitor of Gaussian, Inc.  The licensee
 of this program is prohibited from giving any competitor of
 Gaussian, Inc. access to this program.  By using this program,
 the user acknowledges that Gaussian, Inc. is engaged in the
 business of creating and licensing software in the field of
 computational chemistry and represents and warrants to the
 licensee that it is not a competitor of Gaussian, Inc. and that
 it will not use this program in any manner prohibited above.
 ---------------------------------------------------------------
  

 Cite this work as:
 Gaussian 16, Revision A.03,
 M. J. Frisch, G. W. Trucks, H. B. Schlegel, G. E. Scuseria, 
 M. A. Robb, J. R. Cheeseman, G. Scalmani, V. Barone, 
 G. A. Petersson, H. Nakatsuji, X. Li, M. Caricato, A. V. Marenich, 
 J. Bloino, B. G. Janesko, R. Gomperts, B. Mennucci, H. P. Hratchian, 
 J. V. Ortiz, A. F. Izmaylov, J. L. Sonnenberg, D. Williams-Young, 
 F. Ding, F. Lipparini, F. Egidi, J. Goings, B. Peng, A. Petrone, 
 T. Henderson, D. Ranasinghe, V. G. Zakrzewski, J. Gao, N. Rega, 
 G. Zheng, W. Liang, M. Hada, M. Ehara, K. Toyota, R. Fukuda, 
 J. Hasegawa, M. Ishida, T. Nakajima, Y. Honda, O. Kitao, H. Nakai, 
 T. Vreven, K. Throssell, J. A. Montgomery, Jr., J. E. Peralta, 
 F. Ogliaro, M. J. Bearpark, J. J. Heyd, E. N. Brothers, K. N. Kudin, 
 V. N. Staroverov, T. A. Keith, R. Kobayashi, J. Normand, 
 K. Raghavachari, A. P. Rendell, J. C. Burant, S. S. Iyengar, 
 J. Tomasi, M. Cossi, J. M. Millam, M. Klene, C. Adamo, R. Cammi, 
 J. W. Ochterski, R. L. Martin, K. Morokuma, O. Farkas, 
 J. B. Foresman, and D. J. Fox, Gaussian, Inc., Wallingford CT, 2016.
 
 ******************************************
 Gaussian 16:  EM64L-G16RevA.03 25-Dec-2016
                26-Jul-2020 
 ******************************************
 %mem=30GB
 %nproc=8
 Will use up to    8 processors via shared memory.
 ---------------------------------------------------------------
 #P uLC-wPBE/cc-pVDZ iop(3/107=0440800000, 3/108=0440800000) opt
 ---------------------------------------------------------------
 1/18=20,19=15,26=3,38=1/1,3;
 2/9=110,12=2,17=6,18=5,40=1/2;
 3/5=16,11=2,25=1,30=1,71=1,74=-41,107=440800000,108=440800000,116=2/1,2,3;
 4//1;
 5/5=2,38=5/2;
 6/7=2,8=2,9=2,10=2,28=1/1;
 7//1,2,3,16;
 1/18=20,19=15,26=3/3(2);
 2/9=110/2;
 99//99;
 2/9=110/2;
 3/5=16,11=2,25=1,30=1,71=1,74=-41,107=440800000,108=440800000,116=2/1,2,3;
 4/5=5,16=3,69=1/1;
 5/5=2,38=5/2;
 7//1,2,3,16;
 1/18=20,19=15,26=3/3(-5);
 2/9=110/2;
 6/7=2,8=2,9=2,10=2,19=2,28=1/1;
 99/9=1/99;
 Leave Link    1 at Sun Jul 26 12:21:18 2020, MaxMem=  4026531840 cpu:               1.9 elap:               0.3
 (Enter /opt/ohpc/pub/libs/gaussian/g16-A.03/sandybridge/g16/l101.exe)
 --------------
 H5 C9 S1 N1 F2
 --------------
 Symbolic Z-matrix:
 Charge =  0 Multiplicity = 1
 C                    -3.44414  -0.53546   0.00469 
 C                    -2.5991   -1.63239   0.04539 
 N                    -1.23093  -1.44301  -0.01452 
 C                    -0.72165  -0.26439  -0.03281 
 C                    -1.59111   0.8509    0.02207 
 F                    -1.12774   2.17419  -0.02814 
 C                    -2.97164   0.70313   0.04178 
 C                     0.754    -0.13818  -0.04895 
 C                     1.61657   0.93939  -0.04946 
 F                     1.17961   2.21832  -0.03139 
 C                     2.95122   0.63153   0.01773 
 C                     3.17115  -0.70582   0.00307 
 S                     1.73646  -1.61451  -0.03191 
 H                    -4.5799   -0.7787   -0.00017 
 H                    -2.88818  -2.69322  -0.00586 
 H                    -3.61442   1.59207   0.04323 
 H                     3.75431   1.35005   0.02307 
 H                     4.10929  -1.32371  -0.04024 
 
 ITRead=  0  0  0  0  0  0  0  0  0  0  0  0  0  0  0  0  0  0
 MicOpt= -1 -1 -1 -1 -1 -1 -1 -1 -1 -1 -1 -1 -1 -1 -1 -1 -1 -1
 NAtoms=     18 NQM=       18 NQMF=       0 NMMI=      0 NMMIF=      0
                NMic=       0 NMicF=      0.
                    Isotopes and Nuclear Properties:
 (Nuclear quadrupole moments (NQMom) in fm**2, nuclear magnetic moments (NMagM)
  in nuclear magnetons)

  Atom         1           2           3           4           5           6           7           8           9          10
 IAtWgt=          12          12          14          12          12          19          12          12          12          19
 AtmWgt=  12.0000000  12.0000000  14.0030740  12.0000000  12.0000000  18.9984033  12.0000000  12.0000000  12.0000000  18.9984033
 NucSpn=           0           0           2           0           0           1           0           0           0           1
 AtZEff=  -0.0000000  -0.0000000  -0.0000000  -0.0000000  -0.0000000  -0.0000000  -0.0000000  -0.0000000  -0.0000000  -0.0000000
 NQMom=    0.0000000   0.0000000   2.0440000   0.0000000   0.0000000   0.0000000   0.0000000   0.0000000   0.0000000   0.0000000
 NMagM=    0.0000000   0.0000000   0.4037610   0.0000000   0.0000000   2.6288670   0.0000000   0.0000000   0.0000000   2.6288670
 AtZNuc=   6.0000000   6.0000000   7.0000000   6.0000000   6.0000000   9.0000000   6.0000000   6.0000000   6.0000000   9.0000000

  Atom        11          12          13          14          15          16          17          18
 IAtWgt=          12          12          32           1           1           1           1           1
 AtmWgt=  12.0000000  12.0000000  31.9720718   1.0078250   1.0078250   1.0078250   1.0078250   1.0078250
 NucSpn=           0           0           0           1           1           1           1           1
 AtZEff=  -0.0000000  -0.0000000  -0.0000000  -0.0000000  -0.0000000  -0.0000000  -0.0000000  -0.0000000
 NQMom=    0.0000000   0.0000000   0.0000000   0.0000000   0.0000000   0.0000000   0.0000000   0.0000000
 NMagM=    0.0000000   0.0000000   0.0000000   2.7928460   2.7928460   2.7928460   2.7928460   2.7928460
 AtZNuc=   6.0000000   6.0000000  16.0000000   1.0000000   1.0000000   1.0000000   1.0000000   1.0000000
 Leave Link  101 at Sun Jul 26 12:21:19 2020, MaxMem=  4026531840 cpu:               2.6 elap:               0.4
 (Enter /opt/ohpc/pub/libs/gaussian/g16-A.03/sandybridge/g16/l103.exe)

 GradGradGradGradGradGradGradGradGradGradGradGradGradGradGradGradGradGrad
 Berny optimization.
 Initialization pass.
                           ----------------------------
                           !    Initial Parameters    !
                           ! (Angstroms and Degrees)  !
 --------------------------                            --------------------------
 ! Name  Definition              Value          Derivative Info.                !
 --------------------------------------------------------------------------------
 ! R1    R(1,2)                  1.3853         estimate D2E/DX2                !
 ! R2    R(1,7)                  1.3262         estimate D2E/DX2                !
 ! R3    R(1,14)                 1.1615         estimate D2E/DX2                !
 ! R4    R(2,3)                  1.3825         estimate D2E/DX2                !
 ! R5    R(2,15)                 1.1007         estimate D2E/DX2                !
 ! R6    R(3,4)                  1.2841         estimate D2E/DX2                !
 ! R7    R(4,5)                  1.4152         estimate D2E/DX2                !
 ! R8    R(4,8)                  1.4811         estimate D2E/DX2                !
 ! R9    R(5,6)                  1.403          estimate D2E/DX2                !
 ! R10   R(5,7)                  1.3885         estimate D2E/DX2                !
 ! R11   R(7,16)                 1.097          estimate D2E/DX2                !
 ! R12   R(8,9)                  1.3803         estimate D2E/DX2                !
 ! R13   R(8,13)                 1.7734         estimate D2E/DX2                !
 ! R14   R(9,10)                 1.3516         estimate D2E/DX2                !
 ! R15   R(9,11)                 1.3713         estimate D2E/DX2                !
 ! R16   R(11,12)                1.3554         estimate D2E/DX2                !
 ! R17   R(11,17)                1.0776         estimate D2E/DX2                !
 ! R18   R(12,13)                1.6986         estimate D2E/DX2                !
 ! R19   R(12,18)                1.1242         estimate D2E/DX2                !
 ! A1    A(2,1,7)              121.4255         estimate D2E/DX2                !
 ! A2    A(2,1,14)             115.5174         estimate D2E/DX2                !
 ! A3    A(7,1,14)             122.9619         estimate D2E/DX2                !
 ! A4    A(1,2,3)              119.5998         estimate D2E/DX2                !
 ! A5    A(1,2,15)             126.9835         estimate D2E/DX2                !
 ! A6    A(3,2,15)             112.9489         estimate D2E/DX2                !
 ! A7    A(2,3,4)              121.2554         estimate D2E/DX2                !
 ! A8    A(3,4,5)              118.6284         estimate D2E/DX2                !
 ! A9    A(3,4,8)              118.263          estimate D2E/DX2                !
 ! A10   A(5,4,8)              123.0496         estimate D2E/DX2                !
 ! A11   A(4,5,6)              122.616          estimate D2E/DX2                !
 ! A12   A(4,5,7)              121.8367         estimate D2E/DX2                !
 ! A13   A(6,5,7)              115.4203         estimate D2E/DX2                !
 ! A14   A(1,7,5)              116.9506         estimate D2E/DX2                !
 ! A15   A(1,7,16)             123.2363         estimate D2E/DX2                !
 ! A16   A(5,7,16)             119.7589         estimate D2E/DX2                !
 ! A17   A(4,8,9)              133.5619         estimate D2E/DX2                !
 ! A18   A(4,8,13)             118.7439         estimate D2E/DX2                !
 ! A19   A(9,8,13)             107.6805         estimate D2E/DX2                !
 ! A20   A(8,9,10)             122.457          estimate D2E/DX2                !
 ! A21   A(8,9,11)             115.6528         estimate D2E/DX2                !
 ! A22   A(10,9,11)            121.7624         estimate D2E/DX2                !
 ! A23   A(9,11,12)            112.2657         estimate D2E/DX2                !
 ! A24   A(9,11,17)            125.1601         estimate D2E/DX2                !
 ! A25   A(12,11,17)           122.4808         estimate D2E/DX2                !
 ! A26   A(11,12,13)           113.0174         estimate D2E/DX2                !
 ! A27   A(11,12,18)           132.699          estimate D2E/DX2                !
 ! A28   A(13,12,18)           114.2065         estimate D2E/DX2                !
 ! A29   A(8,13,12)             91.3046         estimate D2E/DX2                !
 ! D1    D(7,1,2,3)             -6.7256         estimate D2E/DX2                !
 ! D2    D(7,1,2,15)          -178.2944         estimate D2E/DX2                !
 ! D3    D(14,1,2,3)           176.722          estimate D2E/DX2                !
 ! D4    D(14,1,2,15)            5.1532         estimate D2E/DX2                !
 ! D5    D(2,1,7,5)              4.6826         estimate D2E/DX2                !
 ! D6    D(2,1,7,16)          -178.0052         estimate D2E/DX2                !
 ! D7    D(14,1,7,5)          -179.026          estimate D2E/DX2                !
 ! D8    D(14,1,7,16)           -1.7138         estimate D2E/DX2                !
 ! D9    D(1,2,3,4)              3.9048         estimate D2E/DX2                !
 ! D10   D(15,2,3,4)           176.5976         estimate D2E/DX2                !
 ! D11   D(2,3,4,5)              0.568          estimate D2E/DX2                !
 ! D12   D(2,3,4,8)            177.86           estimate D2E/DX2                !
 ! D13   D(3,4,5,6)           -178.2824         estimate D2E/DX2                !
 ! D14   D(3,4,5,7)             -2.5671         estimate D2E/DX2                !
 ! D15   D(8,4,5,6)              4.5633         estimate D2E/DX2                !
 ! D16   D(8,4,5,7)           -179.7213         estimate D2E/DX2                !
 ! D17   D(3,4,8,9)           -178.8449         estimate D2E/DX2                !
 ! D18   D(3,4,8,13)            -0.3798         estimate D2E/DX2                !
 ! D19   D(5,4,8,9)             -1.6808         estimate D2E/DX2                !
 ! D20   D(5,4,8,13)           176.7843         estimate D2E/DX2                !
 ! D21   D(4,5,7,1)             -0.101          estimate D2E/DX2                !
 ! D22   D(4,5,7,16)          -177.5115         estimate D2E/DX2                !
 ! D23   D(6,5,7,1)            175.9036         estimate D2E/DX2                !
 ! D24   D(6,5,7,16)            -1.5068         estimate D2E/DX2                !
 ! D25   D(4,8,9,10)             0.0799         estimate D2E/DX2                !
 ! D26   D(4,8,9,11)           176.0327         estimate D2E/DX2                !
 ! D27   D(13,8,9,10)         -178.5076         estimate D2E/DX2                !
 ! D28   D(13,8,9,11)           -2.5548         estimate D2E/DX2                !
 ! D29   D(4,8,13,12)         -177.8182         estimate D2E/DX2                !
 ! D30   D(9,8,13,12)            1.0144         estimate D2E/DX2                !
 ! D31   D(8,9,11,12)            3.1951         estimate D2E/DX2                !
 ! D32   D(8,9,11,17)          179.7415         estimate D2E/DX2                !
 ! D33   D(10,9,11,12)         179.1786         estimate D2E/DX2                !
 ! D34   D(10,9,11,17)          -4.275          estimate D2E/DX2                !
 ! D35   D(9,11,12,13)          -2.2706         estimate D2E/DX2                !
 ! D36   D(9,11,12,18)         174.2788         estimate D2E/DX2                !
 ! D37   D(17,11,12,13)       -178.9237         estimate D2E/DX2                !
 ! D38   D(17,11,12,18)         -2.3743         estimate D2E/DX2                !
 ! D39   D(11,12,13,8)           0.6962         estimate D2E/DX2                !
 ! D40   D(18,12,13,8)        -176.524          estimate D2E/DX2                !
 --------------------------------------------------------------------------------
 Trust Radius=3.00D-01 FncErr=1.00D-07 GrdErr=1.00D-06 EigMax=2.50D+02 EigMin=1.00D-04
 Number of steps in this run=     98 maximum allowed number of steps=    108.
 GradGradGradGradGradGradGradGradGradGradGradGradGradGradGradGradGradGrad

 Leave Link  103 at Sun Jul 26 12:21:19 2020, MaxMem=  4026531840 cpu:               0.2 elap:               0.0
 (Enter /opt/ohpc/pub/libs/gaussian/g16-A.03/sandybridge/g16/l202.exe)
                          Input orientation:                          
 ---------------------------------------------------------------------
 Center     Atomic      Atomic             Coordinates (Angstroms)
 Number     Number       Type             X           Y           Z
 ---------------------------------------------------------------------
      1          6           0       -3.444137   -0.535463    0.004688
      2          6           0       -2.599099   -1.632391    0.045391
      3          7           0       -1.230928   -1.443005   -0.014522
      4          6           0       -0.721647   -0.264392   -0.032808
      5          6           0       -1.591113    0.850899    0.022071
      6          9           0       -1.127736    2.174192   -0.028140
      7          6           0       -2.971636    0.703131    0.041780
      8          6           0        0.754001   -0.138181   -0.048948
      9          6           0        1.616568    0.939394   -0.049462
     10          9           0        1.179612    2.218319   -0.031394
     11          6           0        2.951218    0.631530    0.017727
     12          6           0        3.171150   -0.705821    0.003067
     13         16           0        1.736460   -1.614514   -0.031905
     14          1           0       -4.579898   -0.778697   -0.000167
     15          1           0       -2.888176   -2.693223   -0.005863
     16          1           0       -3.614423    1.592068    0.043234
     17          1           0        3.754311    1.350049    0.023069
     18          1           0        4.109294   -1.323707   -0.040236
 ---------------------------------------------------------------------
                    Distance matrix (angstroms):
                    1          2          3          4          5
     1  C    0.000000
     2  C    1.385279   0.000000
     3  N    2.392132   1.382515   0.000000
     4  C    2.736209   2.324298   1.284068   0.000000
     5  C    2.314303   2.680170   2.322298   1.415223   0.000000
     6  F    3.564971   4.081714   3.618694   2.472169   1.402977
     7  C    1.326178   2.365050   2.763898   2.450329   1.388549
     8  C    4.217235   3.672171   2.375646   1.481123   2.546151
     9  C    5.271515   4.939122   3.712853   2.629948   3.209699
    10  F    5.381791   5.395602   4.383638   3.127082   3.090245
    11  C    6.500970   5.994341   4.668520   3.780895   4.547627
    12  C    6.617480   5.844322   4.463411   3.917910   5.010278
    13  S    5.291907   4.336285   2.972391   2.804482   4.141729
    14  H    1.161525   2.157414   3.414251   3.892515   3.404249
    15  H    2.228258   1.100708   2.075955   3.254811   3.774116
    16  H    2.134683   3.380536   3.859540   3.438078   2.154893
    17  H    7.441314   7.018637   5.714470   4.758544   5.368679
    18  H    7.594581   6.716037   5.341616   4.945725   6.101429
                    6          7          8          9         10
     6  F    0.000000
     7  C    2.359847   0.000000
     8  C    2.981348   3.820525   0.000000
     9  C    3.009383   4.595189   1.380286   0.000000
    10  F    2.307772   4.419730   2.394691   1.351631   0.000000
    11  C    4.361167   5.923336   2.329091   1.371344   2.378844
    12  C    5.174541   6.302417   2.483451   2.264115   3.538079
    13  S    4.749519   5.248150   1.773436   2.556781   3.873072
    14  H    4.542880   2.187254   5.372441   6.430432   6.492691
    15  H    5.176038   3.397713   4.449219   5.787100   6.377366
    16  H    2.554912   1.096990   4.699509   5.272366   4.835342
    17  H    4.951385   6.757012   3.349907   2.178037   2.717707
    18  H    6.297772   7.365756   3.558587   3.366808   4.596636
                   11         12         13         14         15
    11  C    0.000000
    12  C    1.355394   0.000000
    13  S    2.553980   1.698612   0.000000
    14  H    7.662034   7.751391   6.371497   0.000000
    15  H    6.719603   6.376933   4.748847   2.554871   0.000000
    16  H    6.635580   7.164210   6.238571   2.560186   4.346673
    17  H    1.077616   2.137072   3.586555   8.601810   7.776344
    18  H    2.273203   1.124176   2.390602   8.706360   7.130311
                   16         17         18
    16  H    0.000000
    17  H    7.372735   0.000000
    18  H    8.256180   2.697961   0.000000
 Stoichiometry    C9H5F2NS
 Framework group  C1[X(C9H5F2NS)]
 Deg. of freedom    48
 Full point group                 C1      NOp   1
 Largest Abelian subgroup         C1      NOp   1
 Largest concise Abelian subgroup C1      NOp   1
                         Standard orientation:                         
 ---------------------------------------------------------------------
 Center     Atomic      Atomic             Coordinates (Angstroms)
 Number     Number       Type             X           Y           Z
 ---------------------------------------------------------------------
      1          6           0       -3.433267   -0.574361   -0.007014
      2          6           0       -2.578789   -1.663820    0.037078
      3          7           0       -1.212004   -1.462190   -0.013821
      4          6           0       -0.713110   -0.279073   -0.026765
      5          6           0       -1.592781    0.828356    0.024601
      6          9           0       -1.140873    2.155799   -0.020299
      7          6           0       -2.972034    0.668306    0.035293
      8          6           0        0.761431   -0.139742   -0.033324
      9          6           0        1.614375    0.945444   -0.026438
     10          9           0        1.165967    2.220406   -0.008848
     11          6           0        2.951256    0.649312    0.048658
     12          6           0        3.183151   -0.686005    0.032995
     13         16           0        1.756842   -1.607327   -0.012700
     14          1           0       -4.566768   -0.827655   -0.019505
     15          1           0       -2.858099   -2.727079   -0.017909
     16          1           0       -3.622691    1.551500    0.034266
     17          1           0        3.747883    1.374919    0.060379
     18          1           0        4.127003   -1.295460   -0.005468
 ---------------------------------------------------------------------
 Rotational constants (GHZ):           1.3231625           0.5796383           0.4031526
 Leave Link  202 at Sun Jul 26 12:21:19 2020, MaxMem=  4026531840 cpu:               0.3 elap:               0.1
 (Enter /opt/ohpc/pub/libs/gaussian/g16-A.03/sandybridge/g16/l301.exe)
 Standard basis: CC-pVDZ (5D, 7F)
 Ernie: Thresh=  0.10000D-02 Tol=  0.10000D-05 Strict=F.
 Ernie:  34 primitive shells out of 339 were deleted.
 There are   224 symmetry adapted cartesian basis functions of A   symmetry.
 There are   211 symmetry adapted basis functions of A   symmetry.
   211 basis functions,   502 primitive gaussians,   224 cartesian basis functions
    50 alpha electrons       50 beta electrons
       nuclear repulsion energy       852.7701544721 Hartrees.
 IExCor=32609 DFT=T Ex+Corr=LC-wPBE ExCW=0 ScaHFX=  1.000000
 ScaDFX=  1.000000  0.000000  1.000000  1.000000 ScalE2=  1.000000  1.000000
 IRadAn=      5 IRanWt=     -1 IRanGd=            0 ICorTp=0 IEmpDi=  4
 HFx  wShort=  0.000000 wLong=  0.440800 cFull=  0.000000 cShort=  0.000000 cLong=  1.000000
 DFx  wShort=  0.000000 wLong=  0.440800 cFull=  0.000000 cShort=  0.000000 cLong=  1.000000
 NAtoms=   18 NActive=   18 NUniq=   18 SFac= 1.00D+00 NAtFMM=   60 NAOKFM=F Big=F
 Integral buffers will be    131072 words long.
 Raffenetti 2 integral format.
 Two-electron integral symmetry is turned on.
 Leave Link  301 at Sun Jul 26 12:21:19 2020, MaxMem=  4026531840 cpu:               0.4 elap:               0.1
 (Enter /opt/ohpc/pub/libs/gaussian/g16-A.03/sandybridge/g16/l302.exe)
 NPDir=0 NMtPBC=     1 NCelOv=     1 NCel=       1 NClECP=     1 NCelD=      1
         NCelK=      1 NCelE2=     1 NClLst=     1 CellRange=     0.0.
 One-electron integrals computed using PRISM.
 One-electron integral symmetry used in STVInt
 NBasis=   211 RedAO= T EigKep=  4.68D-04  NBF=   211
 NBsUse=   211 1.00D-06 EigRej= -1.00D+00 NBFU=   211
 Precomputing XC quadrature grid using
 IXCGrd= 4 IRadAn=           5 IRanWt=          -1 IRanGd=           0 AccXCQ= 0.00D+00.
 Generated NRdTot=       0 NPtTot=           0 NUsed=           0 NTot=          32
 NSgBfM=   224   224   224   224   224 MxSgAt=    18 MxSgA2=    18.
 Leave Link  302 at Sun Jul 26 12:21:19 2020, MaxMem=  4026531840 cpu:               2.1 elap:               0.3
 (Enter /opt/ohpc/pub/libs/gaussian/g16-A.03/sandybridge/g16/l303.exe)
 DipDrv:  MaxL=1.
 Leave Link  303 at Sun Jul 26 12:21:19 2020, MaxMem=  4026531840 cpu:               0.6 elap:               0.1
 (Enter /opt/ohpc/pub/libs/gaussian/g16-A.03/sandybridge/g16/l401.exe)
 ExpMin= 1.22D-01 ExpMax= 1.11D+05 ExpMxC= 1.07D+03 IAcc=3 IRadAn=         5 AccDes= 0.00D+00
 Harris functional with IExCor=32609 and IRadAn=       5 diagonalized for initial guess.
 HarFok:  IExCor=32609 AccDes= 0.00D+00 IRadAn=         5 IDoV= 1 UseB2=F ITyADJ=14
 ICtDFT=  3500011 ScaDFX=  1.000000  1.000000  1.000000  1.000000
 FoFCou: FMM=F IPFlag=           0 FMFlag=      100000 FMFlg1=           0
         NFxFlg=           0 DoJE=T BraDBF=F KetDBF=T FulRan=T
         wScrn=  0.000000 ICntrl=       500 IOpCl=  0 I1Cent=   200000004 NGrid=           0
         NMat0=    1 NMatS0=      1 NMatT0=    0 NMatD0=    1 NMtDS0=    0 NMtDT0=    0
 Petite list used in FoFCou.
 Harris En= -997.897756027760    
 JPrj=0 DoOrth=F DoCkMO=F.
 Initial guess <Sx>= 0.0000 <Sy>= 0.0000 <Sz>= 0.0000 <S**2>=-0.0000 S=-0.0000
 Leave Link  401 at Sun Jul 26 12:21:20 2020, MaxMem=  4026531840 cpu:               7.9 elap:               1.0
 (Enter /opt/ohpc/pub/libs/gaussian/g16-A.03/sandybridge/g16/l502.exe)
 Integral symmetry usage will be decided dynamically.
 UHF open shell SCF:
 Using DIIS extrapolation, IDIIS=  1040.
 NGot=  4026531840 LenX=  4026427352 LenY=  4026376735
 Requested convergence on RMS density matrix=1.00D-08 within 128 cycles.
 Requested convergence on MAX density matrix=1.00D-06.
 Requested convergence on             energy=1.00D-06.
 No special actions if energy rises.
 Fock matrices will be formed incrementally for  20 cycles.
 Integral accuracy reduced to 1.0D-05 until final iterations.

 Cycle   1  Pass 0  IDiag  1:
 FoFJK:  IHMeth= 1 ICntrl=       0 DoSepK=T KAlg= 0 I1Cent=           0 FoldK=F
 IRaf=         1 NMat=       1 IRICut=       1 DoRegI=T DoRafI=F ISym2E= 0 IDoP0=0 IntGTp=1.
 FoFCou: FMM=F IPFlag=           0 FMFlag=      100000 FMFlg1=           0
         NFxFlg=           0 DoJE=T BraDBF=F KetDBF=F FulRan=T
         wScrn=  0.000000 ICntrl=       500 IOpCl=  0 I1Cent=           0 NGrid=           0
         NMat0=    1 NMatS0=      1 NMatT0=    0 NMatD0=    1 NMtDS0=    0 NMtDT0=    0
 Symmetry not used in FoFCou.
 E= -997.816197128312    
 DIIS: error= 2.10D-02 at cycle   1 NSaved=   1.
 NSaved= 1 IEnMin= 1 EnMin= -997.816197128312     IErMin= 1 ErrMin= 2.10D-02
 ErrMax= 2.10D-02  0.00D+00 EMaxC= 1.00D-01 BMatC= 8.93D-01 BMatP= 8.93D-01
 IDIUse=3 WtCom= 7.90D-01 WtEn= 2.10D-01
 Coeff-Com:  0.100D+01
 Coeff-En:   0.100D+01
 Coeff:      0.100D+01
 Gap=     0.413 Goal=   None    Shift=    0.000
 Gap=     0.413 Goal=   None    Shift=    0.000
 GapD=    0.413 DampG=2.000 DampE=0.500 DampFc=1.0000 IDamp=-1.
 RMSDP=4.13D-03 MaxDP=1.24D-01              OVMax= 1.72D-01

 Cycle   2  Pass 0  IDiag  1:
 RMSU=  4.11D-03    CP:  9.84D-01
 E= -997.927794761247     Delta-E=       -0.111597632934 Rises=F Damp=F
 DIIS: error= 1.51D-02 at cycle   2 NSaved=   2.
 NSaved= 2 IEnMin= 2 EnMin= -997.927794761247     IErMin= 2 ErrMin= 1.51D-02
 ErrMax= 1.51D-02  0.00D+00 EMaxC= 1.00D-01 BMatC= 5.25D-01 BMatP= 8.93D-01
 IDIUse=3 WtCom= 8.49D-01 WtEn= 1.51D-01
 Coeff-Com:  0.430D+00 0.570D+00
 Coeff-En:   0.310D+00 0.690D+00
 Coeff:      0.412D+00 0.588D+00
 Gap=     0.361 Goal=   None    Shift=    0.000
 Gap=     0.361 Goal=   None    Shift=    0.000
 RMSDP=1.76D-03 MaxDP=6.63D-02 DE=-1.12D-01 OVMax= 1.02D-01

 Cycle   3  Pass 0  IDiag  1:
 RMSU=  1.17D-03    CP:  9.87D-01  6.78D-01
 E= -998.060061774448     Delta-E=       -0.132267013202 Rises=F Damp=F
 DIIS: error= 3.55D-03 at cycle   3 NSaved=   3.
 NSaved= 3 IEnMin= 3 EnMin= -998.060061774448     IErMin= 3 ErrMin= 3.55D-03
 ErrMax= 3.55D-03  0.00D+00 EMaxC= 1.00D-01 BMatC= 9.94D-03 BMatP= 5.25D-01
 IDIUse=3 WtCom= 9.65D-01 WtEn= 3.55D-02
 Coeff-Com:  0.677D-01 0.145D+00 0.787D+00
 Coeff-En:   0.000D+00 0.000D+00 0.100D+01
 Coeff:      0.653D-01 0.140D+00 0.795D+00
 Gap=     0.351 Goal=   None    Shift=    0.000
 Gap=     0.351 Goal=   None    Shift=    0.000
 RMSDP=3.61D-04 MaxDP=1.03D-02 DE=-1.32D-01 OVMax= 2.70D-02

 Cycle   4  Pass 0  IDiag  1:
 RMSU=  3.22D-04    CP:  9.86D-01  7.07D-01  9.06D-01
 E= -998.062656181622     Delta-E=       -0.002594407173 Rises=F Damp=F
 DIIS: error= 1.50D-03 at cycle   4 NSaved=   4.
 NSaved= 4 IEnMin= 4 EnMin= -998.062656181622     IErMin= 4 ErrMin= 1.50D-03
 ErrMax= 1.50D-03  0.00D+00 EMaxC= 1.00D-01 BMatC= 2.79D-03 BMatP= 9.94D-03
 IDIUse=3 WtCom= 9.85D-01 WtEn= 1.50D-02
 Coeff-Com: -0.133D-01-0.411D-02 0.348D+00 0.669D+00
 Coeff-En:   0.000D+00 0.000D+00 0.000D+00 0.100D+01
 Coeff:     -0.131D-01-0.405D-02 0.343D+00 0.674D+00
 Gap=     0.351 Goal=   None    Shift=    0.000
 Gap=     0.351 Goal=   None    Shift=    0.000
 RMSDP=1.43D-04 MaxDP=4.90D-03 DE=-2.59D-03 OVMax= 8.29D-03

 Cycle   5  Pass 0  IDiag  1:
 RMSU=  1.08D-04    CP:  9.86D-01  7.10D-01  9.75D-01  8.54D-01
 E= -998.063468123624     Delta-E=       -0.000811942002 Rises=F Damp=F
 DIIS: error= 4.59D-04 at cycle   5 NSaved=   5.
 NSaved= 5 IEnMin= 5 EnMin= -998.063468123624     IErMin= 5 ErrMin= 4.59D-04
 ErrMax= 4.59D-04  0.00D+00 EMaxC= 1.00D-01 BMatC= 2.21D-04 BMatP= 2.79D-03
 IDIUse=3 WtCom= 9.95D-01 WtEn= 4.59D-03
 Coeff-Com: -0.125D-01-0.228D-01 0.181D-01 0.203D+00 0.814D+00
 Coeff-En:   0.000D+00 0.000D+00 0.000D+00 0.000D+00 0.100D+01
 Coeff:     -0.124D-01-0.227D-01 0.181D-01 0.202D+00 0.815D+00
 Gap=     0.352 Goal=   None    Shift=    0.000
 Gap=     0.352 Goal=   None    Shift=    0.000
 RMSDP=6.33D-05 MaxDP=2.24D-03 DE=-8.12D-04 OVMax= 5.22D-03

 Cycle   6  Pass 0  IDiag  1:
 RMSU=  4.21D-05    CP:  9.86D-01  7.11D-01  9.96D-01  9.70D-01  1.14D+00
 E= -998.063587099157     Delta-E=       -0.000118975534 Rises=F Damp=F
 DIIS: error= 2.10D-04 at cycle   6 NSaved=   6.
 NSaved= 6 IEnMin= 6 EnMin= -998.063587099157     IErMin= 6 ErrMin= 2.10D-04
 ErrMax= 2.10D-04  0.00D+00 EMaxC= 1.00D-01 BMatC= 3.48D-05 BMatP= 2.21D-04
 IDIUse=3 WtCom= 9.98D-01 WtEn= 2.10D-03
 Coeff-Com: -0.178D-02-0.777D-02-0.466D-01-0.502D-01 0.164D+00 0.942D+00
 Coeff-En:   0.000D+00 0.000D+00 0.000D+00 0.000D+00 0.000D+00 0.100D+01
 Coeff:     -0.177D-02-0.776D-02-0.465D-01-0.501D-01 0.164D+00 0.942D+00
 Gap=     0.352 Goal=   None    Shift=    0.000
 Gap=     0.352 Goal=   None    Shift=    0.000
 RMSDP=3.62D-05 MaxDP=1.57D-03 DE=-1.19D-04 OVMax= 4.17D-03

 Cycle   7  Pass 0  IDiag  1:
 RMSU=  1.80D-05    CP:  9.86D-01  7.11D-01  1.00D+00  1.01D+00  1.35D+00
                    CP:  1.31D+00
 E= -998.063621103812     Delta-E=       -0.000034004655 Rises=F Damp=F
 DIIS: error= 1.03D-04 at cycle   7 NSaved=   7.
 NSaved= 7 IEnMin= 7 EnMin= -998.063621103812     IErMin= 7 ErrMin= 1.03D-04
 ErrMax= 1.03D-04  0.00D+00 EMaxC= 1.00D-01 BMatC= 7.95D-06 BMatP= 3.48D-05
 IDIUse=3 WtCom= 9.99D-01 WtEn= 1.03D-03
 Coeff-Com:  0.180D-02 0.205D-02-0.117D-01-0.525D-01-0.158D+00 0.214D+00
 Coeff-Com:  0.100D+01
 Coeff-En:   0.000D+00 0.000D+00 0.000D+00 0.000D+00 0.000D+00 0.000D+00
 Coeff-En:   0.100D+01
 Coeff:      0.180D-02 0.205D-02-0.117D-01-0.524D-01-0.157D+00 0.214D+00
 Coeff:      0.100D+01
 Gap=     0.352 Goal=   None    Shift=    0.000
 Gap=     0.352 Goal=   None    Shift=    0.000
 RMSDP=2.22D-05 MaxDP=8.62D-04 DE=-3.40D-05 OVMax= 2.38D-03

 Cycle   8  Pass 0  IDiag  1:
 RMSU=  7.80D-06    CP:  9.86D-01  7.11D-01  1.01D+00  1.04D+00  1.45D+00
                    CP:  1.65D+00  1.28D+00
 E= -998.063629071814     Delta-E=       -0.000007968001 Rises=F Damp=F
 DIIS: error= 3.85D-05 at cycle   8 NSaved=   8.
 NSaved= 8 IEnMin= 8 EnMin= -998.063629071814     IErMin= 8 ErrMin= 3.85D-05
 ErrMax= 3.85D-05  0.00D+00 EMaxC= 1.00D-01 BMatC= 1.52D-06 BMatP= 7.95D-06
 IDIUse=1 WtCom= 1.00D+00 WtEn= 0.00D+00
 Coeff-Com:  0.105D-02 0.197D-02 0.302D-02-0.115D-01-0.856D-01-0.670D-01
 Coeff-Com:  0.382D+00 0.776D+00
 Coeff:      0.105D-02 0.197D-02 0.302D-02-0.115D-01-0.856D-01-0.670D-01
 Coeff:      0.382D+00 0.776D+00
 Gap=     0.352 Goal=   None    Shift=    0.000
 Gap=     0.352 Goal=   None    Shift=    0.000
 RMSDP=6.85D-06 MaxDP=2.55D-04 DE=-7.97D-06 OVMax= 7.25D-04

 Initial convergence to 1.0D-05 achieved.  Increase integral accuracy.
 Cycle   9  Pass 1  IDiag  1:
 E= -998.063478923794     Delta-E=        0.000150148019 Rises=F Damp=F
 DIIS: error= 4.03D-05 at cycle   1 NSaved=   1.
 NSaved= 1 IEnMin= 1 EnMin= -998.063478923794     IErMin= 1 ErrMin= 4.03D-05
 ErrMax= 4.03D-05  0.00D+00 EMaxC= 1.00D-01 BMatC= 1.01D-06 BMatP= 1.01D-06
 IDIUse=1 WtCom= 1.00D+00 WtEn= 0.00D+00
 Coeff-Com:  0.100D+01
 Coeff:      0.100D+01
 Gap=     0.352 Goal=   None    Shift=    0.000
 Gap=     0.352 Goal=   None    Shift=    0.000
 RMSDP=6.85D-06 MaxDP=2.55D-04 DE= 1.50D-04 OVMax= 1.46D-04

 Cycle  10  Pass 1  IDiag  1:
 RMSU=  2.23D-05    CP:  1.00D+00
 E= -998.063479112157     Delta-E=       -0.000000188362 Rises=F Damp=F
 DIIS: error= 7.64D-06 at cycle   2 NSaved=   2.
 NSaved= 2 IEnMin= 2 EnMin= -998.063479112157     IErMin= 2 ErrMin= 7.64D-06
 ErrMax= 7.64D-06  0.00D+00 EMaxC= 1.00D-01 BMatC= 6.61D-08 BMatP= 1.01D-06
 IDIUse=1 WtCom= 1.00D+00 WtEn= 0.00D+00
 Coeff-Com:  0.505D-01 0.950D+00
 Coeff:      0.505D-01 0.950D+00
 Gap=     0.352 Goal=   None    Shift=    0.000
 Gap=     0.352 Goal=   None    Shift=    0.000
 RMSDP=1.67D-06 MaxDP=3.60D-05 DE=-1.88D-07 OVMax= 8.21D-05

 Cycle  11  Pass 1  IDiag  1:
 RMSU=  1.27D-06    CP:  1.00D+00  1.05D+00
 E= -998.063479169191     Delta-E=       -0.000000057034 Rises=F Damp=F
 DIIS: error= 6.85D-06 at cycle   3 NSaved=   3.
 NSaved= 3 IEnMin= 3 EnMin= -998.063479169191     IErMin= 3 ErrMin= 6.85D-06
 ErrMax= 6.85D-06  0.00D+00 EMaxC= 1.00D-01 BMatC= 4.88D-08 BMatP= 6.61D-08
 IDIUse=1 WtCom= 1.00D+00 WtEn= 0.00D+00
 Coeff-Com: -0.347D-01 0.459D+00 0.576D+00
 Coeff:     -0.347D-01 0.459D+00 0.576D+00
 Gap=     0.352 Goal=   None    Shift=    0.000
 Gap=     0.352 Goal=   None    Shift=    0.000
 RMSDP=6.20D-07 MaxDP=1.83D-05 DE=-5.70D-08 OVMax= 3.46D-05

 Cycle  12  Pass 1  IDiag  1:
 RMSU=  5.58D-07    CP:  1.00D+00  1.06D+00  8.94D-01
 E= -998.063479149154     Delta-E=        0.000000020037 Rises=F Damp=F
 DIIS: error= 2.31D-06 at cycle   4 NSaved=   4.
 NSaved= 4 IEnMin= 3 EnMin= -998.063479169191     IErMin= 4 ErrMin= 2.31D-06
 ErrMax= 2.31D-06  0.00D+00 EMaxC= 1.00D-01 BMatC= 3.11D-09 BMatP= 4.88D-08
 IDIUse=1 WtCom= 1.00D+00 WtEn= 0.00D+00
 Coeff-Com: -0.404D-03-0.216D+00-0.134D+00 0.135D+01
 Coeff:     -0.404D-03-0.216D+00-0.134D+00 0.135D+01
 Gap=     0.352 Goal=   None    Shift=    0.000
 Gap=     0.352 Goal=   None    Shift=    0.000
 RMSDP=5.04D-07 MaxDP=1.72D-05 DE= 2.00D-08 OVMax= 4.85D-05

 Cycle  13  Pass 1  IDiag  1:
 RMSU=  2.16D-07    CP:  1.00D+00  1.06D+00  1.15D+00  1.57D+00
 E= -998.063479153911     Delta-E=       -0.000000004757 Rises=F Damp=F
 DIIS: error= 1.17D-06 at cycle   5 NSaved=   5.
 NSaved= 5 IEnMin= 3 EnMin= -998.063479169191     IErMin= 5 ErrMin= 1.17D-06
 ErrMax= 1.17D-06  0.00D+00 EMaxC= 1.00D-01 BMatC= 1.05D-09 BMatP= 3.11D-09
 IDIUse=1 WtCom= 1.00D+00 WtEn= 0.00D+00
 Coeff-Com:  0.841D-02-0.206D+00-0.211D+00 0.584D+00 0.825D+00
 Coeff:      0.841D-02-0.206D+00-0.211D+00 0.584D+00 0.825D+00
 Gap=     0.352 Goal=   None    Shift=    0.000
 Gap=     0.352 Goal=   None    Shift=    0.000
 RMSDP=2.32D-07 MaxDP=7.25D-06 DE=-4.76D-09 OVMax= 2.22D-05

 Cycle  14  Pass 1  IDiag  1:
 RMSU=  9.75D-08    CP:  1.00D+00  1.06D+00  1.24D+00  1.87D+00  1.22D+00
 E= -998.063479154833     Delta-E=       -0.000000000922 Rises=F Damp=F
 DIIS: error= 3.44D-07 at cycle   6 NSaved=   6.
 NSaved= 6 IEnMin= 3 EnMin= -998.063479169191     IErMin= 6 ErrMin= 3.44D-07
 ErrMax= 3.44D-07  0.00D+00 EMaxC= 1.00D-01 BMatC= 7.84D-11 BMatP= 1.05D-09
 IDIUse=1 WtCom= 1.00D+00 WtEn= 0.00D+00
 Coeff-Com:  0.174D-02-0.227D-01-0.341D-01 0.171D-02 0.195D+00 0.858D+00
 Coeff:      0.174D-02-0.227D-01-0.341D-01 0.171D-02 0.195D+00 0.858D+00
 Gap=     0.352 Goal=   None    Shift=    0.000
 Gap=     0.352 Goal=   None    Shift=    0.000
 RMSDP=5.03D-08 MaxDP=1.24D-06 DE=-9.22D-10 OVMax= 4.71D-06

 Cycle  15  Pass 1  IDiag  1:
 RMSU=  3.09D-08    CP:  1.00D+00  1.06D+00  1.25D+00  1.90D+00  1.36D+00
                    CP:  1.11D+00
 E= -998.063479154868     Delta-E=       -0.000000000035 Rises=F Damp=F
 DIIS: error= 1.61D-07 at cycle   7 NSaved=   7.
 NSaved= 7 IEnMin= 3 EnMin= -998.063479169191     IErMin= 7 ErrMin= 1.61D-07
 ErrMax= 1.61D-07  0.00D+00 EMaxC= 1.00D-01 BMatC= 2.25D-11 BMatP= 7.84D-11
 IDIUse=1 WtCom= 1.00D+00 WtEn= 0.00D+00
 Coeff-Com: -0.146D-02 0.433D-01 0.396D-01-0.151D+00-0.135D+00 0.332D+00
 Coeff-Com:  0.872D+00
 Coeff:     -0.146D-02 0.433D-01 0.396D-01-0.151D+00-0.135D+00 0.332D+00
 Coeff:      0.872D+00
 Gap=     0.352 Goal=   None    Shift=    0.000
 Gap=     0.352 Goal=   None    Shift=    0.000
 RMSDP=2.98D-08 MaxDP=8.19D-07 DE=-3.48D-11 OVMax= 2.72D-06

 Cycle  16  Pass 1  IDiag  1:
 RMSU=  1.59D-08    CP:  1.00D+00  1.06D+00  1.25D+00  1.92D+00  1.42D+00
                    CP:  1.29D+00  1.24D+00
 E= -998.063479154868     Delta-E=        0.000000000000 Rises=F Damp=F
 DIIS: error= 4.58D-08 at cycle   8 NSaved=   8.
 NSaved= 8 IEnMin= 3 EnMin= -998.063479169191     IErMin= 8 ErrMin= 4.58D-08
 ErrMax= 4.58D-08  0.00D+00 EMaxC= 1.00D-01 BMatC= 1.48D-12 BMatP= 2.25D-11
 IDIUse=1 WtCom= 1.00D+00 WtEn= 0.00D+00
 Coeff-Com: -0.366D-03 0.771D-02 0.816D-02-0.180D-01-0.364D-01-0.576D-01
 Coeff-Com:  0.881D-01 0.101D+01
 Coeff:     -0.366D-03 0.771D-02 0.816D-02-0.180D-01-0.364D-01-0.576D-01
 Coeff:      0.881D-01 0.101D+01
 Gap=     0.352 Goal=   None    Shift=    0.000
 Gap=     0.352 Goal=   None    Shift=    0.000
 RMSDP=9.49D-09 MaxDP=2.11D-07 DE= 0.00D+00 OVMax= 9.81D-07

 SCF Done:  E(ULC-wPBE) =  -998.063479155     A.U. after   16 cycles
            NFock= 16  Conv=0.95D-08     -V/T= 2.0046
 <Sx>= 0.0000 <Sy>= 0.0000 <Sz>= 0.0000 <S**2>=-0.0000 S=-0.0000
 <L.S>= 0.000000000000E+00
 KE= 9.934467475762D+02 PE=-4.057955977190D+03 EE= 1.213675595987D+03
 Annihilation of the first spin contaminant:
 S**2 before annihilation    -0.0000,   after    -0.0000
 Leave Link  502 at Sun Jul 26 12:22:06 2020, MaxMem=  4026531840 cpu:             359.4 elap:              45.2
 (Enter /opt/ohpc/pub/libs/gaussian/g16-A.03/sandybridge/g16/l601.exe)
 Copying SCF densities to generalized density rwf, IOpCl= 1 IROHF=0.

 **********************************************************************

            Population analysis using the SCF density.

 **********************************************************************

 Orbital symmetries:
 Alpha Orbitals:
       Occupied  (A) (A) (A) (A) (A) (A) (A) (A) (A) (A) (A) (A)
                 (A) (A) (A) (A) (A) (A) (A) (A) (A) (A) (A) (A)
                 (A) (A) (A) (A) (A) (A) (A) (A) (A) (A) (A) (A)
                 (A) (A) (A) (A) (A) (A) (A) (A) (A) (A) (A) (A)
                 (A) (A)
       Virtual   (A) (A) (A) (A) (A) (A) (A) (A) (A) (A) (A) (A)
                 (A) (A) (A) (A) (A) (A) (A) (A) (A) (A) (A) (A)
                 (A) (A) (A) (A) (A) (A) (A) (A) (A) (A) (A) (A)
                 (A) (A) (A) (A) (A) (A) (A) (A) (A) (A) (A) (A)
                 (A) (A) (A) (A) (A) (A) (A) (A) (A) (A) (A) (A)
                 (A) (A) (A) (A) (A) (A) (A) (A) (A) (A) (A) (A)
                 (A) (A) (A) (A) (A) (A) (A) (A) (A) (A) (A) (A)
                 (A) (A) (A) (A) (A) (A) (A) (A) (A) (A) (A) (A)
                 (A) (A) (A) (A) (A) (A) (A) (A) (A) (A) (A) (A)
                 (A) (A) (A) (A) (A) (A) (A) (A) (A) (A) (A) (A)
                 (A) (A) (A) (A) (A) (A) (A) (A) (A) (A) (A) (A)
                 (A) (A) (A) (A) (A) (A) (A) (A) (A) (A) (A) (A)
                 (A) (A) (A) (A) (A) (A) (A) (A) (A) (A) (A) (A)
                 (A) (A) (A) (A) (A)
 Beta  Orbitals:
       Occupied  (A) (A) (A) (A) (A) (A) (A) (A) (A) (A) (A) (A)
                 (A) (A) (A) (A) (A) (A) (A) (A) (A) (A) (A) (A)
                 (A) (A) (A) (A) (A) (A) (A) (A) (A) (A) (A) (A)
                 (A) (A) (A) (A) (A) (A) (A) (A) (A) (A) (A) (A)
                 (A) (A)
       Virtual   (A) (A) (A) (A) (A) (A) (A) (A) (A) (A) (A) (A)
                 (A) (A) (A) (A) (A) (A) (A) (A) (A) (A) (A) (A)
                 (A) (A) (A) (A) (A) (A) (A) (A) (A) (A) (A) (A)
                 (A) (A) (A) (A) (A) (A) (A) (A) (A) (A) (A) (A)
                 (A) (A) (A) (A) (A) (A) (A) (A) (A) (A) (A) (A)
                 (A) (A) (A) (A) (A) (A) (A) (A) (A) (A) (A) (A)
                 (A) (A) (A) (A) (A) (A) (A) (A) (A) (A) (A) (A)
                 (A) (A) (A) (A) (A) (A) (A) (A) (A) (A) (A) (A)
                 (A) (A) (A) (A) (A) (A) (A) (A) (A) (A) (A) (A)
                 (A) (A) (A) (A) (A) (A) (A) (A) (A) (A) (A) (A)
                 (A) (A) (A) (A) (A) (A) (A) (A) (A) (A) (A) (A)
                 (A) (A) (A) (A) (A) (A) (A) (A) (A) (A) (A) (A)
                 (A) (A) (A) (A) (A) (A) (A) (A) (A) (A) (A) (A)
                 (A) (A) (A) (A) (A)
 The electronic state is 1-A.
 Alpha  occ. eigenvalues --  -88.35045 -24.51683 -24.51418 -14.25241 -10.24592
 Alpha  occ. eigenvalues --  -10.23515 -10.21461 -10.19593 -10.18875 -10.18642
 Alpha  occ. eigenvalues --  -10.17507 -10.17178 -10.15347  -7.95785  -5.97136
 Alpha  occ. eigenvalues --   -5.96600  -5.96204  -1.36295  -1.34136  -1.13848
 Alpha  occ. eigenvalues --   -1.07159  -0.99882  -0.95108  -0.90999  -0.89005
 Alpha  occ. eigenvalues --   -0.80528  -0.79913  -0.73045  -0.72027  -0.70321
 Alpha  occ. eigenvalues --   -0.66097  -0.65619  -0.62831  -0.61712  -0.59932
 Alpha  occ. eigenvalues --   -0.59443  -0.58267  -0.55600  -0.55490  -0.54763
 Alpha  occ. eigenvalues --   -0.52472  -0.51406  -0.51050  -0.48645  -0.47016
 Alpha  occ. eigenvalues --   -0.43953  -0.39284  -0.38716  -0.36580  -0.32814
 Alpha virt. eigenvalues --    0.02412   0.04874   0.10297   0.12736   0.14418
 Alpha virt. eigenvalues --    0.16973   0.17735   0.19575   0.20507   0.22019
 Alpha virt. eigenvalues --    0.22585   0.24051   0.27791   0.28253   0.32105
 Alpha virt. eigenvalues --    0.34801   0.36938   0.40241   0.43929   0.44524
 Alpha virt. eigenvalues --    0.45544   0.48070   0.50455   0.53073   0.54614
 Alpha virt. eigenvalues --    0.55134   0.56142   0.56952   0.57713   0.58937
 Alpha virt. eigenvalues --    0.59145   0.59336   0.60588   0.60666   0.61359
 Alpha virt. eigenvalues --    0.62440   0.62920   0.63179   0.65159   0.65590
 Alpha virt. eigenvalues --    0.68198   0.68894   0.69156   0.71176   0.72406
 Alpha virt. eigenvalues --    0.75008   0.76519   0.77155   0.77788   0.80297
 Alpha virt. eigenvalues --    0.81787   0.82536   0.83319   0.84302   0.85330
 Alpha virt. eigenvalues --    0.87209   0.88147   0.95728   0.97303   0.98907
 Alpha virt. eigenvalues --    0.99755   1.01465   1.02921   1.02999   1.04599
 Alpha virt. eigenvalues --    1.06387   1.07854   1.09561   1.10753   1.12450
 Alpha virt. eigenvalues --    1.12770   1.14040   1.15403   1.15917   1.17104
 Alpha virt. eigenvalues --    1.19892   1.22736   1.23726   1.25240   1.27187
 Alpha virt. eigenvalues --    1.31626   1.33880   1.35852   1.36350   1.39879
 Alpha virt. eigenvalues --    1.41760   1.43462   1.44245   1.49651   1.50739
 Alpha virt. eigenvalues --    1.52078   1.52924   1.56521   1.59036   1.60159
 Alpha virt. eigenvalues --    1.62174   1.62401   1.63092   1.63706   1.66156
 Alpha virt. eigenvalues --    1.69970   1.71122   1.72037   1.73716   1.75359
 Alpha virt. eigenvalues --    1.78002   1.79771   1.80643   1.83516   1.85673
 Alpha virt. eigenvalues --    1.86184   1.87549   1.89489   1.90333   1.92033
 Alpha virt. eigenvalues --    1.93587   1.96457   1.99499   2.00934   2.01370
 Alpha virt. eigenvalues --    2.02021   2.05545   2.07002   2.08239   2.09545
 Alpha virt. eigenvalues --    2.14656   2.15134   2.15919   2.19436   2.24658
 Alpha virt. eigenvalues --    2.28565   2.28828   2.38959   2.41441   2.43179
 Alpha virt. eigenvalues --    2.48325   2.52246   2.54948   2.57007   2.58883
 Alpha virt. eigenvalues --    2.61863   2.63810   2.68322   2.68910   2.72224
 Alpha virt. eigenvalues --    2.81760   2.86587   3.00973   3.05763   3.16646
 Alpha virt. eigenvalues --    3.49114   3.69831   3.70012   3.72144   3.74457
 Alpha virt. eigenvalues --    3.85532   3.90005   4.04938   4.11107   4.26148
 Alpha virt. eigenvalues --    4.33858
  Beta  occ. eigenvalues --  -88.35045 -24.51683 -24.51418 -14.25241 -10.24592
  Beta  occ. eigenvalues --  -10.23515 -10.21461 -10.19593 -10.18875 -10.18642
  Beta  occ. eigenvalues --  -10.17507 -10.17178 -10.15347  -7.95785  -5.97136
  Beta  occ. eigenvalues --   -5.96600  -5.96204  -1.36295  -1.34136  -1.13848
  Beta  occ. eigenvalues --   -1.07159  -0.99882  -0.95108  -0.90999  -0.89005
  Beta  occ. eigenvalues --   -0.80528  -0.79913  -0.73045  -0.72027  -0.70321
  Beta  occ. eigenvalues --   -0.66097  -0.65619  -0.62831  -0.61712  -0.59932
  Beta  occ. eigenvalues --   -0.59443  -0.58267  -0.55600  -0.55490  -0.54763
  Beta  occ. eigenvalues --   -0.52472  -0.51406  -0.51050  -0.48645  -0.47016
  Beta  occ. eigenvalues --   -0.43953  -0.39284  -0.38716  -0.36580  -0.32814
  Beta virt. eigenvalues --    0.02412   0.04874   0.10297   0.12736   0.14418
  Beta virt. eigenvalues --    0.16973   0.17735   0.19575   0.20507   0.22019
  Beta virt. eigenvalues --    0.22585   0.24051   0.27791   0.28253   0.32105
  Beta virt. eigenvalues --    0.34801   0.36938   0.40241   0.43929   0.44524
  Beta virt. eigenvalues --    0.45544   0.48070   0.50455   0.53073   0.54614
  Beta virt. eigenvalues --    0.55134   0.56142   0.56952   0.57713   0.58937
  Beta virt. eigenvalues --    0.59145   0.59336   0.60588   0.60666   0.61359
  Beta virt. eigenvalues --    0.62440   0.62920   0.63179   0.65159   0.65590
  Beta virt. eigenvalues --    0.68198   0.68894   0.69156   0.71176   0.72406
  Beta virt. eigenvalues --    0.75008   0.76519   0.77155   0.77788   0.80297
  Beta virt. eigenvalues --    0.81787   0.82536   0.83319   0.84302   0.85330
  Beta virt. eigenvalues --    0.87209   0.88147   0.95728   0.97303   0.98907
  Beta virt. eigenvalues --    0.99755   1.01465   1.02921   1.02999   1.04599
  Beta virt. eigenvalues --    1.06387   1.07854   1.09561   1.10753   1.12450
  Beta virt. eigenvalues --    1.12770   1.14040   1.15403   1.15917   1.17104
  Beta virt. eigenvalues --    1.19892   1.22736   1.23726   1.25240   1.27187
  Beta virt. eigenvalues --    1.31626   1.33880   1.35852   1.36350   1.39879
  Beta virt. eigenvalues --    1.41760   1.43462   1.44245   1.49651   1.50739
  Beta virt. eigenvalues --    1.52078   1.52924   1.56521   1.59036   1.60159
  Beta virt. eigenvalues --    1.62174   1.62401   1.63092   1.63706   1.66156
  Beta virt. eigenvalues --    1.69970   1.71122   1.72037   1.73716   1.75359
  Beta virt. eigenvalues --    1.78002   1.79771   1.80643   1.83516   1.85673
  Beta virt. eigenvalues --    1.86184   1.87549   1.89489   1.90333   1.92033
  Beta virt. eigenvalues --    1.93587   1.96457   1.99499   2.00934   2.01370
  Beta virt. eigenvalues --    2.02021   2.05545   2.07002   2.08239   2.09545
  Beta virt. eigenvalues --    2.14656   2.15134   2.15919   2.19436   2.24658
  Beta virt. eigenvalues --    2.28565   2.28828   2.38959   2.41441   2.43179
  Beta virt. eigenvalues --    2.48325   2.52246   2.54948   2.57007   2.58883
  Beta virt. eigenvalues --    2.61863   2.63810   2.68322   2.68910   2.72224
  Beta virt. eigenvalues --    2.81760   2.86587   3.00973   3.05763   3.16646
  Beta virt. eigenvalues --    3.49114   3.69831   3.70012   3.72144   3.74457
  Beta virt. eigenvalues --    3.85532   3.90005   4.04938   4.11107   4.26148
  Beta virt. eigenvalues --    4.33858
          Condensed to atoms (all electrons):
               1          2          3          4          5          6
     1  C    4.898437   0.508777  -0.043308  -0.038822   0.015571   0.004894
     2  C    0.508777   4.675236   0.546459  -0.095054  -0.056129   0.000195
     3  N   -0.043308   0.546459   6.256475   0.621018  -0.047172   0.001208
     4  C   -0.038822  -0.095054   0.621018   5.078406   0.213182  -0.056786
     5  C    0.015571  -0.056129  -0.047172   0.213182   5.093974   0.401817
     6  F    0.004894   0.000195   0.001208  -0.056786   0.401817   8.868668
     7  C    0.445868  -0.035589  -0.040453  -0.046778   0.480358  -0.048233
     8  C    0.000076   0.006284  -0.065627   0.264677  -0.121265  -0.001315
     9  C   -0.000109  -0.000043   0.002530  -0.065540  -0.024017   0.005216
    10  F   -0.000005   0.000002   0.000023  -0.001596   0.003641  -0.009958
    11  C   -0.000003   0.000006  -0.000135   0.008024  -0.000108   0.000387
    12  C    0.000001   0.000005   0.000635   0.002770  -0.000157  -0.000011
    13  S    0.000123   0.000125   0.014936  -0.050983   0.005383   0.000008
    14  H    0.393737  -0.036477   0.004558  -0.000036   0.007426  -0.000031
    15  H   -0.047641   0.414892  -0.024624   0.001127   0.000595   0.000004
    16  H   -0.048489   0.006723  -0.000768   0.010627  -0.036590   0.000772
    17  H    0.000000  -0.000000   0.000000  -0.000167   0.000039   0.000009
    18  H    0.000000   0.000000   0.000001  -0.000229   0.000001  -0.000000
               7          8          9         10         11         12
     1  C    0.445868   0.000076  -0.000109  -0.000005  -0.000003   0.000001
     2  C   -0.035589   0.006284  -0.000043   0.000002   0.000006   0.000005
     3  N   -0.040453  -0.065627   0.002530   0.000023  -0.000135   0.000635
     4  C   -0.046778   0.264677  -0.065540  -0.001596   0.008024   0.002770
     5  C    0.480358  -0.121265  -0.024017   0.003641  -0.000108  -0.000157
     6  F   -0.048233  -0.001315   0.005216  -0.009958   0.000387  -0.000011
     7  C    4.773707   0.005151   0.000607   0.000245   0.000013   0.000001
     8  C    0.005151   5.729377   0.313166  -0.076597  -0.071135  -0.104360
     9  C    0.000607   0.313166   4.866382   0.456680   0.440024  -0.006832
    10  F    0.000245  -0.076597   0.456680   8.803465  -0.052605   0.003870
    11  C    0.000013  -0.071135   0.440024  -0.052605   4.804860   0.510029
    12  C    0.000001  -0.104360  -0.006832   0.003870   0.510029   5.040566
    13  S   -0.000042   0.325089  -0.063527   0.002117  -0.094740   0.375500
    14  H   -0.037988   0.000044   0.000000  -0.000000   0.000000  -0.000000
    15  H    0.004795  -0.000577   0.000011  -0.000000   0.000000  -0.000001
    16  H    0.408004  -0.000175   0.000016   0.000014  -0.000000   0.000000
    17  H    0.000000   0.012980  -0.030847   0.000192   0.405656  -0.051440
    18  H   -0.000000   0.001410   0.006308  -0.000018  -0.021022   0.404359
              13         14         15         16         17         18
     1  C    0.000123   0.393737  -0.047641  -0.048489   0.000000   0.000000
     2  C    0.000125  -0.036477   0.414892   0.006723  -0.000000   0.000000
     3  N    0.014936   0.004558  -0.024624  -0.000768   0.000000   0.000001
     4  C   -0.050983  -0.000036   0.001127   0.010627  -0.000167  -0.000229
     5  C    0.005383   0.007426   0.000595  -0.036590   0.000039   0.000001
     6  F    0.000008  -0.000031   0.000004   0.000772   0.000009  -0.000000
     7  C   -0.000042  -0.037988   0.004795   0.408004   0.000000  -0.000000
     8  C    0.325089   0.000044  -0.000577  -0.000175   0.012980   0.001410
     9  C   -0.063527   0.000000   0.000011   0.000016  -0.030847   0.006308
    10  F    0.002117  -0.000000  -0.000000   0.000014   0.000192  -0.000018
    11  C   -0.094740   0.000000   0.000000  -0.000000   0.405656  -0.021022
    12  C    0.375500  -0.000000  -0.000001   0.000000  -0.051440   0.404359
    13  S   15.306113  -0.000003  -0.000092   0.000004   0.005831  -0.038107
    14  H   -0.000003   0.635580  -0.006572  -0.011460  -0.000000  -0.000000
    15  H   -0.000092  -0.006572   0.611628  -0.000115  -0.000000  -0.000000
    16  H    0.000004  -0.011460  -0.000115   0.624173  -0.000000   0.000000
    17  H    0.005831  -0.000000  -0.000000  -0.000000   0.637389  -0.006484
    18  H   -0.038107  -0.000000  -0.000000   0.000000  -0.006484   0.579883
          Atomic-Atomic Spin Densities.
               1          2          3          4          5          6
     1  C    0.000000   0.000000  -0.000000   0.000000  -0.000000  -0.000000
     2  C    0.000000  -0.000000  -0.000000   0.000000   0.000000   0.000000
     3  N   -0.000000  -0.000000  -0.000000   0.000000  -0.000000   0.000000
     4  C    0.000000   0.000000   0.000000   0.000000   0.000000   0.000000
     5  C   -0.000000   0.000000  -0.000000   0.000000  -0.000000  -0.000000
     6  F   -0.000000   0.000000   0.000000   0.000000  -0.000000  -0.000000
     7  C    0.000000  -0.000000   0.000000  -0.000000   0.000000  -0.000000
     8  C    0.000000  -0.000000  -0.000000   0.000000  -0.000000   0.000000
     9  C    0.000000  -0.000000  -0.000000  -0.000000  -0.000000  -0.000000
    10  F    0.000000  -0.000000   0.000000  -0.000000   0.000000  -0.000000
    11  C   -0.000000   0.000000  -0.000000  -0.000000   0.000000   0.000000
    12  C    0.000000  -0.000000  -0.000000   0.000000   0.000000  -0.000000
    13  S   -0.000000   0.000000   0.000000   0.000000  -0.000000   0.000000
    14  H    0.000000   0.000000  -0.000000   0.000000  -0.000000  -0.000000
    15  H   -0.000000  -0.000000  -0.000000  -0.000000  -0.000000   0.000000
    16  H    0.000000  -0.000000   0.000000  -0.000000   0.000000   0.000000
    17  H    0.000000   0.000000  -0.000000   0.000000  -0.000000   0.000000
    18  H    0.000000  -0.000000  -0.000000   0.000000  -0.000000  -0.000000
               7          8          9         10         11         12
     1  C    0.000000   0.000000   0.000000   0.000000  -0.000000   0.000000
     2  C   -0.000000  -0.000000  -0.000000  -0.000000   0.000000  -0.000000
     3  N    0.000000  -0.000000  -0.000000   0.000000  -0.000000  -0.000000
     4  C   -0.000000   0.000000  -0.000000  -0.000000  -0.000000   0.000000
     5  C    0.000000  -0.000000  -0.000000   0.000000   0.000000   0.000000
     6  F   -0.000000   0.000000  -0.000000  -0.000000   0.000000  -0.000000
     7  C   -0.000000  -0.000000  -0.000000  -0.000000   0.000000  -0.000000
     8  C   -0.000000  -0.000000  -0.000000  -0.000000   0.000000  -0.000000
     9  C   -0.000000  -0.000000   0.000000   0.000000  -0.000000   0.000000
    10  F   -0.000000  -0.000000   0.000000  -0.000000  -0.000000   0.000000
    11  C    0.000000   0.000000  -0.000000  -0.000000   0.000000  -0.000000
    12  C   -0.000000  -0.000000   0.000000   0.000000  -0.000000  -0.000000
    13  S   -0.000000   0.000000  -0.000000  -0.000000   0.000000   0.000000
    14  H    0.000000   0.000000   0.000000   0.000000   0.000000   0.000000
    15  H    0.000000   0.000000  -0.000000  -0.000000  -0.000000   0.000000
    16  H   -0.000000   0.000000  -0.000000  -0.000000  -0.000000  -0.000000
    17  H   -0.000000   0.000000  -0.000000  -0.000000   0.000000  -0.000000
    18  H   -0.000000  -0.000000   0.000000   0.000000  -0.000000   0.000000
              13         14         15         16         17         18
     1  C   -0.000000   0.000000  -0.000000   0.000000   0.000000   0.000000
     2  C    0.000000   0.000000  -0.000000  -0.000000   0.000000  -0.000000
     3  N    0.000000  -0.000000  -0.000000   0.000000  -0.000000  -0.000000
     4  C    0.000000   0.000000  -0.000000  -0.000000   0.000000   0.000000
     5  C   -0.000000  -0.000000  -0.000000   0.000000  -0.000000  -0.000000
     6  F    0.000000  -0.000000   0.000000   0.000000   0.000000  -0.000000
     7  C   -0.000000   0.000000   0.000000  -0.000000  -0.000000  -0.000000
     8  C    0.000000   0.000000   0.000000   0.000000   0.000000  -0.000000
     9  C   -0.000000   0.000000  -0.000000  -0.000000  -0.000000   0.000000
    10  F   -0.000000   0.000000  -0.000000  -0.000000  -0.000000   0.000000
    11  C    0.000000   0.000000  -0.000000  -0.000000   0.000000  -0.000000
    12  C    0.000000   0.000000   0.000000  -0.000000  -0.000000   0.000000
    13  S   -0.000000  -0.000000   0.000000   0.000000  -0.000000  -0.000000
    14  H   -0.000000  -0.000000  -0.000000   0.000000   0.000000   0.000000
    15  H    0.000000  -0.000000   0.000000  -0.000000  -0.000000   0.000000
    16  H    0.000000   0.000000  -0.000000  -0.000000  -0.000000  -0.000000
    17  H   -0.000000   0.000000  -0.000000  -0.000000  -0.000000  -0.000000
    18  H   -0.000000   0.000000   0.000000  -0.000000  -0.000000   0.000000
 Mulliken charges and spin densities:
               1          2
     1  C   -0.089108   0.000000
     2  C    0.064589  -0.000000
     3  N   -0.225756  -0.000000
     4  C    0.156160   0.000000
     5  C    0.063452  -0.000000
     6  F   -0.166843   0.000000
     7  C    0.090334   0.000000
     8  C   -0.217203  -0.000000
     9  C    0.099974  -0.000000
    10  F   -0.129471  -0.000000
    11  C    0.070748   0.000000
    12  C   -0.174935  -0.000000
    13  S    0.212266  -0.000000
    14  H    0.051221  -0.000000
    15  H    0.046569   0.000000
    16  H    0.047263  -0.000000
    17  H    0.026843  -0.000000
    18  H    0.073897   0.000000
 Sum of Mulliken charges =  -0.00000  -0.00000
 Mulliken charges and spin densities with hydrogens summed into heavy atoms:
               1          2
     1  C   -0.037886   0.000000
     2  C    0.111158  -0.000000
     3  N   -0.225756  -0.000000
     4  C    0.156160   0.000000
     5  C    0.063452  -0.000000
     6  F   -0.166843   0.000000
     7  C    0.137597   0.000000
     8  C   -0.217203  -0.000000
     9  C    0.099974  -0.000000
    10  F   -0.129471  -0.000000
    11  C    0.097591   0.000000
    12  C   -0.101038  -0.000000
    13  S    0.212266  -0.000000
 Electronic spatial extent (au):  <R**2>=           2534.5395
 Charge=             -0.0000 electrons
 Dipole moment (field-independent basis, Debye):
    X=             -0.8368    Y=             -0.9067    Z=              0.0063  Tot=              1.2339
 Quadrupole moment (field-independent basis, Debye-Ang):
   XX=            -56.3110   YY=            -80.5559   ZZ=            -81.5809
   XY=             -0.0716   XZ=             -0.0295   YZ=              0.1594
 Traceless Quadrupole moment (field-independent basis, Debye-Ang):
   XX=             16.5049   YY=             -7.7400   ZZ=             -8.7649
   XY=             -0.0716   XZ=             -0.0295   YZ=              0.1594
 Octapole moment (field-independent basis, Debye-Ang**2):
  XXX=             -5.1492  YYY=             14.8743  ZZZ=             -0.4993  XYY=             -3.1554
  XXY=              0.3549  XXZ=             -0.5166  XZZ=             -0.1164  YZZ=             12.2817
  YYZ=             -0.0399  XYZ=             -0.1368
 Hexadecapole moment (field-independent basis, Debye-Ang**3):
 XXXX=          -1950.1960 YYYY=           -864.4542 ZZZZ=            -84.5653 XXXY=            -17.1068
 XXXZ=              1.2130 YYYX=             11.4539 YYYZ=              0.4375 ZZZX=              0.0087
 ZZZY=             -0.3709 XXYY=           -456.7133 XXZZ=           -440.2529 YYZZ=           -161.4162
 XXYZ=              2.3348 YYXZ=              0.4297 ZZXY=             -1.2525
 N-N= 8.527701544721D+02 E-N=-4.057955976856D+03  KE= 9.934467475762D+02
                          Isotropic Fermi Contact Couplings
        Atom                 a.u.       MegaHertz       Gauss      10(-4) cm-1
     1  C(13)              0.00000       0.00000       0.00000       0.00000
     2  C(13)             -0.00000      -0.00000      -0.00000      -0.00000
     3  N(14)             -0.00000      -0.00000      -0.00000      -0.00000
     4  C(13)              0.00000       0.00000       0.00000       0.00000
     5  C(13)             -0.00000      -0.00000      -0.00000      -0.00000
     6  F(19)             -0.00000      -0.00000      -0.00000      -0.00000
     7  C(13)             -0.00000      -0.00000      -0.00000      -0.00000
     8  C(13)             -0.00000      -0.00000      -0.00000      -0.00000
     9  C(13)              0.00000       0.00000       0.00000       0.00000
    10  F(19)             -0.00000      -0.00000      -0.00000      -0.00000
    11  C(13)              0.00000       0.00000       0.00000       0.00000
    12  C(13)             -0.00000      -0.00000      -0.00000      -0.00000
    13  S(33)             -0.00000      -0.00000      -0.00000      -0.00000
    14  H(1)              -0.00000      -0.00000      -0.00000      -0.00000
    15  H(1)               0.00000       0.00000       0.00000       0.00000
    16  H(1)              -0.00000      -0.00000      -0.00000      -0.00000
    17  H(1)              -0.00000      -0.00000      -0.00000      -0.00000
    18  H(1)               0.00000       0.00000       0.00000       0.00000
 --------------------------------------------------------
       Center         ----  Spin Dipole Couplings  ----
                      3XX-RR        3YY-RR        3ZZ-RR
 --------------------------------------------------------
     1   Atom       -0.000000      0.000000     -0.000000
     2   Atom       -0.000000     -0.000000      0.000000
     3   Atom       -0.000000      0.000000      0.000000
     4   Atom        0.000000      0.000000     -0.000000
     5   Atom       -0.000000     -0.000000      0.000000
     6   Atom        0.000000     -0.000000     -0.000000
     7   Atom        0.000000     -0.000000     -0.000000
     8   Atom       -0.000000     -0.000000      0.000000
     9   Atom       -0.000000      0.000000     -0.000000
    10   Atom        0.000000     -0.000000     -0.000000
    11   Atom        0.000000     -0.000000      0.000000
    12   Atom        0.000000     -0.000000      0.000000
    13   Atom        0.000000     -0.000000      0.000000
    14   Atom        0.000000     -0.000000     -0.000000
    15   Atom        0.000000      0.000000     -0.000000
    16   Atom       -0.000000      0.000000      0.000000
    17   Atom        0.000000     -0.000000     -0.000000
    18   Atom       -0.000000      0.000000      0.000000
 --------------------------------------------------------
                        XY            XZ            YZ
 --------------------------------------------------------
     1   Atom        0.000000      0.000000      0.000000
     2   Atom       -0.000000      0.000000     -0.000000
     3   Atom        0.000000      0.000000     -0.000000
     4   Atom       -0.000000      0.000000     -0.000000
     5   Atom       -0.000000     -0.000000      0.000000
     6   Atom       -0.000000     -0.000000      0.000000
     7   Atom        0.000000      0.000000      0.000000
     8   Atom        0.000000      0.000000     -0.000000
     9   Atom        0.000000      0.000000     -0.000000
    10   Atom       -0.000000      0.000000     -0.000000
    11   Atom        0.000000      0.000000     -0.000000
    12   Atom        0.000000      0.000000      0.000000
    13   Atom        0.000000     -0.000000      0.000000
    14   Atom        0.000000     -0.000000     -0.000000
    15   Atom        0.000000      0.000000      0.000000
    16   Atom       -0.000000      0.000000     -0.000000
    17   Atom        0.000000     -0.000000     -0.000000
    18   Atom        0.000000      0.000000     -0.000000
 --------------------------------------------------------


 ---------------------------------------------------------------------------------
              Anisotropic Spin Dipole Couplings in Principal Axis System
 ---------------------------------------------------------------------------------

       Atom             a.u.   MegaHertz   Gauss  10(-4) cm-1        Axes

              Baa    -0.0000    -0.000    -0.000    -0.000  0.8315 -0.5536  0.0466
     1 C(13)  Bbb    -0.0000    -0.000    -0.000    -0.000 -0.0525  0.0052  0.9986
              Bcc     0.0000     0.000     0.000     0.000  0.5530  0.8328  0.0247
 
              Baa    -0.0000    -0.000    -0.000    -0.000  0.7693  0.6389  0.0072
     2 C(13)  Bbb     0.0000     0.000     0.000     0.000 -0.1449  0.1635  0.9758
              Bcc     0.0000     0.000     0.000     0.000 -0.6222  0.7517 -0.2184
 
              Baa    -0.0000    -0.000    -0.000    -0.000  0.9941 -0.1085 -0.0060
     3 N(14)  Bbb     0.0000     0.000     0.000     0.000  0.0091  0.0278  0.9996
              Bcc     0.0000     0.000     0.000     0.000  0.1082  0.9937 -0.0287
 
              Baa    -0.0000    -0.000    -0.000    -0.000 -0.0291  0.0001  0.9996
     4 C(13)  Bbb     0.0000     0.000     0.000     0.000  0.8975  0.4403  0.0261
              Bcc     0.0000     0.000     0.000     0.000 -0.4401  0.8979 -0.0129
 
              Baa    -0.0000    -0.000    -0.000    -0.000  0.8458  0.5333  0.0139
     5 C(13)  Bbb     0.0000     0.000     0.000     0.000 -0.5264  0.8386 -0.1399
              Bcc     0.0000     0.000     0.000     0.000 -0.0862  0.1110  0.9901
 
              Baa    -0.0000    -0.000    -0.000    -0.000  0.2839  0.9584 -0.0305
     6 F(19)  Bbb    -0.0000    -0.000    -0.000    -0.000  0.2368 -0.0393  0.9708
              Bcc     0.0000     0.000     0.000     0.000  0.9291 -0.2828 -0.2381
 
              Baa    -0.0000    -0.000    -0.000    -0.000 -0.6141  0.7892  0.0005
     7 C(13)  Bbb    -0.0000    -0.000    -0.000    -0.000 -0.0582 -0.0460  0.9972
              Bcc     0.0000     0.000     0.000     0.000  0.7871  0.6124  0.0742
 
              Baa    -0.0000    -0.000    -0.000    -0.000 -0.0596  0.9982  0.0088
     8 C(13)  Bbb    -0.0000    -0.000    -0.000    -0.000  0.9982  0.0597 -0.0074
              Bcc     0.0000     0.000     0.000     0.000  0.0079 -0.0083  0.9999
 
              Baa    -0.0000    -0.000    -0.000    -0.000  0.8812 -0.4137 -0.2290
     9 C(13)  Bbb    -0.0000    -0.000    -0.000    -0.000  0.2176 -0.0752  0.9731
              Bcc     0.0000     0.000     0.000     0.000  0.4198  0.9073 -0.0237
 
              Baa    -0.0000    -0.000    -0.000    -0.000  0.3809  0.6657  0.6417
    10 F(19)  Bbb    -0.0000    -0.000    -0.000    -0.000 -0.4356 -0.4830  0.7596
              Bcc     0.0000     0.000     0.000     0.000  0.8156 -0.5688  0.1060
 
              Baa    -0.0000    -0.000    -0.000    -0.000 -0.1310  0.9914  0.0075
    11 C(13)  Bbb     0.0000     0.000     0.000     0.000 -0.1223 -0.0236  0.9922
              Bcc     0.0000     0.000     0.000     0.000  0.9838  0.1291  0.1243
 
              Baa    -0.0000    -0.000    -0.000    -0.000 -0.3762  0.9240 -0.0681
    12 C(13)  Bbb     0.0000     0.000     0.000     0.000 -0.3107 -0.0565  0.9488
              Bcc     0.0000     0.000     0.000     0.000  0.8729  0.3781  0.3083
 
              Baa    -0.0000    -0.000    -0.000    -0.000 -0.5280  0.8490 -0.0185
    13 S(33)  Bbb     0.0000     0.000     0.000     0.000  0.8459  0.5278  0.0771
              Bcc     0.0000     0.000     0.000     0.000 -0.0753 -0.0250  0.9968
 
              Baa    -0.0000    -0.000    -0.000    -0.000 -0.4897  0.8717 -0.0173
    14 H(1)   Bbb    -0.0000    -0.000    -0.000    -0.000  0.0015  0.0207  0.9998
              Bcc     0.0000     0.000     0.000     0.000  0.8719  0.4896 -0.0115
 
              Baa    -0.0000    -0.000    -0.000    -0.000 -0.2000  0.0821  0.9764
    15 H(1)   Bbb    -0.0000    -0.000    -0.000    -0.000  0.7842 -0.5840  0.2097
              Bcc     0.0000     0.000     0.000     0.000  0.5874  0.8076  0.0524
 
              Baa    -0.0000    -0.000    -0.000    -0.000  0.7718  0.6358 -0.0079
    16 H(1)   Bbb     0.0000     0.000     0.000     0.000 -0.1010  0.1349  0.9857
              Bcc     0.0000     0.000     0.000     0.000 -0.6277  0.7600 -0.1683
 
              Baa    -0.0000    -0.000    -0.000    -0.000  0.0572  0.8719  0.4862
    17 H(1)   Bbb    -0.0000    -0.000    -0.000    -0.000  0.1867 -0.4878  0.8528
              Bcc     0.0000     0.000     0.000     0.000  0.9808  0.0420 -0.1907
 
              Baa    -0.0000    -0.000    -0.000    -0.000  0.8220 -0.5674 -0.0495
    18 H(1)   Bbb     0.0000     0.000     0.000     0.000  0.0077 -0.0759  0.9971
              Bcc     0.0000     0.000     0.000     0.000  0.5695  0.8199  0.0580
 

 ---------------------------------------------------------------------------------

 No NMR shielding tensors so no spin-rotation constants.
 Leave Link  601 at Sun Jul 26 12:22:06 2020, MaxMem=  4026531840 cpu:               3.8 elap:               0.6
 (Enter /opt/ohpc/pub/libs/gaussian/g16-A.03/sandybridge/g16/l701.exe)
 ... and contract with generalized density number  0.
 Compute integral first derivatives.
 Leave Link  701 at Sun Jul 26 12:22:07 2020, MaxMem=  4026531840 cpu:               2.5 elap:               0.5
 (Enter /opt/ohpc/pub/libs/gaussian/g16-A.03/sandybridge/g16/l702.exe)
 L702 exits ... SP integral derivatives will be done elsewhere.
 Leave Link  702 at Sun Jul 26 12:22:07 2020, MaxMem=  4026531840 cpu:               0.1 elap:               0.0
 (Enter /opt/ohpc/pub/libs/gaussian/g16-A.03/sandybridge/g16/l703.exe)
 Integral derivatives from FoFJK, PRISM(SPDF).
 Compute integral first derivatives, UseDBF=F ICtDFT=           0.
 Calling FoFJK, ICntrl=      2127 FMM=F ISym2X=0 I1Cent= 0 IOpClX= 1 NMat=1 NMatS=1 NMatT=0.
 FoFJK:  IHMeth= 1 ICntrl=    2127 DoSepK=T KAlg= 0 I1Cent=           0 FoldK=F
 IRaf=         1 NMat=       1 IRICut=       1 DoRegI=T DoRafI=F ISym2E= 0 IDoP0=0 IntGTp=1.
 FoFCou: FMM=F IPFlag=           0 FMFlag=      100000 FMFlg1=         800
         NFxFlg=           0 DoJE=F BraDBF=F KetDBF=F FulRan=T
         wScrn=  0.000000 ICntrl=      2527 IOpCl=  0 I1Cent=           0 NGrid=           0
         NMat0=    1 NMatS0=      1 NMatT0=    0 NMatD0=    1 NMtDS0=    0 NMtDT0=    0
 Symmetry not used in FoFCou.
 Leave Link  703 at Sun Jul 26 12:22:18 2020, MaxMem=  4026531840 cpu:              86.2 elap:              11.1
 (Enter /opt/ohpc/pub/libs/gaussian/g16-A.03/sandybridge/g16/l716.exe)
 Dipole        =-3.29224540D-01-3.56731641D-01 2.47900050D-03
 ***** Axes restored to original set *****
 -------------------------------------------------------------------
 Center     Atomic                   Forces (Hartrees/Bohr)
 Number     Number              X              Y              Z
 -------------------------------------------------------------------
      1        6          -0.075978396   -0.090040498    0.008637197
      2        6           0.056655352    0.012913736   -0.016993232
      3        7          -0.054524561   -0.056436954    0.006135746
      4        6           0.012000537    0.060888511    0.005925900
      5        6           0.003674656    0.043880508   -0.007908131
      6        9          -0.021473510   -0.048940630    0.004323926
      7        6           0.039166419    0.059711275   -0.002696973
      8        6           0.013672795   -0.013723616   -0.003155708
      9        6          -0.057390789    0.013200334    0.007717245
     10        9           0.021645040   -0.015855204   -0.002035410
     11        6           0.042953498   -0.008126619   -0.004739195
     12        6           0.014599957   -0.028439123   -0.002408610
     13       16          -0.021684805    0.021590719   -0.000629239
     14        1           0.038603952    0.013867786   -0.000009567
     15        1          -0.004648008    0.010465557    0.003725031
     16        1           0.005366863   -0.004348483    0.000058962
     17        1           0.002323334    0.007518061    0.000520775
     18        1          -0.014962332    0.021874640    0.003531285
 -------------------------------------------------------------------
 Cartesian Forces:  Max     0.090040498 RMS     0.030084026
 Leave Link  716 at Sun Jul 26 12:22:18 2020, MaxMem=  4026531840 cpu:               0.2 elap:               0.1
 (Enter /opt/ohpc/pub/libs/gaussian/g16-A.03/sandybridge/g16/l103.exe)

 GradGradGradGradGradGradGradGradGradGradGradGradGradGradGradGradGradGrad
 Berny optimization.
 FormGI is forming the generalized inverse of G from B-inverse, IUseBI=4.
 Internal  Forces:  Max     0.065171197 RMS     0.016107056
 Search for a local minimum.
 Step number   1 out of a maximum of   98
 All quantities printed in internal units (Hartrees-Bohrs-Radians)
 RMS Force = .16107D-01 SwitMx=.10000D-02 MixMth= 1
 Mixed Optimization -- RFO/linear search
 Second derivative matrix not updated -- first step.
 ITU=  0
     Eigenvalues ---    0.01016   0.01580   0.01706   0.01808   0.02054
     Eigenvalues ---    0.02108   0.02208   0.02408   0.02425   0.02467
     Eigenvalues ---    0.02494   0.02586   0.02606   0.02713   0.02797
     Eigenvalues ---    0.15899   0.15962   0.15972   0.15981   0.15986
     Eigenvalues ---    0.22042   0.22522   0.23328   0.24716   0.24893
     Eigenvalues ---    0.24926   0.24937   0.24981   0.24993   0.27701
     Eigenvalues ---    0.27917   0.31144   0.33604   0.34017   0.34441
     Eigenvalues ---    0.34967   0.36284   0.41055   0.45131   0.45146
     Eigenvalues ---    0.46683   0.47136   0.48198   0.48797   0.52255
     Eigenvalues ---    0.54676   0.58225   0.69751
 RFO step:  Lambda=-5.33435957D-02 EMin= 1.01564782D-02
 Linear search not attempted -- first point.
 Maximum step size (   0.300) exceeded in Quadratic search.
    -- Step size scaled by   0.819
 Iteration  1 RMS(Cart)=  0.14634067 RMS(Int)=  0.00614694
 Iteration  2 RMS(Cart)=  0.00984330 RMS(Int)=  0.00033731
 Iteration  3 RMS(Cart)=  0.00000778 RMS(Int)=  0.00033727
 Iteration  4 RMS(Cart)=  0.00000000 RMS(Int)=  0.00033727
 ITry= 1 IFail=0 DXMaxC= 5.28D-01 DCOld= 1.00D+10 DXMaxT= 3.00D-01 DXLimC= 3.00D+00 Rises=F
 Variable       Old X    -DE/DX   Delta X   Delta X   Delta X     New X
                                 (Linear)    (Quad)   (Total)
    R1        2.61780  -0.00929   0.00000  -0.01470  -0.01464   2.60316
    R2        2.50611   0.06517   0.00000   0.08198   0.08197   2.58808
    R3        2.19496  -0.04065   0.00000  -0.10076  -0.10076   2.09420
    R4        2.61258  -0.04476   0.00000  -0.06935  -0.06927   2.54330
    R5        2.08004  -0.00904   0.00000  -0.01901  -0.01901   2.06103
    R6        2.42654   0.05059   0.00000   0.05297   0.05298   2.47952
    R7        2.67438  -0.00500   0.00000  -0.00794  -0.00800   2.66639
    R8        2.79892   0.00100   0.00000   0.00206   0.00206   2.80097
    R9        2.65124  -0.05341   0.00000  -0.08666  -0.08666   2.56459
   R10        2.62398  -0.01462   0.00000  -0.02114  -0.02121   2.60277
   R11        2.07301  -0.00667   0.00000  -0.01387  -0.01387   2.05914
   R12        2.60836  -0.00047   0.00000  -0.00020  -0.00029   2.60807
   R13        3.35131  -0.02028   0.00000  -0.05205  -0.05206   3.29925
   R14        2.55421  -0.02203   0.00000  -0.03006  -0.03006   2.52416
   R15        2.59147   0.03703   0.00000   0.05601   0.05597   2.64744
   R16        2.56132  -0.00180   0.00000  -0.00149  -0.00144   2.55988
   R17        2.03640   0.00675   0.00000   0.01327   0.01327   2.04967
   R18        3.20991   0.00178   0.00000   0.00205   0.00214   3.21205
   R19        2.12439  -0.02465   0.00000  -0.05532  -0.05532   2.06907
    A1        2.11927  -0.01175   0.00000  -0.03336  -0.03341   2.08587
    A2        2.01616   0.01195   0.00000   0.04034   0.04028   2.05644
    A3        2.14609  -0.00010   0.00000  -0.00591  -0.00597   2.14012
    A4        2.08741   0.00894   0.00000   0.02466   0.02438   2.11179
    A5        2.21628  -0.01161   0.00000  -0.03764  -0.03814   2.17814
    A6        1.97133   0.00325   0.00000   0.01939   0.01894   1.99027
    A7        2.11631   0.00601   0.00000   0.01036   0.01044   2.12674
    A8        2.07046  -0.00095   0.00000  -0.00319  -0.00332   2.06714
    A9        2.06408  -0.03259   0.00000  -0.08745  -0.08748   1.97660
   A10        2.14762   0.03361   0.00000   0.09139   0.09141   2.23903
   A11        2.14005   0.00877   0.00000   0.02234   0.02234   2.16239
   A12        2.12645  -0.00640   0.00000  -0.01321  -0.01349   2.11296
   A13        2.01446  -0.00223   0.00000  -0.00749  -0.00752   2.00694
   A14        2.04117   0.00451   0.00000   0.01897   0.01880   2.05998
   A15        2.15088  -0.00038   0.00000  -0.00209  -0.00207   2.14881
   A16        2.09019  -0.00406   0.00000  -0.01622  -0.01620   2.07399
   A17        2.33109   0.03067   0.00000   0.08339   0.08345   2.41455
   A18        2.07247  -0.02971   0.00000  -0.07962  -0.07954   1.99293
   A19        1.87938  -0.00096   0.00000  -0.00371  -0.00385   1.87553
   A20        2.13728   0.02037   0.00000   0.05314   0.05311   2.19039
   A21        2.01852  -0.00162   0.00000   0.00107   0.00078   2.01930
   A22        2.12515  -0.01858   0.00000  -0.05224  -0.05236   2.07280
   A23        1.95941  -0.00622   0.00000  -0.01169  -0.01176   1.94764
   A24        2.18446  -0.00088   0.00000  -0.00922  -0.00929   2.17517
   A25        2.13769   0.00719   0.00000   0.02193   0.02192   2.15961
   A26        1.97253  -0.00461   0.00000  -0.01272  -0.01263   1.95990
   A27        2.31603  -0.00833   0.00000  -0.03441  -0.03446   2.28157
   A28        1.99328   0.01292   0.00000   0.04725   0.04723   2.04051
   A29        1.59357   0.01352   0.00000   0.02836   0.02845   1.62202
    D1       -0.11738   0.00444   0.00000   0.04691   0.04699  -0.07040
    D2       -3.11182  -0.00123   0.00000  -0.01250  -0.01215  -3.12398
    D3        3.08438   0.00269   0.00000   0.02763   0.02753   3.11191
    D4        0.08994  -0.00298   0.00000  -0.03178  -0.03161   0.05833
    D5        0.08173  -0.00323   0.00000  -0.03152  -0.03115   0.05058
    D6       -3.10678  -0.00154   0.00000  -0.01547  -0.01526  -3.12204
    D7       -3.12459  -0.00097   0.00000  -0.00928  -0.00917  -3.13376
    D8       -0.02991   0.00072   0.00000   0.00677   0.00671  -0.02320
    D9        0.06815  -0.00155   0.00000  -0.02480  -0.02591   0.04224
   D10        3.08221   0.00206   0.00000   0.02190   0.02251   3.10472
   D11        0.00991  -0.00019   0.00000  -0.00545  -0.00557   0.00434
   D12        3.10424   0.00245   0.00000   0.01433   0.01308   3.11733
   D13       -3.11162  -0.00043   0.00000  -0.00529  -0.00523  -3.11685
   D14       -0.04480   0.00200   0.00000   0.02197   0.02198  -0.02283
   D15        0.07964  -0.00126   0.00000  -0.02079  -0.02141   0.05823
   D16       -3.13673   0.00118   0.00000   0.00647   0.00580  -3.13093
   D17       -3.12143  -0.00070   0.00000  -0.00761  -0.00758  -3.12901
   D18       -0.00663  -0.00055   0.00000  -0.00486  -0.00465  -0.01128
   D19       -0.02934   0.00096   0.00000   0.01007   0.00987  -0.01947
[...]
    12  C    0.000001  -0.097003  -0.018021   0.003827   0.519821   4.995216
    13  S   -0.000144   0.329955  -0.065381   0.002403  -0.098446   0.377208
    14  H   -0.037003   0.000049   0.000000  -0.000000   0.000000  -0.000000
    15  H    0.005403  -0.000644   0.000014   0.000000   0.000000  -0.000001
    16  H    0.400469  -0.000305   0.000004   0.000010  -0.000000   0.000000
    17  H    0.000000   0.011679  -0.029616   0.000575   0.404773  -0.046933
    18  H   -0.000000   0.001113   0.006601  -0.000026  -0.018716   0.405945
              13         14         15         16         17         18
     1  C    0.000135   0.404193  -0.054021  -0.045397   0.000000   0.000000
     2  C    0.000491  -0.035225   0.412844   0.006881  -0.000000  -0.000000
     3  N    0.010832   0.004764  -0.024743  -0.000684   0.000001   0.000000
     4  C   -0.053928   0.000108   0.002057   0.011326  -0.000197  -0.000234
     5  C    0.004891   0.007465   0.000785  -0.032360   0.000023   0.000002
     6  F    0.000020  -0.000032   0.000005   0.001113   0.000007  -0.000000
     7  C   -0.000144  -0.037003   0.005403   0.400469   0.000000  -0.000000
     8  C    0.329955   0.000049  -0.000644  -0.000305   0.011679   0.001113
     9  C   -0.065381   0.000000   0.000014   0.000004  -0.029616   0.006601
    10  F    0.002403  -0.000000   0.000000   0.000010   0.000575  -0.000026
    11  C   -0.098446   0.000000   0.000000  -0.000000   0.404773  -0.018716
    12  C    0.377208  -0.000000  -0.000001   0.000000  -0.046933   0.405945
    13  S   15.308562  -0.000003  -0.000085   0.000006   0.005568  -0.035559
    14  H   -0.000003   0.647793  -0.007459  -0.011383  -0.000000  -0.000000
    15  H   -0.000085  -0.007459   0.633658  -0.000137  -0.000000  -0.000000
    16  H    0.000006  -0.011383  -0.000137   0.631348  -0.000000   0.000000
    17  H    0.005568  -0.000000  -0.000000  -0.000000   0.631683  -0.006752
    18  H   -0.035559  -0.000000  -0.000000   0.000000  -0.006752   0.593895
          Atomic-Atomic Spin Densities.
               1          2          3          4          5          6
     1  C   -0.000000   0.000000  -0.000000   0.000000  -0.000000   0.000000
     2  C    0.000000  -0.000000   0.000000  -0.000000   0.000000   0.000000
     3  N   -0.000000   0.000000  -0.000000   0.000000  -0.000000  -0.000000
     4  C    0.000000  -0.000000   0.000000   0.000000  -0.000000  -0.000000
     5  C   -0.000000   0.000000  -0.000000  -0.000000   0.000000   0.000000
     6  F    0.000000   0.000000  -0.000000  -0.000000   0.000000  -0.000000
     7  C    0.000000   0.000000  -0.000000  -0.000000  -0.000000   0.000000
     8  C    0.000000   0.000000  -0.000000  -0.000000  -0.000000   0.000000
     9  C    0.000000   0.000000   0.000000  -0.000000   0.000000  -0.000000
    10  F    0.000000  -0.000000   0.000000   0.000000   0.000000   0.000000
    11  C    0.000000  -0.000000   0.000000   0.000000   0.000000   0.000000
    12  C   -0.000000   0.000000  -0.000000  -0.000000  -0.000000  -0.000000
    13  S   -0.000000  -0.000000  -0.000000   0.000000   0.000000   0.000000
    14  H   -0.000000   0.000000  -0.000000   0.000000  -0.000000   0.000000
    15  H    0.000000  -0.000000   0.000000  -0.000000   0.000000   0.000000
    16  H   -0.000000  -0.000000   0.000000   0.000000   0.000000  -0.000000
    17  H   -0.000000  -0.000000  -0.000000  -0.000000  -0.000000   0.000000
    18  H    0.000000   0.000000  -0.000000  -0.000000  -0.000000  -0.000000
               7          8          9         10         11         12
     1  C    0.000000   0.000000   0.000000   0.000000   0.000000  -0.000000
     2  C    0.000000   0.000000   0.000000  -0.000000  -0.000000   0.000000
     3  N   -0.000000  -0.000000   0.000000   0.000000   0.000000  -0.000000
     4  C   -0.000000  -0.000000  -0.000000   0.000000   0.000000  -0.000000
     5  C   -0.000000  -0.000000   0.000000   0.000000   0.000000  -0.000000
     6  F    0.000000   0.000000  -0.000000   0.000000   0.000000  -0.000000
     7  C    0.000000   0.000000  -0.000000  -0.000000  -0.000000   0.000000
     8  C    0.000000   0.000000   0.000000   0.000000   0.000000  -0.000000
     9  C   -0.000000   0.000000  -0.000000  -0.000000  -0.000000   0.000000
    10  F   -0.000000   0.000000  -0.000000  -0.000000   0.000000   0.000000
    11  C   -0.000000   0.000000  -0.000000   0.000000  -0.000000  -0.000000
    12  C    0.000000  -0.000000   0.000000   0.000000  -0.000000   0.000000
    13  S   -0.000000   0.000000  -0.000000  -0.000000   0.000000   0.000000
    14  H    0.000000  -0.000000   0.000000   0.000000   0.000000  -0.000000
    15  H   -0.000000  -0.000000  -0.000000   0.000000   0.000000  -0.000000
    16  H    0.000000   0.000000   0.000000  -0.000000  -0.000000   0.000000
    17  H    0.000000   0.000000  -0.000000   0.000000   0.000000  -0.000000
    18  H   -0.000000  -0.000000   0.000000  -0.000000   0.000000   0.000000
              13         14         15         16         17         18
     1  C   -0.000000  -0.000000   0.000000  -0.000000  -0.000000   0.000000
     2  C   -0.000000   0.000000  -0.000000  -0.000000  -0.000000   0.000000
     3  N   -0.000000  -0.000000   0.000000   0.000000  -0.000000  -0.000000
     4  C    0.000000   0.000000  -0.000000   0.000000  -0.000000  -0.000000
     5  C    0.000000  -0.000000   0.000000   0.000000  -0.000000  -0.000000
     6  F    0.000000   0.000000   0.000000  -0.000000   0.000000  -0.000000
     7  C   -0.000000   0.000000  -0.000000   0.000000   0.000000  -0.000000
     8  C    0.000000  -0.000000  -0.000000   0.000000   0.000000  -0.000000
     9  C   -0.000000   0.000000  -0.000000   0.000000  -0.000000   0.000000
    10  F   -0.000000   0.000000   0.000000  -0.000000   0.000000  -0.000000
    11  C    0.000000   0.000000   0.000000  -0.000000   0.000000   0.000000
    12  C    0.000000  -0.000000  -0.000000   0.000000  -0.000000   0.000000
    13  S   -0.000000   0.000000   0.000000  -0.000000   0.000000   0.000000
    14  H    0.000000  -0.000000   0.000000   0.000000  -0.000000  -0.000000
    15  H    0.000000   0.000000   0.000000  -0.000000   0.000000  -0.000000
    16  H   -0.000000   0.000000  -0.000000   0.000000   0.000000   0.000000
    17  H    0.000000  -0.000000   0.000000   0.000000   0.000000  -0.000000
    18  H    0.000000  -0.000000  -0.000000   0.000000  -0.000000  -0.000000
 Mulliken charges and spin densities:
               1          2
     1  C   -0.058661  -0.000000
     2  C    0.079409  -0.000000
     3  N   -0.206408  -0.000000
     4  C    0.077049   0.000000
     5  C    0.106646  -0.000000
     6  F   -0.117739  -0.000000
     7  C    0.042981   0.000000
     8  C   -0.192115   0.000000
     9  C    0.109434  -0.000000
    10  F   -0.118915  -0.000000
    11  C    0.026949  -0.000000
    12  C   -0.143193   0.000000
    13  S    0.213474  -0.000000
    14  H    0.026733  -0.000000
    15  H    0.032324   0.000000
    16  H    0.039109   0.000000
    17  H    0.029191   0.000000
    18  H    0.053730  -0.000000
 Sum of Mulliken charges =  -0.00000   0.00000
 Mulliken charges and spin densities with hydrogens summed into heavy atoms:
               1          2
     1  C   -0.031927  -0.000000
     2  C    0.111733  -0.000000
     3  N   -0.206408  -0.000000
     4  C    0.077049   0.000000
     5  C    0.106646  -0.000000
     6  F   -0.117739  -0.000000
     7  C    0.082090   0.000000
     8  C   -0.192115   0.000000
     9  C    0.109434  -0.000000
    10  F   -0.118915  -0.000000
    11  C    0.056140  -0.000000
    12  C   -0.089463   0.000000
    13  S    0.213474  -0.000000
 Electronic spatial extent (au):  <R**2>=           2480.1913
 Charge=              0.0000 electrons
 Dipole moment (field-independent basis, Debye):
    X=             -0.9998    Y=             -0.3284    Z=              0.2818  Tot=              1.0895
 Quadrupole moment (field-independent basis, Debye-Ang):
   XX=            -56.9897   YY=            -80.1910   ZZ=            -81.4988
   XY=             -0.6796   XZ=              0.4533   YZ=             -0.3346
 Traceless Quadrupole moment (field-independent basis, Debye-Ang):
   XX=             15.9035   YY=             -7.2978   ZZ=             -8.6056
   XY=             -0.6796   XZ=              0.4533   YZ=             -0.3346
 Octapole moment (field-independent basis, Debye-Ang**2):
  XXX=             -5.7888  YYY=             19.4712  ZZZ=              0.1877  XYY=             -2.9233
  XXY=              2.1225  XXZ=              0.7837  XZZ=             -0.4156  YZZ=             10.2438
  YYZ=              0.8492  XYZ=             -5.9006
 Hexadecapole moment (field-independent basis, Debye-Ang**3):
 XXXX=          -1901.1860 YYYY=           -797.6131 ZZZZ=           -139.4710 XXXY=             -8.6047
 XXXZ=             -1.8465 YYYX=              5.9651 YYYZ=              1.5045 ZZZX=            -11.8199
 ZZZY=             -0.6018 XXYY=           -447.2601 XXZZ=           -431.8384 YYZZ=           -158.4979
 XXYZ=              3.0302 YYXZ=              5.1426 ZZXY=              0.7392
 N-N= 8.578480414304D+02 E-N=-4.068143363445D+03  KE= 9.936976149420D+02
                          Isotropic Fermi Contact Couplings
        Atom                 a.u.       MegaHertz       Gauss      10(-4) cm-1
     1  C(13)             -0.00000      -0.00000      -0.00000      -0.00000
     2  C(13)             -0.00000      -0.00000      -0.00000      -0.00000
     3  N(14)             -0.00000      -0.00000      -0.00000      -0.00000
     4  C(13)              0.00000       0.00000       0.00000       0.00000
     5  C(13)              0.00000       0.00000       0.00000       0.00000
     6  F(19)              0.00000       0.00000       0.00000       0.00000
     7  C(13)              0.00000       0.00000       0.00000       0.00000
     8  C(13)              0.00000       0.00000       0.00000       0.00000
     9  C(13)              0.00000       0.00000       0.00000       0.00000
    10  F(19)             -0.00000      -0.00000      -0.00000      -0.00000
    11  C(13)              0.00000       0.00000       0.00000       0.00000
    12  C(13)              0.00000       0.00000       0.00000       0.00000
    13  S(33)              0.00000       0.00000       0.00000       0.00000
    14  H(1)               0.00000       0.00000       0.00000       0.00000
    15  H(1)               0.00000       0.00000       0.00000       0.00000
    16  H(1)               0.00000       0.00000       0.00000       0.00000
    17  H(1)              -0.00000      -0.00000      -0.00000      -0.00000
    18  H(1)              -0.00000      -0.00000      -0.00000      -0.00000
 --------------------------------------------------------
       Center         ----  Spin Dipole Couplings  ----
                      3XX-RR        3YY-RR        3ZZ-RR
 --------------------------------------------------------
     1   Atom       -0.000000     -0.000000      0.000000
     2   Atom       -0.000000     -0.000000      0.000000
     3   Atom        0.000000     -0.000000      0.000000
     4   Atom        0.000000      0.000000     -0.000000
     5   Atom        0.000000      0.000000     -0.000000
     6   Atom        0.000000     -0.000000      0.000000
     7   Atom        0.000000      0.000000     -0.000000
     8   Atom        0.000000     -0.000000     -0.000000
     9   Atom       -0.000000     -0.000000      0.000000
    10   Atom       -0.000000      0.000000      0.000000
    11   Atom        0.000000      0.000000     -0.000000
    12   Atom        0.000000     -0.000000      0.000000
    13   Atom       -0.000000      0.000000     -0.000000
    14   Atom       -0.000000      0.000000      0.000000
    15   Atom        0.000000     -0.000000      0.000000
    16   Atom       -0.000000      0.000000      0.000000
    17   Atom        0.000000     -0.000000     -0.000000
    18   Atom       -0.000000      0.000000      0.000000
 --------------------------------------------------------
                        XY            XZ            YZ
 --------------------------------------------------------
     1   Atom       -0.000000     -0.000000     -0.000000
     2   Atom       -0.000000      0.000000     -0.000000
     3   Atom       -0.000000     -0.000000     -0.000000
     4   Atom        0.000000     -0.000000      0.000000
     5   Atom       -0.000000     -0.000000      0.000000
     6   Atom        0.000000      0.000000     -0.000000
     7   Atom        0.000000      0.000000      0.000000
     8   Atom        0.000000     -0.000000     -0.000000
     9   Atom       -0.000000      0.000000      0.000000
    10   Atom       -0.000000      0.000000     -0.000000
    11   Atom        0.000000     -0.000000     -0.000000
    12   Atom       -0.000000      0.000000      0.000000
    13   Atom       -0.000000      0.000000     -0.000000
    14   Atom       -0.000000     -0.000000     -0.000000
    15   Atom       -0.000000     -0.000000     -0.000000
    16   Atom        0.000000     -0.000000      0.000000
    17   Atom        0.000000     -0.000000      0.000000
    18   Atom        0.000000     -0.000000     -0.000000
 --------------------------------------------------------


 ---------------------------------------------------------------------------------
              Anisotropic Spin Dipole Couplings in Principal Axis System
 ---------------------------------------------------------------------------------

       Atom             a.u.   MegaHertz   Gauss  10(-4) cm-1        Axes

              Baa    -0.0000    -0.000    -0.000    -0.000  0.9269  0.3367  0.1656
     1 C(13)  Bbb    -0.0000    -0.000    -0.000    -0.000 -0.3725  0.8789  0.2981
              Bcc     0.0000     0.000     0.000     0.000 -0.0451 -0.3380  0.9401
 
              Baa    -0.0000    -0.000    -0.000    -0.000  0.3519  0.9042  0.2422
     2 C(13)  Bbb     0.0000     0.000     0.000     0.000  0.9281 -0.3034 -0.2160
              Bcc     0.0000     0.000     0.000     0.000  0.1218 -0.3008  0.9459
 
              Baa    -0.0000    -0.000    -0.000    -0.000  0.3954  0.8803  0.2622
     3 N(14)  Bbb     0.0000     0.000     0.000     0.000  0.8876 -0.4396  0.1377
              Bcc     0.0000     0.000     0.000     0.000 -0.2365 -0.1783  0.9551
 
              Baa    -0.0000    -0.000    -0.000    -0.000  0.0606 -0.0604  0.9963
     4 C(13)  Bbb     0.0000     0.000     0.000     0.000 -0.0964  0.9932  0.0661
              Bcc     0.0000     0.000     0.000     0.000  0.9935  0.1000 -0.0544
 
              Baa    -0.0000    -0.000    -0.000    -0.000  0.5500  0.7610 -0.3440
     5 C(13)  Bbb    -0.0000    -0.000    -0.000    -0.000  0.3220  0.1868  0.9281
              Bcc     0.0000     0.000     0.000     0.000  0.7706 -0.6212 -0.1423
 
              Baa    -0.0000    -0.000    -0.000    -0.000 -0.2741  0.9190  0.2833
     6 F(19)  Bbb     0.0000     0.000     0.000     0.000 -0.6372 -0.3942  0.6622
              Bcc     0.0000     0.000     0.000     0.000  0.7203  0.0010  0.6937
 
              Baa    -0.0000    -0.000    -0.000    -0.000  0.0280 -0.4190  0.9075
     7 C(13)  Bbb     0.0000     0.000     0.000     0.000  0.7922 -0.5444 -0.2758
              Bcc     0.0000     0.000     0.000     0.000  0.6096  0.7267  0.3168
 
              Baa    -0.0000    -0.000    -0.000    -0.000 -0.1433  0.4790  0.8661
     8 C(13)  Bbb    -0.0000    -0.000    -0.000    -0.000 -0.4639  0.7405 -0.4863
              Bcc     0.0000     0.000     0.000     0.000  0.8742  0.4715 -0.1161
 
              Baa    -0.0000    -0.000    -0.000    -0.000  0.7698  0.6234 -0.1371
     9 C(13)  Bbb     0.0000     0.000     0.000     0.000  0.2476 -0.0937  0.9643
              Bcc     0.0000     0.000     0.000     0.000 -0.5883  0.7763  0.2264
 
              Baa    -0.0000    -0.000    -0.000    -0.000  0.9323  0.3447 -0.1091
    10 F(19)  Bbb    -0.0000    -0.000    -0.000    -0.000 -0.1201  0.5799  0.8058
              Bcc     0.0000     0.000     0.000     0.000 -0.3410  0.7382 -0.5821
 
              Baa    -0.0000    -0.000    -0.000    -0.000  0.1418  0.1390  0.9801
    11 C(13)  Bbb    -0.0000    -0.000    -0.000    -0.000  0.7709 -0.6367 -0.0213
              Bcc     0.0000     0.000     0.000     0.000  0.6210  0.7585 -0.1975
 
              Baa    -0.0000    -0.000    -0.000    -0.000  0.1685  0.9237 -0.3441
    12 C(13)  Bbb     0.0000     0.000     0.000     0.000 -0.0259  0.3531  0.9352
              Bcc     0.0000     0.000     0.000     0.000  0.9854 -0.1487  0.0835
 
              Baa    -0.0000    -0.000    -0.000    -0.000  0.9540  0.2856 -0.0907
    13 S(33)  Bbb    -0.0000    -0.000    -0.000    -0.000  0.0361  0.1909  0.9809
              Bcc     0.0000     0.000     0.000     0.000 -0.2975  0.9391 -0.1718
 
              Baa    -0.0000    -0.000    -0.000    -0.000  0.9902  0.1247  0.0624
    14 H(1)   Bbb     0.0000     0.000     0.000     0.000 -0.1319  0.9828  0.1296
              Bcc     0.0000     0.000     0.000     0.000 -0.0452 -0.1366  0.9896
 
              Baa    -0.0000    -0.000    -0.000    -0.000  0.1911  0.9589  0.2099
    15 H(1)   Bbb     0.0000     0.000     0.000     0.000  0.0669 -0.2261  0.9718
              Bcc     0.0000     0.000     0.000     0.000  0.9793 -0.1717 -0.1073
 
              Baa    -0.0000    -0.000    -0.000    -0.000  0.9780 -0.1599  0.1340
    16 H(1)   Bbb    -0.0000    -0.000    -0.000    -0.000  0.2086  0.7666 -0.6073
              Bcc     0.0000     0.000     0.000     0.000 -0.0056  0.6219  0.7831
 
              Baa    -0.0000    -0.000    -0.000    -0.000 -0.1571  0.9857 -0.0607
    17 H(1)   Bbb    -0.0000    -0.000    -0.000    -0.000  0.0360  0.0671  0.9971
              Bcc     0.0000     0.000     0.000     0.000  0.9869  0.1544 -0.0461
 
              Baa    -0.0000    -0.000    -0.000    -0.000  0.9177 -0.3957  0.0355
    18 H(1)   Bbb     0.0000     0.000     0.000     0.000  0.1213  0.3641  0.9234
              Bcc     0.0000     0.000     0.000     0.000  0.3783  0.8431 -0.3822
 

 ---------------------------------------------------------------------------------

 No NMR shielding tensors so no spin-rotation constants.
 Leave Link  601 at Sun Jul 26 12:41:03 2020, MaxMem=  4026531840 cpu:               3.0 elap:               0.4
 (Enter /opt/ohpc/pub/libs/gaussian/g16-A.03/sandybridge/g16/l9999.exe)

 Test job not archived.
 1\1\GINC-SKYLAKE036\FOpt\ULC-wPBE\CC-pVDZ\C9H5F2N1S1\RDU230\26-Jul-202
 0\0\\#P uLC-wPBE/cc-pVDZ iop(3/107=0440800000, 3/108=0440800000) opt\\
 H5 C9 S1 N1 F2\\0,1\C,-3.4473720284,-0.5651422686,-0.0537140952\C,-2.5
 48181638,-1.6020367188,-0.2515121463\N,-1.2340807862,-1.4401348978,-0.
 2264350074\C,-0.7294154728,-0.2283272196,0.0012352531\C,-1.572610636,0
 .8510585405,0.2522156116\F,-1.0650595515,2.044237424,0.5625461147\C,-2
 .941474634,0.6946241931,0.2136515348\C,0.7344557589,-0.1252434691,0.02
 54532308\C,1.5741053103,0.8964255176,-0.3065403839\F,1.1711769752,2.08
 02281292,-0.7621950731\C,2.9533518683,0.5964230418,-0.1758314623\C,3.1
 325222322,-0.6792023955,0.2518933502\S,1.6589309219,-1.5081267833,0.47
 83493474\H,-4.5204401671,-0.7429164107,-0.0941222967\H,-2.9023167198,-
 2.6171858945,-0.4405534547\H,-3.5806498012,1.5546007201,0.4070260269\H
 ,3.7448461911,1.3048831496,-0.4032950104\H,4.0760331772,-1.1839766581,
 0.4394104604\\Version=EM64L-G16RevA.03\State=1-A\HF=-998.0926344\S2=0.
 \S2-1=0.\S2A=0.\RMSD=4.578e-09\RMSF=1.369e-05\Dipole=-0.3919646,-0.125
 2828,0.1199561\Quadrupole=11.8327875,-5.471701,-6.3610865,-0.3099929,0
 .3463625,-0.3080162\PG=C01 [X(C9H5F2N1S1)]\\@


 GOD DOES NOT PLAY WITH DICE.
               -- A. EINSTEIN
 Job cpu time:       0 days  2 hours 30 minutes 42.3 seconds.
 Elapsed time:       0 days  0 hours 19 minutes 43.3 seconds.
 File lengths (MBytes):  RWF=    104 Int=      0 D2E=      0 Chk=     12 Scr=      8
 Normal termination of Gaussian 16 at Sun Jul 26 12:41:03 2020.
