 Entering Gaussian System, Link 0=g16
 Input=mols_55_5_05_CF-N_opt_0.gjf
 Output=mols_55_5_05_CF-N_opt_0.log
 Initial command:
 /opt/ohpc/pub/libs/gaussian/g16-A.03/sandybridge/g16/l1.exe "/mnt/gpfs2_4m/scratch/rdu230/ondemand/projects/dihedral_energies/7trial/wtuning/mols_55_5_05_CF-N/Gau-133905.inp" -scrdir="/mnt/gpfs2_4m/scratch/rdu230/ondemand/projects/dihedral_energies/7trial/wtuning/mols_55_5_05_CF-N/"
 Entering Link 1 = /opt/ohpc/pub/libs/gaussian/g16-A.03/sandybridge/g16/l1.exe PID=    133907.
  
 Copyright (c) 1988,1990,1992,1993,1995,1998,2003,2009,2016,
            Gaussian, Inc.  All Rights Reserved.
  
 This is part of the Gaussian(R) 16 program.  It is based on
 the Gaussian(R) 09 system (copyright 2009, Gaussian, Inc.),
 the Gaussian(R) 03 system (copyright 2003, Gaussian, Inc.),
 the Gaussian(R) 98 system (copyright 1998, Gaussian, Inc.),
 the Gaussian(R) 94 system (copyright 1995, Gaussian, Inc.),
 the Gaussian 92(TM) system (copyright 1992, Gaussian, Inc.),
 the Gaussian 90(TM) system (copyright 1990, Gaussian, Inc.),
 the Gaussian 88(TM) system (copyright 1988, Gaussian, Inc.),
 the Gaussian 86(TM) system (copyright 1986, Carnegie Mellon
 University), and the Gaussian 82(TM) system (copyright 1983,
 Carnegie Mellon University). Gaussian is a federally registered
 trademark of Gaussian, Inc.
  
 This software contains proprietary and confidential information,
 including trade secrets, belonging to Gaussian, Inc.
  
 This software is provided under written license and may be
 used, copied, transmitted, or stored only in accord with that
 written license.
  
 The following legend is applicable only to US Government
 contracts under FAR:
  
                    RESTRICTED RIGHTS LEGEND
  
 Use, reproduction and disclosure by the US Government is
 subject to restrictions as set forth in subparagraphs (a)
 and (c) of the Commercial Computer Software - Restricted
 Rights clause in FAR 52.227-19.
  
 Gaussian, Inc.
 340 Quinnipiac St., Bldg. 40, Wallingford CT 06492
  
  
 ---------------------------------------------------------------
 Warning -- This program may not be used in any manner that
 competes with the business of Gaussian, Inc. or will provide
 assistance to any competitor of Gaussian, Inc.  The licensee
 of this program is prohibited from giving any competitor of
 Gaussian, Inc. access to this program.  By using this program,
 the user acknowledges that Gaussian, Inc. is engaged in the
 business of creating and licensing software in the field of
 computational chemistry and represents and warrants to the
 licensee that it is not a competitor of Gaussian, Inc. and that
 it will not use this program in any manner prohibited above.
 ---------------------------------------------------------------
  

 Cite this work as:
 Gaussian 16, Revision A.03,
 M. J. Frisch, G. W. Trucks, H. B. Schlegel, G. E. Scuseria, 
 M. A. Robb, J. R. Cheeseman, G. Scalmani, V. Barone, 
 G. A. Petersson, H. Nakatsuji, X. Li, M. Caricato, A. V. Marenich, 
 J. Bloino, B. G. Janesko, R. Gomperts, B. Mennucci, H. P. Hratchian, 
 J. V. Ortiz, A. F. Izmaylov, J. L. Sonnenberg, D. Williams-Young, 
 F. Ding, F. Lipparini, F. Egidi, J. Goings, B. Peng, A. Petrone, 
 T. Henderson, D. Ranasinghe, V. G. Zakrzewski, J. Gao, N. Rega, 
 G. Zheng, W. Liang, M. Hada, M. Ehara, K. Toyota, R. Fukuda, 
 J. Hasegawa, M. Ishida, T. Nakajima, Y. Honda, O. Kitao, H. Nakai, 
 T. Vreven, K. Throssell, J. A. Montgomery, Jr., J. E. Peralta, 
 F. Ogliaro, M. J. Bearpark, J. J. Heyd, E. N. Brothers, K. N. Kudin, 
 V. N. Staroverov, T. A. Keith, R. Kobayashi, J. Normand, 
 K. Raghavachari, A. P. Rendell, J. C. Burant, S. S. Iyengar, 
 J. Tomasi, M. Cossi, J. M. Millam, M. Klene, C. Adamo, R. Cammi, 
 J. W. Ochterski, R. L. Martin, K. Morokuma, O. Farkas, 
 J. B. Foresman, and D. J. Fox, Gaussian, Inc., Wallingford CT, 2016.
 
 ******************************************
 Gaussian 16:  EM64L-G16RevA.03 25-Dec-2016
                24-Jul-2020 
 ******************************************
 %mem=30GB
 %nproc=8
 Will use up to    8 processors via shared memory.
 ---------------------------------------------------------------
 #P uLC-wPBE/cc-pVDZ iop(3/107=0071800000, 3/108=0071800000) opt
 ---------------------------------------------------------------
 1/18=20,19=15,26=3,38=1/1,3;
 2/9=110,12=2,17=6,18=5,40=1/2;
 3/5=16,11=2,25=1,30=1,71=1,74=-41,107=71800000,108=71800000,116=2/1,2,3;
 4//1;
 5/5=2,38=5/2;
 6/7=2,8=2,9=2,10=2,28=1/1;
 7//1,2,3,16;
 1/18=20,19=15,26=3/3(2);
 2/9=110/2;
 99//99;
 2/9=110/2;
 3/5=16,11=2,25=1,30=1,71=1,74=-41,107=71800000,108=71800000,116=2/1,2,3;
 4/5=5,16=3,69=1/1;
 5/5=2,38=5/2;
 7//1,2,3,16;
 1/18=20,19=15,26=3/3(-5);
 2/9=110/2;
 6/7=2,8=2,9=2,10=2,19=2,28=1/1;
 99/9=1/99;
 Leave Link    1 at Fri Jul 24 04:34:51 2020, MaxMem=  4026531840 cpu:               2.1 elap:               0.3
 (Enter /opt/ohpc/pub/libs/gaussian/g16-A.03/sandybridge/g16/l101.exe)
 -----------------
 H12 C35 S10 N5 F5
 -----------------
 Symbolic Z-matrix:
 Charge =  0 Multiplicity = 1
 C                     17.74498   2.97427   0.02327 
 C                     16.68914   3.89386   0.01629 
 C                     15.45664   3.30288  -0.03079 
 F                     14.34478   3.90964  -0.12217 
 C                     15.54218   1.86248   0.00087 
 S                     17.20004   1.43278   0.10301 
 C                     14.47905   0.85822   0.03845 
 N                     14.7312  -0.39576   0.18232 
 C                     13.46707  -1.08061   0.12985 
 C                     12.36457  -0.29264   0.07662 
 S                     12.77899   1.32585   0.02771 
 C                     10.95665  -0.83925   0.06469 
 C                     10.55526  -2.18      0.04117 
 C                     9.12569  -2.27811  -0.00261 
 F                     8.5659   -3.50749   0.00806 
 C                     8.5006   -1.08082   0.04354 
 S                     9.65169   0.19744   0.03735 
 C                     7.06377  -0.79042  -0.06998 
 N                     6.58746   0.38011  -0.06968 
 C                     5.1693    0.40794  -0.02938 
 C                     4.65315  -0.91526  -0.03073 
 S                     5.91598  -2.03118   0.02428 
 C                     3.26405  -1.21713  -0.07122 
 C                     2.66981  -2.54807  -0.01365 
 C                     1.2974   -2.44796  -0.05204 
 F                     0.56033  -3.58825  -0.01041 
 C                     0.75859  -1.20013  -0.08939 
 S                     1.96828  -0.03865  -0.02523 
 C                    -0.67087  -0.78214  -0.02788 
 N                    -1.04984   0.44285  -0.14538 
 C                    -2.42841   0.60217  -0.13802 
 C                    -3.13813  -0.63697  -0.10119 
 S                    -1.97554  -1.91606   0.01391 
 C                    -4.55259  -0.86795  -0.02927 
 C                    -5.1793   -2.01314  -0.00528 
 C                    -6.66952  -1.80667  -0.01555 
 F                    -7.51394  -2.88636  -0.00059 
 C                    -7.07578  -0.51292  -0.01724 
 S                    -5.65881   0.4951   -0.03079 
 C                    -8.35207  -0.00765  -0.02197 
 N                    -8.53353   1.34568  -0.10842 
 C                    -9.96306   1.55454  -0.05906 
 C                    -10.78695   0.50768   0.02772 
 S                    -9.74138  -0.90892   0.00715 
 C                    -12.21265   0.48542   0.00198 
 C                    -12.99486  -0.65022   0.09297 
 C                    -14.44256  -0.31179   0.08667 
 F                    -15.31492  -1.28911   0.10497 
 C                    -14.67218   1.0321    0.00188 
 S                    -13.15108   1.91102  -0.03911 
 C                    -15.95901   1.70563   0.07476 
 N                    -15.97919   3.05571  -0.05633 
 C                    -17.29794   3.4819    0.00545 
 C                    -18.27059   2.46485   0.09246 
 S                    -17.44391   0.87509   0.10022 
 H                     18.86059   3.18713   0.07969 
 H                     16.86907   4.9404   -0.09893 
 H                     13.50911  -2.17148   0.20547 
 H                     11.19585  -2.986     0.05422 
 H                     4.62622   1.32409  -0.11737 
 H                     3.26458  -3.38306  -0.03185 
 H                    -2.83115   1.59917  -0.09485 
 H                    -4.7104   -3.00305  -0.0048 
 H                    -10.25364   2.61212  -0.16065 
 H                    -12.63001  -1.7278    0.07967 
 H                    -17.49715   4.4917   -0.06708 
 H                    -19.30792   2.46447   0.1455 
 
 ITRead=  0  0  0  0  0  0  0  0  0  0  0  0  0  0  0  0  0  0  0  0
 ITRead=  0  0  0  0  0  0  0  0  0  0  0  0  0  0  0  0  0  0  0  0
 ITRead=  0  0  0  0  0  0  0  0  0  0  0  0  0  0  0  0  0  0  0  0
 ITRead=  0  0  0  0  0  0  0
 MicOpt= -1 -1 -1 -1 -1 -1 -1 -1 -1 -1 -1 -1 -1 -1 -1 -1 -1 -1 -1 -1
 MicOpt= -1 -1 -1 -1 -1 -1 -1 -1 -1 -1 -1 -1 -1 -1 -1 -1 -1 -1 -1 -1
 MicOpt= -1 -1 -1 -1 -1 -1 -1 -1 -1 -1 -1 -1 -1 -1 -1 -1 -1 -1 -1 -1
 MicOpt= -1 -1 -1 -1 -1 -1 -1
 NAtoms=     67 NQM=       67 NQMF=       0 NMMI=      0 NMMIF=      0
                NMic=       0 NMicF=      0.
                    Isotopes and Nuclear Properties:
 (Nuclear quadrupole moments (NQMom) in fm**2, nuclear magnetic moments (NMagM)
  in nuclear magnetons)

  Atom         1           2           3           4           5           6           7           8           9          10
 IAtWgt=          12          12          12          19          12          32          12          14          12          12
 AtmWgt=  12.0000000  12.0000000  12.0000000  18.9984033  12.0000000  31.9720718  12.0000000  14.0030740  12.0000000  12.0000000
 NucSpn=           0           0           0           1           0           0           0           2           0           0
 AtZEff=  -0.0000000  -0.0000000  -0.0000000  -0.0000000  -0.0000000  -0.0000000  -0.0000000  -0.0000000  -0.0000000  -0.0000000
 NQMom=    0.0000000   0.0000000   0.0000000   0.0000000   0.0000000   0.0000000   0.0000000   2.0440000   0.0000000   0.0000000
 NMagM=    0.0000000   0.0000000   0.0000000   2.6288670   0.0000000   0.0000000   0.0000000   0.4037610   0.0000000   0.0000000
 AtZNuc=   6.0000000   6.0000000   6.0000000   9.0000000   6.0000000  16.0000000   6.0000000   7.0000000   6.0000000   6.0000000

  Atom        11          12          13          14          15          16          17          18          19          20
 IAtWgt=          32          12          12          12          19          12          32          12          14          12
 AtmWgt=  31.9720718  12.0000000  12.0000000  12.0000000  18.9984033  12.0000000  31.9720718  12.0000000  14.0030740  12.0000000
 NucSpn=           0           0           0           0           1           0           0           0           2           0
 AtZEff=  -0.0000000  -0.0000000  -0.0000000  -0.0000000  -0.0000000  -0.0000000  -0.0000000  -0.0000000  -0.0000000  -0.0000000
 NQMom=    0.0000000   0.0000000   0.0000000   0.0000000   0.0000000   0.0000000   0.0000000   0.0000000   2.0440000   0.0000000
 NMagM=    0.0000000   0.0000000   0.0000000   0.0000000   2.6288670   0.0000000   0.0000000   0.0000000   0.4037610   0.0000000
 AtZNuc=  16.0000000   6.0000000   6.0000000   6.0000000   9.0000000   6.0000000  16.0000000   6.0000000   7.0000000   6.0000000

  Atom        21          22          23          24          25          26          27          28          29          30
 IAtWgt=          12          32          12          12          12          19          12          32          12          14
 AtmWgt=  12.0000000  31.9720718  12.0000000  12.0000000  12.0000000  18.9984033  12.0000000  31.9720718  12.0000000  14.0030740
 NucSpn=           0           0           0           0           0           1           0           0           0           2
 AtZEff=  -0.0000000  -0.0000000  -0.0000000  -0.0000000  -0.0000000  -0.0000000  -0.0000000  -0.0000000  -0.0000000  -0.0000000
 NQMom=    0.0000000   0.0000000   0.0000000   0.0000000   0.0000000   0.0000000   0.0000000   0.0000000   0.0000000   2.0440000
 NMagM=    0.0000000   0.0000000   0.0000000   0.0000000   0.0000000   2.6288670   0.0000000   0.0000000   0.0000000   0.4037610
 AtZNuc=   6.0000000  16.0000000   6.0000000   6.0000000   6.0000000   9.0000000   6.0000000  16.0000000   6.0000000   7.0000000

  Atom        31          32          33          34          35          36          37          38          39          40
 IAtWgt=          12          12          32          12          12          12          19          12          32          12
 AtmWgt=  12.0000000  12.0000000  31.9720718  12.0000000  12.0000000  12.0000000  18.9984033  12.0000000  31.9720718  12.0000000
 NucSpn=           0           0           0           0           0           0           1           0           0           0
 AtZEff=  -0.0000000  -0.0000000  -0.0000000  -0.0000000  -0.0000000  -0.0000000  -0.0000000  -0.0000000  -0.0000000  -0.0000000
 NQMom=    0.0000000   0.0000000   0.0000000   0.0000000   0.0000000   0.0000000   0.0000000   0.0000000   0.0000000   0.0000000
 NMagM=    0.0000000   0.0000000   0.0000000   0.0000000   0.0000000   0.0000000   2.6288670   0.0000000   0.0000000   0.0000000
 AtZNuc=   6.0000000   6.0000000  16.0000000   6.0000000   6.0000000   6.0000000   9.0000000   6.0000000  16.0000000   6.0000000

  Atom        41          42          43          44          45          46          47          48          49          50
 IAtWgt=          14          12          12          32          12          12          12          19          12          32
 AtmWgt=  14.0030740  12.0000000  12.0000000  31.9720718  12.0000000  12.0000000  12.0000000  18.9984033  12.0000000  31.9720718
 NucSpn=           2           0           0           0           0           0           0           1           0           0
 AtZEff=  -0.0000000  -0.0000000  -0.0000000  -0.0000000  -0.0000000  -0.0000000  -0.0000000  -0.0000000  -0.0000000  -0.0000000
 NQMom=    2.0440000   0.0000000   0.0000000   0.0000000   0.0000000   0.0000000   0.0000000   0.0000000   0.0000000   0.0000000
 NMagM=    0.4037610   0.0000000   0.0000000   0.0000000   0.0000000   0.0000000   0.0000000   2.6288670   0.0000000   0.0000000
 AtZNuc=   7.0000000   6.0000000   6.0000000  16.0000000   6.0000000   6.0000000   6.0000000   9.0000000   6.0000000  16.0000000

  Atom        51          52          53          54          55          56          57          58          59          60
 IAtWgt=          12          14          12          12          32           1           1           1           1           1
 AtmWgt=  12.0000000  14.0030740  12.0000000  12.0000000  31.9720718   1.0078250   1.0078250   1.0078250   1.0078250   1.0078250
 NucSpn=           0           2           0           0           0           1           1           1           1           1
 AtZEff=  -0.0000000  -0.0000000  -0.0000000  -0.0000000  -0.0000000  -0.0000000  -0.0000000  -0.0000000  -0.0000000  -0.0000000
 NQMom=    0.0000000   2.0440000   0.0000000   0.0000000   0.0000000   0.0000000   0.0000000   0.0000000   0.0000000   0.0000000
 NMagM=    0.0000000   0.4037610   0.0000000   0.0000000   0.0000000   2.7928460   2.7928460   2.7928460   2.7928460   2.7928460
 AtZNuc=   6.0000000   7.0000000   6.0000000   6.0000000  16.0000000   1.0000000   1.0000000   1.0000000   1.0000000   1.0000000

  Atom        61          62          63          64          65          66          67
 IAtWgt=           1           1           1           1           1           1           1
 AtmWgt=   1.0078250   1.0078250   1.0078250   1.0078250   1.0078250   1.0078250   1.0078250
 NucSpn=           1           1           1           1           1           1           1
 AtZEff=  -0.0000000  -0.0000000  -0.0000000  -0.0000000  -0.0000000  -0.0000000  -0.0000000
 NQMom=    0.0000000   0.0000000   0.0000000   0.0000000   0.0000000   0.0000000   0.0000000
 NMagM=    2.7928460   2.7928460   2.7928460   2.7928460   2.7928460   2.7928460   2.7928460
 AtZNuc=   1.0000000   1.0000000   1.0000000   1.0000000   1.0000000   1.0000000   1.0000000
 Leave Link  101 at Fri Jul 24 04:34:52 2020, MaxMem=  4026531840 cpu:               3.2 elap:               0.7
 (Enter /opt/ohpc/pub/libs/gaussian/g16-A.03/sandybridge/g16/l103.exe)

 GradGradGradGradGradGradGradGradGradGradGradGradGradGradGradGradGradGrad
 Berny optimization.
 Initialization pass.
                           ----------------------------
                           !    Initial Parameters    !
                           ! (Angstroms and Degrees)  !
 --------------------------                            --------------------------
 ! Name  Definition              Value          Derivative Info.                !
 --------------------------------------------------------------------------------
 ! R1    R(1,2)                  1.4002         estimate D2E/DX2                !
 ! R2    R(1,6)                  1.6369         estimate D2E/DX2                !
 ! R3    R(1,56)                 1.1371         estimate D2E/DX2                !
 ! R4    R(2,3)                  1.3677         estimate D2E/DX2                !
 ! R5    R(2,57)                 1.0681         estimate D2E/DX2                !
 ! R6    R(3,4)                  1.2699         estimate D2E/DX2                !
 ! R7    R(3,5)                  1.4433         estimate D2E/DX2                !
 ! R8    R(5,6)                  1.7157         estimate D2E/DX2                !
 ! R9    R(5,7)                  1.4629         estimate D2E/DX2                !
 ! R10   R(7,8)                  1.2871         estimate D2E/DX2                !
 ! R11   R(7,11)                 1.7632         estimate D2E/DX2                !
 ! R12   R(8,9)                  1.4387         estimate D2E/DX2                !
 ! R13   R(9,10)                 1.3562         estimate D2E/DX2                !
 ! R14   R(9,58)                 1.0943         estimate D2E/DX2                !
 ! R15   R(10,11)                1.6714         estimate D2E/DX2                !
 ! R16   R(10,12)                1.5104         estimate D2E/DX2                !
 ! R17   R(12,13)                1.3997         estimate D2E/DX2                !
 ! R18   R(12,17)                1.6668         estimate D2E/DX2                !
 ! R19   R(13,14)                1.4336         estimate D2E/DX2                !
 ! R20   R(13,59)                1.0296         estimate D2E/DX2                !
 ! R21   R(14,15)                1.3509         estimate D2E/DX2                !
 ! R22   R(14,16)                1.3514         estimate D2E/DX2                !
 ! R23   R(16,17)                1.7202         estimate D2E/DX2                !
 ! R24   R(16,18)                1.4703         estimate D2E/DX2                !
 ! R25   R(18,19)                1.2637         estimate D2E/DX2                !
 ! R26   R(18,22)                1.6929         estimate D2E/DX2                !
 ! R27   R(19,20)                1.419          estimate D2E/DX2                !
 ! R28   R(20,21)                1.4203         estimate D2E/DX2                !
 ! R29   R(20,60)                1.0687         estimate D2E/DX2                !
 ! R30   R(21,22)                1.6861         estimate D2E/DX2                !
 ! R31   R(21,23)                1.4221         estimate D2E/DX2                !
 ! R32   R(23,24)                1.4587         estimate D2E/DX2                !
 ! R33   R(23,28)                1.7521         estimate D2E/DX2                !
 ! R34   R(24,25)                1.3766         estimate D2E/DX2                !
 ! R35   R(24,61)                1.0253         estimate D2E/DX2                !
 ! R36   R(25,26)                1.3584         estimate D2E/DX2                !
 ! R37   R(25,27)                1.3597         estimate D2E/DX2                !
 ! R38   R(27,28)                1.6782         estimate D2E/DX2                !
 ! R39   R(27,29)                1.4906         estimate D2E/DX2                !
 ! R40   R(29,30)                1.2876         estimate D2E/DX2                !
 ! R41   R(29,33)                1.7291         estimate D2E/DX2                !
 ! R42   R(30,31)                1.3878         estimate D2E/DX2                !
 ! R43   R(31,32)                1.4285         estimate D2E/DX2                !
 ! R44   R(31,62)                1.0761         estimate D2E/DX2                !
 ! R45   R(32,33)                1.7323         estimate D2E/DX2                !
 ! R46   R(32,34)                1.435          estimate D2E/DX2                !
 ! R47   R(34,35)                1.3057         estimate D2E/DX2                !
 ! R48   R(34,39)                1.7555         estimate D2E/DX2                !
 ! R49   R(35,36)                1.5045         estimate D2E/DX2                !
 ! R50   R(35,63)                1.0953         estimate D2E/DX2                !
 ! R51   R(36,37)                1.3708         estimate D2E/DX2                !
 ! R52   R(36,38)                1.356          estimate D2E/DX2                !
 ! R53   R(38,39)                1.739          estimate D2E/DX2                !
 ! R54   R(38,40)                1.3727         estimate D2E/DX2                !
 ! R55   R(40,41)                1.3682         estimate D2E/DX2                !
 ! R56   R(40,44)                1.6563         estimate D2E/DX2                !
 ! R57   R(41,42)                1.4456         estimate D2E/DX2                !
 ! R58   R(42,43)                1.335          estimate D2E/DX2                !
 ! R59   R(42,64)                1.1015         estimate D2E/DX2                !
 ! R60   R(43,44)                1.7608         estimate D2E/DX2                !
 ! R61   R(43,45)                1.4261         estimate D2E/DX2                !
 ! R62   R(45,46)                1.382          estimate D2E/DX2                !
 ! R63   R(45,50)                1.7072         estimate D2E/DX2                !
 ! R64   R(46,47)                1.4867         estimate D2E/DX2                !
 ! R65   R(46,65)                1.1377         estimate D2E/DX2                !
 ! R66   R(47,48)                1.3102         estimate D2E/DX2                !
 ! R67   R(47,49)                1.366          estimate D2E/DX2                !
 ! R68   R(49,50)                1.7572         estimate D2E/DX2                !
 ! R69   R(49,51)                1.4543         estimate D2E/DX2                !
 ! R70   R(51,52)                1.3566         estimate D2E/DX2                !
 ! R71   R(51,55)                1.7016         estimate D2E/DX2                !
 ! R72   R(52,53)                1.3873         estimate D2E/DX2                !
 ! R73   R(53,54)                1.41           estimate D2E/DX2                !
 ! R74   R(53,66)                1.0318         estimate D2E/DX2                !
 ! R75   R(54,55)                1.7919         estimate D2E/DX2                !
 ! R76   R(54,67)                1.0387         estimate D2E/DX2                !
 ! A1    A(2,1,6)              111.573          estimate D2E/DX2                !
 ! A2    A(2,1,56)             128.1051         estimate D2E/DX2                !
 ! A3    A(6,1,56)             120.0307         estimate D2E/DX2                !
 ! A4    A(1,2,3)              113.3234         estimate D2E/DX2                !
 ! A5    A(1,2,57)             121.1314         estimate D2E/DX2                !
 ! A6    A(3,2,57)             124.853          estimate D2E/DX2                !
 ! A7    A(2,3,4)              125.8036         estimate D2E/DX2                !
 ! A8    A(2,3,5)              112.1528         estimate D2E/DX2                !
 ! A9    A(4,3,5)              122.026          estimate D2E/DX2                !
 ! A10   A(3,5,6)              107.9708         estimate D2E/DX2                !
 ! A11   A(3,5,7)              129.9845         estimate D2E/DX2                !
 ! A12   A(6,5,7)              121.9219         estimate D2E/DX2                !
 ! A13   A(1,6,5)               94.7572         estimate D2E/DX2                !
 ! A14   A(5,7,8)              121.9568         estimate D2E/DX2                !
 ! A15   A(5,7,11)             121.2289         estimate D2E/DX2                !
 ! A16   A(8,7,11)             116.6117         estimate D2E/DX2                !
 ! A17   A(7,8,9)              106.7112         estimate D2E/DX2                !
 ! A18   A(8,9,10)             116.0506         estimate D2E/DX2                !
 ! A19   A(8,9,58)             115.9928         estimate D2E/DX2                !
 ! A20   A(10,9,58)            127.8171         estimate D2E/DX2                !
 ! A21   A(9,10,11)            111.2354         estimate D2E/DX2                !
 ! A22   A(9,10,12)            123.2189         estimate D2E/DX2                !
 ! A23   A(11,10,12)           125.5457         estimate D2E/DX2                !
 ! A24   A(7,11,10)             88.9727         estimate D2E/DX2                !
 ! A25   A(10,12,13)           127.8868         estimate D2E/DX2                !
 ! A26   A(10,12,17)           120.3201         estimate D2E/DX2                !
 ! A27   A(13,12,17)           111.7748         estimate D2E/DX2                !
 ! A28   A(12,13,14)           110.611          estimate D2E/DX2                !
 ! A29   A(12,13,59)           124.833          estimate D2E/DX2                !
 ! A30   A(14,13,59)           124.556          estimate D2E/DX2                !
 ! A31   A(13,14,15)           118.3768         estimate D2E/DX2                !
 ! A32   A(13,14,16)           113.5505         estimate D2E/DX2                !
 ! A33   A(15,14,16)           127.9031         estimate D2E/DX2                !
 ! A34   A(14,16,17)           110.4082         estimate D2E/DX2                !
 ! A35   A(14,16,18)           128.6356         estimate D2E/DX2                !
 ! A36   A(17,16,18)           120.4575         estimate D2E/DX2                !
 ! A37   A(12,17,16)            93.535          estimate D2E/DX2                !
 ! A38   A(16,18,19)           123.4539         estimate D2E/DX2                !
 ! A39   A(16,18,22)           120.8992         estimate D2E/DX2                !
 ! A40   A(19,18,22)           115.0443         estimate D2E/DX2                !
 ! A41   A(18,19,20)           113.2569         estimate D2E/DX2                !
 ! A42   A(19,20,21)           110.1751         estimate D2E/DX2                !
 ! A43   A(19,20,60)           121.491          estimate D2E/DX2                !
 ! A44   A(21,20,60)           127.8741         estimate D2E/DX2                !
 ! A45   A(20,21,22)           110.1435         estimate D2E/DX2                !
 ! A46   A(20,21,23)           123.5563         estimate D2E/DX2                !
 ! A47   A(22,21,23)           126.3002         estimate D2E/DX2                !
 ! A48   A(18,22,21)            91.1981         estimate D2E/DX2                !
 ! A49   A(21,23,24)           126.1904         estimate D2E/DX2                !
 ! A50   A(21,23,28)           125.3705         estimate D2E/DX2                !
 ! A51   A(24,23,28)           108.1426         estimate D2E/DX2                !
 ! A52   A(23,24,25)           109.7966         estimate D2E/DX2                !
 ! A53   A(23,24,61)           120.3997         estimate D2E/DX2                !
 ! A54   A(25,24,61)           129.5716         estimate D2E/DX2                !
 ! A55   A(24,25,26)           118.6236         estimate D2E/DX2                !
 ! A56   A(24,25,27)           117.553          estimate D2E/DX2                !
 ! A57   A(26,25,27)           123.793          estimate D2E/DX2                !
 ! A58   A(25,27,28)           110.3927         estimate D2E/DX2                !
 ! A59   A(25,27,29)           129.5112         estimate D2E/DX2                !
 ! A60   A(28,27,29)           119.7094         estimate D2E/DX2                !
 ! A61   A(23,28,27)            93.817          estimate D2E/DX2                !
 ! A62   A(27,29,30)           123.0415         estimate D2E/DX2                !
 ! A63   A(27,29,33)           122.732          estimate D2E/DX2                !
 ! A64   A(30,29,33)           113.8299         estimate D2E/DX2                !
 ! A65   A(29,30,31)           113.6468         estimate D2E/DX2                !
 ! A66   A(30,31,32)           113.209          estimate D2E/DX2                !
 ! A67   A(30,31,62)           118.5775         estimate D2E/DX2                !
 ! A68   A(32,31,62)           128.0752         estimate D2E/DX2                !
 ! A69   A(31,32,33)           107.9863         estimate D2E/DX2                !
 ! A70   A(31,32,34)           129.0977         estimate D2E/DX2                !
 ! A71   A(33,32,34)           122.6379         estimate D2E/DX2                !
 ! A72   A(29,33,32)            91.1782         estimate D2E/DX2                !
 ! A73   A(32,34,35)           127.9678         estimate D2E/DX2                !
 ! A74   A(32,34,39)           119.7432         estimate D2E/DX2                !
 ! A75   A(35,34,39)           112.2452         estimate D2E/DX2                !
 ! A76   A(34,35,36)           110.7898         estimate D2E/DX2                !
 ! A77   A(34,35,63)           125.9576         estimate D2E/DX2                !
 ! A78   A(36,35,63)           123.2336         estimate D2E/DX2                !
 ! A79   A(35,36,37)           120.1326         estimate D2E/DX2                !
 ! A80   A(35,36,38)           115.3215         estimate D2E/DX2                !
 ! A81   A(37,36,38)           124.5367         estimate D2E/DX2                !
 ! A82   A(36,38,39)           107.9946         estimate D2E/DX2                !
 ! A83   A(36,38,40)           129.0312         estimate D2E/DX2                !
 ! A84   A(39,38,40)           122.971          estimate D2E/DX2                !
 ! A85   A(34,39,38)            93.6335         estimate D2E/DX2                !
 ! A86   A(38,40,41)           119.1849         estimate D2E/DX2                !
 ! A87   A(38,40,44)           125.4191         estimate D2E/DX2                !
 ! A88   A(41,40,44)           115.3472         estimate D2E/DX2                !
 ! A89   A(40,41,42)           105.7785         estimate D2E/DX2                !
 ! A90   A(41,42,43)           119.9485         estimate D2E/DX2                !
 ! A91   A(41,42,64)           113.3573         estimate D2E/DX2                !
 ! A92   A(43,42,64)           126.5915         estimate D2E/DX2                !
 ! A93   A(42,43,44)           105.2871         estimate D2E/DX2                !
 ! A94   A(42,43,45)           128.9052         estimate D2E/DX2                !
 ! A95   A(44,43,45)           125.5115         estimate D2E/DX2                !
 ! A96   A(40,44,43)            93.4693         estimate D2E/DX2                !
 ! A97   A(43,45,46)           125.2743         estimate D2E/DX2                !
 ! A98   A(43,45,50)           122.4742         estimate D2E/DX2                !
 ! A99   A(46,45,50)           112.1268         estimate D2E/DX2                !
 ! A100  A(45,46,47)           111.3346         estimate D2E/DX2                !
 ! A101  A(45,46,65)           126.5858         estimate D2E/DX2                !
 ! A102  A(47,46,65)           121.8568         estimate D2E/DX2                !
 ! A103  A(46,47,48)           118.5876         estimate D2E/DX2                !
 ! A104  A(46,47,49)           112.8233         estimate D2E/DX2                !
 ! A105  A(48,47,49)           128.5225         estimate D2E/DX2                !
 ! A106  A(47,49,50)           110.3658         estimate D2E/DX2                !
 ! A107  A(47,49,51)           126.9613         estimate D2E/DX2                !
 ! A108  A(50,49,51)           122.3762         estimate D2E/DX2                !
 ! A109  A(45,50,49)            93.3016         estimate D2E/DX2                !
 ! A110  A(49,51,52)           117.9848         estimate D2E/DX2                !
 ! A111  A(49,51,55)           123.1533         estimate D2E/DX2                !
 ! A112  A(52,51,55)           118.309          estimate D2E/DX2                !
 ! A113  A(51,52,53)           108.3954         estimate D2E/DX2                !
 ! A114  A(52,53,54)           115.9068         estimate D2E/DX2                !
 ! A115  A(52,53,66)           118.7543         estimate D2E/DX2                !
 ! A116  A(54,53,66)           125.2463         estimate D2E/DX2                !
 ! A117  A(53,54,55)           108.7824         estimate D2E/DX2                !
 ! A118  A(53,54,67)           133.8167         estimate D2E/DX2                !
 ! A119  A(55,54,67)           117.4004         estimate D2E/DX2                !
 ! A120  A(51,55,54)            88.252          estimate D2E/DX2                !
 ! D1    D(6,1,2,3)             -4.9148         estimate D2E/DX2                !
 ! D2    D(6,1,2,57)          -175.8244         estimate D2E/DX2                !
 ! D3    D(56,1,2,3)          -178.6337         estimate D2E/DX2                !
 ! D4    D(56,1,2,57)           10.4567         estimate D2E/DX2                !
 ! D5    D(2,1,6,5)              4.4595         estimate D2E/DX2                !
 ! D6    D(56,1,6,5)           178.7527         estimate D2E/DX2                !
 ! D7    D(1,2,3,4)           -175.7946         estimate D2E/DX2                !
 ! D8    D(1,2,3,5)              2.7012         estimate D2E/DX2                !
 ! D9    D(57,2,3,4)            -5.2802         estimate D2E/DX2                !
 ! D10   D(57,2,3,5)           173.2156         estimate D2E/DX2                !
 ! D11   D(2,3,5,6)              0.5383         estimate D2E/DX2                !
 ! D12   D(2,3,5,7)            176.4906         estimate D2E/DX2                !
 ! D13   D(4,3,5,6)            179.0994         estimate D2E/DX2                !
 ! D14   D(4,3,5,7)             -4.9483         estimate D2E/DX2                !
 ! D15   D(3,5,6,1)             -2.8766         estimate D2E/DX2                !
 ! D16   D(7,5,6,1)           -179.2232         estimate D2E/DX2                !
 ! D17   D(3,5,7,8)           -173.7585         estimate D2E/DX2                !
 ! D18   D(3,5,7,11)             0.8944         estimate D2E/DX2                !
 ! D19   D(6,5,7,8)              1.7043         estimate D2E/DX2                !
 ! D20   D(6,5,7,11)           176.3572         estimate D2E/DX2                !
 ! D21   D(5,7,8,9)           -178.1412         estimate D2E/DX2                !
 ! D22   D(11,7,8,9)             6.9722         estimate D2E/DX2                !
 ! D23   D(5,7,11,10)          179.7381         estimate D2E/DX2                !
 ! D24   D(8,7,11,10)           -5.3355         estimate D2E/DX2                !
 ! D25   D(7,8,9,10)            -5.8571         estimate D2E/DX2                !
 ! D26   D(7,8,9,58)           178.0964         estimate D2E/DX2                !
 ! D27   D(8,9,10,11)            2.154          estimate D2E/DX2                !
 ! D28   D(8,9,10,12)         -177.8395         estimate D2E/DX2                !
 ! D29   D(58,9,10,11)         177.6546         estimate D2E/DX2                !
 ! D30   D(58,9,10,12)          -2.3389         estimate D2E/DX2                !
 ! D31   D(9,10,11,7)            1.443          estimate D2E/DX2                !
 ! D32   D(12,10,11,7)        -178.5637         estimate D2E/DX2                !
 ! D33   D(9,10,12,13)          -3.2603         estimate D2E/DX2                !
 ! D34   D(9,10,12,17)         178.4322         estimate D2E/DX2                !
 ! D35   D(11,10,12,13)        176.7472         estimate D2E/DX2                !
 ! D36   D(11,10,12,17)         -1.5603         estimate D2E/DX2                !
 ! D37   D(10,12,13,14)       -178.3169         estimate D2E/DX2                !
 ! D38   D(10,12,13,59)          1.7317         estimate D2E/DX2                !
 ! D39   D(17,12,13,14)          0.1099         estimate D2E/DX2                !
 ! D40   D(17,12,13,59)       -179.8415         estimate D2E/DX2                !
 ! D41   D(10,12,17,16)       -179.7607         estimate D2E/DX2                !
 ! D42   D(13,12,17,16)          1.6777         estimate D2E/DX2                !
 ! D43   D(12,13,14,15)       -178.1691         estimate D2E/DX2                !
 ! D44   D(12,13,14,16)         -2.5281         estimate D2E/DX2                !
 ! D45   D(59,13,14,15)          1.7824         estimate D2E/DX2                !
 ! D46   D(59,13,14,16)        177.4235         estimate D2E/DX2                !
 ! D47   D(13,14,16,17)          3.7123         estimate D2E/DX2                !
 ! D48   D(13,14,16,18)        175.5131         estimate D2E/DX2                !
 ! D49   D(15,14,16,17)        178.8507         estimate D2E/DX2                !
 ! D50   D(15,14,16,18)         -9.3485         estimate D2E/DX2                !
 ! D51   D(14,16,17,12)         -3.1193         estimate D2E/DX2                !
 ! D52   D(18,16,17,12)       -175.6939         estimate D2E/DX2                !
 ! D53   D(14,16,18,19)       -176.8793         estimate D2E/DX2                !
 ! D54   D(14,16,18,22)         12.4677         estimate D2E/DX2                !
 ! D55   D(17,16,18,19)         -5.7997         estimate D2E/DX2                !
 ! D56   D(17,16,18,22)       -176.4527         estimate D2E/DX2                !
 ! D57   D(16,18,19,20)       -172.9158         estimate D2E/DX2                !
 ! D58   D(22,18,19,20)         -1.7644         estimate D2E/DX2                !
 ! D59   D(16,18,22,21)        174.8461         estimate D2E/DX2                !
 ! D60   D(19,18,22,21)          3.448          estimate D2E/DX2                !
 ! D61   D(18,19,20,21)         -1.341          estimate D2E/DX2                !
 ! D62   D(18,19,20,60)       -174.139          estimate D2E/DX2                !
 ! D63   D(19,20,21,22)          3.7653         estimate D2E/DX2                !
 ! D64   D(19,20,21,23)       -176.3244         estimate D2E/DX2                !
 ! D65   D(60,20,21,22)        175.9818         estimate D2E/DX2                !
 ! D66   D(60,20,21,23)         -4.1079         estimate D2E/DX2                !
 ! D67   D(20,21,22,18)         -3.9776         estimate D2E/DX2                !
 ! D68   D(23,21,22,18)        176.1152         estimate D2E/DX2                !
 ! D69   D(20,21,23,24)       -177.0167         estimate D2E/DX2                !
 ! D70   D(20,21,23,28)         -4.0225         estimate D2E/DX2                !
 ! D71   D(22,21,23,24)          2.8788         estimate D2E/DX2                !
 ! D72   D(22,21,23,28)        175.8729         estimate D2E/DX2                !
 ! D73   D(21,23,24,25)        178.8335         estimate D2E/DX2                !
 ! D74   D(21,23,24,61)         -6.1897         estimate D2E/DX2                !
 ! D75   D(28,23,24,25)          4.8411         estimate D2E/DX2                !
 ! D76   D(28,23,24,61)        179.8179         estimate D2E/DX2                !
 ! D77   D(21,23,28,27)       -179.2264         estimate D2E/DX2                !
 ! D78   D(24,23,28,27)         -5.1721         estimate D2E/DX2                !
 ! D79   D(23,24,25,26)        179.8932         estimate D2E/DX2                !
 ! D80   D(23,24,25,27)         -2.0387         estimate D2E/DX2                !
 ! D81   D(61,24,25,26)          5.5158         estimate D2E/DX2                !
 ! D82   D(61,24,25,27)       -176.4161         estimate D2E/DX2                !
 ! D83   D(24,25,27,28)         -1.9436         estimate D2E/DX2                !
 ! D84   D(24,25,27,29)       -174.6502         estimate D2E/DX2                !
 ! D85   D(26,25,27,28)        176.0158         estimate D2E/DX2                !
 ! D86   D(26,25,27,29)          3.3092         estimate D2E/DX2                !
 ! D87   D(25,27,28,23)          4.1516         estimate D2E/DX2                !
 ! D88   D(29,27,28,23)        177.6768         estimate D2E/DX2                !
 ! D89   D(25,27,29,30)       -176.1913         estimate D2E/DX2                !
 ! D90   D(25,27,29,33)         -3.8702         estimate D2E/DX2                !
 ! D91   D(28,27,29,30)         11.6831         estimate D2E/DX2                !
 ! D92   D(28,27,29,33)       -175.9957         estimate D2E/DX2                !
 ! D93   D(27,29,30,31)        176.3733         estimate D2E/DX2                !
 ! D94   D(33,29,30,31)          3.4316         estimate D2E/DX2                !
 ! D95   D(27,29,33,32)       -174.2383         estimate D2E/DX2                !
 ! D96   D(30,29,33,32)         -1.2718         estimate D2E/DX2                !
 ! D97   D(29,30,31,32)         -4.3739         estimate D2E/DX2                !
 ! D98   D(29,30,31,62)        171.6967         estimate D2E/DX2                !
 ! D99   D(30,31,32,33)          3.2238         estimate D2E/DX2                !
 ! D100  D(30,31,32,34)        177.1959         estimate D2E/DX2                !
 ! D101  D(62,31,32,33)       -172.3918         estimate D2E/DX2                !
 ! D102  D(62,31,32,34)          1.5802         estimate D2E/DX2                !
 ! D103  D(31,32,33,29)         -1.1493         estimate D2E/DX2                !
 ! D104  D(34,32,33,29)       -175.5955         estimate D2E/DX2                !
 ! D105  D(31,32,34,35)        179.5241         estimate D2E/DX2                !
 ! D106  D(31,32,34,39)          2.1308         estimate D2E/DX2                !
 ! D107  D(33,32,34,35)         -7.2879         estimate D2E/DX2                !
 ! D108  D(33,32,34,39)        175.3188         estimate D2E/DX2                !
 ! D109  D(32,34,35,36)       -176.3592         estimate D2E/DX2                !
 ! D110  D(32,34,35,63)          2.0897         estimate D2E/DX2                !
 ! D111  D(39,34,35,36)          1.1955         estimate D2E/DX2                !
 ! D112  D(39,34,35,63)        179.6444         estimate D2E/DX2                !
 ! D113  D(32,34,39,38)        177.113          estimate D2E/DX2                !
 ! D114  D(35,34,39,38)         -0.6669         estimate D2E/DX2                !
 ! D115  D(34,35,36,37)        179.6758         estimate D2E/DX2                !
 ! D116  D(34,35,36,38)         -1.3809         estimate D2E/DX2                !
 ! D117  D(63,35,36,37)          1.1768         estimate D2E/DX2                !
 ! D118  D(63,35,36,38)       -179.8799         estimate D2E/DX2                !
 ! D119  D(35,36,38,39)          0.8451         estimate D2E/DX2                !
 ! D120  D(35,36,38,40)       -179.7975         estimate D2E/DX2                !
 ! D121  D(37,36,38,39)        179.7356         estimate D2E/DX2                !
 ! D122  D(37,36,38,40)         -0.9069         estimate D2E/DX2                !
 ! D123  D(36,38,39,34)         -0.1478         estimate D2E/DX2                !
 ! D124  D(40,38,39,34)       -179.5529         estimate D2E/DX2                !
 ! D125  D(36,38,40,41)       -175.8922         estimate D2E/DX2                !
 ! D126  D(36,38,40,44)          1.4451         estimate D2E/DX2                !
 ! D127  D(39,38,40,41)          3.3794         estimate D2E/DX2                !
 ! D128  D(39,38,40,44)       -179.2834         estimate D2E/DX2                !
 ! D129  D(38,40,41,42)       -178.7361         estimate D2E/DX2                !
 ! D130  D(44,40,41,42)          3.6648         estimate D2E/DX2                !
 ! D131  D(38,40,44,43)        178.4314         estimate D2E/DX2                !
 ! D132  D(41,40,44,43)         -4.1409         estimate D2E/DX2                !
 ! D133  D(40,41,42,43)         -1.1466         estimate D2E/DX2                !
 ! D134  D(40,41,42,64)       -177.7012         estimate D2E/DX2                !
 ! D135  D(41,42,43,44)         -1.6035         estimate D2E/DX2                !
 ! D136  D(41,42,43,45)       -175.5396         estimate D2E/DX2                !
 ! D137  D(64,42,43,44)        174.4562         estimate D2E/DX2                !
 ! D138  D(64,42,43,45)          0.5201         estimate D2E/DX2                !
 ! D139  D(42,43,44,40)          3.0788         estimate D2E/DX2                !
 ! D140  D(45,43,44,40)        177.2827         estimate D2E/DX2                !
 ! D141  D(42,43,45,46)        179.7305         estimate D2E/DX2                !
 ! D142  D(42,43,45,50)         -4.654          estimate D2E/DX2                !
 ! D143  D(44,43,45,46)          6.9218         estimate D2E/DX2                !
 ! D144  D(44,43,45,50)       -177.4626         estimate D2E/DX2                !
 ! D145  D(43,45,46,47)        177.7912         estimate D2E/DX2                !
 ! D146  D(43,45,46,65)         -7.5914         estimate D2E/DX2                !
 ! D147  D(50,45,46,47)          1.7835         estimate D2E/DX2                !
 ! D148  D(50,45,46,65)        176.4008         estimate D2E/DX2                !
 ! D149  D(43,45,50,49)       -178.2328         estimate D2E/DX2                !
 ! D150  D(46,45,50,49)         -2.096          estimate D2E/DX2                !
 ! D151  D(45,46,47,48)        176.8955         estimate D2E/DX2                !
 ! D152  D(45,46,47,49)         -0.3894         estimate D2E/DX2                !
 ! D153  D(65,46,47,48)          1.9833         estimate D2E/DX2                !
 ! D154  D(65,46,47,49)       -175.3017         estimate D2E/DX2                !
 ! D155  D(46,47,49,50)         -1.13           estimate D2E/DX2                !
 ! D156  D(46,47,49,51)       -174.9411         estimate D2E/DX2                !
 ! D157  D(48,47,49,50)       -178.0825         estimate D2E/DX2                !
 ! D158  D(48,47,49,51)          8.1064         estimate D2E/DX2                !
 ! D159  D(47,49,50,45)          1.8411         estimate D2E/DX2                !
 ! D160  D(51,49,50,45)        175.9869         estimate D2E/DX2                !
 ! D161  D(47,49,51,52)       -178.8049         estimate D2E/DX2                !
 ! D162  D(47,49,51,55)         -7.4877         estimate D2E/DX2                !
 ! D163  D(50,49,51,52)          8.0682         estimate D2E/DX2                !
 ! D164  D(50,49,51,55)        179.3855         estimate D2E/DX2                !
 ! D165  D(49,51,52,53)        178.3212         estimate D2E/DX2                !
 ! D166  D(55,51,52,53)          6.575          estimate D2E/DX2                !
 ! D167  D(49,51,55,54)       -176.9067         estimate D2E/DX2                !
 ! D168  D(52,51,55,54)         -5.616          estimate D2E/DX2                !
 ! D169  D(51,52,53,54)         -4.01           estimate D2E/DX2                !
 ! D170  D(51,52,53,66)        179.3055         estimate D2E/DX2                !
 ! D171  D(52,53,54,55)          0.1788         estimate D2E/DX2                !
 ! D172  D(52,53,54,67)       -179.5419         estimate D2E/DX2                !
 ! D173  D(66,53,54,55)        176.6193         estimate D2E/DX2                !
 ! D174  D(66,53,54,67)         -3.1014         estimate D2E/DX2                !
 ! D175  D(53,54,55,51)          2.803          estimate D2E/DX2                !
 ! D176  D(67,54,55,51)       -177.424          estimate D2E/DX2                !
 --------------------------------------------------------------------------------
 Trust Radius=3.00D-01 FncErr=1.00D-07 GrdErr=1.00D-06 EigMax=2.50D+02 EigMin=1.00D-04
 Number of steps in this run=    382 maximum allowed number of steps=    402.
 GradGradGradGradGradGradGradGradGradGradGradGradGradGradGradGradGradGrad

 Leave Link  103 at Fri Jul 24 04:34:52 2020, MaxMem=  4026531840 cpu:               0.2 elap:               0.1
 (Enter /opt/ohpc/pub/libs/gaussian/g16-A.03/sandybridge/g16/l202.exe)
 Stoichiometry    C35H12F5N5S10
 Framework group  C1[X(C35H12F5N5S10)]
 Deg. of freedom   195
 Full point group                 C1      NOp   1
 Largest Abelian subgroup         C1      NOp   1
 Largest concise Abelian subgroup C1      NOp   1
                         Standard orientation:                         
 ---------------------------------------------------------------------
 Center     Atomic      Atomic             Coordinates (Angstroms)
 Number     Number       Type             X           Y           Z
 ---------------------------------------------------------------------
      1          6           0       17.742372    2.983401    0.023029
      2          6           0       16.686005    3.902414    0.020049
      3          6           0       15.453823    3.310910   -0.028797
      4          9           0       14.341584    3.917383   -0.117367
      5          6           0       15.540201    1.870447   -0.002748
      6         16           0       17.198342    1.441303    0.097037
      7          6           0       14.477651    0.865447    0.031384
      8          7           0       14.730580   -0.388936    0.170305
      9          6           0       13.466817   -1.074297    0.115704
     10          6           0       12.363844   -0.286756    0.065992
     11         16           0       12.777328    1.332146    0.023173
     12          6           0       10.956230   -0.834125    0.052535
     13          6           0       10.555595   -2.175001    0.023987
     14          6           0        9.126063   -2.273762   -0.019566
     15          9           0        8.566980   -3.503493   -0.013428
     16          6           0        8.500316   -1.077011    0.031473
     17         16           0        9.650675    0.201918    0.029744
     18          6           0        7.063273   -0.786993   -0.080322
     19          7           0        6.586297    0.383252   -0.075295
     20          6           0        5.168135    0.410114   -0.034298
     21          6           0        4.652743   -0.913367   -0.040553
     22         16           0        5.916227   -2.028768    0.009614
     23          6           0        3.263788   -1.215871   -0.081632
     24          6           0        2.670337   -2.547358   -0.028960
     25          6           0        1.297853   -2.447889   -0.066384
     26          9           0        0.561453   -3.588750   -0.028866
     27          6           0        0.758315   -1.200226   -0.098688
     28         16           0        1.967367   -0.038318   -0.030532
     29          6           0       -0.671357   -0.783300   -0.034963
     30          7           0       -1.051069    0.441918   -0.147561
     31          6           0       -2.429732    0.600429   -0.139006
     32          6           0       -3.138723   -0.639254   -0.106680
     33         16           0       -1.975366   -1.918117    0.002988
     34          6           0       -4.553024   -0.871320   -0.035065
     35          6           0       -5.179076   -2.016952   -0.015245
     36          6           0       -6.669414   -1.811288   -0.024095
     37          9           0       -7.513216   -2.891518   -0.012952
     38          6           0       -7.076411   -0.517779   -0.020606
     39         16           0       -5.660018    0.491100   -0.030842
     40          6           0       -8.352993   -0.013224   -0.022850
     41          7           0       -8.535260    1.340330   -0.103980
     42          6           0       -9.964891    1.548183   -0.053217
     43          6           0      -10.788145    0.500524    0.029852
     44         16           0       -9.741778   -0.915390    0.003363
     45          6           0      -12.213845    0.477548    0.004620
     46          6           0      -12.995365   -0.658881    0.091539
     47          6           0      -14.443259   -0.321260    0.087152
     48          9           0      -15.315057   -1.299138    0.102037
     49          6           0      -14.673681    1.022819    0.007662
     50         16           0      -13.153102    1.902756   -0.030561
     51          6           0      -15.960864    1.695323    0.083688
     52          7           0      -15.981865    3.045887   -0.042169
     53          6           0      -17.300840    3.471081    0.021811
     54          6           0      -18.272871    2.453147    0.105294
     55         16           0      -17.445276    0.863846    0.106549
     56          1           0       18.857885    3.196679    0.079812
     57          1           0       16.865295    4.949490   -0.091189
     58          1           0       13.509509   -2.165429    0.187086
     59          1           0       11.196649   -2.980681    0.033659
     60          1           0        4.624494    1.326292   -0.118513
     61          1           0        3.265575   -3.381935   -0.050636
     62          1           0       -2.833023    1.597019   -0.091810
     63          1           0       -4.709613   -3.006590   -0.018792
     64          1           0      -10.256112    2.605980   -0.150599
     65          1           0      -12.629906   -1.736192    0.073919
     66          1           0      -17.500655    4.481041   -0.046724
     67          1           0      -19.310172    2.451969    0.158764
 ---------------------------------------------------------------------
 Rotational constants (GHZ):           0.1663679           0.0046041           0.0044805
 Leave Link  202 at Fri Jul 24 04:34:52 2020, MaxMem=  4026531840 cpu:               0.4 elap:               0.1
 (Enter /opt/ohpc/pub/libs/gaussian/g16-A.03/sandybridge/g16/l301.exe)
 Standard basis: CC-pVDZ (5D, 7F)
 Ernie: Thresh=  0.10000D-02 Tol=  0.10000D-05 Strict=F.
 Ernie:  190 primitive shells out of 1550 were deleted.
 There are   925 symmetry adapted cartesian basis functions of A   symmetry.
 There are   870 symmetry adapted basis functions of A   symmetry.
   870 basis functions,  2279 primitive gaussians,   925 cartesian basis functions
   231 alpha electrons      231 beta electrons
       nuclear repulsion energy      7751.1078829864 Hartrees.
 IExCor=32609 DFT=T Ex+Corr=LC-wPBE ExCW=0 ScaHFX=  1.000000
 ScaDFX=  1.000000  0.000000  1.000000  1.000000 ScalE2=  1.000000  1.000000
 IRadAn=      5 IRanWt=     -1 IRanGd=            0 ICorTp=0 IEmpDi=  4
 HFx  wShort=  0.000000 wLong=  0.071800 cFull=  0.000000 cShort=  0.000000 cLong=  1.000000
 DFx  wShort=  0.000000 wLong=  0.071800 cFull=  0.000000 cShort=  0.000000 cLong=  1.000000
 NAtoms=   67 NActive=   67 NUniq=   67 SFac= 1.00D+00 NAtFMM=   60 NAOKFM=T Big=T
 Integral buffers will be    131072 words long.
 Raffenetti 2 integral format.
 Two-electron integral symmetry is turned on.
 Leave Link  301 at Fri Jul 24 04:34:52 2020, MaxMem=  4026531840 cpu:               0.4 elap:               0.1
 (Enter /opt/ohpc/pub/libs/gaussian/g16-A.03/sandybridge/g16/l302.exe)
 NPDir=0 NMtPBC=     1 NCelOv=     1 NCel=       1 NClECP=     1 NCelD=      1
         NCelK=      1 NCelE2=     1 NClLst=     1 CellRange=     0.0.
 One-electron integrals computed using PRISM.
 One-electron integral symmetry used in STVInt
 NBasis=   870 RedAO= T EigKep=  2.91D-04  NBF=   870
 NBsUse=   870 1.00D-06 EigRej= -1.00D+00 NBFU=   870
 Precomputing XC quadrature grid using
 IXCGrd= 4 IRadAn=           5 IRanWt=          -1 IRanGd=           0 AccXCQ= 0.00D+00.
 Generated NRdTot=       0 NPtTot=           0 NUsed=           0 NTot=          32
 NSgBfM=   560   560   560   560   560 MxSgAt=    67 MxSgA2=    62.
 Leave Link  302 at Fri Jul 24 04:34:55 2020, MaxMem=  4026531840 cpu:              20.2 elap:               2.9
 (Enter /opt/ohpc/pub/libs/gaussian/g16-A.03/sandybridge/g16/l303.exe)
 DipDrv:  MaxL=1.
 Leave Link  303 at Fri Jul 24 04:34:56 2020, MaxMem=  4026531840 cpu:               1.9 elap:               0.5
 (Enter /opt/ohpc/pub/libs/gaussian/g16-A.03/sandybridge/g16/l401.exe)
 ExpMin= 1.22D-01 ExpMax= 1.11D+05 ExpMxC= 1.07D+03 IAcc=3 IRadAn=         5 AccDes= 0.00D+00
 Harris functional with IExCor=32609 and IRadAn=       5 diagonalized for initial guess.
 HarFok:  IExCor=32609 AccDes= 0.00D+00 IRadAn=         5 IDoV= 1 UseB2=F ITyADJ=14
 ICtDFT=  3500011 ScaDFX=  1.000000  1.000000  1.000000  1.000000
 FoFCou: FMM=F IPFlag=           0 FMFlag=      100000 FMFlg1=        2001
         NFxFlg=           0 DoJE=T BraDBF=F KetDBF=T FulRan=T
         wScrn=  0.000000 ICntrl=       500 IOpCl=  0 I1Cent=   200000004 NGrid=           0
         NMat0=    1 NMatS0=      1 NMatT0=    0 NMatD0=    1 NMtDS0=    0 NMtDT0=    0
 Petite list used in FoFCou.
 Harris En= -6092.19839325194    
 JPrj=0 DoOrth=F DoCkMO=F.
 Initial guess <Sx>= 0.0000 <Sy>= 0.0000 <Sz>= 0.0000 <S**2>= 0.0000 S= 0.0000
 Leave Link  401 at Fri Jul 24 04:35:03 2020, MaxMem=  4026531840 cpu:              51.0 elap:               7.5
 (Enter /opt/ohpc/pub/libs/gaussian/g16-A.03/sandybridge/g16/l502.exe)
 Integral symmetry usage will be decided dynamically.
 UHF open shell SCF:
 Using DIIS extrapolation, IDIIS=  1040.
 NGot=  4026531840 LenX=  4024804269 LenY=  4023947719
 Requested convergence on RMS density matrix=1.00D-08 within 128 cycles.
 Requested convergence on MAX density matrix=1.00D-06.
 Requested convergence on             energy=1.00D-06.
 No special actions if energy rises.
 Fock matrices will be formed incrementally for  20 cycles.
 Integral accuracy reduced to 1.0D-05 until final iterations.

 Cycle   1  Pass 0  IDiag  1:
 FoFJK:  IHMeth= 1 ICntrl=       0 DoSepK=T KAlg= 0 I1Cent=           0 FoldK=F
 IRaf=         1 NMat=       1 IRICut=       1 DoRegI=T DoRafI=F ISym2E= 0 IDoP0=0 IntGTp=1.
 FoFCou: FMM=T IPFlag=           0 FMFlag=      100000 FMFlg1=        2001
         NFxFlg=           0 DoJE=T BraDBF=F KetDBF=F FulRan=T
         wScrn=  0.000000 ICntrl=       500 IOpCl=  0 I1Cent=           0 NGrid=           0
         NMat0=    1 NMatS0=      1 NMatT0=    0 NMatD0=    1 NMtDS0=    0 NMtDT0=    0
 Symmetry not used in FoFCou.
 FMM levels:  10  Number of levels for PrismC:   9
 E= -6091.26769173943    
 DIIS: error= 1.57D-02 at cycle   1 NSaved=   1.
 NSaved= 1 IEnMin= 1 EnMin= -6091.26769173943     IErMin= 1 ErrMin= 1.57D-02
 ErrMax= 1.57D-02  0.00D+00 EMaxC= 1.00D-01 BMatC= 3.88D+00 BMatP= 3.88D+00
 IDIUse=3 WtCom= 8.43D-01 WtEn= 1.57D-01
 Coeff-Com:  0.100D+01
 Coeff-En:   0.100D+01
 Coeff:      0.100D+01
 Gap=     0.098 Goal=   None    Shift=    0.000
 Gap=     0.098 Goal=   None    Shift=    0.000
 GapD=    0.098 DampG=0.500 DampE=0.500 DampFc=0.2500 IDamp=-1.
 Damping current iteration by 2.50D-01
 RMSDP=3.61D-03 MaxDP=1.86D-01              OVMax= 3.06D-01

 Cycle   2  Pass 0  IDiag  1:
 RMSU=  9.02D-04    CP:  9.98D-01
 E= -6091.68154958790     Delta-E=       -0.413857848464 Rises=F Damp=T
 DIIS: error= 6.94D-03 at cycle   2 NSaved=   2.
 NSaved= 2 IEnMin= 2 EnMin= -6091.68154958790     IErMin= 2 ErrMin= 6.94D-03
 ErrMax= 6.94D-03  0.00D+00 EMaxC= 1.00D-01 BMatC= 5.76D-01 BMatP= 3.88D+00
 IDIUse=3 WtCom= 9.31D-01 WtEn= 6.94D-02
 Coeff-Com: -0.493D+00 0.149D+01
 Coeff-En:   0.000D+00 0.100D+01
 Coeff:     -0.459D+00 0.146D+01
 Gap=     0.119 Goal=   None    Shift=    0.000
 Gap=     0.119 Goal=   None    Shift=    0.000
 RMSDP=8.94D-04 MaxDP=5.18D-02 DE=-4.14D-01 OVMax= 2.44D-01

 Cycle   3  Pass 0  IDiag  1:
 RMSU=  8.34D-04    CP:  9.96D-01  1.35D+00
 E= -6092.26840052300     Delta-E=       -0.586850935098 Rises=F Damp=F
 DIIS: error= 6.59D-03 at cycle   3 NSaved=   3.
 NSaved= 3 IEnMin= 3 EnMin= -6092.26840052300     IErMin= 3 ErrMin= 6.59D-03
 ErrMax= 6.59D-03  0.00D+00 EMaxC= 1.00D-01 BMatC= 4.44D-01 BMatP= 5.76D-01
 IDIUse=3 WtCom= 9.34D-01 WtEn= 6.59D-02
 Coeff-Com: -0.329D+00 0.961D+00 0.368D+00
 Coeff-En:   0.000D+00 0.000D+00 0.100D+01
 Coeff:     -0.307D+00 0.898D+00 0.409D+00
 Gap=     0.132 Goal=   None    Shift=    0.000
 Gap=     0.132 Goal=   None    Shift=    0.000
 RMSDP=4.75D-04 MaxDP=4.86D-02 DE=-5.87D-01 OVMax= 6.68D-02

 Cycle   4  Pass 0  IDiag  1:
 RMSU=  3.40D-04    CP:  9.97D-01  1.42D+00  6.10D-01
 E= -6092.36655244206     Delta-E=       -0.098151919068 Rises=F Damp=F
 DIIS: error= 2.08D-03 at cycle   4 NSaved=   4.
 NSaved= 4 IEnMin= 4 EnMin= -6092.36655244206     IErMin= 4 ErrMin= 2.08D-03
 ErrMax= 2.08D-03  0.00D+00 EMaxC= 1.00D-01 BMatC= 4.05D-02 BMatP= 4.44D-01
 IDIUse=3 WtCom= 9.79D-01 WtEn= 2.08D-02
 Coeff-Com: -0.822D-01 0.253D+00 0.237D+00 0.592D+00
 Coeff-En:   0.000D+00 0.000D+00 0.913D-01 0.909D+00
 Coeff:     -0.804D-01 0.248D+00 0.234D+00 0.599D+00
 Gap=     0.134 Goal=   None    Shift=    0.000
 Gap=     0.134 Goal=   None    Shift=    0.000
 RMSDP=1.65D-04 MaxDP=1.43D-02 DE=-9.82D-02 OVMax= 2.45D-02

 Cycle   5  Pass 0  IDiag  1:
 RMSU=  1.05D-04    CP:  9.97D-01  1.39D+00  6.81D-01  6.77D-01
 E= -6092.37537585007     Delta-E=       -0.008823408005 Rises=F Damp=F
 DIIS: error= 8.44D-04 at cycle   5 NSaved=   5.
 NSaved= 5 IEnMin= 5 EnMin= -6092.37537585007     IErMin= 5 ErrMin= 8.44D-04
 ErrMax= 8.44D-04  0.00D+00 EMaxC= 1.00D-01 BMatC= 6.38D-03 BMatP= 4.05D-02
 IDIUse=3 WtCom= 9.92D-01 WtEn= 8.44D-03
 Coeff-Com: -0.170D-01 0.646D-01 0.103D+00 0.379D+00 0.470D+00
 Coeff-En:   0.000D+00 0.000D+00 0.000D+00 0.124D+00 0.876D+00
 Coeff:     -0.168D-01 0.640D-01 0.102D+00 0.377D+00 0.474D+00
 Gap=     0.134 Goal=   None    Shift=    0.000
 Gap=     0.134 Goal=   None    Shift=    0.000
 RMSDP=5.98D-05 MaxDP=5.22D-03 DE=-8.82D-03 OVMax= 8.11D-03

 Cycle   6  Pass 0  IDiag  1:
 RMSU=  4.06D-05    CP:  9.97D-01  1.39D+00  6.82D-01  7.62D-01  6.84D-01
 E= -6092.37682722174     Delta-E=       -0.001451371672 Rises=F Damp=F
 DIIS: error= 2.96D-04 at cycle   6 NSaved=   6.
 NSaved= 6 IEnMin= 6 EnMin= -6092.37682722174     IErMin= 6 ErrMin= 2.96D-04
 ErrMax= 2.96D-04  0.00D+00 EMaxC= 1.00D-01 BMatC= 7.52D-04 BMatP= 6.38D-03
 IDIUse=3 WtCom= 9.97D-01 WtEn= 2.96D-03
 Coeff-Com:  0.897D-02-0.140D-01 0.111D-01 0.109D+00 0.289D+00 0.596D+00
 Coeff-En:   0.000D+00 0.000D+00 0.000D+00 0.000D+00 0.749D-01 0.925D+00
 Coeff:      0.894D-02-0.140D-01 0.111D-01 0.109D+00 0.288D+00 0.597D+00
 Gap=     0.135 Goal=   None    Shift=    0.000
 Gap=     0.135 Goal=   None    Shift=    0.000
 RMSDP=2.65D-05 MaxDP=2.01D-03 DE=-1.45D-03 OVMax= 2.75D-03

 Cycle   7  Pass 0  IDiag  1:
 RMSU=  2.09D-05    CP:  9.97D-01  1.39D+00  6.86D-01  7.69D-01  7.73D-01
                    CP:  7.31D-01
 E= -6092.37698947804     Delta-E=       -0.000162256300 Rises=F Damp=F
 DIIS: error= 1.40D-04 at cycle   7 NSaved=   7.
 NSaved= 7 IEnMin= 7 EnMin= -6092.37698947804     IErMin= 7 ErrMin= 1.40D-04
 ErrMax= 1.40D-04  0.00D+00 EMaxC= 1.00D-01 BMatC= 1.62D-04 BMatP= 7.52D-04
 IDIUse=3 WtCom= 9.99D-01 WtEn= 1.40D-03
 Coeff-Com:  0.844D-02-0.168D-01-0.307D-02 0.344D-01 0.148D+00 0.400D+00
 Coeff-Com:  0.429D+00
 Coeff-En:   0.000D+00 0.000D+00 0.000D+00 0.000D+00 0.000D+00 0.106D+00
 Coeff-En:   0.894D+00
 Coeff:      0.843D-02-0.168D-01-0.307D-02 0.344D-01 0.148D+00 0.400D+00
 Coeff:      0.429D+00
 Gap=     0.135 Goal=   None    Shift=    0.000
 Gap=     0.135 Goal=   None    Shift=    0.000
 RMSDP=1.32D-05 MaxDP=9.31D-04 DE=-1.62D-04 OVMax= 1.03D-03

 Cycle   8  Pass 0  IDiag  1:
 RMSU=  1.21D-05    CP:  9.97D-01  1.38D+00  6.86D-01  7.72D-01  7.76D-01
                    CP:  8.38D-01  8.70D-01
 E= -6092.37702549217     Delta-E=       -0.000036014128 Rises=F Damp=F
 DIIS: error= 4.81D-05 at cycle   8 NSaved=   8.
 NSaved= 8 IEnMin= 8 EnMin= -6092.37702549217     IErMin= 8 ErrMin= 4.81D-05
 ErrMax= 4.81D-05  0.00D+00 EMaxC= 1.00D-01 BMatC= 1.67D-05 BMatP= 1.62D-04
 IDIUse=1 WtCom= 1.00D+00 WtEn= 0.00D+00
 Coeff-Com:  0.356D-02-0.739D-02-0.255D-02 0.326D-02 0.365D-01 0.123D+00
 Coeff-Com:  0.244D+00 0.600D+00
 Coeff:      0.356D-02-0.739D-02-0.255D-02 0.326D-02 0.365D-01 0.123D+00
 Coeff:      0.244D+00 0.600D+00
 Gap=     0.135 Goal=   None    Shift=    0.000
 Gap=     0.135 Goal=   None    Shift=    0.000
 RMSDP=1.64D-05 MaxDP=6.19D-04 DE=-3.60D-05 OVMax= 4.56D-04

 Cycle   9  Pass 0  IDiag  1:
 RMSU=  1.36D-05    CP:  9.97D-01  1.38D+00  6.87D-01  7.73D-01  7.86D-01
                    CP:  8.81D-01  1.18D+00  1.48D+00
 E= -6092.37703668720     Delta-E=       -0.000011195032 Rises=F Damp=F
 DIIS: error= 5.38D-05 at cycle   9 NSaved=   9.
 NSaved= 9 IEnMin= 9 EnMin= -6092.37703668720     IErMin= 8 ErrMin= 4.81D-05
 ErrMax= 5.38D-05  0.00D+00 EMaxC= 1.00D-01 BMatC= 1.24D-05 BMatP= 1.67D-05
 IDIUse=1 WtCom= 1.00D+00 WtEn= 0.00D+00
 Coeff-Com:  0.315D-02-0.652D-02-0.215D-02 0.306D-02 0.322D-01 0.108D+00
 Coeff-Com:  0.214D+00 0.517D+00 0.132D+00
 Coeff:      0.315D-02-0.652D-02-0.215D-02 0.306D-02 0.322D-01 0.108D+00
 Coeff:      0.214D+00 0.517D+00 0.132D+00
 Gap=     0.135 Goal=   None    Shift=    0.000
 Gap=     0.135 Goal=   None    Shift=    0.000
 RMSDP=4.37D-06 MaxDP=1.67D-04 DE=-1.12D-05 OVMax= 4.44D-05

 Initial convergence to 1.0D-05 achieved.  Increase integral accuracy.
 Cycle  10  Pass 1  IDiag  1:
 E= -6092.37634754276     Delta-E=        0.000689144441 Rises=F Damp=F
 DIIS: error= 2.29D-04 at cycle   1 NSaved=   1.
 NSaved= 1 IEnMin= 1 EnMin= -6092.37634754276     IErMin= 1 ErrMin= 2.29D-04
 ErrMax= 2.29D-04  0.00D+00 EMaxC= 1.00D-01 BMatC= 1.16D-04 BMatP= 1.16D-04
 IDIUse=3 WtCom= 9.98D-01 WtEn= 2.29D-03
 Coeff-Com:  0.100D+01
 Coeff-En:   0.100D+01
 Coeff:      0.100D+01
 Gap=     0.135 Goal=   None    Shift=    0.000
 Gap=     0.135 Goal=   None    Shift=    0.000
 RMSDP=4.37D-06 MaxDP=1.67D-04 DE= 6.89D-04 OVMax= 4.21D-04

 Cycle  11  Pass 1  IDiag  1:
 RMSU=  1.04D-04    CP:  1.00D+00
 E= -6092.37637058614     Delta-E=       -0.000023043376 Rises=F Damp=F
 DIIS: error= 1.47D-05 at cycle   2 NSaved=   2.
 NSaved= 2 IEnMin= 2 EnMin= -6092.37637058614     IErMin= 2 ErrMin= 1.47D-05
 ErrMax= 1.47D-05  0.00D+00 EMaxC= 1.00D-01 BMatC= 2.26D-06 BMatP= 1.16D-04
 IDIUse=1 WtCom= 1.00D+00 WtEn= 0.00D+00
 Coeff-Com:  0.470D-02 0.995D+00
 Coeff:      0.470D-02 0.995D+00
 Gap=     0.135 Goal=   None    Shift=    0.000
 Gap=     0.135 Goal=   None    Shift=    0.000
 RMSDP=4.62D-06 MaxDP=2.28D-04 DE=-2.30D-05 OVMax= 4.51D-04

 Cycle  12  Pass 1  IDiag  1:
 RMSU=  3.15D-06    CP:  1.00D+00  1.03D+00
 E= -6092.37636837195     Delta-E=        0.000002214185 Rises=F Damp=F
 DIIS: error= 3.51D-05 at cycle   3 NSaved=   3.
 NSaved= 3 IEnMin= 2 EnMin= -6092.37637058614     IErMin= 2 ErrMin= 1.47D-05
 ErrMax= 3.51D-05  0.00D+00 EMaxC= 1.00D-01 BMatC= 1.08D-05 BMatP= 2.26D-06
 IDIUse=1 WtCom= 1.00D+00 WtEn= 0.00D+00
 Coeff-Com: -0.160D-01 0.700D+00 0.316D+00
 Coeff:     -0.160D-01 0.700D+00 0.316D+00
 Gap=     0.135 Goal=   None    Shift=    0.000
 Gap=     0.135 Goal=   None    Shift=    0.000
 RMSDP=2.05D-06 MaxDP=1.60D-04 DE= 2.21D-06 OVMax= 3.15D-04

 Cycle  13  Pass 1  IDiag  1:
 RMSU=  8.48D-07    CP:  1.00D+00  1.03D+00  4.09D-01
 E= -6092.37637122691     Delta-E=       -0.000002854960 Rises=F Damp=F
 DIIS: error= 3.52D-06 at cycle   4 NSaved=   4.
 NSaved= 4 IEnMin= 4 EnMin= -6092.37637122691     IErMin= 4 ErrMin= 3.52D-06
 ErrMax= 3.52D-06  0.00D+00 EMaxC= 1.00D-01 BMatC= 1.14D-07 BMatP= 2.26D-06
 IDIUse=1 WtCom= 1.00D+00 WtEn= 0.00D+00
 Coeff-Com: -0.981D-02 0.399D+00 0.189D+00 0.421D+00
 Coeff:     -0.981D-02 0.399D+00 0.189D+00 0.421D+00
 Gap=     0.135 Goal=   None    Shift=    0.000
 Gap=     0.135 Goal=   None    Shift=    0.000
 RMSDP=2.20D-07 MaxDP=1.88D-05 DE=-2.85D-06 OVMax= 2.29D-05

 Cycle  14  Pass 1  IDiag  1:
 RMSU=  2.08D-07    CP:  1.00D+00  1.03D+00  4.18D-01  9.31D-01
 E= -6092.37637124870     Delta-E=       -0.000000021793 Rises=F Damp=F
 DIIS: error= 8.50D-07 at cycle   5 NSaved=   5.
 NSaved= 5 IEnMin= 5 EnMin= -6092.37637124870     IErMin= 5 ErrMin= 8.50D-07
 ErrMax= 8.50D-07  0.00D+00 EMaxC= 1.00D-01 BMatC= 4.84D-09 BMatP= 1.14D-07
 IDIUse=1 WtCom= 1.00D+00 WtEn= 0.00D+00
 Coeff-Com: -0.158D-02 0.570D-01 0.295D-01 0.177D+00 0.738D+00
 Coeff:     -0.158D-02 0.570D-01 0.295D-01 0.177D+00 0.738D+00
 Gap=     0.135 Goal=   None    Shift=    0.000
 Gap=     0.135 Goal=   None    Shift=    0.000
 RMSDP=8.44D-08 MaxDP=4.27D-06 DE=-2.18D-08 OVMax= 1.62D-05

 Cycle  15  Pass 1  IDiag  1:
 RMSU=  6.55D-08    CP:  1.00D+00  1.03D+00  4.22D-01  9.78D-01  9.07D-01
 E= -6092.37637125465     Delta-E=       -0.000000005946 Rises=F Damp=F
 DIIS: error= 3.67D-07 at cycle   6 NSaved=   6.
 NSaved= 6 IEnMin= 6 EnMin= -6092.37637125465     IErMin= 6 ErrMin= 3.67D-07
 ErrMax= 3.67D-07  0.00D+00 EMaxC= 1.00D-01 BMatC= 1.97D-09 BMatP= 4.84D-09
 IDIUse=1 WtCom= 1.00D+00 WtEn= 0.00D+00
 Coeff-Com:  0.371D-03-0.198D-01-0.779D-02 0.524D-01 0.470D+00 0.504D+00
 Coeff:      0.371D-03-0.198D-01-0.779D-02 0.524D-01 0.470D+00 0.504D+00
 Gap=     0.135 Goal=   None    Shift=    0.000
 Gap=     0.135 Goal=   None    Shift=    0.000
 RMSDP=3.82D-08 MaxDP=2.99D-06 DE=-5.95D-09 OVMax= 6.39D-06

 Cycle  16  Pass 1  IDiag  1:
 RMSU=  3.02D-08    CP:  1.00D+00  1.03D+00  4.23D-01  9.89D-01  9.56D-01
                    CP:  7.37D-01
 E= -6092.37637125350     Delta-E=        0.000000001153 Rises=F Damp=F
 DIIS: error= 1.24D-07 at cycle   7 NSaved=   7.
 NSaved= 7 IEnMin= 6 EnMin= -6092.37637125465     IErMin= 7 ErrMin= 1.24D-07
 ErrMax= 1.24D-07  0.00D+00 EMaxC= 1.00D-01 BMatC= 2.50D-10 BMatP= 1.97D-09
 IDIUse=1 WtCom= 1.00D+00 WtEn= 0.00D+00
 Coeff-Com:  0.393D-03-0.184D-01-0.792D-02 0.172D-01 0.236D+00 0.326D+00
 Coeff-Com:  0.447D+00
 Coeff:      0.393D-03-0.184D-01-0.792D-02 0.172D-01 0.236D+00 0.326D+00
 Coeff:      0.447D+00
 Gap=     0.135 Goal=   None    Shift=    0.000
 Gap=     0.135 Goal=   None    Shift=    0.000
 RMSDP=1.31D-08 MaxDP=9.62D-07 DE= 1.15D-09 OVMax= 2.93D-06

 Cycle  17  Pass 1  IDiag  1:
 RMSU=  1.14D-08    CP:  1.00D+00  1.03D+00  4.24D-01  9.92D-01  9.56D-01
                    CP:  8.18D-01  9.19D-01
 E= -6092.37637125362     Delta-E=       -0.000000000122 Rises=F Damp=F
 DIIS: error= 4.62D-08 at cycle   8 NSaved=   8.
 NSaved= 8 IEnMin= 6 EnMin= -6092.37637125465     IErMin= 8 ErrMin= 4.62D-08
 ErrMax= 4.62D-08  0.00D+00 EMaxC= 1.00D-01 BMatC= 2.25D-11 BMatP= 2.50D-10
 IDIUse=1 WtCom= 1.00D+00 WtEn= 0.00D+00
 Coeff-Com:  0.110D-03-0.447D-02-0.211D-02-0.481D-02-0.543D-04 0.380D-01
 Coeff-Com:  0.224D+00 0.750D+00
 Coeff:      0.110D-03-0.447D-02-0.211D-02-0.481D-02-0.543D-04 0.380D-01
 Coeff:      0.224D+00 0.750D+00
 Gap=     0.135 Goal=   None    Shift=    0.000
 Gap=     0.135 Goal=   None    Shift=    0.000
 RMSDP=7.37D-09 MaxDP=4.10D-07 DE=-1.22D-10 OVMax= 2.73D-06

 SCF Done:  E(ULC-wPBE) =  -6092.37637125     A.U. after   17 cycles
            NFock= 17  Conv=0.74D-08     -V/T= 2.0031
 <Sx>= 0.0000 <Sy>= 0.0000 <Sz>= 0.0000 <S**2>=-0.0000 S=-0.0000
 <L.S>= 0.000000000000E+00
 KE= 6.073471861115D+03 PE=-2.990278760944D+04 EE= 9.985831494083D+03
 Annihilation of the first spin contaminant:
 S**2 before annihilation    -0.0000,   after    -0.0000
 Leave Link  502 at Fri Jul 24 04:42:03 2020, MaxMem=  4026531840 cpu:            3275.0 elap:             420.0
 (Enter /opt/ohpc/pub/libs/gaussian/g16-A.03/sandybridge/g16/l601.exe)
 Copying SCF densities to generalized density rwf, IOpCl= 1 IROHF=0.

 **********************************************************************

            Population analysis using the SCF density.

 **********************************************************************

 Orbital symmetries:
 Alpha Orbitals:
       Occupied  (A) (A) (A) (A) (A) (A) (A) (A) (A) (A) (A) (A)
                 (A) (A) (A) (A) (A) (A) (A) (A) (A) (A) (A) (A)
                 (A) (A) (A) (A) (A) (A) (A) (A) (A) (A) (A) (A)
                 (A) (A) (A) (A) (A) (A) (A) (A) (A) (A) (A) (A)
                 (A) (A) (A) (A) (A) (A) (A) (A) (A) (A) (A) (A)
                 (A) (A) (A) (A) (A) (A) (A) (A) (A) (A) (A) (A)
                 (A) (A) (A) (A) (A) (A) (A) (A) (A) (A) (A) (A)
                 (A) (A) (A) (A) (A) (A) (A) (A) (A) (A) (A) (A)
                 (A) (A) (A) (A) (A) (A) (A) (A) (A) (A) (A) (A)
                 (A) (A) (A) (A) (A) (A) (A) (A) (A) (A) (A) (A)
                 (A) (A) (A) (A) (A) (A) (A) (A) (A) (A) (A) (A)
                 (A) (A) (A) (A) (A) (A) (A) (A) (A) (A) (A) (A)
                 (A) (A) (A) (A) (A) (A) (A) (A) (A) (A) (A) (A)
                 (A) (A) (A) (A) (A) (A) (A) (A) (A) (A) (A) (A)
                 (A) (A) (A) (A) (A) (A) (A) (A) (A) (A) (A) (A)
                 (A) (A) (A) (A) (A) (A) (A) (A) (A) (A) (A) (A)
                 (A) (A) (A) (A) (A) (A) (A) (A) (A) (A) (A) (A)
                 (A) (A) (A) (A) (A) (A) (A) (A) (A) (A) (A) (A)
                 (A) (A) (A) (A) (A) (A) (A) (A) (A) (A) (A) (A)
                 (A) (A) (A)
       Virtual   (A) (A) (A) (A) (A) (A) (A) (A) (A) (A) (A) (A)
                 (A) (A) (A) (A) (A) (A) (A) (A) (A) (A) (A) (A)
                 (A) (A) (A) (A) (A) (A) (A) (A) (A) (A) (A) (A)
                 (A) (A) (A) (A) (A) (A) (A) (A) (A) (A) (A) (A)
                 (A) (A) (A) (A) (A) (A) (A) (A) (A) (A) (A) (A)
                 (A) (A) (A) (A) (A) (A) (A) (A) (A) (A) (A) (A)
                 (A) (A) (A) (A) (A) (A) (A) (A) (A) (A) (A) (A)
                 (A) (A) (A) (A) (A) (A) (A) (A) (A) (A) (A) (A)
                 (A) (A) (A) (A) (A) (A) (A) (A) (A) (A) (A) (A)
                 (A) (A) (A) (A) (A) (A) (A) (A) (A) (A) (A) (A)
                 (A) (A) (A) (A) (A) (A) (A) (A) (A) (A) (A) (A)
                 (A) (A) (A) (A) (A) (A) (A) (A) (A) (A) (A) (A)
                 (A) (A) (A) (A) (A) (A) (A) (A) (A) (A) (A) (A)
                 (A) (A) (A) (A) (A) (A) (A) (A) (A) (A) (A) (A)
                 (A) (A) (A) (A) (A) (A) (A) (A) (A) (A) (A) (A)
                 (A) (A) (A) (A) (A) (A) (A) (A) (A) (A) (A) (A)
                 (A) (A) (A) (A) (A) (A) (A) (A) (A) (A) (A) (A)
                 (A) (A) (A) (A) (A) (A) (A) (A) (A) (A) (A) (A)
                 (A) (A) (A) (A) (A) (A) (A) (A) (A) (A) (A) (A)
                 (A) (A) (A) (A) (A) (A) (A) (A) (A) (A) (A) (A)
                 (A) (A) (A) (A) (A) (A) (A) (A) (A) (A) (A) (A)
                 (A) (A) (A) (A) (A) (A) (A) (A) (A) (A) (A) (A)
                 (A) (A) (A) (A) (A) (A) (A) (A) (A) (A) (A) (A)
                 (A) (A) (A) (A) (A) (A) (A) (A) (A) (A) (A) (A)
                 (A) (A) (A) (A) (A) (A) (A) (A) (A) (A) (A) (A)
                 (A) (A) (A) (A) (A) (A) (A) (A) (A) (A) (A) (A)
                 (A) (A) (A) (A) (A) (A) (A) (A) (A) (A) (A) (A)
                 (A) (A) (A) (A) (A) (A) (A) (A) (A) (A) (A) (A)
                 (A) (A) (A) (A) (A) (A) (A) (A) (A) (A) (A) (A)
                 (A) (A) (A) (A) (A) (A) (A) (A) (A) (A) (A) (A)
                 (A) (A) (A) (A) (A) (A) (A) (A) (A) (A) (A) (A)
                 (A) (A) (A) (A) (A) (A) (A) (A) (A) (A) (A) (A)
                 (A) (A) (A) (A) (A) (A) (A) (A) (A) (A) (A) (A)
                 (A) (A) (A) (A) (A) (A) (A) (A) (A) (A) (A) (A)
                 (A) (A) (A) (A) (A) (A) (A) (A) (A) (A) (A) (A)
                 (A) (A) (A) (A) (A) (A) (A) (A) (A) (A) (A) (A)
                 (A) (A) (A) (A) (A) (A) (A) (A) (A) (A) (A) (A)
                 (A) (A) (A) (A) (A) (A) (A) (A) (A) (A) (A) (A)
                 (A) (A) (A) (A) (A) (A) (A) (A) (A) (A) (A) (A)
                 (A) (A) (A) (A) (A) (A) (A) (A) (A) (A) (A) (A)
                 (A) (A) (A) (A) (A) (A) (A) (A) (A) (A) (A) (A)
                 (A) (A) (A) (A) (A) (A) (A) (A) (A) (A) (A) (A)
                 (A) (A) (A) (A) (A) (A) (A) (A) (A) (A) (A) (A)
                 (A) (A) (A) (A) (A) (A) (A) (A) (A) (A) (A) (A)
                 (A) (A) (A) (A) (A) (A) (A) (A) (A) (A) (A) (A)
                 (A) (A) (A) (A) (A) (A) (A) (A) (A) (A) (A) (A)
                 (A) (A) (A) (A) (A) (A) (A) (A) (A) (A) (A) (A)
                 (A) (A) (A) (A) (A) (A) (A) (A) (A) (A) (A) (A)
                 (A) (A) (A) (A) (A) (A) (A) (A) (A) (A) (A) (A)
                 (A) (A) (A) (A) (A) (A) (A) (A) (A) (A) (A) (A)
                 (A) (A) (A) (A) (A) (A) (A) (A) (A) (A) (A) (A)
                 (A) (A) (A) (A) (A) (A) (A) (A) (A) (A) (A) (A)
                 (A) (A) (A) (A) (A) (A) (A) (A) (A) (A) (A) (A)
                 (A) (A) (A)
 Beta  Orbitals:
       Occupied  (A) (A) (A) (A) (A) (A) (A) (A) (A) (A) (A) (A)
                 (A) (A) (A) (A) (A) (A) (A) (A) (A) (A) (A) (A)
                 (A) (A) (A) (A) (A) (A) (A) (A) (A) (A) (A) (A)
                 (A) (A) (A) (A) (A) (A) (A) (A) (A) (A) (A) (A)
                 (A) (A) (A) (A) (A) (A) (A) (A) (A) (A) (A) (A)
                 (A) (A) (A) (A) (A) (A) (A) (A) (A) (A) (A) (A)
                 (A) (A) (A) (A) (A) (A) (A) (A) (A) (A) (A) (A)
                 (A) (A) (A) (A) (A) (A) (A) (A) (A) (A) (A) (A)
                 (A) (A) (A) (A) (A) (A) (A) (A) (A) (A) (A) (A)
                 (A) (A) (A) (A) (A) (A) (A) (A) (A) (A) (A) (A)
                 (A) (A) (A) (A) (A) (A) (A) (A) (A) (A) (A) (A)
                 (A) (A) (A) (A) (A) (A) (A) (A) (A) (A) (A) (A)
                 (A) (A) (A) (A) (A) (A) (A) (A) (A) (A) (A) (A)
                 (A) (A) (A) (A) (A) (A) (A) (A) (A) (A) (A) (A)
                 (A) (A) (A) (A) (A) (A) (A) (A) (A) (A) (A) (A)
                 (A) (A) (A) (A) (A) (A) (A) (A) (A) (A) (A) (A)
                 (A) (A) (A) (A) (A) (A) (A) (A) (A) (A) (A) (A)
                 (A) (A) (A) (A) (A) (A) (A) (A) (A) (A) (A) (A)
                 (A) (A) (A) (A) (A) (A) (A) (A) (A) (A) (A) (A)
                 (A) (A) (A)
       Virtual   (A) (A) (A) (A) (A) (A) (A) (A) (A) (A) (A) (A)
                 (A) (A) (A) (A) (A) (A) (A) (A) (A) (A) (A) (A)
                 (A) (A) (A) (A) (A) (A) (A) (A) (A) (A) (A) (A)
                 (A) (A) (A) (A) (A) (A) (A) (A) (A) (A) (A) (A)
                 (A) (A) (A) (A) (A) (A) (A) (A) (A) (A) (A) (A)
                 (A) (A) (A) (A) (A) (A) (A) (A) (A) (A) (A) (A)
                 (A) (A) (A) (A) (A) (A) (A) (A) (A) (A) (A) (A)
                 (A) (A) (A) (A) (A) (A) (A) (A) (A) (A) (A) (A)
                 (A) (A) (A) (A) (A) (A) (A) (A) (A) (A) (A) (A)
                 (A) (A) (A) (A) (A) (A) (A) (A) (A) (A) (A) (A)
                 (A) (A) (A) (A) (A) (A) (A) (A) (A) (A) (A) (A)
                 (A) (A) (A) (A) (A) (A) (A) (A) (A) (A) (A) (A)
                 (A) (A) (A) (A) (A) (A) (A) (A) (A) (A) (A) (A)
                 (A) (A) (A) (A) (A) (A) (A) (A) (A) (A) (A) (A)
                 (A) (A) (A) (A) (A) (A) (A) (A) (A) (A) (A) (A)
                 (A) (A) (A) (A) (A) (A) (A) (A) (A) (A) (A) (A)
                 (A) (A) (A) (A) (A) (A) (A) (A) (A) (A) (A) (A)
                 (A) (A) (A) (A) (A) (A) (A) (A) (A) (A) (A) (A)
                 (A) (A) (A) (A) (A) (A) (A) (A) (A) (A) (A) (A)
                 (A) (A) (A) (A) (A) (A) (A) (A) (A) (A) (A) (A)
                 (A) (A) (A) (A) (A) (A) (A) (A) (A) (A) (A) (A)
                 (A) (A) (A) (A) (A) (A) (A) (A) (A) (A) (A) (A)
                 (A) (A) (A) (A) (A) (A) (A) (A) (A) (A) (A) (A)
                 (A) (A) (A) (A) (A) (A) (A) (A) (A) (A) (A) (A)
                 (A) (A) (A) (A) (A) (A) (A) (A) (A) (A) (A) (A)
                 (A) (A) (A) (A) (A) (A) (A) (A) (A) (A) (A) (A)
                 (A) (A) (A) (A) (A) (A) (A) (A) (A) (A) (A) (A)
                 (A) (A) (A) (A) (A) (A) (A) (A) (A) (A) (A) (A)
                 (A) (A) (A) (A) (A) (A) (A) (A) (A) (A) (A) (A)
                 (A) (A) (A) (A) (A) (A) (A) (A) (A) (A) (A) (A)
                 (A) (A) (A) (A) (A) (A) (A) (A) (A) (A) (A) (A)
                 (A) (A) (A) (A) (A) (A) (A) (A) (A) (A) (A) (A)
                 (A) (A) (A) (A) (A) (A) (A) (A) (A) (A) (A) (A)
                 (A) (A) (A) (A) (A) (A) (A) (A) (A) (A) (A) (A)
                 (A) (A) (A) (A) (A) (A) (A) (A) (A) (A) (A) (A)
                 (A) (A) (A) (A) (A) (A) (A) (A) (A) (A) (A) (A)
                 (A) (A) (A) (A) (A) (A) (A) (A) (A) (A) (A) (A)
                 (A) (A) (A) (A) (A) (A) (A) (A) (A) (A) (A) (A)
                 (A) (A) (A) (A) (A) (A) (A) (A) (A) (A) (A) (A)
                 (A) (A) (A) (A) (A) (A) (A) (A) (A) (A) (A) (A)
                 (A) (A) (A) (A) (A) (A) (A) (A) (A) (A) (A) (A)
[...]
     5 C(13)  Bbb     0.0000     0.000     0.000     0.000  0.8968 -0.3623  0.2539
              Bcc     0.0000     0.000     0.000     0.000  0.3862  0.9211 -0.0498
 
              Baa    -0.0000    -0.000    -0.000    -0.000  0.1240 -0.3150  0.9409
     6 S(33)  Bbb    -0.0000    -0.000    -0.000    -0.000 -0.2427  0.9098  0.3366
              Bcc     0.0000     0.000     0.000     0.000  0.9621  0.2701 -0.0363
 
              Baa    -0.0000    -0.000    -0.000    -0.000 -0.6786  0.7044 -0.2082
     7 C(13)  Bbb     0.0000     0.000     0.000     0.000  0.6994  0.7063  0.1099
              Bcc     0.0000     0.000     0.000     0.000 -0.2244  0.0710  0.9719
 
              Baa    -0.0000    -0.000    -0.000    -0.000  0.9954  0.0007  0.0963
     8 N(14)  Bbb     0.0000     0.000     0.000     0.000 -0.0962 -0.0219  0.9951
              Bcc     0.0000     0.000     0.000     0.000 -0.0028  0.9998  0.0217
 
              Baa    -0.0000    -0.000    -0.000    -0.000 -0.5411  0.8391 -0.0557
     9 C(13)  Bbb    -0.0000    -0.000    -0.000    -0.000  0.8325  0.5252 -0.1764
              Bcc     0.0000     0.000     0.000     0.000  0.1188  0.1418  0.9827
 
              Baa    -0.0000    -0.000    -0.000    -0.000 -0.6460  0.7524 -0.1286
    10 C(13)  Bbb    -0.0000    -0.000    -0.000    -0.000  0.7257  0.6576  0.2022
              Bcc     0.0000     0.000     0.000     0.000 -0.2367 -0.0373  0.9709
 
              Baa    -0.0000    -0.000    -0.000    -0.000  0.5124  0.8543 -0.0872
    11 S(33)  Bbb    -0.0000    -0.000    -0.000    -0.000  0.0688  0.0604  0.9958
              Bcc     0.0000     0.000     0.000     0.000  0.8560 -0.5163 -0.0279
 
              Baa    -0.0000    -0.000    -0.000    -0.000  0.6073  0.7899 -0.0854
    12 C(13)  Bbb    -0.0000    -0.000    -0.000    -0.000  0.7944 -0.6026  0.0762
              Bcc     0.0000     0.000     0.000     0.000 -0.0087  0.1141  0.9934
 
              Baa    -0.0000    -0.000    -0.000    -0.000  0.5931  0.8037  0.0472
    13 C(13)  Bbb     0.0000     0.000     0.000     0.000  0.4877 -0.4053  0.7733
              Bcc     0.0000     0.000     0.000     0.000  0.6406 -0.4356 -0.6323
 
              Baa    -0.0000    -0.000    -0.000    -0.000 -0.0118 -0.0510  0.9986
    14 C(13)  Bbb     0.0000     0.000     0.000     0.000  0.9859  0.1660  0.0202
              Bcc     0.0000     0.000     0.000     0.000 -0.1668  0.9848  0.0483
 
              Baa    -0.0000    -0.000    -0.000    -0.000 -0.6857  0.7273  0.0302
    15 F(19)  Bbb     0.0000     0.000     0.000     0.000  0.6921  0.6642 -0.2825
              Bcc     0.0000     0.000     0.000     0.000  0.2255  0.1728  0.9588
 
              Baa    -0.0000    -0.000    -0.000    -0.000 -0.4459 -0.1619  0.8803
    16 C(13)  Bbb    -0.0000    -0.000    -0.000    -0.000  0.8659  0.1708  0.4701
              Bcc     0.0000     0.000     0.000     0.000 -0.2265  0.9719  0.0641
 
              Baa    -0.0000    -0.000    -0.000    -0.000  0.9336 -0.3583 -0.0003
    17 S(33)  Bbb     0.0000     0.000     0.000     0.000 -0.0358 -0.0940  0.9949
              Bcc     0.0000     0.000     0.000     0.000  0.3565  0.9289  0.1006
 
              Baa    -0.0000    -0.000    -0.000    -0.000  0.8941  0.4473  0.0227
    18 C(13)  Bbb     0.0000     0.000     0.000     0.000  0.0724 -0.1945  0.9782
              Bcc     0.0000     0.000     0.000     0.000 -0.4420  0.8730  0.2063
 
              Baa    -0.0000    -0.000    -0.000    -0.000  0.9907 -0.1209  0.0628
    19 N(14)  Bbb     0.0000     0.000     0.000     0.000 -0.0802 -0.1446  0.9862
              Bcc     0.0000     0.000     0.000     0.000  0.1102  0.9821  0.1529
 
              Baa    -0.0000    -0.000    -0.000    -0.000 -0.2809  0.2323  0.9312
    20 C(13)  Bbb    -0.0000    -0.000    -0.000    -0.000  0.6981 -0.6163  0.3643
              Bcc     0.0000     0.000     0.000     0.000  0.6586  0.7524  0.0109
 
              Baa    -0.0000    -0.000    -0.000    -0.000  0.8846  0.4647  0.0376
    21 C(13)  Bbb     0.0000     0.000     0.000     0.000 -0.4657  0.8847  0.0202
              Bcc     0.0000     0.000     0.000     0.000 -0.0239 -0.0354  0.9991
 
              Baa    -0.0000    -0.000    -0.000    -0.000  0.9166 -0.3981  0.0364
    22 S(33)  Bbb    -0.0000    -0.000    -0.000    -0.000  0.3928  0.9138  0.1031
              Bcc     0.0000     0.000     0.000     0.000 -0.0744 -0.0802  0.9940
 
              Baa    -0.0000    -0.000    -0.000    -0.000  0.9752 -0.2211 -0.0114
    23 C(13)  Bbb     0.0000     0.000     0.000     0.000  0.0312  0.0865  0.9958
              Bcc     0.0000     0.000     0.000     0.000  0.2192  0.9714 -0.0912
 
              Baa    -0.0000    -0.000    -0.000    -0.000  0.8566 -0.5153 -0.0238
    24 C(13)  Bbb     0.0000     0.000     0.000     0.000  0.5133  0.8560 -0.0611
              Bcc     0.0000     0.000     0.000     0.000  0.0519  0.0401  0.9978
 
              Baa    -0.0000    -0.000    -0.000    -0.000  0.9788  0.1950  0.0634
    25 C(13)  Bbb    -0.0000    -0.000    -0.000    -0.000 -0.0519 -0.0635  0.9966
              Bcc     0.0000     0.000     0.000     0.000 -0.1983  0.9788  0.0520
 
              Baa    -0.0000    -0.000    -0.000    -0.000 -0.2211  0.9735  0.0579
    26 F(19)  Bbb     0.0000     0.000     0.000     0.000  0.0076 -0.0576  0.9983
              Bcc     0.0000     0.000     0.000     0.000  0.9752  0.2212  0.0053
 
              Baa    -0.0000    -0.000    -0.000    -0.000  0.7625 -0.6456 -0.0422
    27 C(13)  Bbb     0.0000     0.000     0.000     0.000  0.6465  0.7579  0.0875
              Bcc     0.0000     0.000     0.000     0.000 -0.0245 -0.0940  0.9953
 
              Baa    -0.0000    -0.000    -0.000    -0.000  0.9976 -0.0629 -0.0295
    28 S(33)  Bbb     0.0000     0.000     0.000     0.000  0.0257 -0.0606  0.9978
              Bcc     0.0000     0.000     0.000     0.000  0.0646  0.9962  0.0588
 
              Baa    -0.0000    -0.000    -0.000    -0.000  0.1909  0.9816 -0.0014
    29 C(13)  Bbb    -0.0000    -0.000    -0.000    -0.000 -0.0019  0.0018  1.0000
              Bcc     0.0000     0.000     0.000     0.000  0.9816 -0.1909  0.0022
 
              Baa    -0.0000    -0.000    -0.000    -0.000  0.5550  0.8317  0.0180
    30 N(14)  Bbb    -0.0000    -0.000    -0.000    -0.000  0.0344 -0.0446  0.9984
              Bcc     0.0000     0.000     0.000     0.000  0.8312 -0.5535 -0.0534
 
              Baa    -0.0000    -0.000    -0.000    -0.000 -0.0082 -0.0881  0.9961
    31 C(13)  Bbb     0.0000     0.000     0.000     0.000 -0.4390  0.8953  0.0756
              Bcc     0.0000     0.000     0.000     0.000  0.8985  0.4366  0.0460
 
              Baa    -0.0000    -0.000    -0.000    -0.000  0.0172 -0.1017  0.9947
    32 C(13)  Bbb    -0.0000    -0.000    -0.000    -0.000 -0.5768  0.8115  0.0930
              Bcc     0.0000     0.000     0.000     0.000  0.8167  0.5754  0.0447
 
              Baa    -0.0000    -0.000    -0.000    -0.000  0.1911 -0.0895  0.9775
    33 S(33)  Bbb    -0.0000    -0.000    -0.000    -0.000  0.9439 -0.2565 -0.2080
              Bcc     0.0000     0.000     0.000     0.000  0.2693  0.9624  0.0354
 
              Baa    -0.0000    -0.000    -0.000    -0.000 -0.0310  0.0234  0.9992
    34 C(13)  Bbb    -0.0000    -0.000    -0.000    -0.000 -0.4097  0.9116 -0.0340
              Bcc     0.0000     0.000     0.000     0.000  0.9117  0.4104  0.0187
 
              Baa    -0.0000    -0.000    -0.000    -0.000 -0.0417 -0.0253  0.9988
    35 C(13)  Bbb     0.0000     0.000     0.000     0.000  0.9139  0.4031  0.0484
              Bcc     0.0000     0.000     0.000     0.000 -0.4039  0.9148  0.0063
 
              Baa    -0.0000    -0.000    -0.000    -0.000  0.9475 -0.3198  0.0025
    36 C(13)  Bbb     0.0000     0.000     0.000     0.000 -0.0100 -0.0217  0.9997
              Bcc     0.0000     0.000     0.000     0.000  0.3197  0.9472  0.0238
 
              Baa    -0.0000    -0.000    -0.000    -0.000  0.8935 -0.4491 -0.0007
    37 F(19)  Bbb     0.0000     0.000     0.000     0.000  0.4489  0.8929  0.0354
              Bcc     0.0000     0.000     0.000     0.000 -0.0152 -0.0320  0.9994
 
              Baa    -0.0000    -0.000    -0.000    -0.000  0.8577  0.5135  0.0256
    38 C(13)  Bbb    -0.0000    -0.000    -0.000    -0.000  0.0005 -0.0505  0.9987
              Bcc     0.0000     0.000     0.000     0.000 -0.5141  0.8566  0.0435
 
              Baa    -0.0000    -0.000    -0.000    -0.000  0.8524  0.0979  0.5136
    39 S(33)  Bbb    -0.0000    -0.000    -0.000    -0.000 -0.5112 -0.0502  0.8580
              Bcc     0.0000     0.000     0.000     0.000 -0.1098  0.9939 -0.0072
 
              Baa    -0.0000    -0.000    -0.000    -0.000 -0.1075  0.9922  0.0624
    40 C(13)  Bbb     0.0000     0.000     0.000     0.000  0.0275 -0.0598  0.9978
              Bcc     0.0000     0.000     0.000     0.000  0.9938  0.1090 -0.0209
 
              Baa    -0.0000    -0.000    -0.000    -0.000 -0.1703 -0.2909  0.9415
    41 N(14)  Bbb    -0.0000    -0.000    -0.000    -0.000  0.4737  0.8136  0.3371
              Bcc     0.0000     0.000     0.000     0.000  0.8641 -0.5034  0.0008
 
              Baa    -0.0000    -0.000    -0.000    -0.000  0.6413  0.7673  0.0074
    42 C(13)  Bbb     0.0000     0.000     0.000     0.000  0.0863 -0.0817  0.9929
              Bcc     0.0000     0.000     0.000     0.000  0.7624 -0.6361 -0.1186
 
              Baa    -0.0000    -0.000    -0.000    -0.000 -0.0457 -0.2894  0.9561
    43 C(13)  Bbb    -0.0000    -0.000    -0.000    -0.000  0.2032  0.9344  0.2926
              Bcc     0.0000     0.000     0.000     0.000  0.9781 -0.2077 -0.0161
 
              Baa    -0.0000    -0.000    -0.000    -0.000  0.8735  0.4824  0.0659
    44 S(33)  Bbb    -0.0000    -0.000    -0.000    -0.000 -0.0716 -0.0066  0.9974
              Bcc     0.0000     0.000     0.000     0.000 -0.4816  0.8759 -0.0288
 
              Baa    -0.0000    -0.000    -0.000    -0.000 -0.0006 -0.0396  0.9992
    45 C(13)  Bbb    -0.0000    -0.000    -0.000    -0.000  0.8998 -0.4359 -0.0167
              Bcc     0.0000     0.000     0.000     0.000  0.4362  0.8991  0.0359
 
              Baa    -0.0000    -0.000    -0.000    -0.000 -0.0021 -0.0571  0.9984
    46 C(13)  Bbb    -0.0000    -0.000    -0.000    -0.000 -0.1163  0.9916  0.0565
              Bcc     0.0000     0.000     0.000     0.000  0.9932  0.1159  0.0087
 
              Baa    -0.0000    -0.000    -0.000    -0.000  0.1932  0.9799  0.0504
    47 C(13)  Bbb     0.0000     0.000     0.000     0.000 -0.1401 -0.0233  0.9899
              Bcc     0.0000     0.000     0.000     0.000  0.9711 -0.1983  0.1328
 
              Baa    -0.0000    -0.000    -0.000    -0.000  0.3439  0.0649  0.9367
    48 F(19)  Bbb    -0.0000    -0.000    -0.000    -0.000  0.9068  0.2359 -0.3493
              Bcc     0.0000     0.000     0.000     0.000 -0.2436  0.9696  0.0222
 
              Baa    -0.0000    -0.000    -0.000    -0.000 -0.0057  0.9986  0.0519
    49 C(13)  Bbb     0.0000     0.000     0.000     0.000  0.0283 -0.0517  0.9983
              Bcc     0.0000     0.000     0.000     0.000  0.9996  0.0072 -0.0280
 
              Baa    -0.0000    -0.000    -0.000    -0.000  0.8578  0.5135 -0.0241
    50 S(33)  Bbb    -0.0000    -0.000    -0.000    -0.000  0.0332 -0.0086  0.9994
              Bcc     0.0000     0.000     0.000     0.000 -0.5130  0.8581  0.0245
 
              Baa    -0.0000    -0.000    -0.000    -0.000  0.7134  0.0233  0.7003
    51 C(13)  Bbb    -0.0000    -0.000    -0.000    -0.000 -0.6992 -0.0424  0.7137
              Bcc     0.0000     0.000     0.000     0.000 -0.0463  0.9988  0.0140
 
              Baa    -0.0000    -0.000    -0.000    -0.000  0.3155  0.9480  0.0427
    52 N(14)  Bbb     0.0000     0.000     0.000     0.000  0.0562 -0.0636  0.9964
              Bcc     0.0000     0.000     0.000     0.000  0.9473 -0.3120 -0.0733
 
              Baa    -0.0000    -0.000    -0.000    -0.000  0.9758  0.2187 -0.0043
    53 C(13)  Bbb     0.0000     0.000     0.000     0.000  0.0217 -0.0770  0.9968
              Bcc     0.0000     0.000     0.000     0.000 -0.2176  0.9728  0.0798
 
              Baa    -0.0000    -0.000    -0.000    -0.000  0.9951  0.0378 -0.0919
    54 C(13)  Bbb     0.0000     0.000     0.000     0.000  0.0554  0.5561  0.8293
              Bcc     0.0000     0.000     0.000     0.000 -0.0824  0.8303 -0.5512
 
              Baa    -0.0000    -0.000    -0.000    -0.000 -0.0959 -0.2477  0.9641
    55 S(33)  Bbb    -0.0000    -0.000    -0.000    -0.000 -0.5023  0.8482  0.1680
              Bcc     0.0000     0.000     0.000     0.000  0.8594  0.4681  0.2058
 
              Baa    -0.0000    -0.000    -0.000    -0.000  0.9969  0.0392  0.0689
    56 H(1)   Bbb     0.0000     0.000     0.000     0.000 -0.0576 -0.2385  0.9694
              Bcc     0.0000     0.000     0.000     0.000 -0.0544  0.9703  0.2355
 
              Baa    -0.0000    -0.000    -0.000    -0.000 -0.2881  0.1337  0.9482
    57 H(1)   Bbb    -0.0000    -0.000    -0.000    -0.000  0.9435 -0.1295  0.3050
              Bcc     0.0000     0.000     0.000     0.000  0.1635  0.9825 -0.0889
 
              Baa    -0.0000    -0.000    -0.000    -0.000 -0.0522  0.9654 -0.2555
    58 H(1)   Bbb     0.0000     0.000     0.000     0.000  0.9052  0.1538  0.3961
              Bcc     0.0000     0.000     0.000     0.000 -0.4217  0.2106  0.8820
 
              Baa    -0.0000    -0.000    -0.000    -0.000  0.2488  0.3142  0.9162
    59 H(1)   Bbb    -0.0000    -0.000    -0.000    -0.000  0.4754  0.7845 -0.3981
              Bcc     0.0000     0.000     0.000     0.000  0.8438 -0.5346 -0.0458
 
              Baa    -0.0000    -0.000    -0.000    -0.000  0.1203  0.0344  0.9921
    60 H(1)   Bbb    -0.0000    -0.000    -0.000    -0.000  0.9015  0.4148 -0.1237
              Bcc     0.0000     0.000     0.000     0.000 -0.4158  0.9093  0.0189
 
              Baa    -0.0000    -0.000    -0.000    -0.000 -0.5261  0.8482  0.0613
    61 H(1)   Bbb     0.0000     0.000     0.000     0.000  0.0622 -0.0335  0.9975
              Bcc     0.0000     0.000     0.000     0.000  0.8482  0.5286 -0.0351
 
              Baa    -0.0000    -0.000    -0.000    -0.000  0.7930  0.4108 -0.4498
    62 H(1)   Bbb    -0.0000    -0.000    -0.000    -0.000  0.3784  0.2464  0.8922
              Bcc     0.0000     0.000     0.000     0.000 -0.4774  0.8778 -0.0400
 
              Baa    -0.0000    -0.000    -0.000    -0.000  0.8831  0.4670 -0.0457
    63 H(1)   Bbb    -0.0000    -0.000    -0.000    -0.000  0.0597 -0.0151  0.9981
              Bcc     0.0000     0.000     0.000     0.000 -0.4654  0.8841  0.0412
 
              Baa    -0.0000    -0.000    -0.000    -0.000 -0.5933  0.8025  0.0625
    64 H(1)   Bbb    -0.0000    -0.000    -0.000    -0.000  0.0180 -0.0643  0.9978
              Bcc     0.0000     0.000     0.000     0.000  0.8048  0.5931  0.0237
 
              Baa    -0.0000    -0.000    -0.000    -0.000  0.9088  0.4169  0.0198
    65 H(1)   Bbb     0.0000     0.000     0.000     0.000  0.0019 -0.0516  0.9987
              Bcc     0.0000     0.000     0.000     0.000 -0.4173  0.9075  0.0477
 
              Baa    -0.0000    -0.000    -0.000    -0.000 -0.1291  0.9878  0.0871
    66 H(1)   Bbb     0.0000     0.000     0.000     0.000  0.9883  0.1353 -0.0702
              Bcc     0.0000     0.000     0.000     0.000  0.0812 -0.0771  0.9937
 
              Baa    -0.0000    -0.000    -0.000    -0.000 -0.0425  0.2731  0.9610
    67 H(1)   Bbb    -0.0000    -0.000    -0.000    -0.000 -0.2439  0.9300 -0.2751
              Bcc     0.0000     0.000     0.000     0.000  0.9689  0.2461 -0.0271
 

 ---------------------------------------------------------------------------------

 No NMR shielding tensors so no spin-rotation constants.
 Leave Link  601 at Fri Jul 24 08:37:07 2020, MaxMem=  4026531840 cpu:              10.0 elap:               1.4
 (Enter /opt/ohpc/pub/libs/gaussian/g16-A.03/sandybridge/g16/l9999.exe)

 Test job not archived.
 1\1\GINC-SKYLAKE036\FOpt\ULC-wPBE\CC-pVDZ\C35H12F5N5S10\RDU230\24-Jul-
 2020\0\\#P uLC-wPBE/cc-pVDZ iop(3/107=0071800000, 3/108=0071800000) op
 t\\H12 C35 S10 N5 F5\\0,1\C,17.7436548978,3.1554832514,0.0005049422\C,
 16.6927745383,4.0175713824,-0.2411241175\C,15.4571783097,3.3198174455,
 -0.2384476305\F,14.2694058369,3.9300415716,-0.4512765286\C,15.54779042
 01,1.9525303544,-0.0006487491\S,17.2304645405,1.5109965704,0.228951164
 5\C,14.5113057524,0.9543147135,0.070702502\N,14.7448806774,-0.32893766
 64,0.3080032945\C,13.5841844901,-1.0410303309,0.3260793118\C,12.403603
 1771,-0.3354592488,0.0972485618\S,12.7989270708,1.3578158461,-0.159607
 7655\C,11.0508897917,-0.8445151562,0.0597540689\C,10.6486637791,-2.178
 5183437,-0.0125562126\C,9.2433120429,-2.2977898259,-0.0162027675\F,8.6
 118910241,-3.491380718,-0.0856359191\C,8.5354646561,-1.0997584942,0.04
 39988168\S,9.6667234406,0.239995617,0.1239467577\C,7.1195578551,-0.855
 8993462,0.0478305961\N,6.5883527722,0.3589137378,0.1067256488\C,5.2289
 034117,0.2958236837,0.0963862148\C,4.6501411582,-0.9710434499,0.029403
 4749\S,5.932412682,-2.1738865713,-0.0250659838\C,3.2542736544,-1.33805
 47814,0.0032919895\C,2.6953458676,-2.6135025856,-0.0646249426\C,1.2850
 164585,-2.5667531773,-0.0702547607\F,0.5173702082,-3.6778170855,-0.131
 197142\C,0.7253479185,-1.2938393181,-0.0087536319\S,2.0057501078,-0.09
 40754217,0.0595644462\C,-0.651767465,-0.8839814101,0.0039601859\N,-1.0
 34822136,0.385084286,0.0666843132\C,-2.3922800892,0.4836885317,0.06338
 41998\C,-3.11751692,-0.7055539805,-0.0022247949\S,-1.9872657311,-2.051
 7560203,-0.0643898282\C,-4.547236767,-0.9045076435,-0.0215665935\C,-5.
 2540339663,-2.1045246418,-0.0817854744\C,-6.6490495077,-1.8906416111,-
 0.081923409\F,-7.543227899,-2.9033180227,-0.1347671723\C,-7.0532728751
 ,-0.5601769281,-0.0236806398\S,-5.6391766542,0.479144715,0.0338391834\
 C,-8.3719254879,0.0113604599,-0.0072539902\N,-8.6004573442,1.316881370
 3,0.0507844094\C,-9.9369607764,1.5768798485,0.0526576895\C,-10.7991149
 824,0.4826554547,-0.0040132838\S,-9.8378119973,-0.9887519429,-0.064333
 6117\C,-12.2431205917,0.4550054377,-0.016274563\C,-13.0882797068,-0.65
 13576687,-0.0652414291\C,-14.4489537551,-0.2715731148,-0.0611199522\F,
 -15.4571855713,-1.1719168844,-0.1032542455\C,-14.690184164,1.096423328
 6,-0.0104792972\S,-13.1628274958,1.9588661708,0.0339294958\C,-15.93347
 65254,1.8259730494,0.0079944382\N,-15.9999610111,3.1471526852,0.058403
 1529\C,-17.3055357647,3.56676643,0.0641789253\C,-18.2660850468,2.57798
 80384,0.0183967601\S,-17.5122068828,1.0140629024,-0.0358520584\H,18.81
 01910362,3.3974764229,0.0584893265\H,16.7845429513,5.0957689833,-0.413
 4212535\H,13.6221376417,-2.1186880067,0.5323733496\H,11.3279426984,-3.
 0351816322,-0.0808689112\H,4.6509053507,1.2293607109,0.1404423396\H,3.
 2704914294,-3.5456280819,-0.1087334238\H,-2.855410442,1.4789803618,0.1
 120305371\H,-4.7940201864,-3.0986377424,-0.1238808046\H,-10.2778995705
 ,2.6204319002,0.0983537688\H,-12.7511202546,-1.6938348647,-0.102079271
 3\H,-17.5219081936,4.6423660468,0.1039279265\H,-19.356591886,2.6778844
 094,0.013598367\\Version=EM64L-G16RevA.03\State=1-A\HF=-6092.5142611\S
 2=0.\S2-1=0.\S2A=0.\RMSD=3.508e-09\RMSF=4.043e-06\Dipole=1.970371,-0.3
 069323,-0.0677255\Quadrupole=56.0350621,-17.197193,-38.8378691,14.0683
 241,-1.043678,-0.2154724\PG=C01 [X(C35H12F5N5S10)]\\@


 THOSE WHO TRY TO PASS CHEMISTRY OFF AS A NEW SCIENCE
 SHOW HOW LITTLE KNOWLEDGE THEY HAVE OF THE CHARACTER
 AND LITERATURE OF THE ANCIENTS.
   -- NICOLAS LEFEVRE
 "COURS DE CHYMIE" J.-N.LELOUP, PARIS, 1751
 Job cpu time:       1 days  7 hours 32 minutes 50.3 seconds.
 Elapsed time:       0 days  4 hours  2 minutes 12.6 seconds.
 File lengths (MBytes):  RWF=    884 Int=      0 D2E=      0 Chk=     80 Scr=      8
 Normal termination of Gaussian 16 at Fri Jul 24 08:37:07 2020.
