 Entering Gaussian System, Link 0=g16
 Input=mols_66_3_10_c-n-cF-cF_opt_0.gjf
 Output=mols_66_3_10_c-n-cF-cF_opt_0.log
 Initial command:
 /opt/ohpc/pub/libs/gaussian/g16-A.03/sandybridge/g16/l1.exe "/mnt/gpfs2_4m/scratch/rdu230/ondemand/projects/dihedral_energies/7trial/wtuning/mols_66_3_10_c-n-cF-cF/Gau-437347.inp" -scrdir="/mnt/gpfs2_4m/scratch/rdu230/ondemand/projects/dihedral_energies/7trial/wtuning/mols_66_3_10_c-n-cF-cF/"
 Entering Link 1 = /opt/ohpc/pub/libs/gaussian/g16-A.03/sandybridge/g16/l1.exe PID=    437348.
  
 Copyright (c) 1988,1990,1992,1993,1995,1998,2003,2009,2016,
            Gaussian, Inc.  All Rights Reserved.
  
 This is part of the Gaussian(R) 16 program.  It is based on
 the Gaussian(R) 09 system (copyright 2009, Gaussian, Inc.),
 the Gaussian(R) 03 system (copyright 2003, Gaussian, Inc.),
 the Gaussian(R) 98 system (copyright 1998, Gaussian, Inc.),
 the Gaussian(R) 94 system (copyright 1995, Gaussian, Inc.),
 the Gaussian 92(TM) system (copyright 1992, Gaussian, Inc.),
 the Gaussian 90(TM) system (copyright 1990, Gaussian, Inc.),
 the Gaussian 88(TM) system (copyright 1988, Gaussian, Inc.),
 the Gaussian 86(TM) system (copyright 1986, Carnegie Mellon
 University), and the Gaussian 82(TM) system (copyright 1983,
 Carnegie Mellon University). Gaussian is a federally registered
 trademark of Gaussian, Inc.
  
 This software contains proprietary and confidential information,
 including trade secrets, belonging to Gaussian, Inc.
  
 This software is provided under written license and may be
 used, copied, transmitted, or stored only in accord with that
 written license.
  
 The following legend is applicable only to US Government
 contracts under FAR:
  
                    RESTRICTED RIGHTS LEGEND
  
 Use, reproduction and disclosure by the US Government is
 subject to restrictions as set forth in subparagraphs (a)
 and (c) of the Commercial Computer Software - Restricted
 Rights clause in FAR 52.227-19.
  
 Gaussian, Inc.
 340 Quinnipiac St., Bldg. 40, Wallingford CT 06492
  
  
 ---------------------------------------------------------------
 Warning -- This program may not be used in any manner that
 competes with the business of Gaussian, Inc. or will provide
 assistance to any competitor of Gaussian, Inc.  The licensee
 of this program is prohibited from giving any competitor of
 Gaussian, Inc. access to this program.  By using this program,
 the user acknowledges that Gaussian, Inc. is engaged in the
 business of creating and licensing software in the field of
 computational chemistry and represents and warrants to the
 licensee that it is not a competitor of Gaussian, Inc. and that
 it will not use this program in any manner prohibited above.
 ---------------------------------------------------------------
  

 Cite this work as:
 Gaussian 16, Revision A.03,
 M. J. Frisch, G. W. Trucks, H. B. Schlegel, G. E. Scuseria, 
 M. A. Robb, J. R. Cheeseman, G. Scalmani, V. Barone, 
 G. A. Petersson, H. Nakatsuji, X. Li, M. Caricato, A. V. Marenich, 
 J. Bloino, B. G. Janesko, R. Gomperts, B. Mennucci, H. P. Hratchian, 
 J. V. Ortiz, A. F. Izmaylov, J. L. Sonnenberg, D. Williams-Young, 
 F. Ding, F. Lipparini, F. Egidi, J. Goings, B. Peng, A. Petrone, 
 T. Henderson, D. Ranasinghe, V. G. Zakrzewski, J. Gao, N. Rega, 
 G. Zheng, W. Liang, M. Hada, M. Ehara, K. Toyota, R. Fukuda, 
 J. Hasegawa, M. Ishida, T. Nakajima, Y. Honda, O. Kitao, H. Nakai, 
 T. Vreven, K. Throssell, J. A. Montgomery, Jr., J. E. Peralta, 
 F. Ogliaro, M. J. Bearpark, J. J. Heyd, E. N. Brothers, K. N. Kudin, 
 V. N. Staroverov, T. A. Keith, R. Kobayashi, J. Normand, 
 K. Raghavachari, A. P. Rendell, J. C. Burant, S. S. Iyengar, 
 J. Tomasi, M. Cossi, J. M. Millam, M. Klene, C. Adamo, R. Cammi, 
 J. W. Ochterski, R. L. Martin, K. Morokuma, O. Farkas, 
 J. B. Foresman, and D. J. Fox, Gaussian, Inc., Wallingford CT, 2016.
 
 ******************************************
 Gaussian 16:  EM64L-G16RevA.03 25-Dec-2016
                25-Jul-2020 
 ******************************************
 %mem=30GB
 %nproc=8
 Will use up to    8 processors via shared memory.
 ---------------------------------------------------------------
 #P uLC-wPBE/cc-pVDZ iop(3/107=0491900000, 3/108=0491900000) opt
 ---------------------------------------------------------------
 1/18=20,19=15,26=3,38=1/1,3;
 2/9=110,12=2,17=6,18=5,40=1/2;
 3/5=16,11=2,25=1,30=1,71=1,74=-41,107=491900000,108=491900000,116=2/1,2,3;
 4//1;
 5/5=2,38=5/2;
 6/7=2,8=2,9=2,10=2,28=1/1;
 7//1,2,3,16;
 1/18=20,19=15,26=3/3(2);
 2/9=110/2;
 99//99;
 2/9=110/2;
 3/5=16,11=2,25=1,30=1,71=1,74=-41,107=491900000,108=491900000,116=2/1,2,3;
 4/5=5,16=3,69=1/1;
 5/5=2,38=5/2;
 7//1,2,3,16;
 1/18=20,19=15,26=3/3(-5);
 2/9=110/2;
 6/7=2,8=2,9=2,10=2,19=2,28=1/1;
 99/9=1/99;
 Leave Link    1 at Sat Jul 25 10:14:32 2020, MaxMem=  4026531840 cpu:               1.2 elap:               0.2
 (Enter /opt/ohpc/pub/libs/gaussian/g16-A.03/sandybridge/g16/l101.exe)
 -------------
 H17 C33 N3 F6
 -------------
 Symbolic Z-matrix:
 Charge =  0 Multiplicity = 1
 C                    -12.00343   0.5289    0.46859 
 C                    -11.38663   0.45013  -0.81664 
 C                    -10.08867   0.31009  -0.86887 
 F                    -9.46353   0.20247  -2.12045 
 C                    -9.28784   0.23619   0.26366 
 N                    -9.81023   0.16669   1.45712 
 C                    -11.13522   0.34252   1.54775 
 C                    -7.81418   0.02832   0.17203 
 C                    -7.13618  -1.14826   0.56061 
 C                    -5.75025  -1.26598   0.46962 
 C                    -4.96743  -0.12724   0.08223 
 C                    -5.61561   0.98982  -0.22925 
 C                    -7.00714   1.13398  -0.2402 
 F                    -7.60322   2.33528  -0.57372 
 C                    -3.49028  -0.26336   0.02295 
 C                    -2.93493  -1.27173  -0.73855 
 C                    -1.54265  -1.29807  -0.75031 
 F                    -0.89453  -2.17685  -1.5644 
 C                    -0.78875  -0.45159  -0.02784 
 N                    -1.3119    0.49727   0.73858 
 C                    -2.68793   0.53586   0.81684 
 C                     0.7427   -0.42745  -0.04941 
 C                     1.42024  -0.00001  -1.18695 
 C                     2.74499   0.10939  -1.19306 
 C                     3.54207  -0.25513  -0.12703 
 C                     2.85809  -0.76988   1.05395 
 C                     1.45226  -0.79877   1.01968 
 F                     0.90809  -1.24143   2.17758 
 C                     5.0153   -0.20337  -0.11033 
 C                     5.85795  -1.21816   0.2967 
 C                     7.18352  -1.04341   0.2942 
 F                     7.95546  -2.08602   0.71092 
 C                     7.80996   0.1823   -0.13419 
 N                     6.98599   1.12876  -0.59609 
 C                     5.68351   0.95089  -0.52877 
 C                     9.20782   0.32494  -0.24356 
 C                     10.04404  -0.47357  -1.06782 
 C                     11.42367  -0.21242  -1.15351 
 C                     11.9941   0.84105  -0.34516 
 C                     11.18195   1.63467   0.44847 
 C                     9.81013   1.38017   0.46106 
 F                     9.1387    2.18012   1.25759 
 H                    -13.04011   0.59544   0.57061 
 H                    -12.01812   0.5367   -1.6395 
 H                    -11.54429   0.33215   2.56347 
 H                    -7.8254   -2.0068    0.89468 
 H                    -5.29286  -2.24054   0.76832 
 H                    -5.06443   1.95519  -0.54956 
 H                    -3.42422  -1.95795  -1.35965 
 H                    -3.16059   1.35112   1.42975 
 H                     0.85744   0.31125  -2.06115 
 H                     3.25541   0.49273  -2.1298 
 H                     3.35462  -1.00256   1.92171 
 H                     5.45504  -2.10908   0.7261 
 H                     5.09173   1.81614  -0.86252 
 H                     9.63451  -1.21984  -1.59369 
 H                     12.03685  -0.85787  -1.68718 
 H                     13.08565   0.96     -0.42232 
 H                     11.59866   2.45567   0.96594 
 
 ITRead=  0  0  0  0  0  0  0  0  0  0  0  0  0  0  0  0  0  0  0  0
 ITRead=  0  0  0  0  0  0  0  0  0  0  0  0  0  0  0  0  0  0  0  0
 ITRead=  0  0  0  0  0  0  0  0  0  0  0  0  0  0  0  0  0  0  0
 MicOpt= -1 -1 -1 -1 -1 -1 -1 -1 -1 -1 -1 -1 -1 -1 -1 -1 -1 -1 -1 -1
 MicOpt= -1 -1 -1 -1 -1 -1 -1 -1 -1 -1 -1 -1 -1 -1 -1 -1 -1 -1 -1 -1
 MicOpt= -1 -1 -1 -1 -1 -1 -1 -1 -1 -1 -1 -1 -1 -1 -1 -1 -1 -1 -1
 NAtoms=     59 NQM=       59 NQMF=       0 NMMI=      0 NMMIF=      0
                NMic=       0 NMicF=      0.
                    Isotopes and Nuclear Properties:
 (Nuclear quadrupole moments (NQMom) in fm**2, nuclear magnetic moments (NMagM)
  in nuclear magnetons)

  Atom         1           2           3           4           5           6           7           8           9          10
 IAtWgt=          12          12          12          19          12          14          12          12          12          12
 AtmWgt=  12.0000000  12.0000000  12.0000000  18.9984033  12.0000000  14.0030740  12.0000000  12.0000000  12.0000000  12.0000000
 NucSpn=           0           0           0           1           0           2           0           0           0           0
 AtZEff=  -0.0000000  -0.0000000  -0.0000000  -0.0000000  -0.0000000  -0.0000000  -0.0000000  -0.0000000  -0.0000000  -0.0000000
 NQMom=    0.0000000   0.0000000   0.0000000   0.0000000   0.0000000   2.0440000   0.0000000   0.0000000   0.0000000   0.0000000
 NMagM=    0.0000000   0.0000000   0.0000000   2.6288670   0.0000000   0.4037610   0.0000000   0.0000000   0.0000000   0.0000000
 AtZNuc=   6.0000000   6.0000000   6.0000000   9.0000000   6.0000000   7.0000000   6.0000000   6.0000000   6.0000000   6.0000000

  Atom        11          12          13          14          15          16          17          18          19          20
 IAtWgt=          12          12          12          19          12          12          12          19          12          14
 AtmWgt=  12.0000000  12.0000000  12.0000000  18.9984033  12.0000000  12.0000000  12.0000000  18.9984033  12.0000000  14.0030740
 NucSpn=           0           0           0           1           0           0           0           1           0           2
 AtZEff=  -0.0000000  -0.0000000  -0.0000000  -0.0000000  -0.0000000  -0.0000000  -0.0000000  -0.0000000  -0.0000000  -0.0000000
 NQMom=    0.0000000   0.0000000   0.0000000   0.0000000   0.0000000   0.0000000   0.0000000   0.0000000   0.0000000   2.0440000
 NMagM=    0.0000000   0.0000000   0.0000000   2.6288670   0.0000000   0.0000000   0.0000000   2.6288670   0.0000000   0.4037610
 AtZNuc=   6.0000000   6.0000000   6.0000000   9.0000000   6.0000000   6.0000000   6.0000000   9.0000000   6.0000000   7.0000000

  Atom        21          22          23          24          25          26          27          28          29          30
 IAtWgt=          12          12          12          12          12          12          12          19          12          12
 AtmWgt=  12.0000000  12.0000000  12.0000000  12.0000000  12.0000000  12.0000000  12.0000000  18.9984033  12.0000000  12.0000000
 NucSpn=           0           0           0           0           0           0           0           1           0           0
 AtZEff=  -0.0000000  -0.0000000  -0.0000000  -0.0000000  -0.0000000  -0.0000000  -0.0000000  -0.0000000  -0.0000000  -0.0000000
 NQMom=    0.0000000   0.0000000   0.0000000   0.0000000   0.0000000   0.0000000   0.0000000   0.0000000   0.0000000   0.0000000
 NMagM=    0.0000000   0.0000000   0.0000000   0.0000000   0.0000000   0.0000000   0.0000000   2.6288670   0.0000000   0.0000000
 AtZNuc=   6.0000000   6.0000000   6.0000000   6.0000000   6.0000000   6.0000000   6.0000000   9.0000000   6.0000000   6.0000000

  Atom        31          32          33          34          35          36          37          38          39          40
 IAtWgt=          12          19          12          14          12          12          12          12          12          12
 AtmWgt=  12.0000000  18.9984033  12.0000000  14.0030740  12.0000000  12.0000000  12.0000000  12.0000000  12.0000000  12.0000000
 NucSpn=           0           1           0           2           0           0           0           0           0           0
 AtZEff=  -0.0000000  -0.0000000  -0.0000000  -0.0000000  -0.0000000  -0.0000000  -0.0000000  -0.0000000  -0.0000000  -0.0000000
 NQMom=    0.0000000   0.0000000   0.0000000   2.0440000   0.0000000   0.0000000   0.0000000   0.0000000   0.0000000   0.0000000
 NMagM=    0.0000000   2.6288670   0.0000000   0.4037610   0.0000000   0.0000000   0.0000000   0.0000000   0.0000000   0.0000000
 AtZNuc=   6.0000000   9.0000000   6.0000000   7.0000000   6.0000000   6.0000000   6.0000000   6.0000000   6.0000000   6.0000000

  Atom        41          42          43          44          45          46          47          48          49          50
 IAtWgt=          12          19           1           1           1           1           1           1           1           1
 AtmWgt=  12.0000000  18.9984033   1.0078250   1.0078250   1.0078250   1.0078250   1.0078250   1.0078250   1.0078250   1.0078250
 NucSpn=           0           1           1           1           1           1           1           1           1           1
 AtZEff=  -0.0000000  -0.0000000  -0.0000000  -0.0000000  -0.0000000  -0.0000000  -0.0000000  -0.0000000  -0.0000000  -0.0000000
 NQMom=    0.0000000   0.0000000   0.0000000   0.0000000   0.0000000   0.0000000   0.0000000   0.0000000   0.0000000   0.0000000
 NMagM=    0.0000000   2.6288670   2.7928460   2.7928460   2.7928460   2.7928460   2.7928460   2.7928460   2.7928460   2.7928460
 AtZNuc=   6.0000000   9.0000000   1.0000000   1.0000000   1.0000000   1.0000000   1.0000000   1.0000000   1.0000000   1.0000000

  Atom        51          52          53          54          55          56          57          58          59
 IAtWgt=           1           1           1           1           1           1           1           1           1
 AtmWgt=   1.0078250   1.0078250   1.0078250   1.0078250   1.0078250   1.0078250   1.0078250   1.0078250   1.0078250
 NucSpn=           1           1           1           1           1           1           1           1           1
 AtZEff=  -0.0000000  -0.0000000  -0.0000000  -0.0000000  -0.0000000  -0.0000000  -0.0000000  -0.0000000  -0.0000000
 NQMom=    0.0000000   0.0000000   0.0000000   0.0000000   0.0000000   0.0000000   0.0000000   0.0000000   0.0000000
 NMagM=    2.7928460   2.7928460   2.7928460   2.7928460   2.7928460   2.7928460   2.7928460   2.7928460   2.7928460
 AtZNuc=   1.0000000   1.0000000   1.0000000   1.0000000   1.0000000   1.0000000   1.0000000   1.0000000   1.0000000
 Leave Link  101 at Sat Jul 25 10:14:33 2020, MaxMem=  4026531840 cpu:               2.4 elap:               0.4
 (Enter /opt/ohpc/pub/libs/gaussian/g16-A.03/sandybridge/g16/l103.exe)

 GradGradGradGradGradGradGradGradGradGradGradGradGradGradGradGradGradGrad
 Berny optimization.
 Initialization pass.
                           ----------------------------
                           !    Initial Parameters    !
                           ! (Angstroms and Degrees)  !
 --------------------------                            --------------------------
 ! Name  Definition              Value          Derivative Info.                !
 --------------------------------------------------------------------------------
 ! R1    R(1,2)                  1.4278         estimate D2E/DX2                !
 ! R2    R(1,7)                  1.3975         estimate D2E/DX2                !
 ! R3    R(1,43)                 1.0438         estimate D2E/DX2                !
 ! R4    R(2,3)                  1.3065         estimate D2E/DX2                !
 ! R5    R(2,44)                 1.0408         estimate D2E/DX2                !
 ! R6    R(3,4)                  1.4031         estimate D2E/DX2                !
 ! R7    R(3,5)                  1.389          estimate D2E/DX2                !
 ! R8    R(5,6)                  1.3046         estimate D2E/DX2                !
 ! R9    R(5,8)                  1.4911         estimate D2E/DX2                !
 ! R10   R(6,7)                  1.3397         estimate D2E/DX2                !
 ! R11   R(7,45)                 1.095          estimate D2E/DX2                !
 ! R12   R(8,9)                  1.4125         estimate D2E/DX2                !
 ! R13   R(8,13)                 1.4296         estimate D2E/DX2                !
 ! R14   R(9,10)                 1.3939         estimate D2E/DX2                !
 ! R15   R(9,46)                 1.1505         estimate D2E/DX2                !
 ! R16   R(10,11)                1.4351         estimate D2E/DX2                !
 ! R17   R(10,47)                1.1172         estimate D2E/DX2                !
 ! R18   R(11,12)                1.3285         estimate D2E/DX2                !
 ! R19   R(11,15)                1.4846         estimate D2E/DX2                !
 ! R20   R(12,13)                1.399          estimate D2E/DX2                !
 ! R21   R(12,48)                1.1569         estimate D2E/DX2                !
 ! R22   R(13,14)                1.3819         estimate D2E/DX2                !
 ! R23   R(15,16)                1.3803         estimate D2E/DX2                !
 ! R24   R(15,21)                1.383          estimate D2E/DX2                !
 ! R25   R(16,17)                1.3926         estimate D2E/DX2                !
 ! R26   R(16,49)                1.0469         estimate D2E/DX2                !
 ! R27   R(17,18)                1.362          estimate D2E/DX2                !
 ! R28   R(17,19)                1.3442         estimate D2E/DX2                !
 ! R29   R(19,20)                1.3272         estimate D2E/DX2                !
 ! R30   R(19,22)                1.5318         estimate D2E/DX2                !
 ! R31   R(20,21)                1.3788         estimate D2E/DX2                !
 ! R32   R(21,50)                1.1241         estimate D2E/DX2                !
 ! R33   R(22,23)                1.3913         estimate D2E/DX2                !
 ! R34   R(22,27)                1.3358         estimate D2E/DX2                !
 ! R35   R(23,24)                1.3293         estimate D2E/DX2                !
 ! R36   R(23,51)                1.0853         estimate D2E/DX2                !
 ! R37   R(24,25)                1.3801         estimate D2E/DX2                !
 ! R38   R(24,52)                1.1336         estimate D2E/DX2                !
 ! R39   R(25,26)                1.4586         estimate D2E/DX2                !
 ! R40   R(25,29)                1.4742         estimate D2E/DX2                !
 ! R41   R(26,27)                1.4065         estimate D2E/DX2                !
 ! R42   R(26,53)                1.0265         estimate D2E/DX2                !
 ! R43   R(27,28)                1.3538         estimate D2E/DX2                !
 ! R44   R(29,30)                1.3804         estimate D2E/DX2                !
 ! R45   R(29,35)                1.3978         estimate D2E/DX2                !
 ! R46   R(30,31)                1.337          estimate D2E/DX2                !
 ! R47   R(30,54)                1.0679         estimate D2E/DX2                !
 ! R48   R(31,32)                1.3626         estimate D2E/DX2                !
 ! R49   R(31,33)                1.4416         estimate D2E/DX2                !
 ! R50   R(33,34)                1.3372         estimate D2E/DX2                !
 ! R51   R(33,36)                1.4094         estimate D2E/DX2                !
 ! R52   R(34,35)                1.3163         estimate D2E/DX2                !
 ! R53   R(35,55)                1.1001         estimate D2E/DX2                !
 ! R54   R(36,37)                1.42           estimate D2E/DX2                !
 ! R55   R(36,41)                1.4046         estimate D2E/DX2                !
 ! R56   R(37,38)                1.4067         estimate D2E/DX2                !
 ! R57   R(37,56)                1.0006         estimate D2E/DX2                !
 ! R58   R(38,39)                1.4452         estimate D2E/DX2                !
 ! R59   R(38,57)                1.038          estimate D2E/DX2                !
 ! R60   R(39,40)                1.3854         estimate D2E/DX2                !
 ! R61   R(39,58)                1.1007         estimate D2E/DX2                !
 ! R62   R(40,41)                1.3953         estimate D2E/DX2                !
 ! R63   R(40,59)                1.0562         estimate D2E/DX2                !
 ! R64   R(41,42)                1.3135         estimate D2E/DX2                !
 ! A1    A(2,1,7)              114.7947         estimate D2E/DX2                !
 ! A2    A(2,1,43)             121.3695         estimate D2E/DX2                !
 ! A3    A(7,1,43)             123.3691         estimate D2E/DX2                !
 ! A4    A(1,2,3)              118.1039         estimate D2E/DX2                !
 ! A5    A(1,2,44)             116.4209         estimate D2E/DX2                !
 ! A6    A(3,2,44)             125.4527         estimate D2E/DX2                !
 ! A7    A(2,3,4)              119.1098         estimate D2E/DX2                !
 ! A8    A(2,3,5)              123.0837         estimate D2E/DX2                !
 ! A9    A(4,3,5)              117.7952         estimate D2E/DX2                !
 ! A10   A(3,5,6)              121.1873         estimate D2E/DX2                !
 ! A11   A(3,5,8)              121.8111         estimate D2E/DX2                !
 ! A12   A(6,5,8)              116.3931         estimate D2E/DX2                !
 ! A13   A(5,6,7)              116.8026         estimate D2E/DX2                !
 ! A14   A(1,7,6)              125.4292         estimate D2E/DX2                !
 ! A15   A(1,7,45)             119.0411         estimate D2E/DX2                !
 ! A16   A(6,7,45)             115.5295         estimate D2E/DX2                !
 ! A17   A(5,8,9)              125.0039         estimate D2E/DX2                !
 ! A18   A(5,8,13)             117.8937         estimate D2E/DX2                !
 ! A19   A(9,8,13)             116.9111         estimate D2E/DX2                !
 ! A20   A(8,9,10)             121.9826         estimate D2E/DX2                !
 ! A21   A(8,9,46)             114.4523         estimate D2E/DX2                !
 ! A22   A(10,9,46)            123.4737         estimate D2E/DX2                !
 ! A23   A(9,10,11)            119.5355         estimate D2E/DX2                !
 ! A24   A(9,10,47)            117.5986         estimate D2E/DX2                !
 ! A25   A(11,10,47)           122.7521         estimate D2E/DX2                !
 ! A26   A(10,11,12)           117.6669         estimate D2E/DX2                !
 ! A27   A(10,11,15)           118.735          estimate D2E/DX2                !
 ! A28   A(12,11,15)           123.5855         estimate D2E/DX2                !
 ! A29   A(11,12,13)           125.0127         estimate D2E/DX2                !
 ! A30   A(11,12,48)           122.2834         estimate D2E/DX2                !
 ! A31   A(13,12,48)           112.6896         estimate D2E/DX2                !
 ! A32   A(8,13,12)            118.656          estimate D2E/DX2                !
 ! A33   A(8,13,14)            119.8955         estimate D2E/DX2                !
 ! A34   A(12,13,14)           121.3658         estimate D2E/DX2                !
 ! A35   A(11,15,16)           119.2979         estimate D2E/DX2                !
 ! A36   A(11,15,21)           120.0874         estimate D2E/DX2                !
 ! A37   A(16,15,21)           120.3614         estimate D2E/DX2                !
 ! A38   A(15,16,17)           114.8817         estimate D2E/DX2                !
 ! A39   A(15,16,49)           128.1787         estimate D2E/DX2                !
 ! A40   A(17,16,49)           116.734          estimate D2E/DX2                !
 ! A41   A(16,17,18)           119.5385         estimate D2E/DX2                !
 ! A42   A(16,17,19)           122.9759         estimate D2E/DX2                !
 ! A43   A(18,17,19)           117.4308         estimate D2E/DX2                !
 ! A44   A(17,19,20)           122.6508         estimate D2E/DX2                !
 ! A45   A(17,19,22)           124.2696         estimate D2E/DX2                !
 ! A46   A(20,19,22)           113.0143         estimate D2E/DX2                !
 ! A47   A(19,20,21)           116.4991         estimate D2E/DX2                !
 ! A48   A(15,21,20)           122.0198         estimate D2E/DX2                !
 ! A49   A(15,21,50)           119.218          estimate D2E/DX2                !
 ! A50   A(20,21,50)           118.0905         estimate D2E/DX2                !
 ! A51   A(19,22,23)           120.2135         estimate D2E/DX2                !
 ! A52   A(19,22,27)           121.0261         estimate D2E/DX2                !
 ! A53   A(23,22,27)           118.7561         estimate D2E/DX2                !
 ! A54   A(22,23,24)           120.9549         estimate D2E/DX2                !
 ! A55   A(22,23,51)           119.6142         estimate D2E/DX2                !
 ! A56   A(24,23,51)           119.3076         estimate D2E/DX2                !
 ! A57   A(23,24,25)           123.3878         estimate D2E/DX2                !
 ! A58   A(23,24,52)           118.7102         estimate D2E/DX2                !
 ! A59   A(25,24,52)           117.8773         estimate D2E/DX2                !
 ! A60   A(24,25,26)           116.6028         estimate D2E/DX2                !
 ! A61   A(24,25,29)           125.2148         estimate D2E/DX2                !
 ! A62   A(26,25,29)           118.1526         estimate D2E/DX2                !
 ! A63   A(25,26,27)           117.1427         estimate D2E/DX2                !
 ! A64   A(25,26,53)           122.5226         estimate D2E/DX2                !
 ! A65   A(27,26,53)           119.9611         estimate D2E/DX2                !
 ! A66   A(22,27,26)           123.0056         estimate D2E/DX2                !
 ! A67   A(22,27,28)           124.1874         estimate D2E/DX2                !
 ! A68   A(26,27,28)           112.807          estimate D2E/DX2                !
 ! A69   A(25,29,30)           125.9835         estimate D2E/DX2                !
 ! A70   A(25,29,35)           120.2192         estimate D2E/DX2                !
 ! A71   A(30,29,35)           113.7971         estimate D2E/DX2                !
 ! A72   A(29,30,31)           120.5686         estimate D2E/DX2                !
 ! A73   A(29,30,54)           120.1017         estimate D2E/DX2                !
 ! A74   A(31,30,54)           118.9364         estimate D2E/DX2                !
 ! A75   A(30,31,32)           117.4582         estimate D2E/DX2                !
 ! A76   A(30,31,33)           122.8529         estimate D2E/DX2                !
 ! A77   A(32,31,33)           119.6876         estimate D2E/DX2                !
 ! A78   A(31,33,34)           115.8919         estimate D2E/DX2                !
 ! A79   A(31,33,36)           122.6902         estimate D2E/DX2                !
 ! A80   A(34,33,36)           120.8454         estimate D2E/DX2                !
 ! A81   A(33,34,35)           119.7636         estimate D2E/DX2                !
 ! A82   A(29,35,34)           126.8634         estimate D2E/DX2                !
 ! A83   A(29,35,55)           118.8904         estimate D2E/DX2                !
 ! A84   A(34,35,55)           114.2354         estimate D2E/DX2                !
 ! A85   A(33,36,37)           124.9059         estimate D2E/DX2                !
 ! A86   A(33,36,41)           117.544          estimate D2E/DX2                !
 ! A87   A(37,36,41)           117.4617         estimate D2E/DX2                !
 ! A88   A(36,37,38)           120.5652         estimate D2E/DX2                !
 ! A89   A(36,37,56)           118.9115         estimate D2E/DX2                !
 ! A90   A(38,37,56)           120.5207         estimate D2E/DX2                !
 ! A91   A(37,38,39)           119.2322         estimate D2E/DX2                !
 ! A92   A(37,38,57)           119.6856         estimate D2E/DX2                !
 ! A93   A(39,38,57)           120.5099         estimate D2E/DX2                !
 ! A94   A(38,39,40)           120.4382         estimate D2E/DX2                !
 ! A95   A(38,39,58)           115.5296         estimate D2E/DX2                !
 ! A96   A(40,39,58)           124.0283         estimate D2E/DX2                !
 ! A97   A(39,40,41)           118.4929         estimate D2E/DX2                !
 ! A98   A(39,40,59)           119.6489         estimate D2E/DX2                !
 ! A99   A(41,40,59)           121.6878         estimate D2E/DX2                !
 ! A100  A(36,41,40)           123.6505         estimate D2E/DX2                !
 ! A101  A(36,41,42)           122.8594         estimate D2E/DX2                !
 ! A102  A(40,41,42)           113.3891         estimate D2E/DX2                !
 ! D1    D(7,1,2,3)             -4.6525         estimate D2E/DX2                !
 ! D2    D(7,1,2,44)           176.9767         estimate D2E/DX2                !
 ! D3    D(43,1,2,3)          -177.0657         estimate D2E/DX2                !
 ! D4    D(43,1,2,44)            4.5635         estimate D2E/DX2                !
 ! D5    D(2,1,7,6)              3.2631         estimate D2E/DX2                !
 ! D6    D(2,1,7,45)          -176.5643         estimate D2E/DX2                !
 ! D7    D(43,1,7,6)           175.5056         estimate D2E/DX2                !
 ! D8    D(43,1,7,45)           -4.3219         estimate D2E/DX2                !
 ! D9    D(1,2,3,4)            178.6857         estimate D2E/DX2                !
 ! D10   D(1,2,3,5)             -0.0592         estimate D2E/DX2                !
 ! D11   D(44,2,3,4)            -3.1055         estimate D2E/DX2                !
 ! D12   D(44,2,3,5)           178.1496         estimate D2E/DX2                !
 ! D13   D(2,3,5,6)              7.0843         estimate D2E/DX2                !
 ! D14   D(2,3,5,8)            177.8179         estimate D2E/DX2                !
 ! D15   D(4,3,5,6)           -171.6761         estimate D2E/DX2                !
 ! D16   D(4,3,5,8)             -0.9426         estimate D2E/DX2                !
 ! D17   D(3,5,6,7)             -8.3142         estimate D2E/DX2                !
 ! D18   D(8,5,6,7)           -179.5272         estimate D2E/DX2                !
 ! D19   D(3,5,8,9)           -110.4324         estimate D2E/DX2                !
 ! D20   D(3,5,8,13)            74.7631         estimate D2E/DX2                !
 ! D21   D(6,5,8,9)             60.7213         estimate D2E/DX2                !
 ! D22   D(6,5,8,13)          -114.0832         estimate D2E/DX2                !
 ! D23   D(5,6,7,1)              3.2355         estimate D2E/DX2                !
 ! D24   D(5,6,7,45)          -176.9317         estimate D2E/DX2                !
 ! D25   D(5,8,9,10)          -178.8285         estimate D2E/DX2                !
 ! D26   D(5,8,9,46)             4.533          estimate D2E/DX2                !
 ! D27   D(13,8,9,10)           -3.9778         estimate D2E/DX2                !
 ! D28   D(13,8,9,46)          179.3837         estimate D2E/DX2                !
 ! D29   D(5,8,13,12)          174.9653         estimate D2E/DX2                !
 ! D30   D(5,8,13,14)           -1.7755         estimate D2E/DX2                !
 ! D31   D(9,8,13,12)           -0.2632         estimate D2E/DX2                !
 ! D32   D(9,8,13,14)         -177.0041         estimate D2E/DX2                !
 ! D33   D(8,9,10,11)            5.5688         estimate D2E/DX2                !
 ! D34   D(8,9,10,47)         -178.2031         estimate D2E/DX2                !
 ! D35   D(46,9,10,11)        -178.1            estimate D2E/DX2                !
 ! D36   D(46,9,10,47)          -1.8719         estimate D2E/DX2                !
 ! D37   D(9,10,11,12)          -2.7102         estimate D2E/DX2                !
 ! D38   D(9,10,11,15)         178.5329         estimate D2E/DX2                !
 ! D39   D(47,10,11,12)       -178.7353         estimate D2E/DX2                !
 ! D40   D(47,10,11,15)          2.5077         estimate D2E/DX2                !
 ! D41   D(10,11,12,13)         -1.6257         estimate D2E/DX2                !
 ! D42   D(10,11,12,48)        179.851          estimate D2E/DX2                !
 ! D43   D(15,11,12,13)        177.0659         estimate D2E/DX2                !
 ! D44   D(15,11,12,48)         -1.4574         estimate D2E/DX2                !
 ! D45   D(10,11,15,16)         54.2703         estimate D2E/DX2                !
 ! D46   D(10,11,15,21)       -119.9703         estimate D2E/DX2                !
 ! D47   D(12,11,15,16)       -124.4082         estimate D2E/DX2                !
 ! D48   D(12,11,15,21)         61.3513         estimate D2E/DX2                !
 ! D49   D(11,12,13,8)           3.1365         estimate D2E/DX2                !
 ! D50   D(11,12,13,14)        179.8275         estimate D2E/DX2                !
 ! D51   D(48,12,13,8)        -178.2166         estimate D2E/DX2                !
 ! D52   D(48,12,13,14)         -1.5257         estimate D2E/DX2                !
 ! D53   D(11,15,16,17)        178.7573         estimate D2E/DX2                !
 ! D54   D(11,15,16,49)          4.189          estimate D2E/DX2                !
 ! D55   D(21,15,16,17)         -7.0183         estimate D2E/DX2                !
 ! D56   D(21,15,16,49)        178.4135         estimate D2E/DX2                !
 ! D57   D(11,15,21,20)       -176.2078         estimate D2E/DX2                !
 ! D58   D(11,15,21,50)         -5.7829         estimate D2E/DX2                !
 ! D59   D(16,15,21,20)          9.6134         estimate D2E/DX2                !
 ! D60   D(16,15,21,50)       -179.9617         estimate D2E/DX2                !
 ! D61   D(15,16,17,18)       -174.1561         estimate D2E/DX2                !
 ! D62   D(15,16,17,19)          3.0794         estimate D2E/DX2                !
 ! D63   D(49,16,17,18)          1.0646         estimate D2E/DX2                !
 ! D64   D(49,16,17,19)        178.3001         estimate D2E/DX2                !
 ! D65   D(16,17,19,20)         -1.2944         estimate D2E/DX2                !
 ! D66   D(16,17,19,22)       -178.1481         estimate D2E/DX2                !
 ! D67   D(18,17,19,20)        175.9958         estimate D2E/DX2                !
 ! D68   D(18,17,19,22)         -0.8579         estimate D2E/DX2                !
 ! D69   D(17,19,20,21)          3.2276         estimate D2E/DX2                !
 ! D70   D(22,19,20,21)       -179.5971         estimate D2E/DX2                !
 ! D71   D(17,19,22,23)         68.976          estimate D2E/DX2                !
 ! D72   D(17,19,22,27)       -111.7847         estimate D2E/DX2                !
 ! D73   D(20,19,22,23)       -108.146          estimate D2E/DX2                !
 ! D74   D(20,19,22,27)         71.0933         estimate D2E/DX2                !
 ! D75   D(19,20,21,15)         -7.3668         estimate D2E/DX2                !
 ! D76   D(19,20,21,50)       -177.8951         estimate D2E/DX2                !
 ! D77   D(19,22,23,24)        175.6043         estimate D2E/DX2                !
 ! D78   D(19,22,23,51)         -0.3304         estimate D2E/DX2                !
 ! D79   D(27,22,23,24)         -3.6522         estimate D2E/DX2                !
 ! D80   D(27,22,23,51)       -179.5869         estimate D2E/DX2                !
 ! D81   D(19,22,27,26)       -178.8146         estimate D2E/DX2                !
 ! D82   D(19,22,27,28)          1.2719         estimate D2E/DX2                !
 ! D83   D(23,22,27,26)          0.4356         estimate D2E/DX2                !
 ! D84   D(23,22,27,28)       -179.478          estimate D2E/DX2                !
 ! D85   D(22,23,24,25)          3.7731         estimate D2E/DX2                !
 ! D86   D(22,23,24,52)       -178.0775         estimate D2E/DX2                !
 ! D87   D(51,23,24,25)        179.7201         estimate D2E/DX2                !
 ! D88   D(51,23,24,52)         -2.1305         estimate D2E/DX2                !
 ! D89   D(23,24,25,26)         -0.6325         estimate D2E/DX2                !
 ! D90   D(23,24,25,29)        177.3392         estimate D2E/DX2                !
 ! D91   D(52,24,25,26)       -178.7964         estimate D2E/DX2                !
 ! D92   D(52,24,25,29)         -0.8247         estimate D2E/DX2                !
 ! D93   D(24,25,26,27)         -2.4267         estimate D2E/DX2                !
 ! D94   D(24,25,26,53)       -175.3979         estimate D2E/DX2                !
 ! D95   D(29,25,26,27)        179.4527         estimate D2E/DX2                !
 ! D96   D(29,25,26,53)          6.4815         estimate D2E/DX2                !
 ! D97   D(24,25,29,30)       -131.2256         estimate D2E/DX2                !
 ! D98   D(24,25,29,35)         48.9663         estimate D2E/DX2                !
 ! D99   D(26,25,29,30)         46.7175         estimate D2E/DX2                !
 ! D100  D(26,25,29,35)       -133.0907         estimate D2E/DX2                !
 ! D101  D(25,26,27,22)          2.5399         estimate D2E/DX2                !
 ! D102  D(25,26,27,28)       -177.5376         estimate D2E/DX2                !
 ! D103  D(53,26,27,22)        175.7002         estimate D2E/DX2                !
 ! D104  D(53,26,27,28)         -4.3774         estimate D2E/DX2                !
 ! D105  D(25,29,30,31)       -178.5466         estimate D2E/DX2                !
 ! D106  D(25,29,30,54)         -5.8217         estimate D2E/DX2                !
 ! D107  D(35,29,30,31)          1.2722         estimate D2E/DX2                !
 ! D108  D(35,29,30,54)        173.9971         estimate D2E/DX2                !
 ! D109  D(25,29,35,34)       -178.3546         estimate D2E/DX2                !
 ! D110  D(25,29,35,55)          0.3768         estimate D2E/DX2                !
 ! D111  D(30,29,35,34)          1.815          estimate D2E/DX2                !
 ! D112  D(30,29,35,55)       -179.4535         estimate D2E/DX2                !
 ! D113  D(29,30,31,32)        179.8728         estimate D2E/DX2                !
 ! D114  D(29,30,31,33)         -0.548          estimate D2E/DX2                !
 ! D115  D(54,30,31,32)          7.0641         estimate D2E/DX2                !
 ! D116  D(54,30,31,33)       -173.3567         estimate D2E/DX2                !
 ! D117  D(30,31,33,34)         -3.0836         estimate D2E/DX2                !
 ! D118  D(30,31,33,36)       -174.463          estimate D2E/DX2                !
 ! D119  D(32,31,33,34)        176.4866         estimate D2E/DX2                !
 ! D120  D(32,31,33,36)          5.1072         estimate D2E/DX2                !
 ! D121  D(31,33,34,35)          5.879          estimate D2E/DX2                !
 ! D122  D(36,33,34,35)        177.4299         estimate D2E/DX2                !
 ! D123  D(31,33,36,37)         58.6791         estimate D2E/DX2                !
 ! D124  D(31,33,36,41)       -124.8378         estimate D2E/DX2                !
 ! D125  D(34,33,36,37)       -112.2847         estimate D2E/DX2                !
 ! D126  D(34,33,36,41)         64.1985         estimate D2E/DX2                !
 ! D127  D(33,34,35,29)         -5.675          estimate D2E/DX2                !
 ! D128  D(33,34,35,55)        175.543          estimate D2E/DX2                !
 ! D129  D(33,36,37,38)        177.1117         estimate D2E/DX2                !
 ! D130  D(33,36,37,56)         -2.3118         estimate D2E/DX2                !
 ! D131  D(41,36,37,38)          0.6259         estimate D2E/DX2                !
 ! D132  D(41,36,37,56)       -178.7976         estimate D2E/DX2                !
 ! D133  D(33,36,41,40)        179.683          estimate D2E/DX2                !
 ! D134  D(33,36,41,42)          3.5802         estimate D2E/DX2                !
 ! D135  D(37,36,41,40)         -3.5671         estimate D2E/DX2                !
 ! D136  D(37,36,41,42)       -179.6699         estimate D2E/DX2                !
 ! D137  D(36,37,38,39)          2.81           estimate D2E/DX2                !
 ! D138  D(36,37,38,57)        174.1818         estimate D2E/DX2                !
 ! D139  D(56,37,38,39)       -177.7758         estimate D2E/DX2                !
 ! D140  D(56,37,38,57)         -6.404          estimate D2E/DX2                !
 ! D141  D(37,38,39,40)         -3.6081         estimate D2E/DX2                !
 ! D142  D(37,38,39,58)        177.0782         estimate D2E/DX2                !
 ! D143  D(57,38,39,40)       -174.9071         estimate D2E/DX2                !
 ! D144  D(57,38,39,58)          5.7792         estimate D2E/DX2                !
 ! D145  D(38,39,40,41)          0.8629         estimate D2E/DX2                !
 ! D146  D(38,39,40,59)       -174.4737         estimate D2E/DX2                !
 ! D147  D(58,39,40,41)       -179.8844         estimate D2E/DX2                !
 ! D148  D(58,39,40,59)          4.779          estimate D2E/DX2                !
 ! D149  D(39,40,41,36)          2.8173         estimate D2E/DX2                !
 ! D150  D(39,40,41,42)        179.2511         estimate D2E/DX2                !
 ! D151  D(59,40,41,36)        178.0542         estimate D2E/DX2                !
 ! D152  D(59,40,41,42)         -5.5121         estimate D2E/DX2                !
 --------------------------------------------------------------------------------
 Trust Radius=3.00D-01 FncErr=1.00D-07 GrdErr=1.00D-06 EigMax=2.50D+02 EigMin=1.00D-04
 Number of steps in this run=    328 maximum allowed number of steps=    354.
 GradGradGradGradGradGradGradGradGradGradGradGradGradGradGradGradGradGrad

 Leave Link  103 at Sat Jul 25 10:14:33 2020, MaxMem=  4026531840 cpu:               0.3 elap:               0.1
 (Enter /opt/ohpc/pub/libs/gaussian/g16-A.03/sandybridge/g16/l202.exe)
 Stoichiometry    C33H17F6N3
 Framework group  C1[X(C33H17F6N3)]
 Deg. of freedom   171
 Full point group                 C1      NOp   1
 Largest Abelian subgroup         C1      NOp   1
 Largest concise Abelian subgroup C1      NOp   1
                         Standard orientation:                         
 ---------------------------------------------------------------------
 Center     Atomic      Atomic             Coordinates (Angstroms)
 Number     Number       Type             X           Y           Z
 ---------------------------------------------------------------------
      1          6           0      -12.005128    0.519456    0.494431
      2          6           0      -11.388750    0.465725   -0.792296
      3          6           0      -10.090706    0.327702   -0.847662
      4          9           0       -9.465951    0.244487   -2.101288
      5          6           0       -9.289387    0.232794    0.282964
      6          7           0       -9.811276    0.140109    1.475069
      7          6           0      -11.136369    0.313164    1.569522
      8          6           0       -7.815606    0.027841    0.186845
      9          6           0       -7.136573   -1.155429    0.552637
     10          6           0       -5.750587   -1.270327    0.458913
     11          6           0       -4.968776   -0.123797    0.093060
     12          6           0       -5.617920    0.998512   -0.196794
     13          6           0       -7.009562    1.141791   -0.204478
     14          9           0       -7.606677    2.348784   -0.514784
     15          6           0       -3.491539   -0.257631    0.030656
     16          6           0       -2.935713   -1.250849   -0.750166
     17          6           0       -1.543426   -1.275896   -0.762934
     18          9           0       -0.894947   -2.138469   -1.593900
     19          6           0       -0.789889   -0.442791   -0.024697
     20          7           0       -1.313472    0.490856    0.759892
     21          6           0       -2.689500    0.526895    0.839379
     22          6           0        0.741530   -0.417075   -0.046358
     23          6           0        1.418319    0.032541   -1.175771
     24          6           0        2.742987    0.143043   -1.180273
     25          6           0        3.540739   -0.241160   -0.121690
     26          6           0        2.857599   -0.778897    1.049493
     27          6           0        1.451777   -0.808196    1.015186
     28          9           0        0.908376   -1.273313    2.164616
     29          6           0        5.013933   -0.188601   -0.104532
     30          6           0        5.857509   -1.210336    0.282728
     31          6           0        7.182943   -1.034559    0.283088
     32          9           0        7.955836   -2.084338    0.679542
     33          6           0        7.808294    0.199592   -0.122035
     34          7           0        6.983434    1.154072   -0.565473
     35          6           0        5.681111    0.973958   -0.501090
     36          6           0        9.206006    0.345365   -0.229169
     37          6           0       10.042524   -0.436611   -1.068838
     38          6           0       11.421917   -0.172822   -1.150015
     39          6           0       11.991853    0.865457   -0.321898
     40          6           0       11.179401    1.643148    0.487037
     41          6           0        9.807779    1.387403    0.495256
     42          9           0        9.136042    2.171476    1.307171
     43          1           0      -13.041817    0.583248    0.598077
     44          1           0      -12.020610    0.567507   -1.613120
     45          1           0      -11.545045    0.283083    2.585002
     46          1           0       -7.825011   -2.020720    0.870494
     47          1           0       -5.292346   -2.250067    0.738774
     48          1           0       -5.067595    1.970243   -0.498801
     49          1           0       -3.424721   -1.925449   -1.384089
     50          1           0       -3.162545    1.329936    1.467913
     51          1           0        0.854957    0.360007   -2.043667
     52          1           0        3.252762    0.544596   -2.109700
     53          1           0        3.354631   -1.027727    1.912467
     54          1           0        5.455432   -2.109598    0.695176
     55          1           0        5.088554    1.844971   -0.818037
     56          1           0        9.633358   -1.173014   -1.608718
     57          1           0       12.035387   -0.807490   -1.696142
     58          1           0       13.083288    0.986694   -0.397174
     59          1           0       11.595687    2.454431    1.019947
 ---------------------------------------------------------------------
 Rotational constants (GHZ):           0.4111718           0.0163835           0.0162908
 Leave Link  202 at Sat Jul 25 10:14:33 2020, MaxMem=  4026531840 cpu:               0.2 elap:               0.0
 (Enter /opt/ohpc/pub/libs/gaussian/g16-A.03/sandybridge/g16/l301.exe)
 Standard basis: CC-pVDZ (5D, 7F)
 Ernie: Thresh=  0.10000D-02 Tol=  0.10000D-05 Strict=F.
 Ernie:  84 primitive shells out of 1009 were deleted.
 There are   715 symmetry adapted cartesian basis functions of A   symmetry.
 There are   673 symmetry adapted basis functions of A   symmetry.
   673 basis functions,  1505 primitive gaussians,   715 cartesian basis functions
   145 alpha electrons      145 beta electrons
       nuclear repulsion energy      4044.1966109311 Hartrees.
 IExCor=32609 DFT=T Ex+Corr=LC-wPBE ExCW=0 ScaHFX=  1.000000
 ScaDFX=  1.000000  0.000000  1.000000  1.000000 ScalE2=  1.000000  1.000000
 IRadAn=      5 IRanWt=     -1 IRanGd=            0 ICorTp=0 IEmpDi=  4
 HFx  wShort=  0.000000 wLong=  0.491900 cFull=  0.000000 cShort=  0.000000 cLong=  1.000000
 DFx  wShort=  0.000000 wLong=  0.491900 cFull=  0.000000 cShort=  0.000000 cLong=  1.000000
 NAtoms=   59 NActive=   59 NUniq=   59 SFac= 1.00D+00 NAtFMM=   60 NAOKFM=F Big=F
 Integral buffers will be    131072 words long.
 Raffenetti 2 integral format.
 Two-electron integral symmetry is turned on.
 Leave Link  301 at Sat Jul 25 10:14:33 2020, MaxMem=  4026531840 cpu:               0.5 elap:               0.1
 (Enter /opt/ohpc/pub/libs/gaussian/g16-A.03/sandybridge/g16/l302.exe)
 NPDir=0 NMtPBC=     1 NCelOv=     1 NCel=       1 NClECP=     1 NCelD=      1
         NCelK=      1 NCelE2=     1 NClLst=     1 CellRange=     0.0.
 One-electron integrals computed using PRISM.
 One-electron integral symmetry used in STVInt
 NBasis=   673 RedAO= T EigKep=  2.89D-04  NBF=   673
 NBsUse=   673 1.00D-06 EigRej= -1.00D+00 NBFU=   673
 Precomputing XC quadrature grid using
 IXCGrd= 4 IRadAn=           5 IRanWt=          -1 IRanGd=           0 AccXCQ= 0.00D+00.
 Generated NRdTot=       0 NPtTot=           0 NUsed=           0 NTot=          32
 NSgBfM=   589   588   588   588   589 MxSgAt=    59 MxSgA2=    59.
 Leave Link  302 at Sat Jul 25 10:14:35 2020, MaxMem=  4026531840 cpu:              12.2 elap:               1.7
 (Enter /opt/ohpc/pub/libs/gaussian/g16-A.03/sandybridge/g16/l303.exe)
 DipDrv:  MaxL=1.
 Leave Link  303 at Sat Jul 25 10:14:35 2020, MaxMem=  4026531840 cpu:               1.0 elap:               0.2
 (Enter /opt/ohpc/pub/libs/gaussian/g16-A.03/sandybridge/g16/l401.exe)
 ExpMin= 1.22D-01 ExpMax= 1.47D+04 ExpMxC= 5.03D+02 IAcc=3 IRadAn=         5 AccDes= 0.00D+00
 Harris functional with IExCor=32609 and IRadAn=       5 diagonalized for initial guess.
 HarFok:  IExCor=32609 AccDes= 0.00D+00 IRadAn=         5 IDoV= 1 UseB2=F ITyADJ=14
 ICtDFT=  3500011 ScaDFX=  1.000000  1.000000  1.000000  1.000000
 FoFCou: FMM=F IPFlag=           0 FMFlag=      100000 FMFlg1=           0
         NFxFlg=           0 DoJE=T BraDBF=F KetDBF=T FulRan=T
         wScrn=  0.000000 ICntrl=       500 IOpCl=  0 I1Cent=   200000004 NGrid=           0
         NMat0=    1 NMatS0=      1 NMatT0=    0 NMatD0=    1 NMtDS0=    0 NMtDT0=    0
 Petite list used in FoFCou.
 Harris En= -2029.33366487892    
 JPrj=0 DoOrth=F DoCkMO=F.
 Initial guess <Sx>= 0.0000 <Sy>= 0.0000 <Sz>= 0.0000 <S**2>=-0.0000 S=-0.0000
 Leave Link  401 at Sat Jul 25 10:14:42 2020, MaxMem=  4026531840 cpu:              52.0 elap:               6.6
 (Enter /opt/ohpc/pub/libs/gaussian/g16-A.03/sandybridge/g16/l502.exe)
 Integral symmetry usage will be decided dynamically.
 UHF open shell SCF:
 Using DIIS extrapolation, IDIIS=  1040.
 NGot=  4026531840 LenX=  4025496521 LenY=  4024984581
 Requested convergence on RMS density matrix=1.00D-08 within 128 cycles.
 Requested convergence on MAX density matrix=1.00D-06.
 Requested convergence on             energy=1.00D-06.
 No special actions if energy rises.
 Fock matrices will be formed incrementally for  20 cycles.
 Integral accuracy reduced to 1.0D-05 until final iterations.

 Cycle   1  Pass 0  IDiag  1:
 FoFJK:  IHMeth= 1 ICntrl=       0 DoSepK=T KAlg= 0 I1Cent=           0 FoldK=F
 IRaf=         1 NMat=       1 IRICut=       1 DoRegI=T DoRafI=F ISym2E= 0 IDoP0=0 IntGTp=1.
 FoFCou: FMM=F IPFlag=           0 FMFlag=      100000 FMFlg1=           0
         NFxFlg=           0 DoJE=T BraDBF=F KetDBF=F FulRan=T
         wScrn=  0.000000 ICntrl=       500 IOpCl=  0 I1Cent=           0 NGrid=           0
         NMat0=    1 NMatS0=      1 NMatT0=    0 NMatD0=    1 NMtDS0=    0 NMtDT0=    0
 Symmetry not used in FoFCou.
 E= -2029.17070774526    
 DIIS: error= 1.56D-02 at cycle   1 NSaved=   1.
 NSaved= 1 IEnMin= 1 EnMin= -2029.17070774526     IErMin= 1 ErrMin= 1.56D-02
 ErrMax= 1.56D-02  0.00D+00 EMaxC= 1.00D-01 BMatC= 2.00D+00 BMatP= 2.00D+00
 IDIUse=3 WtCom= 8.44D-01 WtEn= 1.56D-01
 Coeff-Com:  0.100D+01
 Coeff-En:   0.100D+01
 Coeff:      0.100D+01
 Gap=     0.376 Goal=   None    Shift=    0.000
 Gap=     0.376 Goal=   None    Shift=    0.000
 GapD=    0.376 DampG=1.000 DampE=0.500 DampFc=0.5000 IDamp=-1.
 Damping current iteration by 5.00D-01
 RMSDP=2.09D-03 MaxDP=7.51D-02              OVMax= 1.32D-01

 Cycle   2  Pass 0  IDiag  1:
 RMSU=  1.02D-03    CP:  9.84D-01
 E= -2029.46235945773     Delta-E=       -0.291651712470 Rises=F Damp=T
 DIIS: error= 5.93D-03 at cycle   2 NSaved=   2.
 NSaved= 2 IEnMin= 2 EnMin= -2029.46235945773     IErMin= 2 ErrMin= 5.93D-03
 ErrMax= 5.93D-03  0.00D+00 EMaxC= 1.00D-01 BMatC= 2.15D-01 BMatP= 2.00D+00
 IDIUse=3 WtCom= 9.41D-01 WtEn= 5.93D-02
 Coeff-Com: -0.285D+00 0.129D+01
 Coeff-En:   0.000D+00 0.100D+01
 Coeff:     -0.268D+00 0.127D+01
 Gap=     0.362 Goal=   None    Shift=    0.000
 Gap=     0.362 Goal=   None    Shift=    0.000
 RMSDP=9.56D-04 MaxDP=2.37D-02 DE=-2.92D-01 OVMax= 6.19D-02

 Cycle   3  Pass 0  IDiag  1:
 RMSU=  6.23D-04    CP:  9.72D-01  1.69D+00
 E= -2029.71542973538     Delta-E=       -0.253070277652 Rises=F Damp=F
 DIIS: error= 1.94D-03 at cycle   3 NSaved=   3.
 NSaved= 3 IEnMin= 3 EnMin= -2029.71542973538     IErMin= 3 ErrMin= 1.94D-03
 ErrMax= 1.94D-03  0.00D+00 EMaxC= 1.00D-01 BMatC= 3.72D-02 BMatP= 2.15D-01
 IDIUse=3 WtCom= 9.81D-01 WtEn= 1.94D-02
 Coeff-Com: -0.140D+00 0.430D+00 0.710D+00
 Coeff-En:   0.000D+00 0.000D+00 0.100D+01
 Coeff:     -0.138D+00 0.422D+00 0.716D+00
 Gap=     0.352 Goal=   None    Shift=    0.000
 Gap=     0.352 Goal=   None    Shift=    0.000
 RMSDP=1.86D-04 MaxDP=1.05D-02 DE=-2.53D-01 OVMax= 2.23D-02

 Cycle   4  Pass 0  IDiag  1:
 RMSU=  1.62D-04    CP:  9.71D-01  1.74D+00  8.78D-01
 E= -2029.72422726780     Delta-E=       -0.008797532418 Rises=F Damp=F
 DIIS: error= 6.92D-04 at cycle   4 NSaved=   4.
 NSaved= 4 IEnMin= 4 EnMin= -2029.72422726780     IErMin= 4 ErrMin= 6.92D-04
 ErrMax= 6.92D-04  0.00D+00 EMaxC= 1.00D-01 BMatC= 4.49D-03 BMatP= 3.72D-02
 IDIUse=3 WtCom= 9.93D-01 WtEn= 6.92D-03
 Coeff-Com: -0.205D-01 0.364D-01 0.265D+00 0.719D+00
 Coeff-En:   0.000D+00 0.000D+00 0.000D+00 0.100D+01
 Coeff:     -0.204D-01 0.361D-01 0.263D+00 0.721D+00
 Gap=     0.352 Goal=   None    Shift=    0.000
 Gap=     0.352 Goal=   None    Shift=    0.000
 RMSDP=6.70D-05 MaxDP=3.76D-03 DE=-8.80D-03 OVMax= 6.36D-03

 Cycle   5  Pass 0  IDiag  1:
 RMSU=  4.39D-05    CP:  9.71D-01  1.75D+00  9.44D-01  8.44D-01
 E= -2029.72542541077     Delta-E=       -0.001198142977 Rises=F Damp=F
 DIIS: error= 2.45D-04 at cycle   5 NSaved=   5.
 NSaved= 5 IEnMin= 5 EnMin= -2029.72542541077     IErMin= 5 ErrMin= 2.45D-04
 ErrMax= 2.45D-04  0.00D+00 EMaxC= 1.00D-01 BMatC= 4.22D-04 BMatP= 4.49D-03
 IDIUse=3 WtCom= 9.98D-01 WtEn= 2.45D-03
 Coeff-Com:  0.664D-02-0.287D-01 0.332D-01 0.258D+00 0.731D+00
 Coeff-En:   0.000D+00 0.000D+00 0.000D+00 0.000D+00 0.100D+01
 Coeff:      0.662D-02-0.287D-01 0.331D-01 0.257D+00 0.732D+00
 Gap=     0.353 Goal=   None    Shift=    0.000
 Gap=     0.353 Goal=   None    Shift=    0.000
 RMSDP=2.42D-05 MaxDP=8.49D-04 DE=-1.20D-03 OVMax= 2.08D-03

 Cycle   6  Pass 0  IDiag  1:
 RMSU=  1.76D-05    CP:  9.71D-01  1.76D+00  9.59D-01  9.19D-01  9.29D-01
 E= -2029.72555517193     Delta-E=       -0.000129761159 Rises=F Damp=F
 DIIS: error= 1.28D-04 at cycle   6 NSaved=   6.
 NSaved= 6 IEnMin= 6 EnMin= -2029.72555517193     IErMin= 6 ErrMin= 1.28D-04
 ErrMax= 1.28D-04  0.00D+00 EMaxC= 1.00D-01 BMatC= 4.20D-05 BMatP= 4.22D-04
 IDIUse=3 WtCom= 9.99D-01 WtEn= 1.28D-03
 Coeff-Com:  0.523D-02-0.144D-01-0.197D-01-0.115D-01 0.190D+00 0.851D+00
 Coeff-En:   0.000D+00 0.000D+00 0.000D+00 0.000D+00 0.000D+00 0.100D+01
 Coeff:      0.522D-02-0.143D-01-0.196D-01-0.114D-01 0.189D+00 0.851D+00
 Gap=     0.353 Goal=   None    Shift=    0.000
 Gap=     0.353 Goal=   None    Shift=    0.000
 RMSDP=9.34D-06 MaxDP=3.59D-04 DE=-1.30D-04 OVMax= 1.39D-03

 Initial convergence to 1.0D-05 achieved.  Increase integral accuracy.
 Cycle   7  Pass 1  IDiag  1:
 E= -2029.72504027621     Delta-E=        0.000514895726 Rises=F Damp=F
 DIIS: error= 1.78D-04 at cycle   1 NSaved=   1.
 NSaved= 1 IEnMin= 1 EnMin= -2029.72504027621     IErMin= 1 ErrMin= 1.78D-04
 ErrMax= 1.78D-04  0.00D+00 EMaxC= 1.00D-01 BMatC= 5.61D-05 BMatP= 5.61D-05
 IDIUse=3 WtCom= 9.98D-01 WtEn= 1.78D-03
 Coeff-Com:  0.100D+01
 Coeff-En:   0.100D+01
 Coeff:      0.100D+01
 Gap=     0.353 Goal=   None    Shift=    0.000
 Gap=     0.353 Goal=   None    Shift=    0.000
 RMSDP=9.34D-06 MaxDP=3.59D-04 DE= 5.15D-04 OVMax= 5.84D-04

 Cycle   8  Pass 1  IDiag  1:
 RMSU=  9.26D-05    CP:  1.00D+00
 E= -2029.72505290049     Delta-E=       -0.000012624278 Rises=F Damp=F
 DIIS: error= 2.89D-05 at cycle   2 NSaved=   2.
 NSaved= 2 IEnMin= 2 EnMin= -2029.72505290049     IErMin= 2 ErrMin= 2.89D-05
 ErrMax= 2.89D-05  0.00D+00 EMaxC= 1.00D-01 BMatC= 5.53D-06 BMatP= 5.61D-05
 IDIUse=1 WtCom= 1.00D+00 WtEn= 0.00D+00
 Coeff-Com:  0.103D+00 0.897D+00
 Coeff:      0.103D+00 0.897D+00
 Gap=     0.353 Goal=   None    Shift=    0.000
 Gap=     0.353 Goal=   None    Shift=    0.000
 RMSDP=5.32D-06 MaxDP=2.03D-04 DE=-1.26D-05 OVMax= 4.35D-04

 Cycle   9  Pass 1  IDiag  1:
 RMSU=  3.40D-06    CP:  1.00D+00  1.04D+00
 E= -2029.72505410649     Delta-E=       -0.000001206009 Rises=F Damp=F
 DIIS: error= 3.65D-05 at cycle   3 NSaved=   3.
 NSaved= 3 IEnMin= 3 EnMin= -2029.72505410649     IErMin= 2 ErrMin= 2.89D-05
 ErrMax= 3.65D-05  0.00D+00 EMaxC= 1.00D-01 BMatC= 3.59D-06 BMatP= 5.53D-06
 IDIUse=1 WtCom= 1.00D+00 WtEn= 0.00D+00
 Coeff-Com: -0.317D-01 0.441D+00 0.591D+00
 Coeff:     -0.317D-01 0.441D+00 0.591D+00
 Gap=     0.353 Goal=   None    Shift=    0.000
 Gap=     0.353 Goal=   None    Shift=    0.000
 RMSDP=1.74D-06 MaxDP=1.08D-04 DE=-1.21D-06 OVMax= 1.89D-04

 Cycle  10  Pass 1  IDiag  1:
 RMSU=  1.36D-06    CP:  1.00D+00  1.05D+00  7.75D-01
 E= -2029.72505514465     Delta-E=       -0.000001038153 Rises=F Damp=F
 DIIS: error= 6.04D-06 at cycle   4 NSaved=   4.
 NSaved= 4 IEnMin= 4 EnMin= -2029.72505514465     IErMin= 4 ErrMin= 6.04D-06
 ErrMax= 6.04D-06  0.00D+00 EMaxC= 1.00D-01 BMatC= 1.74D-07 BMatP= 3.59D-06
 IDIUse=1 WtCom= 1.00D+00 WtEn= 0.00D+00
 Coeff-Com:  0.103D-02-0.213D+00-0.152D+00 0.136D+01
 Coeff:      0.103D-02-0.213D+00-0.152D+00 0.136D+01
 Gap=     0.353 Goal=   None    Shift=    0.000
 Gap=     0.353 Goal=   None    Shift=    0.000
 RMSDP=1.12D-06 MaxDP=4.12D-05 DE=-1.04D-06 OVMax= 1.81D-04

 Cycle  11  Pass 1  IDiag  1:
 RMSU=  6.00D-07    CP:  1.00D+00  1.05D+00  9.31D-01  1.57D+00
 E= -2029.72505541608     Delta-E=       -0.000000271429 Rises=F Damp=F
 DIIS: error= 5.19D-06 at cycle   5 NSaved=   5.
 NSaved= 5 IEnMin= 5 EnMin= -2029.72505541608     IErMin= 5 ErrMin= 5.19D-06
 ErrMax= 5.19D-06  0.00D+00 EMaxC= 1.00D-01 BMatC= 8.59D-08 BMatP= 1.74D-07
 IDIUse=1 WtCom= 1.00D+00 WtEn= 0.00D+00
 Coeff-Com:  0.102D-01-0.251D+00-0.256D+00 0.752D+00 0.745D+00
 Coeff:      0.102D-01-0.251D+00-0.256D+00 0.752D+00 0.745D+00
 Gap=     0.353 Goal=   None    Shift=    0.000
 Gap=     0.353 Goal=   None    Shift=    0.000
 RMSDP=5.22D-07 MaxDP=2.79D-05 DE=-2.71D-07 OVMax= 1.10D-04

 Cycle  12  Pass 1  IDiag  1:
 RMSU=  2.75D-07    CP:  1.00D+00  1.05D+00  9.85D-01  1.86D+00  1.16D+00
 E= -2029.72505547185     Delta-E=       -0.000000055772 Rises=F Damp=F
 DIIS: error= 7.41D-07 at cycle   6 NSaved=   6.
 NSaved= 6 IEnMin= 6 EnMin= -2029.72505547185     IErMin= 6 ErrMin= 7.41D-07
 ErrMax= 7.41D-07  0.00D+00 EMaxC= 1.00D-01 BMatC= 3.32D-09 BMatP= 8.59D-08
 IDIUse=1 WtCom= 1.00D+00 WtEn= 0.00D+00
 Coeff-Com:  0.979D-03-0.106D-01-0.127D-01-0.392D-01 0.468D-01 0.101D+01
 Coeff:      0.979D-03-0.106D-01-0.127D-01-0.392D-01 0.468D-01 0.101D+01
 Gap=     0.353 Goal=   None    Shift=    0.000
 Gap=     0.353 Goal=   None    Shift=    0.000
 RMSDP=1.42D-07 MaxDP=5.99D-06 DE=-5.58D-08 OVMax= 2.40D-05

 Cycle  13  Pass 1  IDiag  1:
 RMSU=  7.78D-08    CP:  1.00D+00  1.05D+00  9.95D-01  1.89D+00  1.29D+00
                    CP:  1.21D+00
 E= -2029.72505547611     Delta-E=       -0.000000004264 Rises=F Damp=F
 DIIS: error= 5.31D-07 at cycle   7 NSaved=   7.
 NSaved= 7 IEnMin= 7 EnMin= -2029.72505547611     IErMin= 7 ErrMin= 5.31D-07
 ErrMax= 5.31D-07  0.00D+00 EMaxC= 1.00D-01 BMatC= 1.28D-09 BMatP= 3.32D-09
 IDIUse=1 WtCom= 1.00D+00 WtEn= 0.00D+00
 Coeff-Com: -0.238D-02 0.636D-01 0.664D-01-0.206D+00-0.183D+00 0.377D+00
 Coeff-Com:  0.884D+00
 Coeff:     -0.238D-02 0.636D-01 0.664D-01-0.206D+00-0.183D+00 0.377D+00
 Coeff:      0.884D+00
 Gap=     0.353 Goal=   None    Shift=    0.000
 Gap=     0.353 Goal=   None    Shift=    0.000
 RMSDP=6.80D-08 MaxDP=2.86D-06 DE=-4.26D-09 OVMax= 1.43D-05

 Cycle  14  Pass 1  IDiag  1:
 RMSU=  4.21D-08    CP:  1.00D+00  1.05D+00  9.95D-01  1.90D+00  1.32D+00
                    CP:  1.35D+00  1.36D+00
 E= -2029.72505546793     Delta-E=        0.000000008185 Rises=F Damp=F
 DIIS: error= 1.60D-07 at cycle   8 NSaved=   8.
 NSaved= 8 IEnMin= 7 EnMin= -2029.72505547611     IErMin= 8 ErrMin= 1.60D-07
 ErrMax= 1.60D-07  0.00D+00 EMaxC= 1.00D-01 BMatC= 1.50D-10 BMatP= 1.28D-09
 IDIUse=1 WtCom= 1.00D+00 WtEn= 0.00D+00
 Coeff-Com: -0.687D-03 0.155D-01 0.166D-01-0.384D-01-0.444D-01-0.864D-01
 Coeff-Com:  0.153D+00 0.985D+00
 Coeff:     -0.687D-03 0.155D-01 0.166D-01-0.384D-01-0.444D-01-0.864D-01
 Coeff:      0.153D+00 0.985D+00
 Gap=     0.353 Goal=   None    Shift=    0.000
 Gap=     0.353 Goal=   None    Shift=    0.000
 RMSDP=2.98D-08 MaxDP=1.19D-06 DE= 8.19D-09 OVMax= 5.26D-06

 Cycle  15  Pass 1  IDiag  1:
 RMSU=  1.22D-08    CP:  1.00D+00  1.05D+00  9.96D-01  1.90D+00  1.32D+00
                    CP:  1.39D+00  1.64D+00  1.26D+00
 E= -2029.72505546807     Delta-E=       -0.000000000143 Rises=F Damp=F
 DIIS: error= 9.69D-08 at cycle   9 NSaved=   9.
 NSaved= 9 IEnMin= 7 EnMin= -2029.72505547611     IErMin= 9 ErrMin= 9.69D-08
 ErrMax= 9.69D-08  0.00D+00 EMaxC= 1.00D-01 BMatC= 3.32D-11 BMatP= 1.50D-10
 IDIUse=1 WtCom= 1.00D+00 WtEn= 0.00D+00
 Coeff-Com:  0.206D-03-0.636D-02-0.683D-02 0.214D-01 0.201D-01-0.923D-01
 Coeff-Com: -0.114D+00 0.323D+00 0.854D+00
 Coeff:      0.206D-03-0.636D-02-0.683D-02 0.214D-01 0.201D-01-0.923D-01
 Coeff:     -0.114D+00 0.323D+00 0.854D+00
 Gap=     0.353 Goal=   None    Shift=    0.000
 Gap=     0.353 Goal=   None    Shift=    0.000
 RMSDP=1.26D-08 MaxDP=5.68D-07 DE=-1.43D-10 OVMax= 2.79D-06

 Cycle  16  Pass 1  IDiag  1:
 RMSU=  6.01D-09    CP:  1.00D+00  1.05D+00  9.97D-01  1.90D+00  1.33D+00
                    CP:  1.39D+00  1.71D+00  1.41D+00  1.10D+00
 E= -2029.72505546785     Delta-E=        0.000000000221 Rises=F Damp=F
 DIIS: error= 2.99D-08 at cycle  10 NSaved=  10.
 NSaved=10 IEnMin= 7 EnMin= -2029.72505547611     IErMin=10 ErrMin= 2.99D-08
 ErrMax= 2.99D-08  0.00D+00 EMaxC= 1.00D-01 BMatC= 5.28D-12 BMatP= 3.32D-11
 IDIUse=1 WtCom= 1.00D+00 WtEn= 0.00D+00
 Coeff-Com:  0.762D-04-0.150D-02-0.182D-02 0.314D-02 0.714D-02 0.214D-01
 Coeff-Com: -0.165D-01-0.205D+00 0.642D-02 0.119D+01
 Coeff:      0.762D-04-0.150D-02-0.182D-02 0.314D-02 0.714D-02 0.214D-01
 Coeff:     -0.165D-01-0.205D+00 0.642D-02 0.119D+01
 Gap=     0.353 Goal=   None    Shift=    0.000
 Gap=     0.353 Goal=   None    Shift=    0.000
 RMSDP=5.09D-09 MaxDP=1.87D-07 DE= 2.21D-10 OVMax= 9.04D-07

 SCF Done:  E(ULC-wPBE) =  -2029.72505547     A.U. after   16 cycles
            NFock= 16  Conv=0.51D-08     -V/T= 2.0062
 <Sx>= 0.0000 <Sy>= 0.0000 <Sz>= 0.0000 <S**2>=-0.0000 S=-0.0000
 <L.S>= 0.000000000000E+00
 KE= 2.017302297603D+03 PE=-1.283749174737D+04 EE= 4.746267783369D+03
 Annihilation of the first spin contaminant:
 S**2 before annihilation    -0.0000,   after    -0.0000
 Leave Link  502 at Sat Jul 25 10:23:30 2020, MaxMem=  4026531840 cpu:            4205.8 elap:             527.9
 (Enter /opt/ohpc/pub/libs/gaussian/g16-A.03/sandybridge/g16/l601.exe)
 Copying SCF densities to generalized density rwf, IOpCl= 1 IROHF=0.

 **********************************************************************

            Population analysis using the SCF density.

 **********************************************************************

 Orbital symmetries:
 Alpha Orbitals:
       Occupied  (A) (A) (A) (A) (A) (A) (A) (A) (A) (A) (A) (A)
                 (A) (A) (A) (A) (A) (A) (A) (A) (A) (A) (A) (A)
                 (A) (A) (A) (A) (A) (A) (A) (A) (A) (A) (A) (A)
                 (A) (A) (A) (A) (A) (A) (A) (A) (A) (A) (A) (A)
                 (A) (A) (A) (A) (A) (A) (A) (A) (A) (A) (A) (A)
                 (A) (A) (A) (A) (A) (A) (A) (A) (A) (A) (A) (A)
                 (A) (A) (A) (A) (A) (A) (A) (A) (A) (A) (A) (A)
                 (A) (A) (A) (A) (A) (A) (A) (A) (A) (A) (A) (A)
                 (A) (A) (A) (A) (A) (A) (A) (A) (A) (A) (A) (A)
                 (A) (A) (A) (A) (A) (A) (A) (A) (A) (A) (A) (A)
                 (A) (A) (A) (A) (A) (A) (A) (A) (A) (A) (A) (A)
                 (A) (A) (A) (A) (A) (A) (A) (A) (A) (A) (A) (A)
                 (A)
       Virtual   (A) (A) (A) (A) (A) (A) (A) (A) (A) (A) (A) (A)
                 (A) (A) (A) (A) (A) (A) (A) (A) (A) (A) (A) (A)
                 (A) (A) (A) (A) (A) (A) (A) (A) (A) (A) (A) (A)
                 (A) (A) (A) (A) (A) (A) (A) (A) (A) (A) (A) (A)
                 (A) (A) (A) (A) (A) (A) (A) (A) (A) (A) (A) (A)
                 (A) (A) (A) (A) (A) (A) (A) (A) (A) (A) (A) (A)
                 (A) (A) (A) (A) (A) (A) (A) (A) (A) (A) (A) (A)
                 (A) (A) (A) (A) (A) (A) (A) (A) (A) (A) (A) (A)
                 (A) (A) (A) (A) (A) (A) (A) (A) (A) (A) (A) (A)
                 (A) (A) (A) (A) (A) (A) (A) (A) (A) (A) (A) (A)
                 (A) (A) (A) (A) (A) (A) (A) (A) (A) (A) (A) (A)
                 (A) (A) (A) (A) (A) (A) (A) (A) (A) (A) (A) (A)
                 (A) (A) (A) (A) (A) (A) (A) (A) (A) (A) (A) (A)
                 (A) (A) (A) (A) (A) (A) (A) (A) (A) (A) (A) (A)
                 (A) (A) (A) (A) (A) (A) (A) (A) (A) (A) (A) (A)
                 (A) (A) (A) (A) (A) (A) (A) (A) (A) (A) (A) (A)
                 (A) (A) (A) (A) (A) (A) (A) (A) (A) (A) (A) (A)
                 (A) (A) (A) (A) (A) (A) (A) (A) (A) (A) (A) (A)
                 (A) (A) (A) (A) (A) (A) (A) (A) (A) (A) (A) (A)
                 (A) (A) (A) (A) (A) (A) (A) (A) (A) (A) (A) (A)
                 (A) (A) (A) (A) (A) (A) (A) (A) (A) (A) (A) (A)
                 (A) (A) (A) (A) (A) (A) (A) (A) (A) (A) (A) (A)
                 (A) (A) (A) (A) (A) (A) (A) (A) (A) (A) (A) (A)
                 (A) (A) (A) (A) (A) (A) (A) (A) (A) (A) (A) (A)
                 (A) (A) (A) (A) (A) (A) (A) (A) (A) (A) (A) (A)
                 (A) (A) (A) (A) (A) (A) (A) (A) (A) (A) (A) (A)
                 (A) (A) (A) (A) (A) (A) (A) (A) (A) (A) (A) (A)
                 (A) (A) (A) (A) (A) (A) (A) (A) (A) (A) (A) (A)
                 (A) (A) (A) (A) (A) (A) (A) (A) (A) (A) (A) (A)
                 (A) (A) (A) (A) (A) (A) (A) (A) (A) (A) (A) (A)
                 (A) (A) (A) (A) (A) (A) (A) (A) (A) (A) (A) (A)
                 (A) (A) (A) (A) (A) (A) (A) (A) (A) (A) (A) (A)
                 (A) (A) (A) (A) (A) (A) (A) (A) (A) (A) (A) (A)
                 (A) (A) (A) (A) (A) (A) (A) (A) (A) (A) (A) (A)
                 (A) (A) (A) (A) (A) (A) (A) (A) (A) (A) (A) (A)
                 (A) (A) (A) (A) (A) (A) (A) (A) (A) (A) (A) (A)
                 (A) (A) (A) (A) (A) (A) (A) (A) (A) (A) (A) (A)
                 (A) (A) (A) (A) (A) (A) (A) (A) (A) (A) (A) (A)
                 (A) (A) (A) (A) (A) (A) (A) (A) (A) (A) (A) (A)
                 (A) (A) (A) (A) (A) (A) (A) (A) (A) (A) (A) (A)
                 (A) (A) (A) (A) (A) (A) (A) (A) (A) (A) (A) (A)
                 (A) (A) (A) (A) (A) (A) (A) (A) (A) (A) (A) (A)
                 (A) (A) (A) (A) (A) (A) (A) (A) (A) (A) (A) (A)
                 (A) (A) (A) (A) (A) (A) (A) (A) (A) (A) (A) (A)
 Beta  Orbitals:
       Occupied  (A) (A) (A) (A) (A) (A) (A) (A) (A) (A) (A) (A)
                 (A) (A) (A) (A) (A) (A) (A) (A) (A) (A) (A) (A)
                 (A) (A) (A) (A) (A) (A) (A) (A) (A) (A) (A) (A)
                 (A) (A) (A) (A) (A) (A) (A) (A) (A) (A) (A) (A)
                 (A) (A) (A) (A) (A) (A) (A) (A) (A) (A) (A) (A)
                 (A) (A) (A) (A) (A) (A) (A) (A) (A) (A) (A) (A)
                 (A) (A) (A) (A) (A) (A) (A) (A) (A) (A) (A) (A)
                 (A) (A) (A) (A) (A) (A) (A) (A) (A) (A) (A) (A)
                 (A) (A) (A) (A) (A) (A) (A) (A) (A) (A) (A) (A)
                 (A) (A) (A) (A) (A) (A) (A) (A) (A) (A) (A) (A)
                 (A) (A) (A) (A) (A) (A) (A) (A) (A) (A) (A) (A)
                 (A) (A) (A) (A) (A) (A) (A) (A) (A) (A) (A) (A)
                 (A)
       Virtual   (A) (A) (A) (A) (A) (A) (A) (A) (A) (A) (A) (A)
                 (A) (A) (A) (A) (A) (A) (A) (A) (A) (A) (A) (A)
                 (A) (A) (A) (A) (A) (A) (A) (A) (A) (A) (A) (A)
                 (A) (A) (A) (A) (A) (A) (A) (A) (A) (A) (A) (A)
                 (A) (A) (A) (A) (A) (A) (A) (A) (A) (A) (A) (A)
                 (A) (A) (A) (A) (A) (A) (A) (A) (A) (A) (A) (A)
                 (A) (A) (A) (A) (A) (A) (A) (A) (A) (A) (A) (A)
                 (A) (A) (A) (A) (A) (A) (A) (A) (A) (A) (A) (A)
                 (A) (A) (A) (A) (A) (A) (A) (A) (A) (A) (A) (A)
                 (A) (A) (A) (A) (A) (A) (A) (A) (A) (A) (A) (A)
                 (A) (A) (A) (A) (A) (A) (A) (A) (A) (A) (A) (A)
                 (A) (A) (A) (A) (A) (A) (A) (A) (A) (A) (A) (A)
                 (A) (A) (A) (A) (A) (A) (A) (A) (A) (A) (A) (A)
                 (A) (A) (A) (A) (A) (A) (A) (A) (A) (A) (A) (A)
                 (A) (A) (A) (A) (A) (A) (A) (A) (A) (A) (A) (A)
                 (A) (A) (A) (A) (A) (A) (A) (A) (A) (A) (A) (A)
                 (A) (A) (A) (A) (A) (A) (A) (A) (A) (A) (A) (A)
                 (A) (A) (A) (A) (A) (A) (A) (A) (A) (A) (A) (A)
                 (A) (A) (A) (A) (A) (A) (A) (A) (A) (A) (A) (A)
                 (A) (A) (A) (A) (A) (A) (A) (A) (A) (A) (A) (A)
                 (A) (A) (A) (A) (A) (A) (A) (A) (A) (A) (A) (A)
                 (A) (A) (A) (A) (A) (A) (A) (A) (A) (A) (A) (A)
                 (A) (A) (A) (A) (A) (A) (A) (A) (A) (A) (A) (A)
                 (A) (A) (A) (A) (A) (A) (A) (A) (A) (A) (A) (A)
                 (A) (A) (A) (A) (A) (A) (A) (A) (A) (A) (A) (A)
                 (A) (A) (A) (A) (A) (A) (A) (A) (A) (A) (A) (A)
                 (A) (A) (A) (A) (A) (A) (A) (A) (A) (A) (A) (A)
                 (A) (A) (A) (A) (A) (A) (A) (A) (A) (A) (A) (A)
                 (A) (A) (A) (A) (A) (A) (A) (A) (A) (A) (A) (A)
                 (A) (A) (A) (A) (A) (A) (A) (A) (A) (A) (A) (A)
                 (A) (A) (A) (A) (A) (A) (A) (A) (A) (A) (A) (A)
                 (A) (A) (A) (A) (A) (A) (A) (A) (A) (A) (A) (A)
                 (A) (A) (A) (A) (A) (A) (A) (A) (A) (A) (A) (A)
                 (A) (A) (A) (A) (A) (A) (A) (A) (A) (A) (A) (A)
                 (A) (A) (A) (A) (A) (A) (A) (A) (A) (A) (A) (A)
                 (A) (A) (A) (A) (A) (A) (A) (A) (A) (A) (A) (A)
                 (A) (A) (A) (A) (A) (A) (A) (A) (A) (A) (A) (A)
                 (A) (A) (A) (A) (A) (A) (A) (A) (A) (A) (A) (A)
                 (A) (A) (A) (A) (A) (A) (A) (A) (A) (A) (A) (A)
                 (A) (A) (A) (A) (A) (A) (A) (A) (A) (A) (A) (A)
                 (A) (A) (A) (A) (A) (A) (A) (A) (A) (A) (A) (A)
                 (A) (A) (A) (A) (A) (A) (A) (A) (A) (A) (A) (A)
                 (A) (A) (A) (A) (A) (A) (A) (A) (A) (A) (A) (A)
                 (A) (A) (A) (A) (A) (A) (A) (A) (A) (A) (A) (A)
 The electronic state is 1-A.
 Alpha  occ. eigenvalues --  -24.55869 -24.55786 -24.55121 -24.55101 -24.54611
 Alpha  occ. eigenvalues --  -24.54576 -14.28970 -14.28582 -14.27623 -10.28182
 Alpha  occ. eigenvalues --  -10.27564 -10.27010 -10.26968 -10.26713 -10.26584
 Alpha  occ. eigenvalues --  -10.24090 -10.23409 -10.23366 -10.22964 -10.22315
 Alpha  occ. eigenvalues --  -10.21588 -10.21335 -10.21275 -10.21267 -10.21251
 Alpha  occ. eigenvalues --  -10.21246 -10.20921 -10.20705 -10.20419 -10.20352
 Alpha  occ. eigenvalues --  -10.20256 -10.20016 -10.20010 -10.19638 -10.19545
 Alpha  occ. eigenvalues --  -10.19383 -10.19186 -10.19047 -10.18858 -10.18607
 Alpha  occ. eigenvalues --  -10.18122 -10.17990  -1.40854  -1.39939  -1.39120
 Alpha  occ. eigenvalues --   -1.38948  -1.38811  -1.37396  -1.16945  -1.15911
 Alpha  occ. eigenvalues --   -1.15669  -1.08771  -1.08163  -1.06069  -1.03400
 Alpha  occ. eigenvalues --   -1.02500  -1.02019  -0.99244  -0.98717  -0.97966
 Alpha  occ. eigenvalues --   -0.95782  -0.94907  -0.94576  -0.93793  -0.92947
 Alpha  occ. eigenvalues --   -0.90969  -0.86083  -0.84330  -0.83865  -0.82020
 Alpha  occ. eigenvalues --   -0.81713  -0.81190  -0.80110  -0.79576  -0.78940
 Alpha  occ. eigenvalues --   -0.77947  -0.77309  -0.76581  -0.72522  -0.71920
 Alpha  occ. eigenvalues --   -0.71467  -0.70899  -0.69251  -0.68970  -0.68825
 Alpha  occ. eigenvalues --   -0.68460  -0.67891  -0.67414  -0.66656  -0.66255
 Alpha  occ. eigenvalues --   -0.65590  -0.65393  -0.65276  -0.63953  -0.63276
 Alpha  occ. eigenvalues --   -0.63101  -0.62861  -0.62533  -0.62099  -0.62066
 Alpha  occ. eigenvalues --   -0.61985  -0.61771  -0.60664  -0.60158  -0.60022
 Alpha  occ. eigenvalues --   -0.58603  -0.58428  -0.58025  -0.57500  -0.56814
 Alpha  occ. eigenvalues --   -0.56272  -0.56022  -0.55844  -0.55683  -0.55648
 Alpha  occ. eigenvalues --   -0.55273  -0.54819  -0.54589  -0.54052  -0.53370
 Alpha  occ. eigenvalues --   -0.53056  -0.52327  -0.51934  -0.51788  -0.51538
 Alpha  occ. eigenvalues --   -0.50568  -0.50171  -0.49628  -0.48338  -0.48314
 Alpha  occ. eigenvalues --   -0.43595  -0.43161  -0.42888  -0.41451  -0.41106
 Alpha  occ. eigenvalues --   -0.40063  -0.39965  -0.39511  -0.38691  -0.38298
 Alpha  occ. eigenvalues --   -0.37737  -0.37719  -0.36184  -0.35710  -0.33880
 Alpha virt. eigenvalues --    0.01444   0.02565   0.03503   0.05205   0.05815
 Alpha virt. eigenvalues --    0.06246   0.06947   0.07265   0.07619   0.08081
 Alpha virt. eigenvalues --    0.08833   0.10371   0.15221   0.15945   0.15967
 Alpha virt. eigenvalues --    0.16726   0.17795   0.18027   0.18105   0.20049
 Alpha virt. eigenvalues --    0.20125   0.20372   0.20857   0.21916   0.22094
 Alpha virt. eigenvalues --    0.22588   0.22726   0.22995   0.23079   0.24083
 Alpha virt. eigenvalues --    0.24355   0.24891   0.25268   0.25544   0.25782
 Alpha virt. eigenvalues --    0.26107   0.26482   0.26746   0.27261   0.28350
 Alpha virt. eigenvalues --    0.28741   0.31673   0.33467   0.33896   0.34703
 Alpha virt. eigenvalues --    0.35278   0.35791   0.36329   0.36655   0.37180
 Alpha virt. eigenvalues --    0.37760   0.39363   0.39761   0.39939   0.40425
 Alpha virt. eigenvalues --    0.41333   0.41581   0.42791   0.42907   0.43106
 Alpha virt. eigenvalues --    0.43511   0.44066   0.44742   0.45180   0.46150
 Alpha virt. eigenvalues --    0.46531   0.47356   0.47577   0.48646   0.49243
 Alpha virt. eigenvalues --    0.50451   0.51272   0.51393   0.51784   0.52310
 Alpha virt. eigenvalues --    0.52769   0.53357   0.54497   0.54936   0.55244
 Alpha virt. eigenvalues --    0.56034   0.56205   0.56467   0.56845   0.57299
 Alpha virt. eigenvalues --    0.57668   0.58005   0.58545   0.58953   0.59151
 Alpha virt. eigenvalues --    0.59610   0.60010   0.60120   0.60255   0.60430
 Alpha virt. eigenvalues --    0.60467   0.60708   0.61131   0.61598   0.61822
 Alpha virt. eigenvalues --    0.62094   0.62281   0.62504   0.62977   0.63041
 Alpha virt. eigenvalues --    0.63275   0.63401   0.63608   0.63811   0.64067
 Alpha virt. eigenvalues --    0.64129   0.64593   0.64782   0.65206   0.65647
 Alpha virt. eigenvalues --    0.65825   0.66232   0.66323   0.67073   0.67228
 Alpha virt. eigenvalues --    0.67748   0.68197   0.68706   0.69347   0.69633
 Alpha virt. eigenvalues --    0.70067   0.70262   0.70748   0.70971   0.71782
 Alpha virt. eigenvalues --    0.72108   0.72783   0.73264   0.73541   0.73967
 Alpha virt. eigenvalues --    0.74119   0.74619   0.75181   0.75425   0.75774
 Alpha virt. eigenvalues --    0.76400   0.77205   0.77375   0.77909   0.78153
 Alpha virt. eigenvalues --    0.78381   0.78666   0.78916   0.79138   0.79800
 Alpha virt. eigenvalues --    0.79995   0.80683   0.81003   0.81171   0.81777
 Alpha virt. eigenvalues --    0.82277   0.82642   0.83113   0.83595   0.83911
 Alpha virt. eigenvalues --    0.84304   0.84654   0.85157   0.85452   0.85961
 Alpha virt. eigenvalues --    0.86264   0.86456   0.86744   0.87123   0.87790
 Alpha virt. eigenvalues --    0.88390   0.88727   0.89915   0.90806   0.91338
 Alpha virt. eigenvalues --    0.93302   0.94270   0.96121   0.96856   0.97101
 Alpha virt. eigenvalues --    0.97732   0.97824   0.98546   0.98806   0.99225
 Alpha virt. eigenvalues --    0.99422   0.99924   1.00455   1.00854   1.01637
 Alpha virt. eigenvalues --    1.02043   1.02964   1.03416   1.03992   1.04405
 Alpha virt. eigenvalues --    1.04619   1.05178   1.05506   1.05741   1.06506
 Alpha virt. eigenvalues --    1.06657   1.07708   1.08707   1.08855   1.09429
 Alpha virt. eigenvalues --    1.09900   1.10425   1.10956   1.11242   1.11640
 Alpha virt. eigenvalues --    1.11938   1.12567   1.12964   1.13033   1.13600
 Alpha virt. eigenvalues --    1.13768   1.14415   1.14830   1.15145   1.16171
 Alpha virt. eigenvalues --    1.16634   1.17201   1.17419   1.17699   1.17900
 Alpha virt. eigenvalues --    1.19239   1.19371   1.19697   1.20407   1.21004
 Alpha virt. eigenvalues --    1.21448   1.22107   1.22309   1.22970   1.23084
 Alpha virt. eigenvalues --    1.23466   1.24268   1.24680   1.24954   1.25264
 Alpha virt. eigenvalues --    1.25408   1.26303   1.26874   1.27508   1.28323
 Alpha virt. eigenvalues --    1.29103   1.29448   1.29754   1.30710   1.31305
 Alpha virt. eigenvalues --    1.31987   1.33061   1.33143   1.33538   1.33742
 Alpha virt. eigenvalues --    1.33993   1.35060   1.36025   1.37354   1.38096
 Alpha virt. eigenvalues --    1.38302   1.38997   1.39471   1.39900   1.40555
 Alpha virt. eigenvalues --    1.41940   1.42041   1.43100   1.43989   1.45359
 Alpha virt. eigenvalues --    1.45633   1.45998   1.46216   1.47328   1.48194
 Alpha virt. eigenvalues --    1.48591   1.49531   1.50216   1.51767   1.52601
 Alpha virt. eigenvalues --    1.53042   1.53491   1.54070   1.55366   1.56189
 Alpha virt. eigenvalues --    1.56698   1.57712   1.58403   1.58709   1.58955
 Alpha virt. eigenvalues --    1.59378   1.60508   1.60634   1.62064   1.62232
 Alpha virt. eigenvalues --    1.62591   1.63172   1.63638   1.64178   1.64271
 Alpha virt. eigenvalues --    1.64491   1.64980   1.65537   1.65911   1.66221
 Alpha virt. eigenvalues --    1.66377   1.66827   1.67318   1.68001   1.68387
 Alpha virt. eigenvalues --    1.69788   1.70271   1.71212   1.71249   1.72042
 Alpha virt. eigenvalues --    1.72303   1.72707   1.72828   1.73404   1.73843
 Alpha virt. eigenvalues --    1.74172   1.74596   1.74925   1.75655   1.76085
 Alpha virt. eigenvalues --    1.76182   1.76629   1.76873   1.77253   1.77788
 Alpha virt. eigenvalues --    1.78119   1.78665   1.79179   1.79536   1.79700
 Alpha virt. eigenvalues --    1.80135   1.80263   1.80413   1.80762   1.80978
 Alpha virt. eigenvalues --    1.81285   1.82463   1.82814   1.83263   1.83491
 Alpha virt. eigenvalues --    1.83891   1.84525   1.84973   1.85170   1.85865
 Alpha virt. eigenvalues --    1.86452   1.86745   1.87280   1.87445   1.89022
 Alpha virt. eigenvalues --    1.89052   1.89171   1.89932   1.90099   1.90606
 Alpha virt. eigenvalues --    1.90985   1.91668   1.92274   1.92522   1.93446
 Alpha virt. eigenvalues --    1.93661   1.94023   1.94541   1.95199   1.95589
 Alpha virt. eigenvalues --    1.95974   1.96263   1.97301   1.97587   1.97908
 Alpha virt. eigenvalues --    1.98385   1.98967   1.99359   1.99790   2.00349
 Alpha virt. eigenvalues --    2.01206   2.01369   2.01951   2.02445   2.03590
 Alpha virt. eigenvalues --    2.04042   2.04874   2.05319   2.05903   2.06602
 Alpha virt. eigenvalues --    2.07516   2.08017   2.08788   2.09691   2.10253
[...]
    43   Atom       -0.000000      0.000000     -0.000000
    44   Atom       -0.000000      0.000000      0.000000
    45   Atom        0.000000     -0.000000     -0.000000
    46   Atom        0.000000      0.000000      0.000000
    47   Atom       -0.000000     -0.000000      0.000000
    48   Atom        0.000000      0.000000      0.000000
    49   Atom       -0.000000     -0.000000     -0.000000
    50   Atom        0.000000     -0.000000     -0.000000
    51   Atom       -0.000000      0.000000      0.000000
    52   Atom        0.000000     -0.000000     -0.000000
    53   Atom       -0.000000      0.000000     -0.000000
    54   Atom       -0.000000      0.000000      0.000000
    55   Atom        0.000000     -0.000000      0.000000
    56   Atom       -0.000000     -0.000000      0.000000
    57   Atom        0.000000      0.000000     -0.000000
    58   Atom       -0.000000     -0.000000     -0.000000
    59   Atom       -0.000000      0.000000     -0.000000
 --------------------------------------------------------


 ---------------------------------------------------------------------------------
              Anisotropic Spin Dipole Couplings in Principal Axis System
 ---------------------------------------------------------------------------------

       Atom             a.u.   MegaHertz   Gauss  10(-4) cm-1        Axes

              Baa    -0.0000    -0.000    -0.000    -0.000 -0.3704  0.7289 -0.5758
     1 C(13)  Bbb    -0.0000    -0.000    -0.000    -0.000 -0.5995  0.2859  0.7476
              Bcc     0.0000     0.000     0.000     0.000  0.7095  0.6221  0.3311
 
              Baa    -0.0000    -0.000    -0.000    -0.000  0.6304  0.5945 -0.4992
     2 C(13)  Bbb     0.0000     0.000     0.000     0.000  0.7762 -0.4912  0.3952
              Bcc     0.0000     0.000     0.000     0.000  0.0103  0.6366  0.7711
 
              Baa    -0.0000    -0.000    -0.000    -0.000  0.8262 -0.5361  0.1729
     3 C(13)  Bbb    -0.0000    -0.000    -0.000    -0.000  0.5632  0.7800 -0.2727
              Bcc     0.0000     0.000     0.000     0.000  0.0113  0.3227  0.9464
 
              Baa    -0.0000    -0.000    -0.000    -0.000 -0.0612  0.0147  0.9980
     4 F(19)  Bbb    -0.0000    -0.000    -0.000    -0.000  0.7104  0.7030  0.0332
              Bcc     0.0000     0.000     0.000     0.000 -0.7012  0.7110 -0.0535
 
              Baa    -0.0000    -0.000    -0.000    -0.000  0.0677  0.3236  0.9438
     5 C(13)  Bbb    -0.0000    -0.000    -0.000    -0.000 -0.3215  0.9026 -0.2864
              Bcc     0.0000     0.000     0.000     0.000  0.9445  0.2840 -0.1652
 
              Baa    -0.0000    -0.000    -0.000    -0.000  0.9757 -0.0614  0.2104
     6 N(14)  Bbb     0.0000     0.000     0.000     0.000 -0.1746  0.3630  0.9153
              Bcc     0.0000     0.000     0.000     0.000  0.1326  0.9298 -0.3435
 
              Baa    -0.0000    -0.000    -0.000    -0.000 -0.0923  0.4067  0.9089
     7 C(13)  Bbb    -0.0000    -0.000    -0.000    -0.000  0.9876  0.1536  0.0316
              Bcc     0.0000     0.000     0.000     0.000 -0.1268  0.9006 -0.4158
 
              Baa    -0.0000    -0.000    -0.000    -0.000 -0.2363  0.7552  0.6115
     8 C(13)  Bbb    -0.0000    -0.000    -0.000    -0.000  0.0267 -0.6240  0.7809
              Bcc     0.0000     0.000     0.000     0.000  0.9713  0.2009  0.1272
 
              Baa    -0.0000    -0.000    -0.000    -0.000  0.1020 -0.3627  0.9263
     9 C(13)  Bbb     0.0000     0.000     0.000     0.000  0.9921  0.1049 -0.0681
              Bcc     0.0000     0.000     0.000     0.000 -0.0725  0.9260  0.3705
 
              Baa    -0.0000    -0.000    -0.000    -0.000  0.9847 -0.0141 -0.1736
    10 C(13)  Bbb    -0.0000    -0.000    -0.000    -0.000  0.1561 -0.3709  0.9155
              Bcc     0.0000     0.000     0.000     0.000  0.0773  0.9286  0.3630
 
              Baa    -0.0000    -0.000    -0.000    -0.000 -0.1408 -0.2432  0.9597
    11 C(13)  Bbb    -0.0000    -0.000    -0.000    -0.000 -0.3874  0.9056  0.1727
              Bcc     0.0000     0.000     0.000     0.000  0.9111  0.3475  0.2217
 
              Baa    -0.0000    -0.000    -0.000    -0.000 -0.0193 -0.3150  0.9489
    12 C(13)  Bbb    -0.0000    -0.000    -0.000    -0.000 -0.6224  0.7465  0.2352
              Bcc     0.0000     0.000     0.000     0.000  0.7824  0.5861  0.2104
 
              Baa    -0.0000    -0.000    -0.000    -0.000  0.0970 -0.3446  0.9337
    13 C(13)  Bbb     0.0000     0.000     0.000     0.000  0.9597  0.2810  0.0040
              Bcc     0.0000     0.000     0.000     0.000 -0.2638  0.8957  0.3580
 
              Baa    -0.0000    -0.000    -0.000    -0.000 -0.1166  0.9393  0.3225
    14 F(19)  Bbb    -0.0000    -0.000    -0.000    -0.000  0.9925  0.1218  0.0041
              Bcc     0.0000     0.000     0.000     0.000  0.0354 -0.3206  0.9465
 
              Baa    -0.0000    -0.000    -0.000    -0.000  0.6115  0.7909 -0.0240
    15 C(13)  Bbb    -0.0000    -0.000    -0.000    -0.000  0.7675 -0.6003 -0.2250
              Bcc     0.0000     0.000     0.000     0.000  0.1923 -0.1192  0.9741
 
              Baa    -0.0000    -0.000    -0.000    -0.000  0.9744  0.1300  0.1832
    16 C(13)  Bbb     0.0000     0.000     0.000     0.000 -0.2105  0.2438  0.9467
              Bcc     0.0000     0.000     0.000     0.000 -0.0784  0.9611 -0.2650
 
              Baa    -0.0000    -0.000    -0.000    -0.000  0.9524 -0.0509 -0.3006
    17 C(13)  Bbb     0.0000     0.000     0.000     0.000 -0.0515  0.9449 -0.3234
              Bcc     0.0000     0.000     0.000     0.000  0.3005  0.3235  0.8973
 
              Baa    -0.0000    -0.000    -0.000    -0.000 -0.0127  0.2751  0.9613
    18 F(19)  Bbb    -0.0000    -0.000    -0.000    -0.000  0.2556  0.9304 -0.2629
              Bcc     0.0000     0.000     0.000     0.000  0.9667 -0.2424  0.0821
 
              Baa    -0.0000    -0.000    -0.000    -0.000  0.8257 -0.1499 -0.5438
    19 C(13)  Bbb    -0.0000    -0.000    -0.000    -0.000 -0.0588  0.9359 -0.3473
              Bcc     0.0000     0.000     0.000     0.000  0.5610  0.3188  0.7639
 
              Baa    -0.0000    -0.000    -0.000    -0.000  0.7835  0.2515  0.5682
    20 N(14)  Bbb    -0.0000    -0.000    -0.000    -0.000 -0.6008  0.0736  0.7960
              Bcc     0.0000     0.000     0.000     0.000 -0.1584  0.9651 -0.2087
 
              Baa    -0.0000    -0.000    -0.000    -0.000 -0.4463 -0.1491  0.8824
    21 C(13)  Bbb    -0.0000    -0.000    -0.000    -0.000 -0.4187  0.9062 -0.0586
              Bcc     0.0000     0.000     0.000     0.000  0.7909  0.3956  0.4669
 
              Baa    -0.0000    -0.000    -0.000    -0.000  0.2916  0.7951  0.5317
    22 C(13)  Bbb    -0.0000    -0.000    -0.000    -0.000  0.3872 -0.6064  0.6945
              Bcc     0.0000     0.000     0.000     0.000  0.8747  0.0034 -0.4847
 
              Baa    -0.0000    -0.000    -0.000    -0.000  0.3547  0.4476  0.8209
    23 C(13)  Bbb    -0.0000    -0.000    -0.000    -0.000 -0.5645  0.8024 -0.1936
              Bcc     0.0000     0.000     0.000     0.000  0.7454  0.3947 -0.5372
 
              Baa    -0.0000    -0.000    -0.000    -0.000 -0.0635  0.9522  0.2987
    24 C(13)  Bbb    -0.0000    -0.000    -0.000    -0.000 -0.3342 -0.3023  0.8927
              Bcc     0.0000     0.000     0.000     0.000  0.9404 -0.0431  0.3374
 
              Baa    -0.0000    -0.000    -0.000    -0.000 -0.0513  0.9592  0.2781
    25 C(13)  Bbb     0.0000     0.000     0.000     0.000  0.9842  0.0959 -0.1490
              Bcc     0.0000     0.000     0.000     0.000  0.1696 -0.2660  0.9489
 
              Baa    -0.0000    -0.000    -0.000    -0.000  0.6865 -0.3238 -0.6511
    26 C(13)  Bbb    -0.0000    -0.000    -0.000    -0.000  0.6676  0.6356  0.3877
              Bcc     0.0000     0.000     0.000     0.000 -0.2883  0.7008 -0.6525
 
              Baa    -0.0000    -0.000    -0.000    -0.000  0.6156 -0.2948  0.7309
    27 C(13)  Bbb     0.0000     0.000     0.000     0.000  0.1802  0.9555  0.2337
              Bcc     0.0000     0.000     0.000     0.000  0.7672  0.0122 -0.6413
 
              Baa    -0.0000    -0.000    -0.000    -0.000  0.8023  0.5493 -0.2336
    28 F(19)  Bbb     0.0000     0.000     0.000     0.000  0.0034  0.3871  0.9220
              Bcc     0.0000     0.000     0.000     0.000 -0.5969  0.7406 -0.3087
 
              Baa    -0.0000    -0.000    -0.000    -0.000  0.1465  0.9584 -0.2449
    29 C(13)  Bbb     0.0000     0.000     0.000     0.000 -0.0283  0.2515  0.9674
              Bcc     0.0000     0.000     0.000     0.000  0.9888 -0.1348  0.0640
 
              Baa    -0.0000    -0.000    -0.000    -0.000  0.1757  0.9422 -0.2852
    30 C(13)  Bbb    -0.0000    -0.000    -0.000    -0.000 -0.1281  0.3091  0.9424
              Bcc     0.0000     0.000     0.000     0.000  0.9761 -0.1290  0.1750
 
              Baa    -0.0000    -0.000    -0.000    -0.000  0.9934  0.0214  0.1126
    31 C(13)  Bbb     0.0000     0.000     0.000     0.000  0.0008  0.9810 -0.1939
              Bcc     0.0000     0.000     0.000     0.000 -0.1147  0.1928  0.9745
 
              Baa    -0.0000    -0.000    -0.000    -0.000  0.8088  0.4393  0.3910
    32 F(19)  Bbb     0.0000     0.000     0.000     0.000 -0.1380  0.7881 -0.5999
              Bcc     0.0000     0.000     0.000     0.000 -0.5717  0.4312  0.6980
 
              Baa    -0.0000    -0.000    -0.000    -0.000 -0.6395  0.6653 -0.3852
    33 C(13)  Bbb     0.0000     0.000     0.000     0.000  0.1621  0.6064  0.7784
              Bcc     0.0000     0.000     0.000     0.000  0.7515  0.4354 -0.4956
 
              Baa    -0.0000    -0.000    -0.000    -0.000  0.9417  0.2913 -0.1684
    34 N(14)  Bbb    -0.0000    -0.000    -0.000    -0.000  0.3002 -0.5013  0.8115
              Bcc     0.0000     0.000     0.000     0.000 -0.1520  0.8148  0.5595
 
              Baa    -0.0000    -0.000    -0.000    -0.000  0.6741 -0.6542  0.3429
    35 C(13)  Bbb    -0.0000    -0.000    -0.000    -0.000  0.6092  0.7550  0.2428
              Bcc     0.0000     0.000     0.000     0.000 -0.4177  0.0453  0.9075
 
              Baa    -0.0000    -0.000    -0.000    -0.000  0.0259  0.8997  0.4356
    36 C(13)  Bbb     0.0000     0.000     0.000     0.000  0.8744 -0.2316  0.4264
              Bcc     0.0000     0.000     0.000     0.000 -0.4846 -0.3699  0.7927
 
              Baa    -0.0000    -0.000    -0.000    -0.000 -0.4999  0.8221  0.2726
    37 C(13)  Bbb     0.0000     0.000     0.000     0.000  0.8478  0.4000  0.3483
              Bcc     0.0000     0.000     0.000     0.000 -0.1773 -0.4052  0.8969
 
              Baa    -0.0000    -0.000    -0.000    -0.000  0.7199  0.2814  0.6345
    38 C(13)  Bbb    -0.0000    -0.000    -0.000    -0.000 -0.4112 -0.5636  0.7164
              Bcc     0.0000     0.000     0.000     0.000 -0.5592  0.7767  0.2900
 
              Baa    -0.0000    -0.000    -0.000    -0.000 -0.1691 -0.3570  0.9187
    39 C(13)  Bbb     0.0000     0.000     0.000     0.000  0.9778 -0.1781  0.1107
              Bcc     0.0000     0.000     0.000     0.000  0.1241  0.9170  0.3792
 
              Baa    -0.0000    -0.000    -0.000    -0.000  0.0663  0.9897  0.1266
    40 C(13)  Bbb     0.0000     0.000     0.000     0.000  0.4719 -0.1429  0.8700
              Bcc     0.0000     0.000     0.000     0.000  0.8792  0.0020 -0.4765
 
              Baa    -0.0000    -0.000    -0.000    -0.000  0.8199  0.5014  0.2764
    41 C(13)  Bbb     0.0000     0.000     0.000     0.000 -0.1131 -0.3314  0.9367
              Bcc     0.0000     0.000     0.000     0.000 -0.5613  0.7992  0.2150
 
              Baa    -0.0000    -0.000    -0.000    -0.000  0.0903 -0.3017  0.9491
    42 F(19)  Bbb    -0.0000    -0.000    -0.000    -0.000 -0.4138  0.8555  0.3113
              Bcc     0.0000     0.000     0.000     0.000  0.9059  0.4208  0.0476
 
              Baa    -0.0000    -0.000    -0.000    -0.000  0.6342  0.7570 -0.1573
    43 H(1)   Bbb    -0.0000    -0.000    -0.000    -0.000  0.0038  0.2004  0.9797
              Bcc     0.0000     0.000     0.000     0.000  0.7732 -0.6219  0.1242
 
              Baa    -0.0000    -0.000    -0.000    -0.000  0.3163  0.8434 -0.4343
    44 H(1)   Bbb     0.0000     0.000     0.000     0.000  0.9486 -0.2752  0.1563
              Bcc     0.0000     0.000     0.000     0.000 -0.0124  0.4614  0.8871
 
              Baa    -0.0000    -0.000    -0.000    -0.000 -0.0310  0.3598  0.9325
    45 H(1)   Bbb    -0.0000    -0.000    -0.000    -0.000  0.8298 -0.5109  0.2247
              Bcc     0.0000     0.000     0.000     0.000  0.5572  0.7808 -0.2827
 
              Baa    -0.0000    -0.000    -0.000    -0.000 -0.0170 -0.2523  0.9675
    46 H(1)   Bbb    -0.0000    -0.000    -0.000    -0.000  0.8177 -0.5604 -0.1318
              Bcc     0.0000     0.000     0.000     0.000  0.5754  0.7889  0.2158
 
              Baa    -0.0000    -0.000    -0.000    -0.000 -0.1494 -0.4082  0.9006
    47 H(1)   Bbb    -0.0000    -0.000    -0.000    -0.000  0.7935  0.4939  0.3556
              Bcc     0.0000     0.000     0.000     0.000 -0.5900  0.7677  0.2501
 
              Baa    -0.0000    -0.000    -0.000    -0.000 -0.6510  0.1359  0.7468
    48 H(1)   Bbb    -0.0000    -0.000    -0.000    -0.000  0.6251 -0.4622  0.6290
              Bcc     0.0000     0.000     0.000     0.000  0.4307  0.8763  0.2160
 
              Baa    -0.0000    -0.000    -0.000    -0.000  0.2868  0.4854  0.8259
    49 H(1)   Bbb     0.0000     0.000     0.000     0.000  0.1775  0.8203 -0.5438
              Bcc     0.0000     0.000     0.000     0.000  0.9414 -0.3025 -0.1491
 
              Baa    -0.0000    -0.000    -0.000    -0.000 -0.1189  0.9216  0.3693
    50 H(1)   Bbb    -0.0000    -0.000    -0.000    -0.000  0.4163 -0.2914  0.8613
              Bcc     0.0000     0.000     0.000     0.000  0.9014  0.2562 -0.3490
 
              Baa    -0.0000    -0.000    -0.000    -0.000 -0.5931 -0.1307  0.7945
    51 H(1)   Bbb     0.0000     0.000     0.000     0.000  0.8025 -0.0156  0.5965
              Bcc     0.0000     0.000     0.000     0.000 -0.0655  0.9913  0.1141
 
              Baa    -0.0000    -0.000    -0.000    -0.000 -0.0371  0.9429  0.3309
    52 H(1)   Bbb    -0.0000    -0.000    -0.000    -0.000  0.8344 -0.1530  0.5295
              Bcc     0.0000     0.000     0.000     0.000 -0.5499 -0.2957  0.7811
 
              Baa    -0.0000    -0.000    -0.000    -0.000 -0.0934  0.9393  0.3303
    53 H(1)   Bbb    -0.0000    -0.000    -0.000    -0.000  0.9139  0.2125 -0.3459
              Bcc     0.0000     0.000     0.000     0.000  0.3950 -0.2695  0.8782
 
              Baa    -0.0000    -0.000    -0.000    -0.000  0.5753  0.6341 -0.5167
    54 H(1)   Bbb    -0.0000    -0.000    -0.000    -0.000  0.8175 -0.4263  0.3872
              Bcc     0.0000     0.000     0.000     0.000 -0.0252  0.6452  0.7636
 
              Baa    -0.0000    -0.000    -0.000    -0.000 -0.4179  0.7885 -0.4512
    55 H(1)   Bbb     0.0000     0.000     0.000     0.000  0.3889  0.6041  0.6956
              Bcc     0.0000     0.000     0.000     0.000  0.8211  0.1152 -0.5591
 
              Baa    -0.0000    -0.000    -0.000    -0.000  0.7541  0.3756  0.5388
    56 H(1)   Bbb    -0.0000    -0.000    -0.000    -0.000 -0.2802 -0.5579  0.7812
              Bcc     0.0000     0.000     0.000     0.000 -0.5940  0.7400  0.3155
 
              Baa    -0.0000    -0.000    -0.000    -0.000 -0.5492  0.7812  0.2969
    57 H(1)   Bbb     0.0000     0.000     0.000     0.000  0.8231  0.5671  0.0304
              Bcc     0.0000     0.000     0.000     0.000  0.1446 -0.2611  0.9544
 
              Baa    -0.0000    -0.000    -0.000    -0.000  0.3221  0.9293  0.1808
    58 H(1)   Bbb    -0.0000    -0.000    -0.000    -0.000  0.1892 -0.2503  0.9495
              Bcc     0.0000     0.000     0.000     0.000  0.9276 -0.2716 -0.2565
 
              Baa    -0.0000    -0.000    -0.000    -0.000  0.8434  0.5329  0.0686
    59 H(1)   Bbb     0.0000     0.000     0.000     0.000 -0.5271  0.7959  0.2979
              Bcc     0.0000     0.000     0.000     0.000  0.1042 -0.2874  0.9521
 

 ---------------------------------------------------------------------------------

 No NMR shielding tensors so no spin-rotation constants.
 Leave Link  601 at Sat Jul 25 12:17:57 2020, MaxMem=  4026531840 cpu:               6.1 elap:               0.8
 (Enter /opt/ohpc/pub/libs/gaussian/g16-A.03/sandybridge/g16/l9999.exe)

 Test job not archived.
 1\1\GINC-SKYLAKE041\FOpt\ULC-wPBE\CC-pVDZ\C33H17F6N3\RDU230\25-Jul-202
 0\0\\#P uLC-wPBE/cc-pVDZ iop(3/107=0491900000, 3/108=0491900000) opt\\
 H17 C33 N3 F6\\0,1\C,-11.9897631711,0.0041880553,0.430777401\C,-11.399
 4739832,0.9388921987,-0.397511372\C,-10.0265131703,0.9423320416,-0.487
 9485336\F,-9.4307465735,1.7964325465,-1.317729288\C,-9.2659590865,0.04
 43535121,0.2488874461\N,-9.8507216129,-0.8661226905,1.0176417811\C,-11
 .1705058326,-0.8835833345,1.1067639733\C,-7.7886564412,0.008656693,0.1
 697467446\C,-7.1314390084,-1.2091419016,0.0435443759\C,-5.7549041713,-
 1.2802074112,-0.0237179053\C,-4.984861162,-0.122359289,0.0501665775\C,
 -5.6262708367,1.0984875838,0.2058165702\C,-7.0025944509,1.1439632293,0
 .2681793598\F,-7.582668784,2.330720526,0.4558251957\C,-3.5098705385,-0
 .1879099879,-0.0226505109\C,-2.8638707615,-1.0322456107,-0.9124798571\
 C,-1.4896944622,-1.0412896828,-0.9268438716\F,-0.857135523,-1.84835780
 3,-1.7826868998\C,-0.759148354,-0.2253890521,-0.0746554929\N,-1.385468
 0611,0.573635954,0.7798736819\C,-2.7047568014,0.5904497719,0.804185610
 7\C,0.7204788275,-0.2101102494,-0.0910904682\C,1.4403861734,-0.1071076
 904,-1.2753915395\C,2.8208347201,-0.0544395068,-1.2798895845\C,3.53148
 94464,-0.1135170988,-0.0856219547\C,2.8266367326,-0.2304497163,1.10501
 20788\C,1.4498267516,-0.2776712977,1.0868985395\F,0.8151866149,-0.4111
 965229,2.249182516\C,5.0086805158,-0.0585258416,-0.0787160414\C,5.7650
 71577,-0.8641881633,0.7587068927\C,7.1342386204,-0.7598554019,0.706728
 1384\F,7.8720013556,-1.5339311909,1.5066379864\C,7.7532179789,0.127520
 923,-0.1628095249\N,7.0211775707,0.9006063585,-0.9547548969\C,5.704984
 473,0.8108479693,-0.9129786538\C,9.2273518733,0.2370485513,-0.24244174
 9\C,10.0372931774,-0.8865399261,-0.3645201132\C,11.4110678705,-0.77267
 03744,-0.475514333\C,12.0009588061,0.4805176168,-0.455325901\C,11.2184
 363219,1.6129168645,-0.3215801388\C,9.8500092478,1.4763780858,-0.21664
 0881\F,9.1167213361,2.5778991164,-0.0612727084\H,-13.0696320244,-0.043
 387137,0.5412375325\H,-11.9756840709,1.6526640419,-0.9802267617\H,-11.
 5976663432,-1.6489913343,1.7538978559\H,-7.7335860538,-2.1132877811,0.
 0104927133\H,-5.26983047,-2.2493760689,-0.1103608206\H,-5.0740734113,2
 .0319508193,0.2698399684\H,-3.4078508431,-1.6708814652,-1.6036820075\H
 ,-3.160673089,1.2532004731,1.5396172907\H,0.9006361983,-0.0664227146,-
 2.2175497479\H,3.3527570027,0.0132537515,-2.2253134275\H,3.3307781826,
 -0.2690141531,2.0669270972\H,5.3116277928,-1.5804373002,1.4392422665\H
 ,5.1587279094,1.4846085624,-1.5729524244\H,9.5731022964,-1.869214436,-
 0.3802897038\H,12.0221429821,-1.6654692432,-0.5790501177\H,13.08050126
 61,0.5801694696,-0.5409943547\H,11.6475834706,2.6104436615,-0.29137000
 9\\Version=EM64L-G16RevA.03\State=1-A\HF=-2029.8261685\S2=0.\S2-1=0.\S
 2A=0.\RMSD=9.702e-09\RMSF=7.314e-06\Dipole=-1.4061536,-0.9161595,-0.61
 26284\Quadrupole=37.0306497,-16.9230614,-20.1075884,-3.3242558,2.88631
 25,0.6119927\PG=C01 [X(C33H17F6N3)]\\@


 ACHIEVEMENT--  THE MAN WHO ROWS THE BOAT GENERALLY 
                DOESN'T HAVE TIME TO ROCK IT.

                   -- FROM THE BACK OF A SUGAR PACKET
 Job cpu time:       0 days 16 hours 19 minutes 57.6 seconds.
 Elapsed time:       0 days  2 hours  3 minutes 22.9 seconds.
 File lengths (MBytes):  RWF=    556 Int=      0 D2E=      0 Chk=     52 Scr=      8
 Normal termination of Gaussian 16 at Sat Jul 25 12:17:57 2020.
