 Entering Gaussian System, Link 0=g16
 Input=mols_65_7_34_cF-cOC-CF_opt_0.gjf
 Output=mols_65_7_34_cF-cOC-CF_opt_0.log
 Initial command:
 /opt/ohpc/pub/libs/gaussian/g16-A.03/sandybridge/g16/l1.exe "/mnt/gpfs2_4m/scratch/rdu230/ondemand/projects/dihedral_energies/7trial/wtuning/mols_65_7_34_cF-cOC-CF/Gau-139604.inp" -scrdir="/mnt/gpfs2_4m/scratch/rdu230/ondemand/projects/dihedral_energies/7trial/wtuning/mols_65_7_34_cF-cOC-CF/"
 Entering Link 1 = /opt/ohpc/pub/libs/gaussian/g16-A.03/sandybridge/g16/l1.exe PID=    139605.
  
 Copyright (c) 1988,1990,1992,1993,1995,1998,2003,2009,2016,
            Gaussian, Inc.  All Rights Reserved.
  
 This is part of the Gaussian(R) 16 program.  It is based on
 the Gaussian(R) 09 system (copyright 2009, Gaussian, Inc.),
 the Gaussian(R) 03 system (copyright 2003, Gaussian, Inc.),
 the Gaussian(R) 98 system (copyright 1998, Gaussian, Inc.),
 the Gaussian(R) 94 system (copyright 1995, Gaussian, Inc.),
 the Gaussian 92(TM) system (copyright 1992, Gaussian, Inc.),
 the Gaussian 90(TM) system (copyright 1990, Gaussian, Inc.),
 the Gaussian 88(TM) system (copyright 1988, Gaussian, Inc.),
 the Gaussian 86(TM) system (copyright 1986, Carnegie Mellon
 University), and the Gaussian 82(TM) system (copyright 1983,
 Carnegie Mellon University). Gaussian is a federally registered
 trademark of Gaussian, Inc.
  
 This software contains proprietary and confidential information,
 including trade secrets, belonging to Gaussian, Inc.
  
 This software is provided under written license and may be
 used, copied, transmitted, or stored only in accord with that
 written license.
  
 The following legend is applicable only to US Government
 contracts under FAR:
  
                    RESTRICTED RIGHTS LEGEND
  
 Use, reproduction and disclosure by the US Government is
 subject to restrictions as set forth in subparagraphs (a)
 and (c) of the Commercial Computer Software - Restricted
 Rights clause in FAR 52.227-19.
  
 Gaussian, Inc.
 340 Quinnipiac St., Bldg. 40, Wallingford CT 06492
  
  
 ---------------------------------------------------------------
 Warning -- This program may not be used in any manner that
 competes with the business of Gaussian, Inc. or will provide
 assistance to any competitor of Gaussian, Inc.  The licensee
 of this program is prohibited from giving any competitor of
 Gaussian, Inc. access to this program.  By using this program,
 the user acknowledges that Gaussian, Inc. is engaged in the
 business of creating and licensing software in the field of
 computational chemistry and represents and warrants to the
 licensee that it is not a competitor of Gaussian, Inc. and that
 it will not use this program in any manner prohibited above.
 ---------------------------------------------------------------
  

 Cite this work as:
 Gaussian 16, Revision A.03,
 M. J. Frisch, G. W. Trucks, H. B. Schlegel, G. E. Scuseria, 
 M. A. Robb, J. R. Cheeseman, G. Scalmani, V. Barone, 
 G. A. Petersson, H. Nakatsuji, X. Li, M. Caricato, A. V. Marenich, 
 J. Bloino, B. G. Janesko, R. Gomperts, B. Mennucci, H. P. Hratchian, 
 J. V. Ortiz, A. F. Izmaylov, J. L. Sonnenberg, D. Williams-Young, 
 F. Ding, F. Lipparini, F. Egidi, J. Goings, B. Peng, A. Petrone, 
 T. Henderson, D. Ranasinghe, V. G. Zakrzewski, J. Gao, N. Rega, 
 G. Zheng, W. Liang, M. Hada, M. Ehara, K. Toyota, R. Fukuda, 
 J. Hasegawa, M. Ishida, T. Nakajima, Y. Honda, O. Kitao, H. Nakai, 
 T. Vreven, K. Throssell, J. A. Montgomery, Jr., J. E. Peralta, 
 F. Ogliaro, M. J. Bearpark, J. J. Heyd, E. N. Brothers, K. N. Kudin, 
 V. N. Staroverov, T. A. Keith, R. Kobayashi, J. Normand, 
 K. Raghavachari, A. P. Rendell, J. C. Burant, S. S. Iyengar, 
 J. Tomasi, M. Cossi, J. M. Millam, M. Klene, C. Adamo, R. Cammi, 
 J. W. Ochterski, R. L. Martin, K. Morokuma, O. Farkas, 
 J. B. Foresman, and D. J. Fox, Gaussian, Inc., Wallingford CT, 2016.
 
 ******************************************
 Gaussian 16:  EM64L-G16RevA.03 25-Dec-2016
                25-Jul-2020 
 ******************************************
 %mem=30GB
 %nproc=8
 Will use up to    8 processors via shared memory.
 ---------------------------------------------------------------
 #P uLC-wPBE/cc-pVDZ iop(3/107=0241000000, 3/108=0241000000) opt
 ---------------------------------------------------------------
 1/18=20,19=15,26=3,38=1/1,3;
 2/9=110,12=2,17=6,18=5,40=1/2;
 3/5=16,11=2,25=1,30=1,71=1,74=-41,107=241000000,108=241000000,116=2/1,2,3;
 4//1;
 5/5=2,38=5/2;
 6/7=2,8=2,9=2,10=2,28=1/1;
 7//1,2,3,16;
 1/18=20,19=15,26=3/3(2);
 2/9=110/2;
 99//99;
 2/9=110/2;
 3/5=16,11=2,25=1,30=1,71=1,74=-41,107=241000000,108=241000000,116=2/1,2,3;
 4/5=5,16=3,69=1/1;
 5/5=2,38=5/2;
 7//1,2,3,16;
 1/18=20,19=15,26=3/3(-5);
 2/9=110/2;
 6/7=2,8=2,9=2,10=2,19=2,28=1/1;
 99/9=1/99;
 Leave Link    1 at Sat Jul 25 04:07:23 2020, MaxMem=  4026531840 cpu:               1.5 elap:               0.2
 (Enter /opt/ohpc/pub/libs/gaussian/g16-A.03/sandybridge/g16/l101.exe)
 -----------------
 H44 C77 S7 O7 F14
 -----------------
 Symbolic Z-matrix:
 Charge =  0 Multiplicity = 1
 C                     25.15572   4.57711  -0.80959 
 C                     24.88145   4.04168   0.49001 
 C                     23.98411   3.05698   0.74974 
 F                     23.79999   2.65087   1.96532 
 C                     23.25961   2.44809  -0.32598 
 C                     23.5266   2.87004  -1.64939 
 O                     22.90302   2.26954  -2.72863 
 C                     23.02191   2.78731  -3.95746 
 C                     24.44074   3.90299  -1.89551 
 C                     22.3735   1.35265  -0.04375 
 C                     22.58257   0.10475   0.38508 
 F                     23.88853  -0.38392   0.62471 
 C                     21.46576  -0.76161   0.49053 
 C                     20.28951   0.00801   0.11148 
 S                     20.62025   1.61823  -0.26007 
 C                     18.8777  -0.50329   0.09782 
 C                     18.03933  -0.18311  -0.86262 
 C                     16.72275  -0.71551  -0.93415 
 F                     15.93143  -0.33853  -1.91461 
 C                     16.29108  -1.55834   0.08083 
 C                     17.14812  -2.00985   1.03777 
 O                     16.7104  -2.90022   1.94925 
 C                     17.7029  -3.59548   2.78151 
 C                     18.5136  -1.44146   1.12503 
 C                     14.96667  -2.11988  -0.10111 
 C                     14.62278  -3.44741  -0.28945 
 F                     15.46956  -4.45662  -0.53225 
 C                     13.21857  -3.61989  -0.42867 
 C                     12.43798  -2.47862  -0.23128 
 S                     13.5324  -1.16939   0.12563 
 C                     10.99732  -2.25601  -0.28007 
 C                     10.41433  -1.11147  -0.71998 
 C                     9.02278  -0.91976  -0.83571 
 F                     8.57062   0.19808  -1.2092 
 C                     8.20028  -1.94181  -0.45762 
 C                     8.73568  -3.20134  -0.05227 
 O                     7.92088  -4.28059   0.25956 
 C                     8.26185  -5.4646   -0.40699 
 C                     10.19769  -3.35003  -0.00538 
 C                     6.79887  -1.83387  -0.64767 
 C                     5.91858  -2.34859  -1.57062 
 F                     6.36143  -3.1379   -2.64059 
 C                     4.61682  -2.05634  -1.45067 
 C                     4.33158  -1.32898  -0.32788 
 S                     5.78648  -0.91272   0.49749 
 C                     3.05129  -0.77317   0.23394 
 C                     2.88587   0.463     0.71268 
 C                     1.65023   0.88539   1.17929 
 F                     1.42147   2.16514   1.5632 
 C                     0.54668   0.02215   1.12797 
 C                     0.67938  -1.3312    0.74469 
 O                    -0.31633  -2.16771   0.78621 
 C                    -0.41752  -3.11684  -0.20126 
 C                     2.01741  -1.70371   0.28428 
 C                    -0.82006   0.51307   1.65342 
 C                    -1.18704   0.71324   2.89801 
 F                    -0.43751   0.45593   4.01136 
 C                    -2.60782   1.08081   2.99531 
 C                    -3.19652   1.21626   1.79343 
 S                    -2.03729   0.84696   0.47319 
 C                    -4.51338   1.61153   1.37602 
 C                    -5.33109   0.80832   0.51749 
 C                    -6.61969   1.25179   0.24006 
 F                    -7.27292   0.4494   -0.61511 
 C                    -7.20964   2.37491   0.82482 
 C                    -6.45553   3.14401   1.65497 
 O                    -7.02654   4.18339   2.25405 
 C                    -6.2667    5.14209   2.94626 
 C                    -5.13686   2.73988   1.95811 
 C                    -8.5938    2.71418   0.42226 
 C                    -8.93999   3.8778   -0.24974 
 F                    -8.20381   4.86035  -0.62427 
 C                    -10.34704   3.82409  -0.52644 
 C                    -10.99356   2.69681  -0.02895 
 S                    -9.88275   1.66529   0.78559 
 C                    -12.3623   2.32955  -0.21604 
 C                    -13.41599   3.30864  -0.21378 
 C                    -14.77018   2.95378  -0.38995 
 F                    -15.71849   3.91836  -0.38625 
 C                    -15.06657   1.63987  -0.7549 
 C                    -14.10247   0.69749  -0.80754 
 O                    -14.49377  -0.57639  -1.14868 
 C                    -14.00629  -1.62402  -0.27171 
 C                    -12.72797   1.00178  -0.53668 
 C                    -16.51772   1.3474   -1.08276 
 C                    -17.22349   1.7389   -2.25795 
 F                    -16.67733   2.50188  -3.1863 
 C                    -18.47953   1.32732  -2.28623 
 C                    -18.83367   0.55165  -1.16966 
 S                    -17.5013   0.36535  -0.09863 
 C                    -20.09822  -0.10422  -0.8738 
 C                    -21.31126   0.50321  -1.10862 
 C                    -22.53648  -0.11681  -0.91109 
 F                    -23.70486   0.61617  -1.0666 
 C                    -22.66256  -1.38814  -0.39836 
 C                    -21.39916  -2.02103  -0.15931 
 O                    -21.41675  -3.35505   0.28101 
 C                    -20.86398  -3.48824   1.5188 
 C                    -20.2071  -1.4152   -0.45154 
 C                    -23.95916  -2.04087  -0.17236 
 C                    -24.52169  -2.34458   1.07134 
 F                    -23.97023  -2.1422    2.24738 
 C                    -25.75457  -2.97794   0.92642 
 C                    -26.1335  -3.10313  -0.39512 
 S                    -24.91186  -2.46171  -1.52569 
 H                     25.81796   5.3179   -0.94531 
 H                     25.4407   4.55959   1.3291 
 H                     22.37135   2.23041  -4.64244 
 H                     23.992    2.63533  -4.34959 
 H                     22.63059   3.84284  -4.04476 
 H                     24.70853   4.34972  -2.89605 
 H                     21.49806  -1.7124    0.76106 
 H                     18.3628   0.52402  -1.66097 
 H                     18.41634  -4.07121   2.18236 
 H                     18.10767  -2.92782   3.46055 
 H                     17.09409  -4.37241   3.30217 
 H                     19.19915  -1.71716   1.852 
 H                     12.76094  -4.66794  -0.63156 
 H                     11.10288  -0.22623  -0.99336 
 H                     8.44155  -5.30185  -1.54833 
 H                     9.11029  -5.98077   0.05504 
 H                     7.35194  -6.15306  -0.3745 
 H                     10.59194  -4.24084   0.39208 
 H                     3.82156  -2.40891  -2.13006 
 H                     3.68366   1.17204   0.67541 
 H                    -0.28668  -2.7067   -1.25678 
 H                     0.23965  -3.97021  -0.01156 
 H                    -1.44987  -3.48839  -0.22868 
 H                     2.10566  -2.77719  -0.06167 
 H                    -3.07255   1.2518    3.94426 
 H                    -4.9276   -0.04947   0.0857 
 H                    -6.87701   6.00085   3.2859 
 H                    -5.93922   4.65953   3.97349 
 H                    -5.43556   5.50975   2.36105 
 H                    -4.48109   3.33675   2.67859 
 H                    -10.87977   4.67504  -1.11245 
 H                    -13.14945   4.32374   0.09223 
 H                    -14.17273  -1.3732    0.76013 
 H                    -14.50662  -2.53544  -0.43393 
 H                    -12.87257  -1.83505  -0.42108 
 H                    -12.03652   0.26937  -0.60634 
 H                    -19.24191   1.51669  -3.14556 
 H                    -21.35484   1.60838  -1.50751 
 H                    -19.80747  -3.54704   1.51069 
 H                    -21.20096  -4.53423   1.96688 
 H                    -21.27548  -2.71671   2.20459 
 H                    -19.25811  -1.98862  -0.27633 
 H                    -26.37377  -3.23591   1.70687 
 H                    -27.0081  -3.51981  -0.8859 
 
 ITRead=  0  0  0  0  0  0  0  0  0  0  0  0  0  0  0  0  0  0  0  0
 ITRead=  0  0  0  0  0  0  0  0  0  0  0  0  0  0  0  0  0  0  0  0
 ITRead=  0  0  0  0  0  0  0  0  0  0  0  0  0  0  0  0  0  0  0  0
 ITRead=  0  0  0  0  0  0  0  0  0  0  0  0  0  0  0  0  0  0  0  0
 ITRead=  0  0  0  0  0  0  0  0  0  0  0  0  0  0  0  0  0  0  0  0
 ITRead=  0  0  0  0  0  0  0  0  0  0  0  0  0  0  0  0  0  0  0  0
 ITRead=  0  0  0  0  0  0  0  0  0  0  0  0  0  0  0  0  0  0  0  0
 ITRead=  0  0  0  0  0  0  0  0  0
 MicOpt= -1 -1 -1 -1 -1 -1 -1 -1 -1 -1 -1 -1 -1 -1 -1 -1 -1 -1 -1 -1
 MicOpt= -1 -1 -1 -1 -1 -1 -1 -1 -1 -1 -1 -1 -1 -1 -1 -1 -1 -1 -1 -1
 MicOpt= -1 -1 -1 -1 -1 -1 -1 -1 -1 -1 -1 -1 -1 -1 -1 -1 -1 -1 -1 -1
 MicOpt= -1 -1 -1 -1 -1 -1 -1 -1 -1 -1 -1 -1 -1 -1 -1 -1 -1 -1 -1 -1
 MicOpt= -1 -1 -1 -1 -1 -1 -1 -1 -1 -1 -1 -1 -1 -1 -1 -1 -1 -1 -1 -1
 MicOpt= -1 -1 -1 -1 -1 -1 -1 -1 -1 -1 -1 -1 -1 -1 -1 -1 -1 -1 -1 -1
 MicOpt= -1 -1 -1 -1 -1 -1 -1 -1 -1 -1 -1 -1 -1 -1 -1 -1 -1 -1 -1 -1
 MicOpt= -1 -1 -1 -1 -1 -1 -1 -1 -1
 NAtoms=    149 NQM=      149 NQMF=       0 NMMI=      0 NMMIF=      0
                NMic=       0 NMicF=      0.
                    Isotopes and Nuclear Properties:
 (Nuclear quadrupole moments (NQMom) in fm**2, nuclear magnetic moments (NMagM)
  in nuclear magnetons)

  Atom         1           2           3           4           5           6           7           8           9          10
 IAtWgt=          12          12          12          19          12          12          16          12          12          12
 AtmWgt=  12.0000000  12.0000000  12.0000000  18.9984033  12.0000000  12.0000000  15.9949146  12.0000000  12.0000000  12.0000000
 NucSpn=           0           0           0           1           0           0           0           0           0           0
 AtZEff=  -0.0000000  -0.0000000  -0.0000000  -0.0000000  -0.0000000  -0.0000000  -0.0000000  -0.0000000  -0.0000000  -0.0000000
 NQMom=    0.0000000   0.0000000   0.0000000   0.0000000   0.0000000   0.0000000   0.0000000   0.0000000   0.0000000   0.0000000
 NMagM=    0.0000000   0.0000000   0.0000000   2.6288670   0.0000000   0.0000000   0.0000000   0.0000000   0.0000000   0.0000000
 AtZNuc=   6.0000000   6.0000000   6.0000000   9.0000000   6.0000000   6.0000000   8.0000000   6.0000000   6.0000000   6.0000000

  Atom        11          12          13          14          15          16          17          18          19          20
 IAtWgt=          12          19          12          12          32          12          12          12          19          12
 AtmWgt=  12.0000000  18.9984033  12.0000000  12.0000000  31.9720718  12.0000000  12.0000000  12.0000000  18.9984033  12.0000000
 NucSpn=           0           1           0           0           0           0           0           0           1           0
 AtZEff=  -0.0000000  -0.0000000  -0.0000000  -0.0000000  -0.0000000  -0.0000000  -0.0000000  -0.0000000  -0.0000000  -0.0000000
 NQMom=    0.0000000   0.0000000   0.0000000   0.0000000   0.0000000   0.0000000   0.0000000   0.0000000   0.0000000   0.0000000
 NMagM=    0.0000000   2.6288670   0.0000000   0.0000000   0.0000000   0.0000000   0.0000000   0.0000000   2.6288670   0.0000000
 AtZNuc=   6.0000000   9.0000000   6.0000000   6.0000000  16.0000000   6.0000000   6.0000000   6.0000000   9.0000000   6.0000000

  Atom        21          22          23          24          25          26          27          28          29          30
 IAtWgt=          12          16          12          12          12          12          19          12          12          32
 AtmWgt=  12.0000000  15.9949146  12.0000000  12.0000000  12.0000000  12.0000000  18.9984033  12.0000000  12.0000000  31.9720718
 NucSpn=           0           0           0           0           0           0           1           0           0           0
 AtZEff=  -0.0000000  -0.0000000  -0.0000000  -0.0000000  -0.0000000  -0.0000000  -0.0000000  -0.0000000  -0.0000000  -0.0000000
 NQMom=    0.0000000   0.0000000   0.0000000   0.0000000   0.0000000   0.0000000   0.0000000   0.0000000   0.0000000   0.0000000
 NMagM=    0.0000000   0.0000000   0.0000000   0.0000000   0.0000000   0.0000000   2.6288670   0.0000000   0.0000000   0.0000000
 AtZNuc=   6.0000000   8.0000000   6.0000000   6.0000000   6.0000000   6.0000000   9.0000000   6.0000000   6.0000000  16.0000000

  Atom        31          32          33          34          35          36          37          38          39          40
 IAtWgt=          12          12          12          19          12          12          16          12          12          12
 AtmWgt=  12.0000000  12.0000000  12.0000000  18.9984033  12.0000000  12.0000000  15.9949146  12.0000000  12.0000000  12.0000000
 NucSpn=           0           0           0           1           0           0           0           0           0           0
 AtZEff=  -0.0000000  -0.0000000  -0.0000000  -0.0000000  -0.0000000  -0.0000000  -0.0000000  -0.0000000  -0.0000000  -0.0000000
 NQMom=    0.0000000   0.0000000   0.0000000   0.0000000   0.0000000   0.0000000   0.0000000   0.0000000   0.0000000   0.0000000
 NMagM=    0.0000000   0.0000000   0.0000000   2.6288670   0.0000000   0.0000000   0.0000000   0.0000000   0.0000000   0.0000000
 AtZNuc=   6.0000000   6.0000000   6.0000000   9.0000000   6.0000000   6.0000000   8.0000000   6.0000000   6.0000000   6.0000000

  Atom        41          42          43          44          45          46          47          48          49          50
 IAtWgt=          12          19          12          12          32          12          12          12          19          12
 AtmWgt=  12.0000000  18.9984033  12.0000000  12.0000000  31.9720718  12.0000000  12.0000000  12.0000000  18.9984033  12.0000000
 NucSpn=           0           1           0           0           0           0           0           0           1           0
 AtZEff=  -0.0000000  -0.0000000  -0.0000000  -0.0000000  -0.0000000  -0.0000000  -0.0000000  -0.0000000  -0.0000000  -0.0000000
 NQMom=    0.0000000   0.0000000   0.0000000   0.0000000   0.0000000   0.0000000   0.0000000   0.0000000   0.0000000   0.0000000
 NMagM=    0.0000000   2.6288670   0.0000000   0.0000000   0.0000000   0.0000000   0.0000000   0.0000000   2.6288670   0.0000000
 AtZNuc=   6.0000000   9.0000000   6.0000000   6.0000000  16.0000000   6.0000000   6.0000000   6.0000000   9.0000000   6.0000000

  Atom        51          52          53          54          55          56          57          58          59          60
 IAtWgt=          12          16          12          12          12          12          19          12          12          32
 AtmWgt=  12.0000000  15.9949146  12.0000000  12.0000000  12.0000000  12.0000000  18.9984033  12.0000000  12.0000000  31.9720718
 NucSpn=           0           0           0           0           0           0           1           0           0           0
 AtZEff=  -0.0000000  -0.0000000  -0.0000000  -0.0000000  -0.0000000  -0.0000000  -0.0000000  -0.0000000  -0.0000000  -0.0000000
 NQMom=    0.0000000   0.0000000   0.0000000   0.0000000   0.0000000   0.0000000   0.0000000   0.0000000   0.0000000   0.0000000
 NMagM=    0.0000000   0.0000000   0.0000000   0.0000000   0.0000000   0.0000000   2.6288670   0.0000000   0.0000000   0.0000000
 AtZNuc=   6.0000000   8.0000000   6.0000000   6.0000000   6.0000000   6.0000000   9.0000000   6.0000000   6.0000000  16.0000000

  Atom        61          62          63          64          65          66          67          68          69          70
 IAtWgt=          12          12          12          19          12          12          16          12          12          12
 AtmWgt=  12.0000000  12.0000000  12.0000000  18.9984033  12.0000000  12.0000000  15.9949146  12.0000000  12.0000000  12.0000000
 NucSpn=           0           0           0           1           0           0           0           0           0           0
 AtZEff=  -0.0000000  -0.0000000  -0.0000000  -0.0000000  -0.0000000  -0.0000000  -0.0000000  -0.0000000  -0.0000000  -0.0000000
 NQMom=    0.0000000   0.0000000   0.0000000   0.0000000   0.0000000   0.0000000   0.0000000   0.0000000   0.0000000   0.0000000
 NMagM=    0.0000000   0.0000000   0.0000000   2.6288670   0.0000000   0.0000000   0.0000000   0.0000000   0.0000000   0.0000000
 AtZNuc=   6.0000000   6.0000000   6.0000000   9.0000000   6.0000000   6.0000000   8.0000000   6.0000000   6.0000000   6.0000000

  Atom        71          72          73          74          75          76          77          78          79          80
 IAtWgt=          12          19          12          12          32          12          12          12          19          12
 AtmWgt=  12.0000000  18.9984033  12.0000000  12.0000000  31.9720718  12.0000000  12.0000000  12.0000000  18.9984033  12.0000000
 NucSpn=           0           1           0           0           0           0           0           0           1           0
 AtZEff=  -0.0000000  -0.0000000  -0.0000000  -0.0000000  -0.0000000  -0.0000000  -0.0000000  -0.0000000  -0.0000000  -0.0000000
 NQMom=    0.0000000   0.0000000   0.0000000   0.0000000   0.0000000   0.0000000   0.0000000   0.0000000   0.0000000   0.0000000
 NMagM=    0.0000000   2.6288670   0.0000000   0.0000000   0.0000000   0.0000000   0.0000000   0.0000000   2.6288670   0.0000000
 AtZNuc=   6.0000000   9.0000000   6.0000000   6.0000000  16.0000000   6.0000000   6.0000000   6.0000000   9.0000000   6.0000000

  Atom        81          82          83          84          85          86          87          88          89          90
 IAtWgt=          12          16          12          12          12          12          19          12          12          32
 AtmWgt=  12.0000000  15.9949146  12.0000000  12.0000000  12.0000000  12.0000000  18.9984033  12.0000000  12.0000000  31.9720718
 NucSpn=           0           0           0           0           0           0           1           0           0           0
 AtZEff=  -0.0000000  -0.0000000  -0.0000000  -0.0000000  -0.0000000  -0.0000000  -0.0000000  -0.0000000  -0.0000000  -0.0000000
 NQMom=    0.0000000   0.0000000   0.0000000   0.0000000   0.0000000   0.0000000   0.0000000   0.0000000   0.0000000   0.0000000
 NMagM=    0.0000000   0.0000000   0.0000000   0.0000000   0.0000000   0.0000000   2.6288670   0.0000000   0.0000000   0.0000000
 AtZNuc=   6.0000000   8.0000000   6.0000000   6.0000000   6.0000000   6.0000000   9.0000000   6.0000000   6.0000000  16.0000000

  Atom        91          92          93          94          95          96          97          98          99         100
 IAtWgt=          12          12          12          19          12          12          16          12          12          12
 AtmWgt=  12.0000000  12.0000000  12.0000000  18.9984033  12.0000000  12.0000000  15.9949146  12.0000000  12.0000000  12.0000000
 NucSpn=           0           0           0           1           0           0           0           0           0           0
 AtZEff=  -0.0000000  -0.0000000  -0.0000000  -0.0000000  -0.0000000  -0.0000000  -0.0000000  -0.0000000  -0.0000000  -0.0000000
 NQMom=    0.0000000   0.0000000   0.0000000   0.0000000   0.0000000   0.0000000   0.0000000   0.0000000   0.0000000   0.0000000
 NMagM=    0.0000000   0.0000000   0.0000000   2.6288670   0.0000000   0.0000000   0.0000000   0.0000000   0.0000000   0.0000000
 AtZNuc=   6.0000000   6.0000000   6.0000000   9.0000000   6.0000000   6.0000000   8.0000000   6.0000000   6.0000000   6.0000000

  Atom       101         102         103         104         105         106         107         108         109         110
 IAtWgt=          12          19          12          12          32           1           1           1           1           1
 AtmWgt=  12.0000000  18.9984033  12.0000000  12.0000000  31.9720718   1.0078250   1.0078250   1.0078250   1.0078250   1.0078250
 NucSpn=           0           1           0           0           0           1           1           1           1           1
 AtZEff=  -0.0000000  -0.0000000  -0.0000000  -0.0000000  -0.0000000  -0.0000000  -0.0000000  -0.0000000  -0.0000000  -0.0000000
 NQMom=    0.0000000   0.0000000   0.0000000   0.0000000   0.0000000   0.0000000   0.0000000   0.0000000   0.0000000   0.0000000
 NMagM=    0.0000000   2.6288670   0.0000000   0.0000000   0.0000000   2.7928460   2.7928460   2.7928460   2.7928460   2.7928460
 AtZNuc=   6.0000000   9.0000000   6.0000000   6.0000000  16.0000000   1.0000000   1.0000000   1.0000000   1.0000000   1.0000000

  Atom       111         112         113         114         115         116         117         118         119         120
 IAtWgt=           1           1           1           1           1           1           1           1           1           1
 AtmWgt=   1.0078250   1.0078250   1.0078250   1.0078250   1.0078250   1.0078250   1.0078250   1.0078250   1.0078250   1.0078250
 NucSpn=           1           1           1           1           1           1           1           1           1           1
 AtZEff=  -0.0000000  -0.0000000  -0.0000000  -0.0000000  -0.0000000  -0.0000000  -0.0000000  -0.0000000  -0.0000000  -0.0000000
 NQMom=    0.0000000   0.0000000   0.0000000   0.0000000   0.0000000   0.0000000   0.0000000   0.0000000   0.0000000   0.0000000
 NMagM=    2.7928460   2.7928460   2.7928460   2.7928460   2.7928460   2.7928460   2.7928460   2.7928460   2.7928460   2.7928460
 AtZNuc=   1.0000000   1.0000000   1.0000000   1.0000000   1.0000000   1.0000000   1.0000000   1.0000000   1.0000000   1.0000000

  Atom       121         122         123         124         125         126         127         128         129         130
 IAtWgt=           1           1           1           1           1           1           1           1           1           1
 AtmWgt=   1.0078250   1.0078250   1.0078250   1.0078250   1.0078250   1.0078250   1.0078250   1.0078250   1.0078250   1.0078250
 NucSpn=           1           1           1           1           1           1           1           1           1           1
 AtZEff=  -0.0000000  -0.0000000  -0.0000000  -0.0000000  -0.0000000  -0.0000000  -0.0000000  -0.0000000  -0.0000000  -0.0000000
 NQMom=    0.0000000   0.0000000   0.0000000   0.0000000   0.0000000   0.0000000   0.0000000   0.0000000   0.0000000   0.0000000
 NMagM=    2.7928460   2.7928460   2.7928460   2.7928460   2.7928460   2.7928460   2.7928460   2.7928460   2.7928460   2.7928460
 AtZNuc=   1.0000000   1.0000000   1.0000000   1.0000000   1.0000000   1.0000000   1.0000000   1.0000000   1.0000000   1.0000000

  Atom       131         132         133         134         135         136         137         138         139         140
 IAtWgt=           1           1           1           1           1           1           1           1           1           1
 AtmWgt=   1.0078250   1.0078250   1.0078250   1.0078250   1.0078250   1.0078250   1.0078250   1.0078250   1.0078250   1.0078250
 NucSpn=           1           1           1           1           1           1           1           1           1           1
 AtZEff=  -0.0000000  -0.0000000  -0.0000000  -0.0000000  -0.0000000  -0.0000000  -0.0000000  -0.0000000  -0.0000000  -0.0000000
 NQMom=    0.0000000   0.0000000   0.0000000   0.0000000   0.0000000   0.0000000   0.0000000   0.0000000   0.0000000   0.0000000
 NMagM=    2.7928460   2.7928460   2.7928460   2.7928460   2.7928460   2.7928460   2.7928460   2.7928460   2.7928460   2.7928460
 AtZNuc=   1.0000000   1.0000000   1.0000000   1.0000000   1.0000000   1.0000000   1.0000000   1.0000000   1.0000000   1.0000000

  Atom       141         142         143         144         145         146         147         148         149
 IAtWgt=           1           1           1           1           1           1           1           1           1
 AtmWgt=   1.0078250   1.0078250   1.0078250   1.0078250   1.0078250   1.0078250   1.0078250   1.0078250   1.0078250
 NucSpn=           1           1           1           1           1           1           1           1           1
 AtZEff=  -0.0000000  -0.0000000  -0.0000000  -0.0000000  -0.0000000  -0.0000000  -0.0000000  -0.0000000  -0.0000000
 NQMom=    0.0000000   0.0000000   0.0000000   0.0000000   0.0000000   0.0000000   0.0000000   0.0000000   0.0000000
 NMagM=    2.7928460   2.7928460   2.7928460   2.7928460   2.7928460   2.7928460   2.7928460   2.7928460   2.7928460
 AtZNuc=   1.0000000   1.0000000   1.0000000   1.0000000   1.0000000   1.0000000   1.0000000   1.0000000   1.0000000
 Leave Link  101 at Sat Jul 25 04:07:24 2020, MaxMem=  4026531840 cpu:               3.5 elap:               0.5
 (Enter /opt/ohpc/pub/libs/gaussian/g16-A.03/sandybridge/g16/l103.exe)

 GradGradGradGradGradGradGradGradGradGradGradGradGradGradGradGradGradGrad
 Berny optimization.
 Initialization pass.
                           ----------------------------
                           !    Initial Parameters    !
                           ! (Angstroms and Degrees)  !
 --------------------------                            --------------------------
 ! Name  Definition              Value          Derivative Info.                !
 --------------------------------------------------------------------------------
 ! R1    R(1,2)                  1.4321         estimate D2E/DX2                !
 ! R2    R(1,9)                  1.4645         estimate D2E/DX2                !
 ! R3    R(1,106)                1.0029         estimate D2E/DX2                !
 ! R4    R(2,3)                  1.3573         estimate D2E/DX2                !
 ! R5    R(2,107)                1.1336         estimate D2E/DX2                !
 ! R6    R(3,4)                  1.2948         estimate D2E/DX2                !
 ! R7    R(3,5)                  1.4328         estimate D2E/DX2                !
 ! R8    R(5,6)                  1.4145         estimate D2E/DX2                !
 ! R9    R(5,10)                 1.437          estimate D2E/DX2                !
 ! R10   R(6,7)                  1.3836         estimate D2E/DX2                !
 ! R11   R(6,9)                  1.4011         estimate D2E/DX2                !
 ! R12   R(7,8)                  1.3387         estimate D2E/DX2                !
 ! R13   R(8,108)                1.0966         estimate D2E/DX2                !
 ! R14   R(8,109)                1.0573         estimate D2E/DX2                !
 ! R15   R(8,110)                1.1291         estimate D2E/DX2                !
 ! R16   R(9,111)                1.128          estimate D2E/DX2                !
 ! R17   R(10,11)                1.336          estimate D2E/DX2                !
 ! R18   R(10,15)                1.7864         estimate D2E/DX2                !
 ! R19   R(11,12)                1.4148         estimate D2E/DX2                !
 ! R20   R(11,13)                1.4174         estimate D2E/DX2                !
 ! R21   R(13,14)                1.4559         estimate D2E/DX2                !
 ! R22   R(13,112)               0.9891         estimate D2E/DX2                !
 ! R23   R(14,15)                1.6853         estimate D2E/DX2                !
 ! R24   R(14,16)                1.5016         estimate D2E/DX2                !
 ! R25   R(16,17)                1.3145         estimate D2E/DX2                !
 ! R26   R(16,24)                1.438          estimate D2E/DX2                !
 ! R27   R(17,18)                1.4219         estimate D2E/DX2                !
 ! R28   R(17,113)               1.1145         estimate D2E/DX2                !
 ! R29   R(18,19)                1.3151         estimate D2E/DX2                !
 ! R30   R(18,20)                1.3881         estimate D2E/DX2                !
 ! R31   R(20,21)                1.3617         estimate D2E/DX2                !
 ! R32   R(20,25)                1.45           estimate D2E/DX2                !
 ! R33   R(21,22)                1.3473         estimate D2E/DX2                !
 ! R34   R(21,24)                1.4816         estimate D2E/DX2                !
 ! R35   R(22,23)                1.4701         estimate D2E/DX2                !
 ! R36   R(23,114)               1.0461         estimate D2E/DX2                !
 ! R37   R(23,115)               1.0347         estimate D2E/DX2                !
 ! R38   R(23,116)               1.116          estimate D2E/DX2                !
 ! R39   R(24,117)               1.0366         estimate D2E/DX2                !
 ! R40   R(25,26)                1.3842         estimate D2E/DX2                !
 ! R41   R(25,30)                1.7355         estimate D2E/DX2                !
 ! R42   R(26,27)                1.3396         estimate D2E/DX2                !
 ! R43   R(26,28)                1.4216         estimate D2E/DX2                !
 ! R44   R(28,29)                1.3967         estimate D2E/DX2                !
 ! R45   R(28,118)               1.1615         estimate D2E/DX2                !
 ! R46   R(29,30)                1.7433         estimate D2E/DX2                !
 ! R47   R(29,31)                1.4586         estimate D2E/DX2                !
 ! R48   R(31,32)                1.3577         estimate D2E/DX2                !
 ! R49   R(31,39)                1.3827         estimate D2E/DX2                !
 ! R50   R(32,33)                1.4095         estimate D2E/DX2                !
 ! R51   R(32,119)               1.1543         estimate D2E/DX2                !
 ! R52   R(33,34)                1.2623         estimate D2E/DX2                !
 ! R53   R(33,35)                1.3653         estimate D2E/DX2                !
 ! R54   R(35,36)                1.4274         estimate D2E/DX2                !
 ! R55   R(35,40)                1.4183         estimate D2E/DX2                !
 ! R56   R(36,37)                1.3878         estimate D2E/DX2                !
 ! R57   R(36,39)                1.4703         estimate D2E/DX2                !
 ! R58   R(37,38)                1.4009         estimate D2E/DX2                !
 ! R59   R(38,120)               1.1668         estimate D2E/DX2                !
 ! R60   R(38,121)               1.0953         estimate D2E/DX2                !
 ! R61   R(38,122)               1.1415         estimate D2E/DX2                !
 ! R62   R(39,123)               1.0521         estimate D2E/DX2                !
 ! R63   R(40,41)                1.3754         estimate D2E/DX2                !
 ! R64   R(40,45)                1.7846         estimate D2E/DX2                !
 ! R65   R(41,42)                1.4014         estimate D2E/DX2                !
 ! R66   R(41,43)                1.3395         estimate D2E/DX2                !
 ! R67   R(43,44)                1.3679         estimate D2E/DX2                !
 ! R68   R(43,124)               1.1038         estimate D2E/DX2                !
 ! R69   R(44,45)                1.7237         estimate D2E/DX2                !
 ! R70   R(44,46)                1.5046         estimate D2E/DX2                !
 ! R71   R(46,47)                1.3359         estimate D2E/DX2                !
 ! R72   R(46,54)                1.3919         estimate D2E/DX2                !
 ! R73   R(47,48)                1.3867         estimate D2E/DX2                !
 ! R74   R(47,125)               1.068          estimate D2E/DX2                !
 ! R75   R(48,49)                1.3555         estimate D2E/DX2                !
 ! R76   R(48,50)                1.402          estimate D2E/DX2                !
 ! R77   R(50,51)                1.4128         estimate D2E/DX2                !
 ! R78   R(50,55)                1.5444         estimate D2E/DX2                !
 ! R79   R(51,52)                1.3011         estimate D2E/DX2                !
 ! R80   R(51,54)                1.4632         estimate D2E/DX2                !
 ! R81   R(52,53)                1.3734         estimate D2E/DX2                !
 ! R82   R(53,126)               1.1399         estimate D2E/DX2                !
 ! R83   R(53,127)               1.0937         estimate D2E/DX2                !
 ! R84   R(53,128)               1.0975         estimate D2E/DX2                !
 ! R85   R(54,129)               1.1313         estimate D2E/DX2                !
 ! R86   R(55,56)                1.3129         estimate D2E/DX2                !
 ! R87   R(55,60)                1.728          estimate D2E/DX2                !
 ! R88   R(56,57)                1.3666         estimate D2E/DX2                !
 ! R89   R(56,58)                1.4708         estimate D2E/DX2                !
 ! R90   R(58,59)                1.3452         estimate D2E/DX2                !
 ! R91   R(58,130)               1.0704         estimate D2E/DX2                !
 ! R92   R(59,60)                1.7953         estimate D2E/DX2                !
 ! R93   R(59,61)                1.4369         estimate D2E/DX2                !
 ! R94   R(61,62)                1.4321         estimate D2E/DX2                !
 ! R95   R(61,69)                1.4145         estimate D2E/DX2                !
 ! R96   R(62,63)                1.3907         estimate D2E/DX2                !
 ! R97   R(62,131)               1.0417         estimate D2E/DX2                !
 ! R98   R(63,64)                1.3423         estimate D2E/DX2                !
 ! R99   R(63,65)                1.3969         estimate D2E/DX2                !
 ! R100  R(65,66)                1.3599         estimate D2E/DX2                !
 ! R101  R(65,70)                1.4809         estimate D2E/DX2                !
 ! R102  R(66,67)                1.3286         estimate D2E/DX2                !
 ! R103  R(66,69)                1.4121         estimate D2E/DX2                !
 ! R104  R(67,68)                1.4056         estimate D2E/DX2                !
 ! R105  R(68,132)               1.1069         estimate D2E/DX2                !
 ! R106  R(68,133)               1.1812         estimate D2E/DX2                !
 ! R107  R(68,134)               1.0809         estimate D2E/DX2                !
 ! R108  R(69,135)               1.1425         estimate D2E/DX2                !
 ! R109  R(70,71)                1.3876         estimate D2E/DX2                !
 ! R110  R(70,75)                1.701          estimate D2E/DX2                !
 ! R111  R(71,72)                1.2836         estimate D2E/DX2                !
 ! R112  R(71,73)                1.435          estimate D2E/DX2                !
 ! R113  R(73,74)                1.3915         estimate D2E/DX2                !
 ! R114  R(73,136)               1.1625         estimate D2E/DX2                !
 ! R115  R(74,75)                1.7209         estimate D2E/DX2                !
 ! R116  R(74,76)                1.4295         estimate D2E/DX2                !
 ! R117  R(76,77)                1.4384         estimate D2E/DX2                !
 ! R118  R(76,84)                1.414          estimate D2E/DX2                !
 ! R119  R(77,78)                1.411          estimate D2E/DX2                !
 ! R120  R(77,137)               1.0932         estimate D2E/DX2                !
 ! R121  R(78,79)                1.3527         estimate D2E/DX2                !
 ! R122  R(78,80)                1.3955         estimate D2E/DX2                !
 ! R123  R(80,81)                1.3492         estimate D2E/DX2                !
 ! R124  R(80,85)                1.5162         estimate D2E/DX2                !
 ! R125  R(81,82)                1.3756         estimate D2E/DX2                !
 ! R126  R(81,84)                1.4336         estimate D2E/DX2                !
 ! R127  R(82,83)                1.4506         estimate D2E/DX2                !
 ! R128  R(83,138)               1.0748         estimate D2E/DX2                !
 ! R129  R(83,139)               1.0523         estimate D2E/DX2                !
 ! R130  R(83,140)               1.1628         estimate D2E/DX2                !
 ! R131  R(84,141)               1.0096         estimate D2E/DX2                !
 ! R132  R(85,86)                1.4256         estimate D2E/DX2                !
 ! R133  R(85,90)                1.703          estimate D2E/DX2                !
 ! R134  R(86,87)                1.3199         estimate D2E/DX2                !
 ! R135  R(86,88)                1.3221         estimate D2E/DX2                !
 ! R136  R(88,89)                1.4049         estimate D2E/DX2                !
 ! R137  R(88,142)               1.1643         estimate D2E/DX2                !
 ! R138  R(89,90)                1.7196         estimate D2E/DX2                !
 ! R139  R(89,91)                1.4549         estimate D2E/DX2                !
 ! R140  R(91,92)                1.3768         estimate D2E/DX2                !
 ! R141  R(91,99)                1.3816         estimate D2E/DX2                !
 ! R142  R(92,93)                1.3873         estimate D2E/DX2                !
 ! R143  R(92,143)               1.1758         estimate D2E/DX2                !
 ! R144  R(93,94)                1.388          estimate D2E/DX2                !
 ! R145  R(93,95)                1.3766         estimate D2E/DX2                !
 ! R146  R(95,96)                1.4331         estimate D2E/DX2                !
 ! R147  R(95,100)               1.4691         estimate D2E/DX2                !
 ! R148  R(96,97)                1.4049         estimate D2E/DX2                !
 ! R149  R(96,99)                1.3687         estimate D2E/DX2                !
 ! R150  R(97,98)                1.3621         estimate D2E/DX2                !
 ! R151  R(98,144)               1.0582         estimate D2E/DX2                !
 ! R152  R(98,145)               1.1868         estimate D2E/DX2                !
 ! R153  R(98,146)               1.1113         estimate D2E/DX2                !
 ! R154  R(99,147)               1.1225         estimate D2E/DX2                !
 ! R155  R(100,101)              1.3984         estimate D2E/DX2                !
 ! R156  R(100,105)              1.7077         estimate D2E/DX2                !
 ! R157  R(101,102)              1.3146         estimate D2E/DX2                !
 ! R158  R(101,103)              1.3936         estimate D2E/DX2                !
 ! R159  R(103,104)              1.3805         estimate D2E/DX2                !
 ! R160  R(103,148)              1.0291         estimate D2E/DX2                !
 ! R161  R(104,105)              1.7838         estimate D2E/DX2                !
 ! R162  R(104,149)              1.086          estimate D2E/DX2                !
 ! A1    A(2,1,9)              114.0342         estimate D2E/DX2                !
 ! A2    A(2,1,106)            121.6989         estimate D2E/DX2                !
 ! A3    A(9,1,106)            124.1971         estimate D2E/DX2                !
 ! A4    A(1,2,3)              124.8559         estimate D2E/DX2                !
 ! A5    A(1,2,107)            113.9802         estimate D2E/DX2                !
 ! A6    A(3,2,107)            121.0611         estimate D2E/DX2                !
 ! A7    A(2,3,4)              120.0806         estimate D2E/DX2                !
 ! A8    A(2,3,5)              119.9295         estimate D2E/DX2                !
 ! A9    A(4,3,5)              119.9781         estimate D2E/DX2                !
 ! A10   A(3,5,6)              118.701          estimate D2E/DX2                !
 ! A11   A(3,5,10)             119.2309         estimate D2E/DX2                !
 ! A12   A(6,5,10)             121.8419         estimate D2E/DX2                !
 ! A13   A(5,6,7)              121.0161         estimate D2E/DX2                !
 ! A14   A(5,6,9)              120.4923         estimate D2E/DX2                !
 ! A15   A(7,6,9)              118.4897         estimate D2E/DX2                !
 ! A16   A(6,7,8)              120.5384         estimate D2E/DX2                !
 ! A17   A(7,8,108)            108.9202         estimate D2E/DX2                !
 ! A18   A(7,8,109)            111.4877         estimate D2E/DX2                !
 ! A19   A(7,8,110)            113.6873         estimate D2E/DX2                !
 ! A20   A(108,8,109)          103.8651         estimate D2E/DX2                !
 ! A21   A(108,8,110)          102.759          estimate D2E/DX2                !
 ! A22   A(109,8,110)          115.0673         estimate D2E/DX2                !
 ! A23   A(1,9,6)              121.8436         estimate D2E/DX2                !
 ! A24   A(1,9,111)            111.0691         estimate D2E/DX2                !
 ! A25   A(6,9,111)            127.0618         estimate D2E/DX2                !
 ! A26   A(5,10,11)            132.7358         estimate D2E/DX2                !
 ! A27   A(5,10,15)            117.9109         estimate D2E/DX2                !
 ! A28   A(11,10,15)           109.3488         estimate D2E/DX2                !
 ! A29   A(10,11,12)           121.4279         estimate D2E/DX2                !
 ! A30   A(10,11,13)           118.1325         estimate D2E/DX2                !
 ! A31   A(12,11,13)           120.2383         estimate D2E/DX2                !
 ! A32   A(11,13,14)           107.1048         estimate D2E/DX2                !
 ! A33   A(11,13,112)          125.6058         estimate D2E/DX2                !
 ! A34   A(14,13,112)          127.2848         estimate D2E/DX2                !
 ! A35   A(13,14,15)           113.8236         estimate D2E/DX2                !
 ! A36   A(13,14,16)           125.5909         estimate D2E/DX2                !
 ! A37   A(15,14,16)           120.5199         estimate D2E/DX2                !
 ! A38   A(10,15,14)            91.3678         estimate D2E/DX2                !
 ! A39   A(14,16,17)           121.5586         estimate D2E/DX2                !
 ! A40   A(14,16,24)           116.9815         estimate D2E/DX2                !
 ! A41   A(17,16,24)           121.2891         estimate D2E/DX2                !
 ! A42   A(16,17,18)           122.418          estimate D2E/DX2                !
 ! A43   A(16,17,113)          119.528          estimate D2E/DX2                !
 ! A44   A(18,17,113)          118.0521         estimate D2E/DX2                !
 ! A45   A(17,18,19)           119.1624         estimate D2E/DX2                !
 ! A46   A(17,18,20)           118.5868         estimate D2E/DX2                !
 ! A47   A(19,18,20)           122.1432         estimate D2E/DX2                !
 ! A48   A(18,20,21)           121.2959         estimate D2E/DX2                !
 ! A49   A(18,20,25)           115.3052         estimate D2E/DX2                !
 ! A50   A(21,20,25)           122.3209         estimate D2E/DX2                !
 ! A51   A(20,21,22)           119.3472         estimate D2E/DX2                !
 ! A52   A(20,21,24)           119.6205         estimate D2E/DX2                !
 ! A53   A(22,21,24)           120.8707         estimate D2E/DX2                !
 ! A54   A(21,22,23)           118.4388         estimate D2E/DX2                !
 ! A55   A(22,23,114)          110.5654         estimate D2E/DX2                !
 ! A56   A(22,23,115)          109.2966         estimate D2E/DX2                !
 ! A57   A(22,23,116)          103.0076         estimate D2E/DX2                !
 ! A58   A(114,23,115)         113.735          estimate D2E/DX2                !
 ! A59   A(114,23,116)         108.8252         estimate D2E/DX2                !
 ! A60   A(115,23,116)         110.8824         estimate D2E/DX2                !
 ! A61   A(16,24,21)           116.2033         estimate D2E/DX2                !
 ! A62   A(16,24,117)          120.4668         estimate D2E/DX2                !
 ! A63   A(21,24,117)          123.284          estimate D2E/DX2                !
 ! A64   A(20,25,26)           127.9811         estimate D2E/DX2                !
 ! A65   A(20,25,30)           121.7596         estimate D2E/DX2                !
 ! A66   A(26,25,30)           109.7373         estimate D2E/DX2                !
 ! A67   A(25,26,27)           126.167          estimate D2E/DX2                !
 ! A68   A(25,26,28)           112.0295         estimate D2E/DX2                !
 ! A69   A(27,26,28)           121.0129         estimate D2E/DX2                !
 ! A70   A(26,28,29)           116.0441         estimate D2E/DX2                !
 ! A71   A(26,28,118)          121.0496         estimate D2E/DX2                !
 ! A72   A(29,28,118)          122.8072         estimate D2E/DX2                !
 ! A73   A(28,29,30)           106.9617         estimate D2E/DX2                !
 ! A74   A(28,29,31)           132.2217         estimate D2E/DX2                !
 ! A75   A(30,29,31)           120.8165         estimate D2E/DX2                !
 ! A76   A(25,30,29)            94.6323         estimate D2E/DX2                !
 ! A77   A(29,31,32)           124.3065         estimate D2E/DX2                !
 ! A78   A(29,31,39)           116.3474         estimate D2E/DX2                !
 ! A79   A(32,31,39)           118.8853         estimate D2E/DX2                !
 ! A80   A(31,32,33)           124.4166         estimate D2E/DX2                !
 ! A81   A(31,32,119)          117.8458         estimate D2E/DX2                !
 ! A82   A(33,32,119)          117.7199         estimate D2E/DX2                !
 ! A83   A(32,33,34)           119.8932         estimate D2E/DX2                !
 ! A84   A(32,33,35)           118.0486         estimate D2E/DX2                !
 ! A85   A(34,33,35)           121.9409         estimate D2E/DX2                !
 ! A86   A(33,35,36)           120.8795         estimate D2E/DX2                !
 ! A87   A(33,35,40)           120.0769         estimate D2E/DX2                !
 ! A88   A(36,35,40)           118.4131         estimate D2E/DX2                !
 ! A89   A(35,36,37)           121.9932         estimate D2E/DX2                !
 ! A90   A(35,36,39)           118.1176         estimate D2E/DX2                !
 ! A91   A(37,36,39)           119.8677         estimate D2E/DX2                !
 ! A92   A(36,37,38)           114.0464         estimate D2E/DX2                !
 ! A93   A(37,38,120)          112.6455         estimate D2E/DX2                !
 ! A94   A(37,38,121)          112.7138         estimate D2E/DX2                !
 ! A95   A(37,38,122)          107.59           estimate D2E/DX2                !
 ! A96   A(120,38,121)         111.0412         estimate D2E/DX2                !
 ! A97   A(120,38,122)         103.5758         estimate D2E/DX2                !
 ! A98   A(121,38,122)         108.737          estimate D2E/DX2                !
 ! A99   A(31,39,36)           119.2558         estimate D2E/DX2                !
 ! A100  A(31,39,123)          121.8887         estimate D2E/DX2                !
 ! A101  A(36,39,123)          118.053          estimate D2E/DX2                !
 ! A102  A(35,40,41)           133.9337         estimate D2E/DX2                !
 ! A103  A(35,40,45)           120.9182         estimate D2E/DX2                !
 ! A104  A(41,40,45)           105.1105         estimate D2E/DX2                !
 ! A105  A(40,41,42)           121.3905         estimate D2E/DX2                !
 ! A106  A(40,41,43)           118.7013         estimate D2E/DX2                !
 ! A107  A(42,41,43)           119.8899         estimate D2E/DX2                !
 ! A108  A(41,43,44)           113.089          estimate D2E/DX2                !
 ! A109  A(41,43,124)          125.1255         estimate D2E/DX2                !
 ! A110  A(44,43,124)          121.6573         estimate D2E/DX2                !
 ! A111  A(43,44,45)           110.2086         estimate D2E/DX2                !
 ! A112  A(43,44,46)           132.8739         estimate D2E/DX2                !
 ! A113  A(45,44,46)           116.7578         estimate D2E/DX2                !
 ! A114  A(40,45,44)            92.689          estimate D2E/DX2                !
 ! A115  A(44,46,47)           125.5221         estimate D2E/DX2                !
 ! A116  A(44,46,54)           113.4908         estimate D2E/DX2                !
 ! A117  A(47,46,54)           120.9101         estimate D2E/DX2                !
 ! A118  A(46,47,48)           120.8489         estimate D2E/DX2                !
 ! A119  A(46,47,125)          120.6196         estimate D2E/DX2                !
 ! A120  A(48,47,125)          118.3685         estimate D2E/DX2                !
 ! A121  A(47,48,49)           122.2246         estimate D2E/DX2                !
 ! A122  A(47,48,50)           120.1002         estimate D2E/DX2                !
 ! A123  A(49,48,50)           117.3114         estimate D2E/DX2                !
 ! A124  A(48,50,51)           121.722          estimate D2E/DX2                !
 ! A125  A(48,50,55)           119.2363         estimate D2E/DX2                !
 ! A126  A(51,50,55)           118.6798         estimate D2E/DX2                !
 ! A127  A(50,51,52)           122.366          estimate D2E/DX2                !
 ! A128  A(50,51,54)           114.526          estimate D2E/DX2                !
 ! A129  A(52,51,54)           123.1034         estimate D2E/DX2                !
 ! A130  A(51,52,53)           118.5391         estimate D2E/DX2                !
 ! A131  A(52,53,126)          114.1201         estimate D2E/DX2                !
 ! A132  A(52,53,127)          111.7319         estimate D2E/DX2                !
 ! A133  A(52,53,128)          108.737          estimate D2E/DX2                !
 ! A134  A(126,53,127)         111.8627         estimate D2E/DX2                !
 ! A135  A(126,53,128)         101.925          estimate D2E/DX2                !
 ! A136  A(127,53,128)         107.7813         estimate D2E/DX2                !
 ! A137  A(46,54,51)           121.3599         estimate D2E/DX2                !
 ! A138  A(46,54,129)          124.4285         estimate D2E/DX2                !
 ! A139  A(51,54,129)          114.1496         estimate D2E/DX2                !
 ! A140  A(50,55,56)           128.197          estimate D2E/DX2                !
 ! A141  A(50,55,60)           116.8993         estimate D2E/DX2                !
 ! A142  A(56,55,60)           114.9036         estimate D2E/DX2                !
 ! A143  A(55,56,57)           126.1772         estimate D2E/DX2                !
 ! A144  A(55,56,58)           111.7672         estimate D2E/DX2                !
 ! A145  A(57,56,58)           121.5323         estimate D2E/DX2                !
 ! A146  A(56,58,59)           112.8813         estimate D2E/DX2                !
 ! A147  A(56,58,130)          121.1976         estimate D2E/DX2                !
 ! A148  A(59,58,130)          125.8753         estimate D2E/DX2                !
 ! A149  A(58,59,60)           110.7168         estimate D2E/DX2                !
 ! A150  A(58,59,61)           133.4998         estimate D2E/DX2                !
 ! A151  A(60,59,61)           115.7679         estimate D2E/DX2                !
 ! A152  A(55,60,59)            89.56           estimate D2E/DX2                !
 ! A153  A(59,61,62)           122.8994         estimate D2E/DX2                !
 ! A154  A(59,61,69)           120.2565         estimate D2E/DX2                !
 ! A155  A(62,61,69)           116.2594         estimate D2E/DX2                !
 ! A156  A(61,62,63)           118.0218         estimate D2E/DX2                !
 ! A157  A(61,62,131)          119.2876         estimate D2E/DX2                !
 ! A158  A(63,62,131)          122.6023         estimate D2E/DX2                !
 ! A159  A(62,63,64)           112.792          estimate D2E/DX2                !
 ! A160  A(62,63,65)           124.3453         estimate D2E/DX2                !
 ! A161  A(64,63,65)           122.8033         estimate D2E/DX2                !
 ! A162  A(63,65,66)           118.4275         estimate D2E/DX2                !
 ! A163  A(63,65,70)           117.7192         estimate D2E/DX2                !
 ! A164  A(66,65,70)           123.6888         estimate D2E/DX2                !
 ! A165  A(65,66,67)           118.6433         estimate D2E/DX2                !
 ! A166  A(65,66,69)           119.1452         estimate D2E/DX2                !
 ! A167  A(67,66,69)           121.8983         estimate D2E/DX2                !
 ! A168  A(66,67,68)           121.5544         estimate D2E/DX2                !
 ! A169  A(67,68,132)          112.4702         estimate D2E/DX2                !
 ! A170  A(67,68,133)          107.428          estimate D2E/DX2                !
 ! A171  A(67,68,134)          112.3977         estimate D2E/DX2                !
 ! A172  A(132,68,133)         101.7102         estimate D2E/DX2                !
 ! A173  A(132,68,134)         109.0368         estimate D2E/DX2                !
 ! A174  A(133,68,134)         113.3648         estimate D2E/DX2                !
 ! A175  A(61,69,66)           123.4744         estimate D2E/DX2                !
 ! A176  A(61,69,135)          115.0397         estimate D2E/DX2                !
 ! A177  A(66,69,135)          121.4562         estimate D2E/DX2                !
 ! A178  A(65,70,71)           123.8451         estimate D2E/DX2                !
 ! A179  A(65,70,75)           120.5917         estimate D2E/DX2                !
 ! A180  A(71,70,75)           115.5613         estimate D2E/DX2                !
 ! A181  A(70,71,72)           129.8012         estimate D2E/DX2                !
 ! A182  A(70,71,73)           107.8558         estimate D2E/DX2                !
 ! A183  A(72,71,73)           122.326          estimate D2E/DX2                !
 ! A184  A(71,73,74)           114.6425         estimate D2E/DX2                !
 ! A185  A(71,73,136)          121.2759         estimate D2E/DX2                !
 ! A186  A(74,73,136)          124.0786         estimate D2E/DX2                !
 ! A187  A(73,74,75)           110.7883         estimate D2E/DX2                !
 ! A188  A(73,74,76)           127.318          estimate D2E/DX2                !
 ! A189  A(75,74,76)           121.7372         estimate D2E/DX2                !
 ! A190  A(70,75,74)            91.0547         estimate D2E/DX2                !
 ! A191  A(74,76,77)           121.7592         estimate D2E/DX2                !
 ! A192  A(74,76,84)           121.2347         estimate D2E/DX2                !
 ! A193  A(77,76,84)           116.7495         estimate D2E/DX2                !
 ! A194  A(76,77,78)           122.1197         estimate D2E/DX2                !
 ! A195  A(76,77,137)          116.9942         estimate D2E/DX2                !
 ! A196  A(78,77,137)          120.1647         estimate D2E/DX2                !
 ! A197  A(77,78,79)           119.5489         estimate D2E/DX2                !
 ! A198  A(77,78,80)           118.2489         estimate D2E/DX2                !
 ! A199  A(79,78,80)           121.5487         estimate D2E/DX2                !
 ! A200  A(78,80,81)           121.0693         estimate D2E/DX2                !
 ! A201  A(78,80,85)           116.1965         estimate D2E/DX2                !
 ! A202  A(81,80,85)           122.7342         estimate D2E/DX2                !
 ! A203  A(80,81,82)           116.9516         estimate D2E/DX2                !
 ! A204  A(80,81,84)           121.9706         estimate D2E/DX2                !
 ! A205  A(82,81,84)           121.0743         estimate D2E/DX2                !
 ! A206  A(81,82,83)           115.042          estimate D2E/DX2                !
 ! A207  A(82,83,138)          111.0874         estimate D2E/DX2                !
 ! A208  A(82,83,139)          111.872          estimate D2E/DX2                !
 ! A209  A(82,83,140)          112.3987         estimate D2E/DX2                !
 ! A210  A(138,83,139)         106.0504         estimate D2E/DX2                !
 ! A211  A(138,83,140)         108.4599         estimate D2E/DX2                !
 ! A212  A(139,83,140)         106.6532         estimate D2E/DX2                !
 ! A213  A(76,84,81)           119.3465         estimate D2E/DX2                !
 ! A214  A(76,84,141)          121.3124         estimate D2E/DX2                !
 ! A215  A(81,84,141)          119.3144         estimate D2E/DX2                !
 ! A216  A(80,85,86)           126.8046         estimate D2E/DX2                !
 ! A217  A(80,85,90)           122.6183         estimate D2E/DX2                !
 ! A218  A(86,85,90)           110.4134         estimate D2E/DX2                !
 ! A219  A(85,86,87)           122.2531         estimate D2E/DX2                !
 ! A220  A(85,86,88)           113.7331         estimate D2E/DX2                !
 ! A221  A(87,86,88)           123.919          estimate D2E/DX2                !
 ! A222  A(86,88,89)           113.2263         estimate D2E/DX2                !
 ! A223  A(86,88,142)          125.9635         estimate D2E/DX2                !
 ! A224  A(89,88,142)          120.7528         estimate D2E/DX2                !
 ! A225  A(88,89,90)           111.0699         estimate D2E/DX2                !
 ! A226  A(88,89,91)           129.0201         estimate D2E/DX2                !
 ! A227  A(90,89,91)           119.8639         estimate D2E/DX2                !
 ! A228  A(85,90,89)            91.4381         estimate D2E/DX2                !
 ! A229  A(89,91,92)           122.1544         estimate D2E/DX2                !
 ! A230  A(89,91,99)           123.9454         estimate D2E/DX2                !
 ! A231  A(92,91,99)           113.6615         estimate D2E/DX2                !
 ! A232  A(91,92,93)           123.8251         estimate D2E/DX2                !
 ! A233  A(91,92,143)          120.346          estimate D2E/DX2                !
 ! A234  A(93,92,143)          115.8274         estimate D2E/DX2                !
 ! A235  A(92,93,94)           119.437          estimate D2E/DX2                !
 ! A236  A(92,93,95)           123.1381         estimate D2E/DX2                !
 ! A237  A(94,93,95)           116.8929         estimate D2E/DX2                !
 ! A238  A(93,95,96)           112.9065         estimate D2E/DX2                !
 ! A239  A(93,95,100)          123.2609         estimate D2E/DX2                !
 ! A240  A(96,95,100)          123.7911         estimate D2E/DX2                !
 ! A241  A(95,96,97)           117.424          estimate D2E/DX2                !
 ! A242  A(95,96,99)           122.4583         estimate D2E/DX2                !
 ! A243  A(97,96,99)           119.8749         estimate D2E/DX2                !
 ! A244  A(96,97,98)           111.8742         estimate D2E/DX2                !
 ! A245  A(97,98,144)          113.8063         estimate D2E/DX2                !
 ! A246  A(97,98,145)          108.3032         estimate D2E/DX2                !
 ! A247  A(97,98,146)          110.0373         estimate D2E/DX2                !
 ! A248  A(144,98,145)         103.734          estimate D2E/DX2                !
 ! A249  A(144,98,146)         114.3954         estimate D2E/DX2                !
 ! A250  A(145,98,146)         105.8887         estimate D2E/DX2                !
 ! A251  A(91,99,96)           123.6342         estimate D2E/DX2                !
 ! A252  A(91,99,147)          117.7614         estimate D2E/DX2                !
 ! A253  A(96,99,147)          118.4796         estimate D2E/DX2                !
 ! A254  A(95,100,101)         126.0402         estimate D2E/DX2                !
 ! A255  A(95,100,105)         118.682          estimate D2E/DX2                !
 ! A256  A(101,100,105)        115.2698         estimate D2E/DX2                !
 ! A257  A(100,101,102)        126.4031         estimate D2E/DX2                !
 ! A258  A(100,101,103)        111.2292         estimate D2E/DX2                !
 ! A259  A(102,101,103)        122.2836         estimate D2E/DX2                !
 ! A260  A(101,103,104)        112.5569         estimate D2E/DX2                !
 ! A261  A(101,103,148)        124.5659         estimate D2E/DX2                !
 ! A262  A(104,103,148)        122.5547         estimate D2E/DX2                !
 ! A263  A(103,104,105)        112.7143         estimate D2E/DX2                !
 ! A264  A(103,104,149)        133.5092         estimate D2E/DX2                !
 ! A265  A(105,104,149)        113.7705         estimate D2E/DX2                !
 ! A266  A(100,105,104)         88.1893         estimate D2E/DX2                !
 ! D1    D(9,1,2,3)             -4.0603         estimate D2E/DX2                !
 ! D2    D(9,1,2,107)          179.6086         estimate D2E/DX2                !
 ! D3    D(106,1,2,3)          178.8551         estimate D2E/DX2                !
 ! D4    D(106,1,2,107)          2.5241         estimate D2E/DX2                !
 ! D5    D(2,1,9,6)              2.8571         estimate D2E/DX2                !
 ! D6    D(2,1,9,111)         -178.8575         estimate D2E/DX2                !
 ! D7    D(106,1,9,6)          179.858          estimate D2E/DX2                !
 ! D8    D(106,1,9,111)         -1.8567         estimate D2E/DX2                !
 ! D9    D(1,2,3,4)           -179.3238         estimate D2E/DX2                !
 ! D10   D(1,2,3,5)              1.9281         estimate D2E/DX2                !
 ! D11   D(107,2,3,4)           -3.2376         estimate D2E/DX2                !
 ! D12   D(107,2,3,5)          178.0143         estimate D2E/DX2                !
 ! D13   D(2,3,5,6)              1.6274         estimate D2E/DX2                !
 ! D14   D(2,3,5,10)           176.2652         estimate D2E/DX2                !
 ! D15   D(4,3,5,6)           -177.1219         estimate D2E/DX2                !
 ! D16   D(4,3,5,10)            -2.4842         estimate D2E/DX2                !
 ! D17   D(3,5,6,7)            176.813          estimate D2E/DX2                !
 ! D18   D(3,5,6,9)             -2.6786         estimate D2E/DX2                !
 ! D19   D(10,5,6,7)             2.3218         estimate D2E/DX2                !
 ! D20   D(10,5,6,9)          -177.1698         estimate D2E/DX2                !
 ! D21   D(3,5,10,11)          -66.5996         estimate D2E/DX2                !
 ! D22   D(3,5,10,15)          112.5263         estimate D2E/DX2                !
 ! D23   D(6,5,10,11)          107.8632         estimate D2E/DX2                !
 ! D24   D(6,5,10,15)          -73.0109         estimate D2E/DX2                !
 ! D25   D(5,6,7,8)            171.0288         estimate D2E/DX2                !
 ! D26   D(9,6,7,8)             -9.4696         estimate D2E/DX2                !
 ! D27   D(5,6,9,1)              0.3378         estimate D2E/DX2                !
 ! D28   D(5,6,9,111)         -177.6571         estimate D2E/DX2                !
 ! D29   D(7,6,9,1)           -179.1665         estimate D2E/DX2                !
 ! D30   D(7,6,9,111)            2.8387         estimate D2E/DX2                !
 ! D31   D(6,7,8,108)         -173.9948         estimate D2E/DX2                !
 ! D32   D(6,7,8,109)           71.9773         estimate D2E/DX2                !
 ! D33   D(6,7,8,110)          -60.0838         estimate D2E/DX2                !
 ! D34   D(5,10,11,12)          -1.6227         estimate D2E/DX2                !
 ! D35   D(5,10,11,13)        -176.4776         estimate D2E/DX2                !
 ! D36   D(15,10,11,12)        179.1959         estimate D2E/DX2                !
 ! D37   D(15,10,11,13)          4.341          estimate D2E/DX2                !
 ! D38   D(5,10,15,14)         176.2369         estimate D2E/DX2                !
 ! D39   D(11,10,15,14)         -4.4435         estimate D2E/DX2                !
 ! D40   D(10,11,13,14)         -1.747          estimate D2E/DX2                !
 ! D41   D(10,11,13,112)       177.5229         estimate D2E/DX2                !
 ! D42   D(12,11,13,14)       -176.6654         estimate D2E/DX2                !
 ! D43   D(12,11,13,112)         2.6045         estimate D2E/DX2                !
 ! D44   D(11,13,14,15)         -1.9155         estimate D2E/DX2                !
 ! D45   D(11,13,14,16)       -178.964          estimate D2E/DX2                !
 ! D46   D(112,13,14,15)       178.8305         estimate D2E/DX2                !
 ! D47   D(112,13,14,16)         1.782          estimate D2E/DX2                !
 ! D48   D(13,14,15,10)          3.6239         estimate D2E/DX2                !
 ! D49   D(16,14,15,10)       -179.1621         estimate D2E/DX2                !
 ! D50   D(13,14,16,17)       -139.8584         estimate D2E/DX2                !
 ! D51   D(13,14,16,24)         35.4487         estimate D2E/DX2                !
 ! D52   D(15,14,16,17)         43.276          estimate D2E/DX2                !
 ! D53   D(15,14,16,24)       -141.4169         estimate D2E/DX2                !
 ! D54   D(14,16,17,18)        176.4063         estimate D2E/DX2                !
 ! D55   D(14,16,17,113)        -3.0713         estimate D2E/DX2                !
 ! D56   D(24,16,17,18)          1.3007         estimate D2E/DX2                !
 ! D57   D(24,16,17,113)      -178.1769         estimate D2E/DX2                !
 ! D58   D(14,16,24,21)       -175.7            estimate D2E/DX2                !
 ! D59   D(14,16,24,117)         1.9168         estimate D2E/DX2                !
 ! D60   D(17,16,24,21)         -0.3795         estimate D2E/DX2                !
 ! D61   D(17,16,24,117)       177.2374         estimate D2E/DX2                !
 ! D62   D(16,17,18,19)        179.1806         estimate D2E/DX2                !
 ! D63   D(16,17,18,20)          2.8708         estimate D2E/DX2                !
 ! D64   D(113,17,18,19)        -1.3345         estimate D2E/DX2                !
 ! D65   D(113,17,18,20)      -177.6443         estimate D2E/DX2                !
 ! D66   D(17,18,20,21)         -8.2725         estimate D2E/DX2                !
 ! D67   D(17,18,20,25)       -176.6628         estimate D2E/DX2                !
 ! D68   D(19,18,20,21)        175.5334         estimate D2E/DX2                !
 ! D69   D(19,18,20,25)          7.1432         estimate D2E/DX2                !
 ! D70   D(18,20,21,22)       -175.348          estimate D2E/DX2                !
 ! D71   D(18,20,21,24)          9.2312         estimate D2E/DX2                !
 ! D72   D(25,20,21,22)         -7.7805         estimate D2E/DX2                !
 ! D73   D(25,20,21,24)        176.7987         estimate D2E/DX2                !
 ! D74   D(18,20,25,26)        114.6349         estimate D2E/DX2                !
 ! D75   D(18,20,25,30)        -74.5334         estimate D2E/DX2                !
 ! D76   D(21,20,25,26)        -53.6239         estimate D2E/DX2                !
 ! D77   D(21,20,25,30)        117.2078         estimate D2E/DX2                !
 ! D78   D(20,21,22,23)        166.8018         estimate D2E/DX2                !
 ! D79   D(24,21,22,23)        -17.8361         estimate D2E/DX2                !
 ! D80   D(20,21,24,16)         -4.8251         estimate D2E/DX2                !
 ! D81   D(20,21,24,117)       177.6321         estimate D2E/DX2                !
 ! D82   D(22,21,24,16)        179.8253         estimate D2E/DX2                !
 ! D83   D(22,21,24,117)         2.2825         estimate D2E/DX2                !
 ! D84   D(21,22,23,114)       -54.6949         estimate D2E/DX2                !
 ! D85   D(21,22,23,115)        71.2394         estimate D2E/DX2                !
 ! D86   D(21,22,23,116)      -170.8239         estimate D2E/DX2                !
 ! D87   D(20,25,26,27)        -10.3157         estimate D2E/DX2                !
 ! D88   D(20,25,26,28)        179.8631         estimate D2E/DX2                !
 ! D89   D(30,25,26,27)        177.9598         estimate D2E/DX2                !
 ! D90   D(30,25,26,28)          8.1386         estimate D2E/DX2                !
 ! D91   D(20,25,30,29)       -179.2609         estimate D2E/DX2                !
 ! D92   D(26,25,30,29)         -6.9287         estimate D2E/DX2                !
 ! D93   D(25,26,28,29)         -5.7158         estimate D2E/DX2                !
 ! D94   D(25,26,28,118)       177.8064         estimate D2E/DX2                !
 ! D95   D(27,26,28,29)       -176.1336         estimate D2E/DX2                !
 ! D96   D(27,26,28,118)         7.3886         estimate D2E/DX2                !
 ! D97   D(26,28,29,30)          0.4193         estimate D2E/DX2                !
 ! D98   D(26,28,29,31)       -179.7267         estimate D2E/DX2                !
 ! D99   D(118,28,29,30)       176.8291         estimate D2E/DX2                !
 ! D100  D(118,28,29,31)        -3.3169         estimate D2E/DX2                !
 ! D101  D(28,29,30,25)          3.6767         estimate D2E/DX2                !
 ! D102  D(31,29,30,25)       -176.1974         estimate D2E/DX2                !
 ! D103  D(28,29,31,32)       -145.521          estimate D2E/DX2                !
 ! D104  D(28,29,31,39)         26.579          estimate D2E/DX2                !
 ! D105  D(30,29,31,32)         34.3164         estimate D2E/DX2                !
 ! D106  D(30,29,31,39)       -153.5836         estimate D2E/DX2                !
 ! D107  D(29,31,32,33)        176.4335         estimate D2E/DX2                !
 ! D108  D(29,31,32,119)        -5.1381         estimate D2E/DX2                !
 ! D109  D(39,31,32,33)          4.52           estimate D2E/DX2                !
 ! D110  D(39,31,32,119)      -177.0516         estimate D2E/DX2                !
 ! D111  D(29,31,39,36)       -179.2841         estimate D2E/DX2                !
 ! D112  D(29,31,39,123)        11.1776         estimate D2E/DX2                !
 ! D113  D(32,31,39,36)         -6.7343         estimate D2E/DX2                !
 ! D114  D(32,31,39,123)      -176.2727         estimate D2E/DX2                !
 ! D115  D(31,32,33,34)        177.4283         estimate D2E/DX2                !
 ! D116  D(31,32,33,35)          1.2895         estimate D2E/DX2                !
 ! D117  D(119,32,33,34)        -1.0019         estimate D2E/DX2                !
 ! D118  D(119,32,33,35)      -177.1407         estimate D2E/DX2                !
 ! D119  D(32,33,35,36)         -4.5949         estimate D2E/DX2                !
 ! D120  D(32,33,35,40)       -175.3489         estimate D2E/DX2                !
 ! D121  D(34,33,35,36)        179.3499         estimate D2E/DX2                !
 ! D122  D(34,33,35,40)          8.5959         estimate D2E/DX2                !
 ! D123  D(33,35,36,37)       -176.0657         estimate D2E/DX2                !
 ! D124  D(33,35,36,39)          2.2488         estimate D2E/DX2                !
 ! D125  D(40,35,36,37)         -5.1613         estimate D2E/DX2                !
 ! D126  D(40,35,36,39)        173.1532         estimate D2E/DX2                !
 ! D127  D(33,35,40,41)        102.2454         estimate D2E/DX2                !
 ! D128  D(33,35,40,45)        -80.3505         estimate D2E/DX2                !
 ! D129  D(36,35,40,41)        -68.7343         estimate D2E/DX2                !
 ! D130  D(36,35,40,45)        108.6698         estimate D2E/DX2                !
 ! D131  D(35,36,37,38)        128.8752         estimate D2E/DX2                !
 ! D132  D(39,36,37,38)        -49.4105         estimate D2E/DX2                !
 ! D133  D(35,36,39,31)          3.5401         estimate D2E/DX2                !
 ! D134  D(35,36,39,123)       173.4791         estimate D2E/DX2                !
 ! D135  D(37,36,39,31)       -178.1083         estimate D2E/DX2                !
 ! D136  D(37,36,39,123)        -8.1694         estimate D2E/DX2                !
 ! D137  D(36,37,38,120)       -46.927          estimate D2E/DX2                !
 ! D138  D(36,37,38,121)        79.6835         estimate D2E/DX2                !
 ! D139  D(36,37,38,122)      -160.4475         estimate D2E/DX2                !
 ! D140  D(35,40,41,42)         -2.4569         estimate D2E/DX2                !
 ! D141  D(35,40,41,43)        179.103          estimate D2E/DX2                !
 ! D142  D(45,40,41,42)        179.8497         estimate D2E/DX2                !
 ! D143  D(45,40,41,43)          1.4096         estimate D2E/DX2                !
 ! D144  D(35,40,45,44)       -176.8205         estimate D2E/DX2                !
 ! D145  D(41,40,45,44)          1.2435         estimate D2E/DX2                !
 ! D146  D(40,41,43,44)         -4.2247         estimate D2E/DX2                !
 ! D147  D(40,41,43,124)       179.8518         estimate D2E/DX2                !
 ! D148  D(42,41,43,44)        177.3112         estimate D2E/DX2                !
 ! D149  D(42,41,43,124)         1.3877         estimate D2E/DX2                !
 ! D150  D(41,43,44,45)          4.8798         estimate D2E/DX2                !
 ! D151  D(41,43,44,46)       -179.9948         estimate D2E/DX2                !
 ! D152  D(124,43,44,45)      -179.037          estimate D2E/DX2                !
 ! D153  D(124,43,44,46)        -3.9116         estimate D2E/DX2                !
 ! D154  D(43,44,45,40)         -3.4762         estimate D2E/DX2                !
 ! D155  D(46,44,45,40)       -179.4771         estimate D2E/DX2                !
 ! D156  D(43,44,46,47)       -134.316          estimate D2E/DX2                !
 ! D157  D(43,44,46,54)         48.8676         estimate D2E/DX2                !
 ! D158  D(45,44,46,47)         40.5603         estimate D2E/DX2                !
 ! D159  D(45,44,46,54)       -136.2561         estimate D2E/DX2                !
 ! D160  D(44,46,47,48)        178.4281         estimate D2E/DX2                !
 ! D161  D(44,46,47,125)         3.1436         estimate D2E/DX2                !
 ! D162  D(54,46,47,48)         -4.9752         estimate D2E/DX2                !
 ! D163  D(54,46,47,125)       179.7402         estimate D2E/DX2                !
 ! D164  D(44,46,54,51)       -177.2238         estimate D2E/DX2                !
 ! D165  D(44,46,54,129)        -0.2556         estimate D2E/DX2                !
 ! D166  D(47,46,54,51)          5.7961         estimate D2E/DX2                !
 ! D167  D(47,46,54,129)      -177.2357         estimate D2E/DX2                !
 ! D168  D(46,47,48,49)       -174.1985         estimate D2E/DX2                !
 ! D169  D(46,47,48,50)         -1.3122         estimate D2E/DX2                !
 ! D170  D(125,47,48,49)         1.1899         estimate D2E/DX2                !
 ! D171  D(125,47,48,50)       174.0761         estimate D2E/DX2                !
 ! D172  D(47,48,50,51)          6.9845         estimate D2E/DX2                !
 ! D173  D(47,48,50,55)        179.9848         estimate D2E/DX2                !
 ! D174  D(49,48,50,51)       -179.7868         estimate D2E/DX2                !
 ! D175  D(49,48,50,55)         -6.7865         estimate D2E/DX2                !
 ! D176  D(48,50,51,52)        174.8571         estimate D2E/DX2                !
 ! D177  D(48,50,51,54)         -5.8986         estimate D2E/DX2                !
 ! D178  D(55,50,51,52)          1.8191         estimate D2E/DX2                !
[...]
  Beta virt. eigenvalues --    2.73130   2.73311   2.73402   2.73930   2.74295
  Beta virt. eigenvalues --    2.74919   2.77236   2.80106   2.81376   2.81803
  Beta virt. eigenvalues --    2.82205   2.82507   2.82785   2.83200   2.90038
  Beta virt. eigenvalues --    2.90124   2.90272   2.91062   2.91149   2.91170
  Beta virt. eigenvalues --    2.91252   2.98602   2.98848   2.99196   2.99261
  Beta virt. eigenvalues --    2.99789   3.00122   3.03349   3.04239   3.04298
  Beta virt. eigenvalues --    3.04441   3.04695   3.04747   3.04844   3.05212
  Beta virt. eigenvalues --    3.06890   3.06915   3.07071   3.07789   3.07821
  Beta virt. eigenvalues --    3.07857   3.08387   3.21205   3.21529   3.21712
  Beta virt. eigenvalues --    3.21979   3.22117   3.22699   3.26755   3.41312
  Beta virt. eigenvalues --    3.41408   3.41471   3.42050   3.42229   3.42236
  Beta virt. eigenvalues --    3.42435   3.51602   3.51731   3.51825   3.51953
  Beta virt. eigenvalues --    3.52100   3.52204   3.54742   3.59718   3.59846
  Beta virt. eigenvalues --    3.59881   3.60181   3.60565   3.60589   3.60620
  Beta virt. eigenvalues --    3.60666   3.60728   3.60808   3.60818   3.60911
  Beta virt. eigenvalues --    3.61038   3.61116   3.62113   3.62167   3.62205
  Beta virt. eigenvalues --    3.62227   3.62260   3.62334   3.62452   3.64443
  Beta virt. eigenvalues --    3.64525   3.64648   3.64927   3.65037   3.65164
  Beta virt. eigenvalues --    3.65339   3.78434   3.78604   3.78651   3.78970
  Beta virt. eigenvalues --    3.79170   3.79254   3.79309   3.80430   3.80433
  Beta virt. eigenvalues --    3.80480   3.80542   3.80560   3.80613   3.80908
  Beta virt. eigenvalues --    3.98870   3.98899   3.98945   3.99066   3.99266
  Beta virt. eigenvalues --    3.99305   3.99491   4.01501   4.01605   4.01662
  Beta virt. eigenvalues --    4.01825   4.01952   4.01987   4.02105   4.19444
  Beta virt. eigenvalues --    4.19562   4.19688   4.20076   4.20283   4.20319
  Beta virt. eigenvalues --    4.20365   4.22232   4.22271   4.22431   4.22586
  Beta virt. eigenvalues --    4.23642   4.23756   4.23956
          Condensed to atoms (all electrons):
          Atomic-Atomic Spin Densities.
 Mulliken charges and spin densities:
               1          2
     1  C    0.036837  -0.000000
     2  C    0.005840  -0.000000
     3  C    0.107146  -0.000000
     4  F   -0.117025   0.000000
     5  C   -0.041972   0.000000
     6  C    0.115712  -0.000000
     7  O   -0.235214   0.000000
     8  C    0.058570  -0.000000
     9  C   -0.036027  -0.000000
    10  C   -0.166618  -0.000000
    11  C    0.145768  -0.000000
    12  F   -0.115781  -0.000000
    13  C    0.022375   0.000000
    14  C   -0.150998  -0.000000
    15  S    0.194144   0.000000
    16  C    0.071211   0.000000
    17  C   -0.009397  -0.000000
    18  C    0.115825  -0.000000
    19  F   -0.117206  -0.000000
    20  C   -0.034594   0.000000
    21  C    0.124420  -0.000000
    22  O   -0.229656   0.000000
    23  C    0.061356   0.000000
    24  C   -0.044061  -0.000000
    25  C   -0.175771  -0.000000
    26  C    0.153478   0.000000
    27  F   -0.116802  -0.000000
    28  C    0.021856  -0.000000
    29  C   -0.150793   0.000000
    30  S    0.195294  -0.000000
    31  C    0.071395  -0.000000
    32  C   -0.009618   0.000000
    33  C    0.116101  -0.000000
    34  F   -0.116064  -0.000000
    35  C   -0.034800   0.000000
    36  C    0.124518   0.000000
    37  O   -0.229538   0.000000
    38  C    0.061654  -0.000000
    39  C   -0.044436   0.000000
    40  C   -0.176067  -0.000000
    41  C    0.153701  -0.000000
    42  F   -0.116937   0.000000
    43  C    0.021127   0.000000
    44  C   -0.150439   0.000000
    45  S    0.196670  -0.000000
    46  C    0.072236   0.000000
    47  C   -0.009698  -0.000000
    48  C    0.112478   0.000000
    49  F   -0.113282   0.000000
    50  C   -0.030049  -0.000000
    51  C    0.125234   0.000000
    52  O   -0.236117   0.000000
    53  C    0.061263   0.000000
    54  C   -0.043464  -0.000000
    55  C   -0.170184   0.000000
    56  C    0.143716  -0.000000
    57  F   -0.114474  -0.000000
    58  C    0.023770  -0.000000
    59  C   -0.149479   0.000000
    60  S    0.194606  -0.000000
    61  C    0.068268  -0.000000
    62  C   -0.009302   0.000000
    63  C    0.116990  -0.000000
    64  F   -0.119178   0.000000
    65  C   -0.037288   0.000000
    66  C    0.126607  -0.000000
    67  O   -0.228642   0.000000
    68  C    0.061050   0.000000
    69  C   -0.043228   0.000000
    70  C   -0.175235   0.000000
    71  C    0.154916   0.000000
    72  F   -0.115388  -0.000000
    73  C    0.025698   0.000000
    74  C   -0.152073   0.000000
    75  S    0.183448   0.000000
    76  C    0.078563   0.000000
    77  C   -0.012797  -0.000000
    78  C    0.117006   0.000000
    79  F   -0.113697  -0.000000
    80  C   -0.030875  -0.000000
    81  C    0.121870   0.000000
    82  O   -0.236430  -0.000000
    83  C    0.059976  -0.000000
    84  C   -0.046993  -0.000000
    85  C   -0.169937   0.000000
    86  C    0.144677  -0.000000
    87  F   -0.114708   0.000000
    88  C    0.026630   0.000000
    89  C   -0.150999  -0.000000
    90  S    0.185727  -0.000000
    91  C    0.077601   0.000000
    92  C   -0.014102  -0.000000
    93  C    0.120973   0.000000
    94  F   -0.117352  -0.000000
    95  C   -0.028632  -0.000000
    96  C    0.122107   0.000000
    97  O   -0.228284  -0.000000
    98  C    0.060715   0.000000
    99  C   -0.048473  -0.000000
   100  C   -0.184649  -0.000000
   101  C    0.138327   0.000000
   102  F   -0.119837  -0.000000
   103  C    0.046408  -0.000000
   104  C   -0.125508   0.000000
   105  S    0.184383   0.000000
   106  H   -0.004563  -0.000000
   107  H   -0.001619   0.000000
   108  H    0.057235   0.000000
   109  H    0.049126   0.000000
   110  H    0.048310   0.000000
   111  H   -0.009763   0.000000
   112  H   -0.003188   0.000000
   113  H   -0.003656   0.000000
   114  H    0.047978  -0.000000
   115  H    0.050457  -0.000000
   116  H    0.055397  -0.000000
   117  H   -0.015062   0.000000
   118  H   -0.003320   0.000000
   119  H   -0.000058   0.000000
   120  H    0.047712   0.000000
   121  H    0.049520   0.000000
   122  H    0.055429  -0.000000
   123  H   -0.016446   0.000000
   124  H   -0.003873   0.000000
   125  H    0.000448  -0.000000
   126  H    0.047617  -0.000000
   127  H    0.051666  -0.000000
   128  H    0.056641   0.000000
   129  H   -0.016930  -0.000000
   130  H   -0.002714   0.000000
   131  H   -0.004941  -0.000000
   132  H    0.057152  -0.000000
   133  H    0.046213  -0.000000
   134  H    0.052482  -0.000000
   135  H   -0.014393  -0.000000
   136  H    0.001147   0.000000
   137  H   -0.009037   0.000000
   138  H    0.050274  -0.000000
   139  H    0.053837   0.000000
   140  H    0.053486   0.000000
   141  H   -0.007503  -0.000000
   142  H    0.000518   0.000000
   143  H   -0.008913   0.000000
   144  H    0.047845   0.000000
   145  H    0.055318  -0.000000
   146  H    0.049427  -0.000000
   147  H   -0.010664  -0.000000
   148  H    0.001791  -0.000000
   149  H    0.029546  -0.000000
 Sum of Mulliken charges =  -0.00000  -0.00000
 Mulliken charges and spin densities with hydrogens summed into heavy atoms:
               1          2
     1  C    0.032274  -0.000000
     2  C    0.004222  -0.000000
     3  C    0.107146  -0.000000
     4  F   -0.117025   0.000000
     5  C   -0.041972   0.000000
     6  C    0.115712  -0.000000
     7  O   -0.235214   0.000000
     8  C    0.213241  -0.000000
     9  C   -0.045790  -0.000000
    10  C   -0.166618  -0.000000
    11  C    0.145768  -0.000000
    12  F   -0.115781  -0.000000
    13  C    0.019187   0.000000
    14  C   -0.150998  -0.000000
    15  S    0.194144   0.000000
    16  C    0.071211   0.000000
    17  C   -0.013052  -0.000000
    18  C    0.115825  -0.000000
    19  F   -0.117206  -0.000000
    20  C   -0.034594   0.000000
    21  C    0.124420  -0.000000
    22  O   -0.229656   0.000000
    23  C    0.215188   0.000000
    24  C   -0.059123  -0.000000
    25  C   -0.175771  -0.000000
    26  C    0.153478   0.000000
    27  F   -0.116802  -0.000000
    28  C    0.018536  -0.000000
    29  C   -0.150793   0.000000
    30  S    0.195294  -0.000000
    31  C    0.071395  -0.000000
    32  C   -0.009676   0.000000
    33  C    0.116101  -0.000000
    34  F   -0.116064  -0.000000
    35  C   -0.034800   0.000000
    36  C    0.124518   0.000000
    37  O   -0.229538   0.000000
    38  C    0.214314  -0.000000
    39  C   -0.060882   0.000000
    40  C   -0.176067  -0.000000
    41  C    0.153701  -0.000000
    42  F   -0.116937   0.000000
    43  C    0.017253   0.000000
    44  C   -0.150439   0.000000
    45  S    0.196670  -0.000000
    46  C    0.072236   0.000000
    47  C   -0.009250  -0.000000
    48  C    0.112478   0.000000
    49  F   -0.113282   0.000000
    50  C   -0.030049  -0.000000
    51  C    0.125234   0.000000
    52  O   -0.236117   0.000000
    53  C    0.217187   0.000000
    54  C   -0.060394  -0.000000
    55  C   -0.170184   0.000000
    56  C    0.143716  -0.000000
    57  F   -0.114474  -0.000000
    58  C    0.021057  -0.000000
    59  C   -0.149479   0.000000
    60  S    0.194606  -0.000000
    61  C    0.068268  -0.000000
    62  C   -0.014243   0.000000
    63  C    0.116990  -0.000000
    64  F   -0.119178   0.000000
    65  C   -0.037288   0.000000
    66  C    0.126607  -0.000000
    67  O   -0.228642   0.000000
    68  C    0.216896  -0.000000
    69  C   -0.057621   0.000000
    70  C   -0.175235   0.000000
    71  C    0.154916   0.000000
    72  F   -0.115388  -0.000000
    73  C    0.026845   0.000000
    74  C   -0.152073   0.000000
    75  S    0.183448   0.000000
    76  C    0.078563   0.000000
    77  C   -0.021833   0.000000
    78  C    0.117006   0.000000
    79  F   -0.113697  -0.000000
    80  C   -0.030875  -0.000000
    81  C    0.121870   0.000000
    82  O   -0.236430  -0.000000
    83  C    0.217573  -0.000000
    84  C   -0.054496  -0.000000
    85  C   -0.169937   0.000000
    86  C    0.144677  -0.000000
    87  F   -0.114708   0.000000
    88  C    0.027148   0.000000
    89  C   -0.150999  -0.000000
    90  S    0.185727  -0.000000
    91  C    0.077601   0.000000
    92  C   -0.023015  -0.000000
    93  C    0.120973   0.000000
    94  F   -0.117352  -0.000000
    95  C   -0.028632  -0.000000
    96  C    0.122107   0.000000
    97  O   -0.228284  -0.000000
    98  C    0.213304   0.000000
    99  C   -0.059137  -0.000000
   100  C   -0.184649  -0.000000
   101  C    0.138327   0.000000
   102  F   -0.119837  -0.000000
   103  C    0.048199  -0.000000
   104  C   -0.095962   0.000000
   105  S    0.184383   0.000000
 Electronic spatial extent (au):  <R**2>=         715988.5917
 Charge=              0.0000 electrons
 Dipole moment (field-independent basis, Debye):
    X=              5.6047    Y=             -5.4921    Z=              1.2044  Tot=              7.9389
 Quadrupole moment (field-independent basis, Debye-Ang):
   XX=           -642.8185   YY=           -539.3063   ZZ=           -640.5506
   XY=             83.4657   XZ=             -5.2261   YZ=             -5.3478
 Traceless Quadrupole moment (field-independent basis, Debye-Ang):
   XX=            -35.2600   YY=             68.2521   ZZ=            -32.9921
   XY=             83.4657   XZ=             -5.2261   YZ=             -5.3478
 Octapole moment (field-independent basis, Debye-Ang**2):
  XXX=           3327.8310  YYY=            -32.3347  ZZZ=             22.1360  XYY=            639.7606
  XXY=           -275.2230  XXZ=            -27.2397  XZZ=             45.2578  YZZ=            -10.6197
  YYZ=             62.4768  XYZ=           -146.7080
 Hexadecapole moment (field-independent basis, Debye-Ang**3):
 XXXX=        -889403.2581 YYYY=         -23668.4671 ZZZZ=          -7738.6364 XXXY=          56552.8754
 XXXZ=          -5327.6628 YYYX=            722.8184 YYYZ=           -139.1772 ZZZX=            -76.5141
 ZZZY=           -146.3235 XXYY=        -132595.6441 XXZZ=        -153347.3071 YYZZ=          -5551.5260
 XXYZ=          -6480.1006 YYXZ=           -473.4771 ZZXY=            418.3521
 N-N= 1.750512323851D+04 E-N=-5.307199301010D+04  KE= 7.632102433616D+03
 Leave Link  601 at Sat Jul 25 14:50:12 2020, MaxMem=  4026531840 cpu:              14.4 elap:               2.0
 (Enter /opt/ohpc/pub/libs/gaussian/g16-A.03/sandybridge/g16/l9999.exe)

 Test job not archived.
 1\1\GINC-SKYLAKE048\FOpt\ULC-wPBE\CC-pVDZ\C77H44F14O7S7\RDU230\25-Jul-
 2020\0\\#P uLC-wPBE/cc-pVDZ iop(3/107=0241000000, 3/108=0241000000) op
 t\\H44 C77 S7 O7 F14\\0,1\C,24.7403901282,4.9020406217,1.6267763876\C,
 24.687756598,3.8788651339,2.5685997433\C,23.8112559909,2.8203148498,2.
 3408238396\F,23.7418775435,1.8408814753,3.2643337037\C,22.9933434908,2
 .7295270446,1.2088914716\C,23.064886584,3.7940662262,0.27560958\O,22.2
 402247635,3.6754361933,-0.7987497522\C,22.2582156017,4.7090626532,-1.7
 71074614\C,23.9343608764,4.8719006035,0.4842706007\C,22.1062442317,1.5
 694373187,1.0181963159\C,22.4222366797,0.2374757163,1.1622519775\F,23.
 6657666331,-0.1913718964,1.4373027569\C,21.3463624041,-0.6684401503,0.
 9765315511\C,20.1735956815,-0.0108650468,0.6786494333\S,20.4145490616,
 1.7087418306,0.6348643459\C,18.8484458402,-0.5975357826,0.4049298323\C
 ,17.9541720564,0.022545484,-0.4755626391\C,16.7213600287,-0.5760463377
 ,-0.7079426831\F,15.8741542928,0.0314839347,-1.5661659913\C,16.3155850
 717,-1.7753531511,-0.116132645\C,17.2294424708,-2.3792328843,0.7850909
 08\O,16.7915569393,-3.5169192389,1.3786221535\C,17.6747947605,-4.19448
 34457,2.2584756353\C,18.4768081534,-1.7975765368,1.0366646629\C,15.008
 2056913,-2.3840963813,-0.4094389056\C,14.7339778624,-3.6819510543,-0.7
 759220509\F,15.6910630895,-4.6053534467,-0.9682669803\C,13.3609225103,
 -3.982174655,-0.9688982913\C,12.5616006117,-2.8822279422,-0.7484292282
 \S,13.5131741656,-1.5014027,-0.2966042524\C,11.094123036,-2.7878148509
 ,-0.8605098212\C,10.4773945722,-1.591662723,-1.2454237775\C,9.09143390
 54,-1.5569202982,-1.3470634834\F,8.5130725163,-0.3978173599,-1.7268052
 314\C,8.2656358832,-2.6554908777,-1.0929301141\C,8.9090140723,-3.85329
 37406,-0.6891338218\O,8.0806174674,-4.8889412018,-0.4062140753\C,8.662
 9177743,-6.1299306343,-0.0408473915\C,10.3022806271,-3.9151804276,-0.5
 783846818\C,6.8029386442,-2.5783974814,-1.2359941181\C,5.967044536,-3.
 4282336487,-1.9237422169\F,6.4141940861,-4.4782129005,-2.6332696504\C,
 4.5868572465,-3.1066443065,-1.8601419204\C,4.3597603187,-1.9764657151,
 -1.1059239765\S,5.847832771,-1.3365398163,-0.4795813032\C,3.0714867537
 ,-1.319858896,-0.8164104411\C,2.9954939327,0.0637138571,-0.6235142275\
 C,1.7572536288,0.6392865232,-0.3582095771\F,1.7050679633,1.9763803549,
 -0.2051464906\C,0.5674548476,-0.0907323419,-0.2661471734\C,0.666004457
 9,-1.4888996006,-0.4784765251\O,-0.5083003669,-2.1678367248,-0.3949273
 816\C,-0.486236056,-3.5721145909,-0.600331466\C,1.8985788495,-2.093049
 7937,-0.741809829\C,-0.7065494157,0.5800088923,0.0363958019\C,-0.94969
 31523,1.522203728,1.0106343319\F,-0.0203165517,1.906509506,1.901416073
 8\C,-2.2657155352,2.051038382,1.0327714674\C,-3.0539362946,1.495341540
 1,0.0496979024\S,-2.1624291656,0.334485344,-0.8855048437\C,-4.47282968
 05,1.7733884639,-0.2422982216\C,-5.3126721715,0.7744495876,-0.74874973
 36\C,-6.6410513954,1.0882470481,-1.0115725632\F,-7.4372964817,0.112423
 6373,-1.500328673\C,-7.2006204352,2.3495999008,-0.7909213928\C,-6.3383
 278384,3.3417907284,-0.2577115954\O,-6.9147111829,4.5462364488,-0.0261
 594848\C,-6.0948305994,5.5995251273,0.4560235329\C,-4.9920742188,3.057
 7390405,-0.0023648501\C,-8.610178605,2.6407311422,-1.0985515535\C,-9.1
 263491513,3.6859373168,-1.8298940321\F,-8.3556266143,4.6052588032,-2.4
 340952792\C,-10.5411944507,3.7172333299,-1.9323548535\C,-11.1252500597
 ,2.6640871074,-1.2646514047\S,-9.922755249,1.6606515026,-0.5118039817\
 C,-12.5603169586,2.3449725071,-1.1513389068\C,-13.5071347872,3.3750402
 243,-1.1687824491\C,-14.8560688739,3.0501739103,-1.0740354299\F,-15.74
 68501073,4.0605838458,-1.0664661649\C,-15.3320016603,1.7388833966,-0.9
 63003035\C,-14.3545146659,0.7133441404,-0.9286428293\O,-14.8450513309,
 -0.5479010236,-0.8053168107\C,-13.9193982246,-1.6237944171,-0.76440065
 68\C,-12.992408764,1.0123914716,-1.0276223803\C,-16.7758424141,1.46659
 06424,-0.8886918234\C,-17.7711981336,1.9958695347,-1.6791605597\F,-17.
 5200576554,2.8100410035,-2.7179268555\C,-19.0922200116,1.6049739119,-1
 .3413735982\C,-19.1095782078,0.7493441494,-0.2627458547\S,-17.50080917
 65,0.4432073444,0.3186410828\C,-20.2808958279,0.1216236166,0.377031021
 1\C,-21.5148392705,0.7826424807,0.3682864362\C,-22.6060986786,0.168708
 7381,0.9721144726\F,-23.7871687882,0.8229902913,0.9589752778\C,-22.547
 3992214,-1.0770738719,1.6028961717\C,-21.2910449712,-1.7339194254,1.59
 27233614\O,-21.2710674732,-2.9571927669,2.1772565453\C,-20.0307712234,
 -3.6416112514,2.2516274699\C,-20.1766119045,-1.1389905208,0.9905344104
 \C,-23.7253353036,-1.6788958372,2.2497332215\C,-23.8272086562,-2.18970
 39909,3.5233310793\F,-22.8108705089,-2.1678464829,4.4029727973\C,-25.0
 976915562,-2.732871464,3.8603502165\C,-25.9719642747,-2.6257162617,2.8
 102259297\S,-25.2531338358,-1.872204633,1.4379762138\H,25.4202816286,5
 .7483197598,1.7815276935\H,25.3002063219,3.8809928276,3.4757536665\H,2
 1.5241876443,4.4130534162,-2.5372174369\H,23.2565791931,4.8081365615,-
 2.2417684728\H,21.9598574717,5.6840840671,-1.3367250063\H,23.992500911
 6,5.6895465134,-0.2396009706\H,21.4605066219,-1.7548002989,1.022426831
 1\H,18.2060278783,0.9455224974,-1.0079397068\H,18.6053928635,-4.503858
 6446,1.7425396238\H,17.932797705,-3.5728534869,3.1390231615\H,17.13186
 11113,-5.0915996344,2.5953642318\H,19.1638050448,-2.2508052172,1.75617
 52319\H,13.0004518591,-4.960066235,-1.2994079826\H,11.0515520043,-0.69
 40721277,-1.4976288115\H,9.3193033332,-6.5233415537,-0.8423389425\H,9.
 241752852,-6.0496276657,0.9009523743\H,7.8204203438,-6.8230735711,0.11
 03716406\H,10.7899701504,-4.8318051875,-0.236305838\H,3.8142139385,-3.
 6697331397,-2.3905996842\H,3.873816732,0.7125037413,-0.7053315786\H,-0
 .1146552776,-3.8309364215,-1.6118465545\H,0.1345794295,-4.0852323708,0
 .1607219094\H,-1.5311487125,-3.9058904802,-0.5006434827\H,1.9697509198
 ,-3.1772658098,-0.8617873732\H,-2.6087141699,2.7774677269,1.7743467874
 \H,-4.9608184138,-0.2463593216,-0.9298776513\H,-6.7580231153,6.4731548
 615,0.5553929667\H,-5.6589321731,5.3582931197,1.4460900357\H,-5.279999
 6683,5.8392904802,-0.2554468468\H,-4.3227437726,3.8381321557,0.3691109
 597\H,-11.0861655536,4.4678456698,-2.5111585328\H,-13.2182811047,4.429
 0998034,-1.2224469891\H,-13.2283886469,-1.5356040396,0.097415985\H,-14
 .5258874552,-2.5364735795,-0.652967938\H,-13.3303702899,-1.689972029,-
 1.7005569655\H,-12.2499003428,0.2091247892,-1.0399731655\H,-19.9753425
 62,1.9205126221,-1.9032575079\H,-21.63869876,1.7779139654,-0.069180622
 9\H,-19.6324556904,-3.8789258261,1.2447446032\H,-20.2387239409,-4.5803
 47566,2.7889456318\H,-19.2765594659,-3.0575516823,2.8155169039\H,-19.2
 179346087,-1.6652472721,0.963201878\H,-25.3320372553,-3.1674332823,4.8
 357876138\H,-27.0167205445,-2.943404215,2.7710221606\\Version=EM64L-G1
 6RevA.03\State=1-A\HF=-7667.7402044\S2=0.\S2-1=0.\S2A=0.\RMSD=8.101e-0
 9\RMSF=3.624e-06\Dipole=2.1936212,-2.1235524,0.6589462\Quadrupole=-25.
 4360574,48.4790888,-23.0430314,61.9059324,-9.6686258,-11.120972\PG=C01
  [X(C77H44F14O7S7)]\\@


 I am not a vegetarian because I love animals;
 I am a vegetarian because I hate plants.
                               -- A. Whitney Brown
 Job cpu time:       3 days 12 hours 23 minutes  0.3 seconds.
 Elapsed time:       0 days 10 hours 42 minutes 44.6 seconds.
 File lengths (MBytes):  RWF=   3260 Int=      0 D2E=      0 Chk=    292 Scr=      8
 Normal termination of Gaussian 16 at Sat Jul 25 14:50:12 2020.
