 Entering Gaussian System, Link 0=g16
 Input=mols_66_1_05_n-n-c-cF_opt_0.gjf
 Output=mols_66_1_05_n-n-c-cF_opt_0.log
 Initial command:
 /opt/ohpc/pub/libs/gaussian/g16-A.03/sandybridge/g16/l1.exe "/mnt/gpfs2_4m/scratch/rdu230/ondemand/projects/dihedral_energies/7trial/wtuning/mols_66_1_05_n-n-c-cF/Gau-54624.inp" -scrdir="/mnt/gpfs2_4m/scratch/rdu230/ondemand/projects/dihedral_energies/7trial/wtuning/mols_66_1_05_n-n-c-cF/"
 Entering Link 1 = /opt/ohpc/pub/libs/gaussian/g16-A.03/sandybridge/g16/l1.exe PID=     54625.
  
 Copyright (c) 1988,1990,1992,1993,1995,1998,2003,2009,2016,
            Gaussian, Inc.  All Rights Reserved.
  
 This is part of the Gaussian(R) 16 program.  It is based on
 the Gaussian(R) 09 system (copyright 2009, Gaussian, Inc.),
 the Gaussian(R) 03 system (copyright 2003, Gaussian, Inc.),
 the Gaussian(R) 98 system (copyright 1998, Gaussian, Inc.),
 the Gaussian(R) 94 system (copyright 1995, Gaussian, Inc.),
 the Gaussian 92(TM) system (copyright 1992, Gaussian, Inc.),
 the Gaussian 90(TM) system (copyright 1990, Gaussian, Inc.),
 the Gaussian 88(TM) system (copyright 1988, Gaussian, Inc.),
 the Gaussian 86(TM) system (copyright 1986, Carnegie Mellon
 University), and the Gaussian 82(TM) system (copyright 1983,
 Carnegie Mellon University). Gaussian is a federally registered
 trademark of Gaussian, Inc.
  
 This software contains proprietary and confidential information,
 including trade secrets, belonging to Gaussian, Inc.
  
 This software is provided under written license and may be
 used, copied, transmitted, or stored only in accord with that
 written license.
  
 The following legend is applicable only to US Government
 contracts under FAR:
  
                    RESTRICTED RIGHTS LEGEND
  
 Use, reproduction and disclosure by the US Government is
 subject to restrictions as set forth in subparagraphs (a)
 and (c) of the Commercial Computer Software - Restricted
 Rights clause in FAR 52.227-19.
  
 Gaussian, Inc.
 340 Quinnipiac St., Bldg. 40, Wallingford CT 06492
  
  
 ---------------------------------------------------------------
 Warning -- This program may not be used in any manner that
 competes with the business of Gaussian, Inc. or will provide
 assistance to any competitor of Gaussian, Inc.  The licensee
 of this program is prohibited from giving any competitor of
 Gaussian, Inc. access to this program.  By using this program,
 the user acknowledges that Gaussian, Inc. is engaged in the
 business of creating and licensing software in the field of
 computational chemistry and represents and warrants to the
 licensee that it is not a competitor of Gaussian, Inc. and that
 it will not use this program in any manner prohibited above.
 ---------------------------------------------------------------
  

 Cite this work as:
 Gaussian 16, Revision A.03,
 M. J. Frisch, G. W. Trucks, H. B. Schlegel, G. E. Scuseria, 
 M. A. Robb, J. R. Cheeseman, G. Scalmani, V. Barone, 
 G. A. Petersson, H. Nakatsuji, X. Li, M. Caricato, A. V. Marenich, 
 J. Bloino, B. G. Janesko, R. Gomperts, B. Mennucci, H. P. Hratchian, 
 J. V. Ortiz, A. F. Izmaylov, J. L. Sonnenberg, D. Williams-Young, 
 F. Ding, F. Lipparini, F. Egidi, J. Goings, B. Peng, A. Petrone, 
 T. Henderson, D. Ranasinghe, V. G. Zakrzewski, J. Gao, N. Rega, 
 G. Zheng, W. Liang, M. Hada, M. Ehara, K. Toyota, R. Fukuda, 
 J. Hasegawa, M. Ishida, T. Nakajima, Y. Honda, O. Kitao, H. Nakai, 
 T. Vreven, K. Throssell, J. A. Montgomery, Jr., J. E. Peralta, 
 F. Ogliaro, M. J. Bearpark, J. J. Heyd, E. N. Brothers, K. N. Kudin, 
 V. N. Staroverov, T. A. Keith, R. Kobayashi, J. Normand, 
 K. Raghavachari, A. P. Rendell, J. C. Burant, S. S. Iyengar, 
 J. Tomasi, M. Cossi, J. M. Millam, M. Klene, C. Adamo, R. Cammi, 
 J. W. Ochterski, R. L. Martin, K. Morokuma, O. Farkas, 
 J. B. Foresman, and D. J. Fox, Gaussian, Inc., Wallingford CT, 2016.
 
 ******************************************
 Gaussian 16:  EM64L-G16RevA.03 25-Dec-2016
                24-Jul-2020 
 ******************************************
 %mem=30GB
 %nproc=8
 Will use up to    8 processors via shared memory.
 ---------------------------------------------------------------
 #P uLC-wPBE/cc-pVDZ iop(3/107=0164300000, 3/108=0164300000) opt
 ---------------------------------------------------------------
 1/18=20,19=15,26=3,38=1/1,3;
 2/9=110,12=2,17=6,18=5,40=1/2;
 3/5=16,11=2,25=1,30=1,71=1,74=-41,107=164300000,108=164300000,116=2/1,2,3;
 4//1;
 5/5=2,38=5/2;
 6/7=2,8=2,9=2,10=2,28=1/1;
 7//1,2,3,16;
 1/18=20,19=15,26=3/3(2);
 2/9=110/2;
 99//99;
 2/9=110/2;
 3/5=16,11=2,25=1,30=1,71=1,74=-41,107=164300000,108=164300000,116=2/1,2,3;
 4/5=5,16=3,69=1/1;
 5/5=2,38=5/2;
 7//1,2,3,16;
 1/18=20,19=15,26=3/3(-5);
 2/9=110/2;
 6/7=2,8=2,9=2,10=2,19=2,28=1/1;
 99/9=1/99;
 Leave Link    1 at Fri Jul 24 21:39:46 2020, MaxMem=  4026531840 cpu:               1.3 elap:               0.2
 (Enter /opt/ohpc/pub/libs/gaussian/g16-A.03/sandybridge/g16/l101.exe)
 ------------
 H7 C10 N2 F1
 ------------
 Symbolic Z-matrix:
 Charge =  0 Multiplicity = 1
 C                    -3.55806  -0.03594   0.00275 
 C                    -2.98953  -1.26134   0.04931 
 C                    -1.62777  -1.36691   0.03358 
 C                    -0.84552  -0.21929  -0.00537 
 N                    -1.45815   1.0209    0.02988 
 C                    -2.7861    1.15365   0.01586 
 C                     0.66862  -0.20689   0.04644 
 N                     1.195    -1.43769  -0.03967 
 C                     2.60792  -1.55755   0.02445 
 C                     3.39645  -0.49236   0.03674 
 C                     2.80187   0.80461   0.02979 
 C                     1.43017   0.89005   0.01078 
 F                     0.98842   2.18925  -0.02351 
 H                    -4.67267   0.13247  -0.03355 
 H                    -3.59737  -2.13062  -0.0407 
 H                    -1.07615  -2.308     0.00418 
 H                    -3.1816    2.15239   0.01756 
 H                     2.98878  -2.59615  -0.02654 
 H                     4.50918  -0.62671   0.03059 
 H                     3.44752   1.65879  -0.03193 
 
 ITRead=  0  0  0  0  0  0  0  0  0  0  0  0  0  0  0  0  0  0  0  0
 MicOpt= -1 -1 -1 -1 -1 -1 -1 -1 -1 -1 -1 -1 -1 -1 -1 -1 -1 -1 -1 -1
 NAtoms=     20 NQM=       20 NQMF=       0 NMMI=      0 NMMIF=      0
                NMic=       0 NMicF=      0.
                    Isotopes and Nuclear Properties:
 (Nuclear quadrupole moments (NQMom) in fm**2, nuclear magnetic moments (NMagM)
  in nuclear magnetons)

  Atom         1           2           3           4           5           6           7           8           9          10
 IAtWgt=          12          12          12          12          14          12          12          14          12          12
 AtmWgt=  12.0000000  12.0000000  12.0000000  12.0000000  14.0030740  12.0000000  12.0000000  14.0030740  12.0000000  12.0000000
 NucSpn=           0           0           0           0           2           0           0           2           0           0
 AtZEff=  -0.0000000  -0.0000000  -0.0000000  -0.0000000  -0.0000000  -0.0000000  -0.0000000  -0.0000000  -0.0000000  -0.0000000
 NQMom=    0.0000000   0.0000000   0.0000000   0.0000000   2.0440000   0.0000000   0.0000000   2.0440000   0.0000000   0.0000000
 NMagM=    0.0000000   0.0000000   0.0000000   0.0000000   0.4037610   0.0000000   0.0000000   0.4037610   0.0000000   0.0000000
 AtZNuc=   6.0000000   6.0000000   6.0000000   6.0000000   7.0000000   6.0000000   6.0000000   7.0000000   6.0000000   6.0000000

  Atom        11          12          13          14          15          16          17          18          19          20
 IAtWgt=          12          12          19           1           1           1           1           1           1           1
 AtmWgt=  12.0000000  12.0000000  18.9984033   1.0078250   1.0078250   1.0078250   1.0078250   1.0078250   1.0078250   1.0078250
 NucSpn=           0           0           1           1           1           1           1           1           1           1
 AtZEff=  -0.0000000  -0.0000000  -0.0000000  -0.0000000  -0.0000000  -0.0000000  -0.0000000  -0.0000000  -0.0000000  -0.0000000
 NQMom=    0.0000000   0.0000000   0.0000000   0.0000000   0.0000000   0.0000000   0.0000000   0.0000000   0.0000000   0.0000000
 NMagM=    0.0000000   0.0000000   2.6288670   2.7928460   2.7928460   2.7928460   2.7928460   2.7928460   2.7928460   2.7928460
 AtZNuc=   6.0000000   6.0000000   9.0000000   1.0000000   1.0000000   1.0000000   1.0000000   1.0000000   1.0000000   1.0000000
 Leave Link  101 at Fri Jul 24 21:39:47 2020, MaxMem=  4026531840 cpu:               2.9 elap:               0.4
 (Enter /opt/ohpc/pub/libs/gaussian/g16-A.03/sandybridge/g16/l103.exe)

 GradGradGradGradGradGradGradGradGradGradGradGradGradGradGradGradGradGrad
 Berny optimization.
 Initialization pass.
                           ----------------------------
                           !    Initial Parameters    !
                           ! (Angstroms and Degrees)  !
 --------------------------                            --------------------------
 ! Name  Definition              Value          Derivative Info.                !
 --------------------------------------------------------------------------------
 ! R1    R(1,2)                  1.3517         estimate D2E/DX2                !
 ! R2    R(1,6)                  1.4182         estimate D2E/DX2                !
 ! R3    R(1,14)                 1.1278         estimate D2E/DX2                !
 ! R4    R(2,3)                  1.3659         estimate D2E/DX2                !
 ! R5    R(2,15)                 1.0645         estimate D2E/DX2                !
 ! R6    R(3,4)                  1.3894         estimate D2E/DX2                !
 ! R7    R(3,16)                 1.0912         estimate D2E/DX2                !
 ! R8    R(4,5)                  1.3837         estimate D2E/DX2                !
 ! R9    R(4,7)                  1.5151         estimate D2E/DX2                !
 ! R10   R(5,6)                  1.3346         estimate D2E/DX2                !
 ! R11   R(6,17)                 1.0742         estimate D2E/DX2                !
 ! R12   R(7,8)                  1.3414         estimate D2E/DX2                !
 ! R13   R(7,12)                 1.3359         estimate D2E/DX2                !
 ! R14   R(8,9)                  1.4194         estimate D2E/DX2                !
 ! R15   R(9,10)                 1.3254         estimate D2E/DX2                !
 ! R16   R(9,18)                 1.1074         estimate D2E/DX2                !
 ! R17   R(10,11)                1.4268         estimate D2E/DX2                !
 ! R18   R(10,19)                1.1208         estimate D2E/DX2                !
 ! R19   R(11,12)                1.3745         estimate D2E/DX2                !
 ! R20   R(11,20)                1.0725         estimate D2E/DX2                !
 ! R21   R(12,13)                1.3727         estimate D2E/DX2                !
 ! A1    A(2,1,6)              122.0858         estimate D2E/DX2                !
 ! A2    A(2,1,14)             123.5152         estimate D2E/DX2                !
 ! A3    A(6,1,14)             114.3927         estimate D2E/DX2                !
 ! A4    A(1,2,3)              119.2744         estimate D2E/DX2                !
 ! A5    A(1,2,15)             119.8169         estimate D2E/DX2                !
 ! A6    A(3,2,15)             120.3424         estimate D2E/DX2                !
 ! A7    A(2,3,4)              119.8528         estimate D2E/DX2                !
 ! A8    A(2,3,16)             124.814          estimate D2E/DX2                !
 ! A9    A(4,3,16)             115.2756         estimate D2E/DX2                !
 ! A10   A(3,4,5)              119.3621         estimate D2E/DX2                !
 ! A11   A(3,4,7)              124.6427         estimate D2E/DX2                !
 ! A12   A(5,4,7)              115.7388         estimate D2E/DX2                !
 ! A13   A(4,5,6)              121.9654         estimate D2E/DX2                !
 ! A14   A(1,6,5)              117.2755         estimate D2E/DX2                !
 ! A15   A(1,6,17)             125.4153         estimate D2E/DX2                !
 ! A16   A(5,6,17)             117.3091         estimate D2E/DX2                !
 ! A17   A(4,7,8)              112.4867         estimate D2E/DX2                !
 ! A18   A(4,7,12)             125.1372         estimate D2E/DX2                !
 ! A19   A(8,7,12)             121.872          estimate D2E/DX2                !
 ! A20   A(7,8,9)              117.7226         estimate D2E/DX2                !
 ! A21   A(8,9,10)             121.6527         estimate D2E/DX2                !
 ! A22   A(8,9,18)             114.8007         estimate D2E/DX2                !
 ! A23   A(10,9,18)            123.3379         estimate D2E/DX2                !
 ! A24   A(9,10,11)            118.8556         estimate D2E/DX2                !
 ! A25   A(9,10,19)            119.6212         estimate D2E/DX2                !
 ! A26   A(11,10,19)           121.5106         estimate D2E/DX2                !
 ! A27   A(10,11,12)           118.1941         estimate D2E/DX2                !
 ! A28   A(10,11,20)           118.2535         estimate D2E/DX2                !
 ! A29   A(12,11,20)           123.3991         estimate D2E/DX2                !
 ! A30   A(7,12,11)            121.1654         estimate D2E/DX2                !
 ! A31   A(7,12,13)            126.4703         estimate D2E/DX2                !
 ! A32   A(11,12,13)           112.3549         estimate D2E/DX2                !
 ! D1    D(6,1,2,3)             -3.7276         estimate D2E/DX2                !
 ! D2    D(6,1,2,15)          -175.1298         estimate D2E/DX2                !
 ! D3    D(14,1,2,3)           177.2306         estimate D2E/DX2                !
 ! D4    D(14,1,2,15)            5.8284         estimate D2E/DX2                !
 ! D5    D(2,1,6,5)              2.2581         estimate D2E/DX2                !
 ! D6    D(2,1,6,17)          -177.6026         estimate D2E/DX2                !
 ! D7    D(14,1,6,5)          -178.6191         estimate D2E/DX2                !
 ! D8    D(14,1,6,17)            1.5202         estimate D2E/DX2                !
 ! D9    D(1,2,3,4)              1.1594         estimate D2E/DX2                !
 ! D10   D(1,2,3,16)          -175.9451         estimate D2E/DX2                !
 ! D11   D(15,2,3,4)           172.5155         estimate D2E/DX2                !
 ! D12   D(15,2,3,16)           -4.589          estimate D2E/DX2                !
 ! D13   D(2,3,4,5)              2.742          estimate D2E/DX2                !
 ! D14   D(2,3,4,7)            176.6668         estimate D2E/DX2                !
 ! D15   D(16,3,4,5)          -179.8867         estimate D2E/DX2                !
 ! D16   D(16,3,4,7)            -5.962          estimate D2E/DX2                !
 ! D17   D(3,4,5,6)             -4.2873         estimate D2E/DX2                !
 ! D18   D(7,4,5,6)           -178.7404         estimate D2E/DX2                !
 ! D19   D(3,4,7,8)              8.11           estimate D2E/DX2                !
 ! D20   D(3,4,7,12)          -179.9424         estimate D2E/DX2                !
 ! D21   D(5,4,7,8)           -177.7673         estimate D2E/DX2                !
 ! D22   D(5,4,7,12)            -5.8197         estimate D2E/DX2                !
 ! D23   D(4,5,6,1)              1.8114         estimate D2E/DX2                !
 ! D24   D(4,5,6,17)          -178.3164         estimate D2E/DX2                !
 ! D25   D(4,7,8,9)           -178.7801         estimate D2E/DX2                !
 ! D26   D(12,7,8,9)             8.9722         estimate D2E/DX2                !
 ! D27   D(4,7,12,11)         -178.3766         estimate D2E/DX2                !
 ! D28   D(4,7,12,13)            2.8251         estimate D2E/DX2                !
 ! D29   D(8,7,12,11)           -7.143          estimate D2E/DX2                !
 ! D30   D(8,7,12,13)          174.0586         estimate D2E/DX2                !
 ! D31   D(7,8,9,10)            -6.5021         estimate D2E/DX2                !
 ! D32   D(7,8,9,18)           178.5806         estimate D2E/DX2                !
 ! D33   D(8,9,10,11)            2.1033         estimate D2E/DX2                !
 ! D34   D(8,9,10,19)         -176.6222         estimate D2E/DX2                !
 ! D35   D(18,9,10,11)         176.5792         estimate D2E/DX2                !
 ! D36   D(18,9,10,19)          -2.1462         estimate D2E/DX2                !
 ! D37   D(9,10,11,12)           0.0105         estimate D2E/DX2                !
 ! D38   D(9,10,11,20)        -175.6441         estimate D2E/DX2                !
 ! D39   D(19,10,11,12)        178.7109         estimate D2E/DX2                !
 ! D40   D(19,10,11,20)          3.0563         estimate D2E/DX2                !
 ! D41   D(10,11,12,7)           2.3755         estimate D2E/DX2                !
 ! D42   D(10,11,12,13)       -178.6694         estimate D2E/DX2                !
 ! D43   D(20,11,12,7)         177.7902         estimate D2E/DX2                !
 ! D44   D(20,11,12,13)         -3.2547         estimate D2E/DX2                !
 --------------------------------------------------------------------------------
 Trust Radius=3.00D-01 FncErr=1.00D-07 GrdErr=1.00D-06 EigMax=2.50D+02 EigMin=1.00D-04
 Number of steps in this run=    107 maximum allowed number of steps=    120.
 GradGradGradGradGradGradGradGradGradGradGradGradGradGradGradGradGradGrad

 Leave Link  103 at Fri Jul 24 21:39:47 2020, MaxMem=  4026531840 cpu:               0.1 elap:               0.0
 (Enter /opt/ohpc/pub/libs/gaussian/g16-A.03/sandybridge/g16/l202.exe)
                          Input orientation:                          
 ---------------------------------------------------------------------
 Center     Atomic      Atomic             Coordinates (Angstroms)
 Number     Number       Type             X           Y           Z
 ---------------------------------------------------------------------
      1          6           0       -3.558062   -0.035941    0.002749
      2          6           0       -2.989534   -1.261344    0.049305
      3          6           0       -1.627770   -1.366907    0.033582
      4          6           0       -0.845524   -0.219286   -0.005371
      5          7           0       -1.458152    1.020901    0.029880
      6          6           0       -2.786102    1.153649    0.015857
      7          6           0        0.668617   -0.206891    0.046436
      8          7           0        1.195001   -1.437689   -0.039673
      9          6           0        2.607919   -1.557554    0.024452
     10          6           0        3.396446   -0.492356    0.036739
     11          6           0        2.801868    0.804607    0.029794
     12          6           0        1.430168    0.890052    0.010784
     13          9           0        0.988424    2.189252   -0.023514
     14          1           0       -4.672670    0.132471   -0.033553
     15          1           0       -3.597367   -2.130619   -0.040700
     16          1           0       -1.076147   -2.307999    0.004184
     17          1           0       -3.181597    2.152390    0.017562
     18          1           0        2.988784   -2.596150   -0.026538
     19          1           0        4.509177   -0.626711    0.030594
     20          1           0        3.447521    1.658788   -0.031927
 ---------------------------------------------------------------------
                    Distance matrix (angstroms):
                    1          2          3          4          5
     1  C    0.000000
     2  C    1.351667   0.000000
     3  C    2.344877   1.365940   0.000000
     4  C    2.718739   2.384461   1.389410   0.000000
     5  N    2.351015   2.748481   2.393828   1.383698   0.000000
     6  C    1.418174   2.423777   2.774031   2.377235   1.334642
     7  C    4.230360   3.807092   2.572780   1.515078   2.455788
     8  N    4.955634   4.189194   2.824608   2.376852   3.617834
     9  C    6.350992   5.605340   4.239987   3.703798   4.814706
    10  C    6.969552   6.432126   5.099764   4.250959   5.084989
    11  C    6.415291   6.148892   4.933273   3.788544   4.265507
    12  C    5.073457   4.915664   3.800706   2.531732   2.891345
    13  F    5.061888   5.266504   4.415201   3.027334   2.711758
    14  H    1.127844   2.186900   3.394710   3.843381   3.335635
    15  H    2.095497   1.064519   2.113785   3.350684   3.809633
    16  H    3.364841   2.181415   1.091241   2.101428   3.350845
    17  H    2.220526   3.419280   3.847088   3.329055   2.061718
    18  H    7.029703   6.125989   4.777784   4.511302   5.732493
    19  H    8.088889   7.525542   6.181425   5.370299   6.190609
    20  H    7.207739   7.068907   5.909120   4.685947   4.947358
                    6          7          8          9         10
     6  C    0.000000
     7  C    3.713097   0.000000
     8  N    4.750505   1.341402   0.000000
     9  C    6.037065   2.363401   1.419442   0.000000
    10  C    6.397943   2.742742   2.397051   1.325358   0.000000
    11  C    5.598878   2.360967   2.759482   2.370116   1.426774
    12  C    4.224505   1.335857   2.340134   2.716258   2.403742
    13  F    3.914214   2.418403   3.632855   4.082110   3.604611
    14  H    2.145783   5.352655   6.074126   7.474391   8.093577
    15  H    3.383455   4.680485   4.842204   6.232032   7.183545
    16  H    3.860970   2.731417   2.432586   3.759777   4.827184
    17  H    1.074199   4.515660   5.660968   6.876207   7.089831
    18  H    6.885644   3.331225   2.135383   1.107402   2.143861
    19  H    7.509394   3.863470   3.412680   2.116905   1.120830
    20  H    6.254239   3.348015   3.829109   3.324600   2.152846
                   11         12         13         14         15
    11  C    0.000000
    12  C    1.374490   0.000000
    13  F    2.282249   1.372674   0.000000
    14  H    7.504965   6.149840   6.023158   0.000000
    15  H    7.040648   5.865425   6.300084   2.505575   0.000000
    16  H    4.972723   4.063150   4.948584   4.346527   2.527851
    17  H    6.133394   4.781414   4.170386   2.511172   4.303536
    18  H    3.406356   3.818937   5.186668   8.132853   6.602598
    19  H    2.227908   3.432384   4.508689   9.213403   8.245173
    20  H    1.072522   2.159281   2.515675   8.262394   7.999383
                   16         17         18         19         20
    16  H    0.000000
    17  H    4.932359   0.000000
    18  H    4.075247   7.786153   0.000000
    19  H    5.832947   8.177504   2.488684   0.000000
    20  H    6.016666   6.647654   4.279599   2.520819   0.000000
 Stoichiometry    C10H7FN2
 Framework group  C1[X(C10H7FN2)]
 Deg. of freedom    54
 Full point group                 C1      NOp   1
 Largest Abelian subgroup         C1      NOp   1
 Largest concise Abelian subgroup C1      NOp   1
                         Standard orientation:                         
 ---------------------------------------------------------------------
 Center     Atomic      Atomic             Coordinates (Angstroms)
 Number     Number       Type             X           Y           Z
 ---------------------------------------------------------------------
      1          6           0        3.558659   -0.035070    0.011482
      2          6           0        2.987827   -1.259534   -0.031426
      3          6           0        1.625857   -1.362460   -0.016074
      4          6           0        0.845773   -0.213236    0.018776
      5          7           0        1.460776    1.025666   -0.020147
      6          6           0        2.788968    1.155936   -0.005858
      7          6           0       -0.668314   -0.198132   -0.033861
      8          7           0       -1.197081   -1.427645    0.055935
      9          6           0       -2.610191   -1.545032   -0.008541
     10          6           0       -3.396686   -0.478384   -0.024669
     11          6           0       -2.799647    0.817464   -0.021588
     12          6           0       -1.427797    0.900364   -0.002137
     13          9           0       -0.983602    2.198827    0.028209
     14          1           0        4.673566    0.131341    0.047824
     15          1           0        3.593960   -2.129668    0.061694
     16          1           0        1.072431   -2.302403    0.016065
     17          1           0        3.186362    2.153913   -0.010571
     18          1           0       -2.993056   -2.582733    0.045593
     19          1           0       -4.509673   -0.610605   -0.018672
     20          1           0       -3.443707    1.673064    0.037046
 ---------------------------------------------------------------------
 Rotational constants (GHZ):           1.8923104           0.5658296           0.4356760
 Leave Link  202 at Fri Jul 24 21:39:47 2020, MaxMem=  4026531840 cpu:               0.2 elap:               0.0
 (Enter /opt/ohpc/pub/libs/gaussian/g16-A.03/sandybridge/g16/l301.exe)
 Standard basis: CC-pVDZ (5D, 7F)
 Ernie: Thresh=  0.10000D-02 Tol=  0.10000D-05 Strict=F.
 Ernie:  26 primitive shells out of 321 were deleted.
 There are   230 symmetry adapted cartesian basis functions of A   symmetry.
 There are   217 symmetry adapted basis functions of A   symmetry.
   217 basis functions,   478 primitive gaussians,   230 cartesian basis functions
    45 alpha electrons       45 beta electrons
       nuclear repulsion energy       717.2891700586 Hartrees.
 IExCor=32609 DFT=T Ex+Corr=LC-wPBE ExCW=0 ScaHFX=  1.000000
 ScaDFX=  1.000000  0.000000  1.000000  1.000000 ScalE2=  1.000000  1.000000
 IRadAn=      5 IRanWt=     -1 IRanGd=            0 ICorTp=0 IEmpDi=  4
 HFx  wShort=  0.000000 wLong=  0.164300 cFull=  0.000000 cShort=  0.000000 cLong=  1.000000
 DFx  wShort=  0.000000 wLong=  0.164300 cFull=  0.000000 cShort=  0.000000 cLong=  1.000000
 NAtoms=   20 NActive=   20 NUniq=   20 SFac= 1.00D+00 NAtFMM=   60 NAOKFM=F Big=F
 Integral buffers will be    131072 words long.
 Raffenetti 2 integral format.
 Two-electron integral symmetry is turned on.
 Leave Link  301 at Fri Jul 24 21:39:47 2020, MaxMem=  4026531840 cpu:               0.4 elap:               0.1
 (Enter /opt/ohpc/pub/libs/gaussian/g16-A.03/sandybridge/g16/l302.exe)
 NPDir=0 NMtPBC=     1 NCelOv=     1 NCel=       1 NClECP=     1 NCelD=      1
         NCelK=      1 NCelE2=     1 NClLst=     1 CellRange=     0.0.
 One-electron integrals computed using PRISM.
 One-electron integral symmetry used in STVInt
 NBasis=   217 RedAO= T EigKep=  4.38D-04  NBF=   217
 NBsUse=   217 1.00D-06 EigRej= -1.00D+00 NBFU=   217
 Precomputing XC quadrature grid using
 IXCGrd= 4 IRadAn=           5 IRanWt=          -1 IRanGd=           0 AccXCQ= 0.00D+00.
 Generated NRdTot=       0 NPtTot=           0 NUsed=           0 NTot=          32
 NSgBfM=   229   229   229   229   229 MxSgAt=    20 MxSgA2=    20.
 Leave Link  302 at Fri Jul 24 21:39:47 2020, MaxMem=  4026531840 cpu:               1.8 elap:               0.2
 (Enter /opt/ohpc/pub/libs/gaussian/g16-A.03/sandybridge/g16/l303.exe)
 DipDrv:  MaxL=1.
 Leave Link  303 at Fri Jul 24 21:39:47 2020, MaxMem=  4026531840 cpu:               0.4 elap:               0.1
 (Enter /opt/ohpc/pub/libs/gaussian/g16-A.03/sandybridge/g16/l401.exe)
 ExpMin= 1.22D-01 ExpMax= 1.47D+04 ExpMxC= 5.03D+02 IAcc=3 IRadAn=         5 AccDes= 0.00D+00
 Harris functional with IExCor=32609 and IRadAn=       5 diagonalized for initial guess.
 HarFok:  IExCor=32609 AccDes= 0.00D+00 IRadAn=         5 IDoV= 1 UseB2=F ITyADJ=14
 ICtDFT=  3500011 ScaDFX=  1.000000  1.000000  1.000000  1.000000
 FoFCou: FMM=F IPFlag=           0 FMFlag=      100000 FMFlg1=           0
         NFxFlg=           0 DoJE=T BraDBF=F KetDBF=T FulRan=T
         wScrn=  0.000000 ICntrl=       500 IOpCl=  0 I1Cent=   200000004 NGrid=           0
         NMat0=    1 NMatS0=      1 NMatT0=    0 NMatD0=    1 NMtDS0=    0 NMtDT0=    0
 Petite list used in FoFCou.
 Harris En= -594.101311954400    
 JPrj=0 DoOrth=F DoCkMO=F.
 Initial guess <Sx>= 0.0000 <Sy>= 0.0000 <Sz>= 0.0000 <S**2>= 0.0000 S= 0.0000
 Leave Link  401 at Fri Jul 24 21:39:49 2020, MaxMem=  4026531840 cpu:               9.6 elap:               1.2
 (Enter /opt/ohpc/pub/libs/gaussian/g16-A.03/sandybridge/g16/l502.exe)
 Integral symmetry usage will be decided dynamically.
 UHF open shell SCF:
 Using DIIS extrapolation, IDIIS=  1040.
 NGot=  4026531840 LenX=  4026421752 LenY=  4026368411
 Requested convergence on RMS density matrix=1.00D-08 within 128 cycles.
 Requested convergence on MAX density matrix=1.00D-06.
 Requested convergence on             energy=1.00D-06.
 No special actions if energy rises.
 Fock matrices will be formed incrementally for  20 cycles.
 Integral accuracy reduced to 1.0D-05 until final iterations.

 Cycle   1  Pass 0  IDiag  1:
 FoFJK:  IHMeth= 1 ICntrl=       0 DoSepK=T KAlg= 0 I1Cent=           0 FoldK=F
 IRaf=         1 NMat=       1 IRICut=       1 DoRegI=T DoRafI=F ISym2E= 0 IDoP0=0 IntGTp=1.
 FoFCou: FMM=F IPFlag=           0 FMFlag=      100000 FMFlg1=           0
         NFxFlg=           0 DoJE=T BraDBF=F KetDBF=F FulRan=T
         wScrn=  0.000000 ICntrl=       500 IOpCl=  0 I1Cent=           0 NGrid=           0
         NMat0=    1 NMatS0=      1 NMatT0=    0 NMatD0=    1 NMtDS0=    0 NMtDT0=    0
 Symmetry not used in FoFCou.
 E= -593.913629725533    
 DIIS: error= 1.86D-02 at cycle   1 NSaved=   1.
 NSaved= 1 IEnMin= 1 EnMin= -593.913629725533     IErMin= 1 ErrMin= 1.86D-02
 ErrMax= 1.86D-02  0.00D+00 EMaxC= 1.00D-01 BMatC= 5.56D-01 BMatP= 5.56D-01
 IDIUse=3 WtCom= 8.14D-01 WtEn= 1.86D-01
 Coeff-Com:  0.100D+01
 Coeff-En:   0.100D+01
 Coeff:      0.100D+01
 Gap=     0.293 Goal=   None    Shift=    0.000
 Gap=     0.293 Goal=   None    Shift=    0.000
 GapD=    0.293 DampG=1.000 DampE=0.500 DampFc=0.5000 IDamp=-1.
 Damping current iteration by 5.00D-01
 RMSDP=3.71D-03 MaxDP=8.56D-02              OVMax= 1.43D-01

 Cycle   2  Pass 0  IDiag  1:
 RMSU=  1.84D-03    CP:  9.91D-01
 E= -593.991822047114     Delta-E=       -0.078192321581 Rises=F Damp=T
 DIIS: error= 4.98D-03 at cycle   2 NSaved=   2.
 NSaved= 2 IEnMin= 2 EnMin= -593.991822047114     IErMin= 2 ErrMin= 4.98D-03
 ErrMax= 4.98D-03  0.00D+00 EMaxC= 1.00D-01 BMatC= 3.46D-02 BMatP= 5.56D-01
 IDIUse=3 WtCom= 9.50D-01 WtEn= 4.98D-02
 Coeff-Com: -0.142D-01 0.101D+01
 Coeff-En:   0.000D+00 0.100D+01
 Coeff:     -0.135D-01 0.101D+01
 Gap=     0.255 Goal=   None    Shift=    0.000
 Gap=     0.255 Goal=   None    Shift=    0.000
 RMSDP=1.21D-03 MaxDP=2.28D-02 DE=-7.82D-02 OVMax= 9.57D-02

 Cycle   3  Pass 0  IDiag  1:
 RMSU=  1.07D-03    CP:  9.89D-01  1.30D+00
 E= -594.066911725897     Delta-E=       -0.075089678783 Rises=F Damp=F
 DIIS: error= 6.25D-03 at cycle   3 NSaved=   3.
 NSaved= 3 IEnMin= 3 EnMin= -594.066911725897     IErMin= 2 ErrMin= 4.98D-03
 ErrMax= 6.25D-03  0.00D+00 EMaxC= 1.00D-01 BMatC= 2.68D-02 BMatP= 3.46D-02
 IDIUse=3 WtCom= 9.38D-01 WtEn= 6.25D-02
 Coeff-Com: -0.564D-01 0.498D+00 0.559D+00
 Coeff-En:   0.000D+00 0.000D+00 0.100D+01
 Coeff:     -0.528D-01 0.467D+00 0.586D+00
 Gap=     0.263 Goal=   None    Shift=    0.000
 Gap=     0.263 Goal=   None    Shift=    0.000
 RMSDP=5.30D-04 MaxDP=1.60D-02 DE=-7.51D-02 OVMax= 3.25D-02

 Cycle   4  Pass 0  IDiag  1:
 RMSU=  3.43D-04    CP:  9.90D-01  1.29D+00  6.24D-01
 E= -594.073136590823     Delta-E=       -0.006224864926 Rises=F Damp=F
 DIIS: error= 2.39D-03 at cycle   4 NSaved=   4.
 NSaved= 4 IEnMin= 4 EnMin= -594.073136590823     IErMin= 4 ErrMin= 2.39D-03
 ErrMax= 2.39D-03  0.00D+00 EMaxC= 1.00D-01 BMatC= 3.69D-03 BMatP= 2.68D-02
 IDIUse=3 WtCom= 9.76D-01 WtEn= 2.39D-02
 Coeff-Com: -0.159D-01 0.128D+00 0.306D+00 0.582D+00
 Coeff-En:   0.000D+00 0.000D+00 0.918D-01 0.908D+00
 Coeff:     -0.155D-01 0.125D+00 0.301D+00 0.590D+00
 Gap=     0.260 Goal=   None    Shift=    0.000
 Gap=     0.260 Goal=   None    Shift=    0.000
 RMSDP=1.61D-04 MaxDP=4.60D-03 DE=-6.22D-03 OVMax= 8.76D-03

 Cycle   5  Pass 0  IDiag  1:
 RMSU=  6.78D-05    CP:  9.89D-01  1.29D+00  7.01D-01  6.47D-01
 E= -594.074056188469     Delta-E=       -0.000919597646 Rises=F Damp=F
 DIIS: error= 4.07D-04 at cycle   5 NSaved=   5.
 NSaved= 5 IEnMin= 5 EnMin= -594.074056188469     IErMin= 5 ErrMin= 4.07D-04
 ErrMax= 4.07D-04  0.00D+00 EMaxC= 1.00D-01 BMatC= 2.24D-04 BMatP= 3.69D-03
 IDIUse=3 WtCom= 9.96D-01 WtEn= 4.07D-03
 Coeff-Com: -0.175D-02 0.216D-01 0.105D+00 0.285D+00 0.590D+00
 Coeff-En:   0.000D+00 0.000D+00 0.000D+00 0.000D+00 0.100D+01
 Coeff:     -0.174D-02 0.215D-01 0.105D+00 0.284D+00 0.591D+00
 Gap=     0.262 Goal=   None    Shift=    0.000
 Gap=     0.262 Goal=   None    Shift=    0.000
 RMSDP=3.76D-05 MaxDP=1.37D-03 DE=-9.20D-04 OVMax= 2.30D-03

 Cycle   6  Pass 0  IDiag  1:
 RMSU=  2.98D-05    CP:  9.89D-01  1.29D+00  7.04D-01  6.96D-01  7.73D-01
 E= -594.074101704192     Delta-E=       -0.000045515723 Rises=F Damp=F
 DIIS: error= 1.41D-04 at cycle   6 NSaved=   6.
 NSaved= 6 IEnMin= 6 EnMin= -594.074101704192     IErMin= 6 ErrMin= 1.41D-04
 ErrMax= 1.41D-04  0.00D+00 EMaxC= 1.00D-01 BMatC= 2.07D-05 BMatP= 2.24D-04
 IDIUse=3 WtCom= 9.99D-01 WtEn= 1.41D-03
 Coeff-Com:  0.173D-02-0.575D-02 0.135D-01 0.612D-01 0.269D+00 0.661D+00
 Coeff-En:   0.000D+00 0.000D+00 0.000D+00 0.000D+00 0.000D+00 0.100D+01
 Coeff:      0.173D-02-0.574D-02 0.135D-01 0.611D-01 0.268D+00 0.661D+00
 Gap=     0.261 Goal=   None    Shift=    0.000
 Gap=     0.261 Goal=   None    Shift=    0.000
 RMSDP=1.11D-05 MaxDP=4.38D-04 DE=-4.55D-05 OVMax= 7.87D-04

 Cycle   7  Pass 0  IDiag  1:
 RMSU=  8.34D-06    CP:  9.90D-01  1.29D+00  7.06D-01  7.01D-01  8.60D-01
                    CP:  9.00D-01
 E= -594.074106779480     Delta-E=       -0.000005075288 Rises=F Damp=F
 DIIS: error= 3.75D-05 at cycle   7 NSaved=   7.
 NSaved= 7 IEnMin= 7 EnMin= -594.074106779480     IErMin= 7 ErrMin= 3.75D-05
 ErrMax= 3.75D-05  0.00D+00 EMaxC= 1.00D-01 BMatC= 1.29D-06 BMatP= 2.07D-05
 IDIUse=1 WtCom= 1.00D+00 WtEn= 0.00D+00
 Coeff-Com:  0.986D-03-0.376D-02-0.138D-02 0.191D-02 0.455D-01 0.227D+00
 Coeff-Com:  0.730D+00
 Coeff:      0.986D-03-0.376D-02-0.138D-02 0.191D-02 0.455D-01 0.227D+00
 Coeff:      0.730D+00
 Gap=     0.262 Goal=   None    Shift=    0.000
 Gap=     0.262 Goal=   None    Shift=    0.000
 RMSDP=4.15D-06 MaxDP=1.04D-04 DE=-5.08D-06 OVMax= 3.46D-04

 Initial convergence to 1.0D-05 achieved.  Increase integral accuracy.
 Cycle   8  Pass 1  IDiag  1:
 E= -594.073924601441     Delta-E=        0.000182178039 Rises=F Damp=F
 DIIS: error= 5.16D-05 at cycle   1 NSaved=   1.
 NSaved= 1 IEnMin= 1 EnMin= -594.073924601441     IErMin= 1 ErrMin= 5.16D-05
 ErrMax= 5.16D-05  0.00D+00 EMaxC= 1.00D-01 BMatC= 1.64D-06 BMatP= 1.64D-06
 IDIUse=1 WtCom= 1.00D+00 WtEn= 0.00D+00
 Coeff-Com:  0.100D+01
 Coeff:      0.100D+01
 Gap=     0.262 Goal=   None    Shift=    0.000
 Gap=     0.262 Goal=   None    Shift=    0.000
 RMSDP=4.15D-06 MaxDP=1.04D-04 DE= 1.82D-04 OVMax= 1.70D-04

 Cycle   9  Pass 1  IDiag  1:
 RMSU=  3.21D-05    CP:  1.00D+00
 E= -594.073924817475     Delta-E=       -0.000000216034 Rises=F Damp=F
 DIIS: error= 1.99D-05 at cycle   2 NSaved=   2.
 NSaved= 2 IEnMin= 2 EnMin= -594.073924817475     IErMin= 2 ErrMin= 1.99D-05
 ErrMax= 1.99D-05  0.00D+00 EMaxC= 1.00D-01 BMatC= 5.78D-07 BMatP= 1.64D-06
 IDIUse=1 WtCom= 1.00D+00 WtEn= 0.00D+00
 Coeff-Com:  0.318D+00 0.682D+00
 Coeff:      0.318D+00 0.682D+00
 Gap=     0.262 Goal=   None    Shift=    0.000
 Gap=     0.262 Goal=   None    Shift=    0.000
 RMSDP=3.10D-06 MaxDP=1.07D-04 DE=-2.16D-07 OVMax= 1.79D-04

 Cycle  10  Pass 1  IDiag  1:
 RMSU=  2.93D-06    CP:  1.00D+00  1.03D+00
 E= -594.073924910586     Delta-E=       -0.000000093111 Rises=F Damp=F
 DIIS: error= 1.75D-05 at cycle   3 NSaved=   3.
 NSaved= 3 IEnMin= 3 EnMin= -594.073924910586     IErMin= 3 ErrMin= 1.75D-05
 ErrMax= 1.75D-05  0.00D+00 EMaxC= 1.00D-01 BMatC= 3.10D-07 BMatP= 5.78D-07
 IDIUse=1 WtCom= 1.00D+00 WtEn= 0.00D+00
 Coeff-Com: -0.116D-01 0.421D+00 0.590D+00
 Coeff:     -0.116D-01 0.421D+00 0.590D+00
 Gap=     0.262 Goal=   None    Shift=    0.000
 Gap=     0.262 Goal=   None    Shift=    0.000
 RMSDP=1.49D-06 MaxDP=5.50D-05 DE=-9.31D-08 OVMax= 6.91D-05

 Cycle  11  Pass 1  IDiag  1:
 RMSU=  6.16D-07    CP:  1.00D+00  1.05D+00  6.11D-01
 E= -594.073924982808     Delta-E=       -0.000000072223 Rises=F Damp=F
 DIIS: error= 2.97D-06 at cycle   4 NSaved=   4.
 NSaved= 4 IEnMin= 4 EnMin= -594.073924982808     IErMin= 4 ErrMin= 2.97D-06
 ErrMax= 2.97D-06  0.00D+00 EMaxC= 1.00D-01 BMatC= 1.31D-08 BMatP= 3.10D-07
 IDIUse=1 WtCom= 1.00D+00 WtEn= 0.00D+00
 Coeff-Com: -0.171D-01 0.221D+00 0.332D+00 0.464D+00
 Coeff:     -0.171D-01 0.221D+00 0.332D+00 0.464D+00
 Gap=     0.262 Goal=   None    Shift=    0.000
 Gap=     0.262 Goal=   None    Shift=    0.000
 RMSDP=2.66D-07 MaxDP=9.93D-06 DE=-7.22D-08 OVMax= 2.02D-05

 Cycle  12  Pass 1  IDiag  1:
 RMSU=  2.29D-07    CP:  1.00D+00  1.05D+00  6.37D-01  8.39D-01
 E= -594.073924985992     Delta-E=       -0.000000003184 Rises=F Damp=F
 DIIS: error= 1.17D-06 at cycle   5 NSaved=   5.
 NSaved= 5 IEnMin= 5 EnMin= -594.073924985992     IErMin= 5 ErrMin= 1.17D-06
 ErrMax= 1.17D-06  0.00D+00 EMaxC= 1.00D-01 BMatC= 4.67D-10 BMatP= 1.31D-08
 IDIUse=1 WtCom= 1.00D+00 WtEn= 0.00D+00
 Coeff-Com: -0.150D-02-0.158D-01-0.284D-01 0.551D-01 0.991D+00
 Coeff:     -0.150D-02-0.158D-01-0.284D-01 0.551D-01 0.991D+00
 Gap=     0.262 Goal=   None    Shift=    0.000
 Gap=     0.262 Goal=   None    Shift=    0.000
 RMSDP=1.45D-07 MaxDP=2.58D-06 DE=-3.18D-09 OVMax= 1.27D-05

 Cycle  13  Pass 1  IDiag  1:
 RMSU=  9.37D-08    CP:  1.00D+00  1.06D+00  6.37D-01  9.93D-01  1.21D+00
 E= -594.073924986295     Delta-E=       -0.000000000303 Rises=F Damp=F
 DIIS: error= 5.63D-07 at cycle   6 NSaved=   6.
 NSaved= 6 IEnMin= 6 EnMin= -594.073924986295     IErMin= 6 ErrMin= 5.63D-07
 ErrMax= 5.63D-07  0.00D+00 EMaxC= 1.00D-01 BMatC= 3.24D-10 BMatP= 4.67D-10
 IDIUse=1 WtCom= 1.00D+00 WtEn= 0.00D+00
 Coeff-Com:  0.318D-02-0.601D-01-0.952D-01-0.770D-01 0.622D+00 0.607D+00
 Coeff:      0.318D-02-0.601D-01-0.952D-01-0.770D-01 0.622D+00 0.607D+00
 Gap=     0.262 Goal=   None    Shift=    0.000
 Gap=     0.262 Goal=   None    Shift=    0.000
 RMSDP=6.30D-08 MaxDP=2.18D-06 DE=-3.03D-10 OVMax= 5.47D-06

 Cycle  14  Pass 1  IDiag  1:
 RMSU=  4.24D-08    CP:  1.00D+00  1.06D+00  6.37D-01  1.03D+00  1.37D+00
                    CP:  8.74D-01
 E= -594.073924986422     Delta-E=       -0.000000000127 Rises=F Damp=F
 DIIS: error= 1.32D-07 at cycle   7 NSaved=   7.
 NSaved= 7 IEnMin= 7 EnMin= -594.073924986422     IErMin= 7 ErrMin= 1.32D-07
 ErrMax= 1.32D-07  0.00D+00 EMaxC= 1.00D-01 BMatC= 2.19D-11 BMatP= 3.24D-10
 IDIUse=1 WtCom= 1.00D+00 WtEn= 0.00D+00
 Coeff-Com:  0.160D-02-0.263D-01-0.413D-01-0.410D-01 0.179D+00 0.276D+00
 Coeff-Com:  0.651D+00
 Coeff:      0.160D-02-0.263D-01-0.413D-01-0.410D-01 0.179D+00 0.276D+00
 Coeff:      0.651D+00
 Gap=     0.262 Goal=   None    Shift=    0.000
 Gap=     0.262 Goal=   None    Shift=    0.000
 RMSDP=1.71D-08 MaxDP=4.38D-07 DE=-1.27D-10 OVMax= 1.63D-06

 Cycle  15  Pass 1  IDiag  1:
 RMSU=  1.17D-08    CP:  1.00D+00  1.06D+00  6.37D-01  1.04D+00  1.39D+00
                    CP:  9.74D-01  1.04D+00
 E= -594.073924986424     Delta-E=       -0.000000000002 Rises=F Damp=F
 DIIS: error= 7.56D-08 at cycle   8 NSaved=   8.
 NSaved= 8 IEnMin= 8 EnMin= -594.073924986424     IErMin= 8 ErrMin= 7.56D-08
 ErrMax= 7.56D-08  0.00D+00 EMaxC= 1.00D-01 BMatC= 2.94D-12 BMatP= 2.19D-11
 IDIUse=1 WtCom= 1.00D+00 WtEn= 0.00D+00
 Coeff-Com:  0.758D-04 0.149D-03 0.627D-03-0.156D-02-0.420D-01 0.149D-02
 Coeff-Com:  0.275D+00 0.766D+00
 Coeff:      0.758D-04 0.149D-03 0.627D-03-0.156D-02-0.420D-01 0.149D-02
 Coeff:      0.275D+00 0.766D+00
 Gap=     0.262 Goal=   None    Shift=    0.000
 Gap=     0.262 Goal=   None    Shift=    0.000
 RMSDP=8.03D-09 MaxDP=1.89D-07 DE=-2.27D-12 OVMax= 7.94D-07

 SCF Done:  E(ULC-wPBE) =  -594.073924986     A.U. after   15 cycles
            NFock= 15  Conv=0.80D-08     -V/T= 2.0058
 <Sx>= 0.0000 <Sy>= 0.0000 <Sz>= 0.0000 <S**2>=-0.0000 S=-0.0000
 <L.S>= 0.000000000000E+00
 KE= 5.906454790465D+02 PE=-2.821816387173D+03 EE= 9.198078130814D+02
 Annihilation of the first spin contaminant:
 S**2 before annihilation    -0.0000,   after    -0.0000
 Leave Link  502 at Fri Jul 24 21:40:41 2020, MaxMem=  4026531840 cpu:             418.5 elap:              52.5
 (Enter /opt/ohpc/pub/libs/gaussian/g16-A.03/sandybridge/g16/l601.exe)
 Copying SCF densities to generalized density rwf, IOpCl= 1 IROHF=0.

 **********************************************************************

            Population analysis using the SCF density.

 **********************************************************************

 Orbital symmetries:
 Alpha Orbitals:
       Occupied  (A) (A) (A) (A) (A) (A) (A) (A) (A) (A) (A) (A)
                 (A) (A) (A) (A) (A) (A) (A) (A) (A) (A) (A) (A)
                 (A) (A) (A) (A) (A) (A) (A) (A) (A) (A) (A) (A)
                 (A) (A) (A) (A) (A) (A) (A) (A) (A)
       Virtual   (A) (A) (A) (A) (A) (A) (A) (A) (A) (A) (A) (A)
                 (A) (A) (A) (A) (A) (A) (A) (A) (A) (A) (A) (A)
                 (A) (A) (A) (A) (A) (A) (A) (A) (A) (A) (A) (A)
                 (A) (A) (A) (A) (A) (A) (A) (A) (A) (A) (A) (A)
                 (A) (A) (A) (A) (A) (A) (A) (A) (A) (A) (A) (A)
                 (A) (A) (A) (A) (A) (A) (A) (A) (A) (A) (A) (A)
                 (A) (A) (A) (A) (A) (A) (A) (A) (A) (A) (A) (A)
                 (A) (A) (A) (A) (A) (A) (A) (A) (A) (A) (A) (A)
                 (A) (A) (A) (A) (A) (A) (A) (A) (A) (A) (A) (A)
                 (A) (A) (A) (A) (A) (A) (A) (A) (A) (A) (A) (A)
                 (A) (A) (A) (A) (A) (A) (A) (A) (A) (A) (A) (A)
                 (A) (A) (A) (A) (A) (A) (A) (A) (A) (A) (A) (A)
                 (A) (A) (A) (A) (A) (A) (A) (A) (A) (A) (A) (A)
                 (A) (A) (A) (A) (A) (A) (A) (A) (A) (A) (A) (A)
                 (A) (A) (A) (A)
 Beta  Orbitals:
       Occupied  (A) (A) (A) (A) (A) (A) (A) (A) (A) (A) (A) (A)
                 (A) (A) (A) (A) (A) (A) (A) (A) (A) (A) (A) (A)
                 (A) (A) (A) (A) (A) (A) (A) (A) (A) (A) (A) (A)
                 (A) (A) (A) (A) (A) (A) (A) (A) (A)
       Virtual   (A) (A) (A) (A) (A) (A) (A) (A) (A) (A) (A) (A)
                 (A) (A) (A) (A) (A) (A) (A) (A) (A) (A) (A) (A)
                 (A) (A) (A) (A) (A) (A) (A) (A) (A) (A) (A) (A)
                 (A) (A) (A) (A) (A) (A) (A) (A) (A) (A) (A) (A)
                 (A) (A) (A) (A) (A) (A) (A) (A) (A) (A) (A) (A)
                 (A) (A) (A) (A) (A) (A) (A) (A) (A) (A) (A) (A)
                 (A) (A) (A) (A) (A) (A) (A) (A) (A) (A) (A) (A)
                 (A) (A) (A) (A) (A) (A) (A) (A) (A) (A) (A) (A)
                 (A) (A) (A) (A) (A) (A) (A) (A) (A) (A) (A) (A)
                 (A) (A) (A) (A) (A) (A) (A) (A) (A) (A) (A) (A)
                 (A) (A) (A) (A) (A) (A) (A) (A) (A) (A) (A) (A)
                 (A) (A) (A) (A) (A) (A) (A) (A) (A) (A) (A) (A)
                 (A) (A) (A) (A) (A) (A) (A) (A) (A) (A) (A) (A)
                 (A) (A) (A) (A) (A) (A) (A) (A) (A) (A) (A) (A)
                 (A) (A) (A) (A)
 The electronic state is 1-A.
 Alpha  occ. eigenvalues --  -24.36811 -14.10276 -14.08081 -10.07603 -10.03953
 Alpha  occ. eigenvalues --  -10.03345 -10.02960 -10.02343 -10.01645 -10.01219
 Alpha  occ. eigenvalues --  -10.00192 -10.00111  -9.99562  -1.19889  -0.96653
 Alpha  occ. eigenvalues --   -0.94343  -0.83551  -0.82811  -0.81355  -0.77630
 Alpha  occ. eigenvalues --   -0.69578  -0.67569  -0.65295  -0.63699  -0.58507
 Alpha  occ. eigenvalues --   -0.55958  -0.54903  -0.53089  -0.50971  -0.50115
 Alpha  occ. eigenvalues --   -0.49972  -0.47779  -0.45654  -0.45169  -0.43942
 Alpha  occ. eigenvalues --   -0.43391  -0.43106  -0.41270  -0.39459  -0.36229
 Alpha  occ. eigenvalues --   -0.34139  -0.32459  -0.31343  -0.29860  -0.27591
 Alpha virt. eigenvalues --   -0.01438   0.01541   0.03023   0.06790   0.10999
 Alpha virt. eigenvalues --    0.12097   0.14831   0.16086   0.16750   0.17318
 Alpha virt. eigenvalues --    0.18395   0.18650   0.20468   0.21801   0.24824
 Alpha virt. eigenvalues --    0.28542   0.29176   0.32535   0.33803   0.34793
 Alpha virt. eigenvalues --    0.36709   0.37767   0.39944   0.42404   0.43716
 Alpha virt. eigenvalues --    0.46012   0.46680   0.48735   0.49709   0.50239
 Alpha virt. eigenvalues --    0.50272   0.51320   0.54229   0.54639   0.55044
 Alpha virt. eigenvalues --    0.55261   0.55757   0.56138   0.56686   0.57017
 Alpha virt. eigenvalues --    0.58232   0.59541   0.61115   0.62904   0.63806
 Alpha virt. eigenvalues --    0.64789   0.65279   0.67235   0.68777   0.69716
 Alpha virt. eigenvalues --    0.71238   0.71449   0.72743   0.74332   0.75203
 Alpha virt. eigenvalues --    0.77052   0.79383   0.83046   0.84804   0.87550
 Alpha virt. eigenvalues --    0.88756   0.90619   0.91597   0.92747   0.93158
 Alpha virt. eigenvalues --    0.94444   0.95328   0.97021   0.97977   1.00701
 Alpha virt. eigenvalues --    1.01419   1.01878   1.03148   1.03518   1.04863
 Alpha virt. eigenvalues --    1.06273   1.07460   1.08511   1.11686   1.13116
 Alpha virt. eigenvalues --    1.15484   1.16922   1.18216   1.20806   1.22123
 Alpha virt. eigenvalues --    1.22948   1.25724   1.27791   1.31457   1.34321
 Alpha virt. eigenvalues --    1.34687   1.39185   1.42594   1.45782   1.47290
 Alpha virt. eigenvalues --    1.48829   1.50678   1.51152   1.52166   1.52474
 Alpha virt. eigenvalues --    1.54634   1.55337   1.58564   1.59747   1.61131
 Alpha virt. eigenvalues --    1.61886   1.62806   1.64367   1.65210   1.65517
 Alpha virt. eigenvalues --    1.67269   1.68287   1.69524   1.69939   1.73248
 Alpha virt. eigenvalues --    1.73736   1.75826   1.78288   1.80488   1.82220
 Alpha virt. eigenvalues --    1.83400   1.83767   1.85193   1.85991   1.86347
 Alpha virt. eigenvalues --    1.88277   1.90184   1.92367   1.94045   1.95036
 Alpha virt. eigenvalues --    1.97310   1.97498   1.98745   2.00627   2.03948
 Alpha virt. eigenvalues --    2.05239   2.06123   2.08661   2.11405   2.15147
 Alpha virt. eigenvalues --    2.20993   2.24888   2.28940   2.32987   2.33704
 Alpha virt. eigenvalues --    2.35545   2.38749   2.39783   2.41278   2.46108
 Alpha virt. eigenvalues --    2.48548   2.50053   2.51782   2.52215   2.58884
 Alpha virt. eigenvalues --    2.59308   2.65077   2.68488   2.73789   2.77969
 Alpha virt. eigenvalues --    2.79814   2.83977   2.88363   2.92662   3.06298
 Alpha virt. eigenvalues --    3.33472   3.55493   3.57303   3.61119   3.75223
 Alpha virt. eigenvalues --    3.97912   4.19681
  Beta  occ. eigenvalues --  -24.36811 -14.10276 -14.08081 -10.07603 -10.03953
  Beta  occ. eigenvalues --  -10.03345 -10.02960 -10.02343 -10.01645 -10.01219
  Beta  occ. eigenvalues --  -10.00192 -10.00111  -9.99562  -1.19889  -0.96653
  Beta  occ. eigenvalues --   -0.94343  -0.83551  -0.82811  -0.81355  -0.77630
  Beta  occ. eigenvalues --   -0.69578  -0.67569  -0.65295  -0.63699  -0.58507
  Beta  occ. eigenvalues --   -0.55958  -0.54903  -0.53089  -0.50971  -0.50115
  Beta  occ. eigenvalues --   -0.49972  -0.47779  -0.45654  -0.45169  -0.43942
  Beta  occ. eigenvalues --   -0.43391  -0.43106  -0.41270  -0.39459  -0.36229
  Beta  occ. eigenvalues --   -0.34139  -0.32459  -0.31343  -0.29860  -0.27591
  Beta virt. eigenvalues --   -0.01438   0.01541   0.03023   0.06790   0.10999
  Beta virt. eigenvalues --    0.12097   0.14831   0.16086   0.16750   0.17318
  Beta virt. eigenvalues --    0.18395   0.18650   0.20468   0.21801   0.24824
  Beta virt. eigenvalues --    0.28542   0.29176   0.32535   0.33803   0.34793
  Beta virt. eigenvalues --    0.36709   0.37767   0.39944   0.42404   0.43716
  Beta virt. eigenvalues --    0.46012   0.46680   0.48735   0.49709   0.50239
  Beta virt. eigenvalues --    0.50272   0.51320   0.54229   0.54639   0.55044
  Beta virt. eigenvalues --    0.55261   0.55757   0.56138   0.56686   0.57017
  Beta virt. eigenvalues --    0.58232   0.59541   0.61115   0.62904   0.63806
  Beta virt. eigenvalues --    0.64789   0.65279   0.67235   0.68777   0.69716
  Beta virt. eigenvalues --    0.71238   0.71449   0.72743   0.74332   0.75203
  Beta virt. eigenvalues --    0.77052   0.79383   0.83046   0.84804   0.87550
  Beta virt. eigenvalues --    0.88756   0.90619   0.91597   0.92747   0.93158
  Beta virt. eigenvalues --    0.94444   0.95328   0.97021   0.97977   1.00701
  Beta virt. eigenvalues --    1.01419   1.01878   1.03148   1.03518   1.04863
  Beta virt. eigenvalues --    1.06273   1.07460   1.08511   1.11686   1.13116
  Beta virt. eigenvalues --    1.15484   1.16922   1.18216   1.20806   1.22123
  Beta virt. eigenvalues --    1.22948   1.25724   1.27791   1.31457   1.34321
  Beta virt. eigenvalues --    1.34687   1.39185   1.42594   1.45782   1.47290
  Beta virt. eigenvalues --    1.48829   1.50678   1.51152   1.52166   1.52474
  Beta virt. eigenvalues --    1.54634   1.55337   1.58564   1.59747   1.61131
  Beta virt. eigenvalues --    1.61886   1.62806   1.64367   1.65210   1.65517
  Beta virt. eigenvalues --    1.67269   1.68287   1.69524   1.69939   1.73248
  Beta virt. eigenvalues --    1.73736   1.75826   1.78288   1.80488   1.82220
  Beta virt. eigenvalues --    1.83400   1.83767   1.85193   1.85991   1.86347
  Beta virt. eigenvalues --    1.88277   1.90184   1.92367   1.94045   1.95036
  Beta virt. eigenvalues --    1.97310   1.97498   1.98745   2.00627   2.03948
  Beta virt. eigenvalues --    2.05239   2.06123   2.08661   2.11405   2.15147
  Beta virt. eigenvalues --    2.20993   2.24888   2.28940   2.32987   2.33704
  Beta virt. eigenvalues --    2.35545   2.38749   2.39783   2.41278   2.46108
  Beta virt. eigenvalues --    2.48548   2.50053   2.51782   2.52215   2.58884
  Beta virt. eigenvalues --    2.59308   2.65077   2.68488   2.73789   2.77969
  Beta virt. eigenvalues --    2.79814   2.83977   2.88363   2.92662   3.06298
  Beta virt. eigenvalues --    3.33472   3.55493   3.57303   3.61119   3.75223
  Beta virt. eigenvalues --    3.97912   4.19681
          Condensed to atoms (all electrons):
               1          2          3          4          5          6
     1  C    4.908702   0.493682   0.024171  -0.056215  -0.031975   0.458819
     2  C    0.493682   4.688751   0.469471  -0.029881  -0.055910  -0.024938
     3  C    0.024171   0.469471   4.931227   0.378094  -0.048421  -0.062313
     4  C   -0.056215  -0.029881   0.378094   5.154407   0.551535  -0.075692
     5  N   -0.031975  -0.055910  -0.048421   0.551535   6.296855   0.568306
     6  C    0.458819  -0.024938  -0.062313  -0.075692   0.568306   4.658418
     7  C    0.001106   0.004381  -0.098661   0.255634  -0.074542   0.004939
     8  N    0.000048   0.000669   0.007172  -0.085977   0.001079  -0.000079
     9  C    0.000002  -0.000013  -0.000923   0.007636  -0.000050   0.000006
    10  C    0.000000   0.000000   0.000152   0.000938  -0.000017  -0.000001
    11  C    0.000001   0.000012   0.000009   0.006997   0.001318   0.000027
    12  C    0.000291  -0.000421   0.022336  -0.089751   0.019253  -0.000745
    13  F   -0.000014  -0.000005  -0.000112  -0.003947  -0.003505   0.000028
    14  H    0.376020  -0.052163   0.010196   0.001008   0.006888  -0.042060
    15  H   -0.061972   0.411686  -0.055021   0.009081  -0.000944   0.009603
    16  H    0.011787  -0.056512   0.380568  -0.045732   0.006902  -0.000153
    17  H   -0.056259   0.005356   0.000909   0.002005  -0.028719   0.398090
    18  H   -0.000000  -0.000001  -0.000010  -0.000608   0.000004  -0.000000
    19  H   -0.000000  -0.000000  -0.000005   0.000043  -0.000000   0.000000
    20  H    0.000000   0.000000   0.000014  -0.000271   0.000034   0.000000
               7          8          9         10         11         12
     1  C    0.001106   0.000048   0.000002   0.000000   0.000001   0.000291
     2  C    0.004381   0.000669  -0.000013   0.000000   0.000012  -0.000421
     3  C   -0.098661   0.007172  -0.000923   0.000152   0.000009   0.022336
     4  C    0.255634  -0.085977   0.007636   0.000938   0.006997  -0.089751
     5  N   -0.074542   0.001079  -0.000050  -0.000017   0.001318   0.019253
     6  C    0.004939  -0.000079   0.000006  -0.000001   0.000027  -0.000745
     7  C    5.460055   0.578250  -0.077758  -0.043699  -0.039889   0.008926
     8  N    0.578250   6.323900   0.514021  -0.036302  -0.043187  -0.038458
     9  C   -0.077758   0.514021   4.712241   0.474513  -0.022684  -0.066098
    10  C   -0.043699  -0.036302   0.474513   4.895070   0.418625   0.027824
    11  C   -0.039889  -0.043187  -0.022684   0.418625   4.871650   0.432259
    12  C    0.008926  -0.038458  -0.066098   0.027824   0.432259   5.161677
    13  F   -0.056933   0.001189   0.000195   0.004933  -0.055616   0.420543
    14  H    0.000105   0.000000   0.000000   0.000000  -0.000000  -0.000006
    15  H   -0.000397  -0.000039  -0.000001  -0.000000   0.000000   0.000009
    16  H   -0.020414   0.038311   0.000054   0.000312  -0.000061   0.002390
    17  H   -0.000605   0.000005  -0.000000  -0.000000  -0.000002  -0.000109
    18  H    0.001701  -0.032426   0.397528  -0.054142   0.007436   0.000719
    19  H   -0.000068   0.005617  -0.038873   0.379061  -0.042330   0.008984
    20  H    0.014133  -0.000213   0.010055  -0.048953   0.385428  -0.043910
              13         14         15         16         17         18
     1  C   -0.000014   0.376020  -0.061972   0.011787  -0.056259  -0.000000
     2  C   -0.000005  -0.052163   0.411686  -0.056512   0.005356  -0.000001
     3  C   -0.000112   0.010196  -0.055021   0.380568   0.000909  -0.000010
     4  C   -0.003947   0.001008   0.009081  -0.045732   0.002005  -0.000608
     5  N   -0.003505   0.006888  -0.000944   0.006902  -0.028719   0.000004
     6  C    0.000028  -0.042060   0.009603  -0.000153   0.398090  -0.000000
     7  C   -0.056933   0.000105  -0.000397  -0.020414  -0.000605   0.001701
     8  N    0.001189   0.000000  -0.000039   0.038311   0.000005  -0.032426
     9  C    0.000195   0.000000  -0.000001   0.000054  -0.000000   0.397528
    10  C    0.004933   0.000000  -0.000000   0.000312  -0.000000  -0.054142
    11  C   -0.055616  -0.000000   0.000000  -0.000061  -0.000002   0.007436
    12  C    0.420543  -0.000006   0.000009   0.002390  -0.000109   0.000719
    13  F    8.814168   0.000000  -0.000000  -0.000009   0.000132   0.000006
    14  H    0.000000   0.735513  -0.017198  -0.000076  -0.007864  -0.000000
    15  H   -0.000000  -0.017198   0.742276  -0.015462  -0.000242   0.000000
    16  H   -0.000009  -0.000076  -0.015462   0.721595   0.000107  -0.000326
    17  H    0.000132  -0.007864  -0.000242   0.000107   0.689273   0.000000
    18  H    0.000006  -0.000000   0.000000  -0.000326   0.000000   0.683056
    19  H   -0.000041  -0.000000   0.000000  -0.000009  -0.000000  -0.010849
    20  H    0.000882  -0.000000   0.000000   0.000001  -0.000000  -0.000226
              19         20
     1  C   -0.000000   0.000000
     2  C   -0.000000   0.000000
     3  C   -0.000005   0.000014
     4  C    0.000043  -0.000271
     5  N   -0.000000   0.000034
     6  C    0.000000   0.000000
     7  C   -0.000068   0.014133
     8  N    0.005617  -0.000213
     9  C   -0.038873   0.010055
    10  C    0.379061  -0.048953
    11  C   -0.042330   0.385428
    12  C    0.008984  -0.043910
    13  F   -0.000041   0.000882
    14  H   -0.000000  -0.000000
    15  H    0.000000   0.000000
    16  H   -0.000009   0.000001
    17  H   -0.000000  -0.000000
    18  H   -0.010849  -0.000226
    19  H    0.713191  -0.014034
    20  H   -0.014034   0.700954
          Atomic-Atomic Spin Densities.
               1          2          3          4          5          6
     1  C    0.000000   0.000000  -0.000000   0.000000  -0.000000   0.000000
     2  C    0.000000  -0.000000   0.000000  -0.000000   0.000000  -0.000000
     3  C   -0.000000   0.000000  -0.000000   0.000000   0.000000   0.000000
     4  C    0.000000  -0.000000   0.000000   0.000000   0.000000  -0.000000
     5  N   -0.000000   0.000000   0.000000   0.000000  -0.000000   0.000000
     6  C    0.000000  -0.000000   0.000000  -0.000000   0.000000  -0.000000
     7  C    0.000000  -0.000000   0.000000  -0.000000  -0.000000  -0.000000
     8  N    0.000000  -0.000000   0.000000   0.000000   0.000000  -0.000000
     9  C   -0.000000   0.000000  -0.000000   0.000000  -0.000000   0.000000
    10  C   -0.000000   0.000000   0.000000   0.000000   0.000000   0.000000
    11  C   -0.000000  -0.000000  -0.000000   0.000000  -0.000000   0.000000
    12  C   -0.000000   0.000000  -0.000000  -0.000000   0.000000   0.000000
    13  F   -0.000000   0.000000  -0.000000  -0.000000   0.000000   0.000000
    14  H   -0.000000   0.000000  -0.000000   0.000000  -0.000000   0.000000
    15  H    0.000000  -0.000000   0.000000  -0.000000   0.000000  -0.000000
    16  H   -0.000000   0.000000  -0.000000   0.000000  -0.000000   0.000000
    17  H   -0.000000   0.000000   0.000000  -0.000000   0.000000  -0.000000
    18  H    0.000000   0.000000   0.000000  -0.000000   0.000000  -0.000000
    19  H   -0.000000  -0.000000  -0.000000   0.000000  -0.000000  -0.000000
    20  H    0.000000  -0.000000   0.000000  -0.000000  -0.000000  -0.000000
               7          8          9         10         11         12
     1  C    0.000000   0.000000  -0.000000  -0.000000  -0.000000  -0.000000
     2  C   -0.000000  -0.000000   0.000000   0.000000  -0.000000   0.000000
     3  C    0.000000   0.000000  -0.000000   0.000000  -0.000000  -0.000000
     4  C   -0.000000   0.000000   0.000000   0.000000   0.000000  -0.000000
     5  N   -0.000000   0.000000  -0.000000   0.000000  -0.000000   0.000000
     6  C   -0.000000  -0.000000   0.000000   0.000000   0.000000   0.000000
     7  C   -0.000000  -0.000000   0.000000   0.000000   0.000000   0.000000
     8  N   -0.000000   0.000000   0.000000  -0.000000   0.000000  -0.000000
     9  C    0.000000   0.000000  -0.000000  -0.000000   0.000000  -0.000000
    10  C    0.000000  -0.000000  -0.000000   0.000000  -0.000000   0.000000
    11  C    0.000000   0.000000   0.000000  -0.000000  -0.000000  -0.000000
    12  C    0.000000  -0.000000  -0.000000   0.000000  -0.000000  -0.000000
    13  F    0.000000  -0.000000   0.000000  -0.000000   0.000000  -0.000000
    14  H    0.000000   0.000000   0.000000  -0.000000  -0.000000  -0.000000
    15  H   -0.000000  -0.000000  -0.000000   0.000000   0.000000   0.000000
    16  H   -0.000000   0.000000   0.000000  -0.000000   0.000000  -0.000000
    17  H   -0.000000   0.000000   0.000000  -0.000000   0.000000   0.000000
    18  H   -0.000000  -0.000000  -0.000000  -0.000000   0.000000   0.000000
    19  H   -0.000000   0.000000  -0.000000   0.000000  -0.000000   0.000000
    20  H   -0.000000   0.000000   0.000000  -0.000000  -0.000000   0.000000
              13         14         15         16         17         18
     1  C   -0.000000  -0.000000   0.000000  -0.000000  -0.000000   0.000000
     2  C    0.000000   0.000000  -0.000000   0.000000   0.000000   0.000000
     3  C   -0.000000  -0.000000   0.000000  -0.000000   0.000000   0.000000
     4  C   -0.000000   0.000000  -0.000000   0.000000  -0.000000  -0.000000
     5  N    0.000000  -0.000000   0.000000  -0.000000   0.000000   0.000000
     6  C    0.000000   0.000000  -0.000000   0.000000  -0.000000  -0.000000
     7  C    0.000000   0.000000  -0.000000  -0.000000  -0.000000  -0.000000
     8  N   -0.000000   0.000000  -0.000000   0.000000   0.000000  -0.000000
     9  C    0.000000   0.000000  -0.000000   0.000000   0.000000  -0.000000
    10  C   -0.000000  -0.000000   0.000000  -0.000000  -0.000000  -0.000000
    11  C    0.000000  -0.000000   0.000000   0.000000   0.000000   0.000000
    12  C   -0.000000  -0.000000   0.000000  -0.000000   0.000000   0.000000
    13  F    0.000000  -0.000000   0.000000  -0.000000   0.000000   0.000000
    14  H   -0.000000  -0.000000   0.000000  -0.000000   0.000000   0.000000
    15  H    0.000000   0.000000  -0.000000   0.000000  -0.000000  -0.000000
    16  H   -0.000000  -0.000000   0.000000  -0.000000   0.000000  -0.000000
    17  H    0.000000   0.000000  -0.000000   0.000000   0.000000  -0.000000
    18  H    0.000000   0.000000  -0.000000  -0.000000  -0.000000   0.000000
    19  H    0.000000  -0.000000   0.000000  -0.000000  -0.000000  -0.000000
    20  H   -0.000000   0.000000  -0.000000   0.000000  -0.000000   0.000000
              19         20
     1  C   -0.000000   0.000000
     2  C   -0.000000  -0.000000
     3  C   -0.000000   0.000000
     4  C    0.000000  -0.000000
     5  N   -0.000000  -0.000000
     6  C   -0.000000  -0.000000
     7  C   -0.000000  -0.000000
     8  N    0.000000   0.000000
     9  C   -0.000000   0.000000
    10  C    0.000000  -0.000000
    11  C   -0.000000  -0.000000
    12  C    0.000000   0.000000
    13  F    0.000000  -0.000000
    14  H   -0.000000   0.000000
    15  H    0.000000  -0.000000
    16  H   -0.000000   0.000000
    17  H   -0.000000  -0.000000
    18  H   -0.000000   0.000000
    19  H    0.000000  -0.000000
    20  H   -0.000000  -0.000000
 Mulliken charges and spin densities:
               1          2
     1  C   -0.068193   0.000000
     2  C    0.145834   0.000000
     3  C    0.041146  -0.000000
     4  C    0.020696   0.000000
     5  N   -0.208089  -0.000000
     6  C    0.107744  -0.000000
     7  C    0.083737  -0.000000
     8  N   -0.233580   0.000000
     9  C    0.090150  -0.000000
    10  C   -0.018314   0.000000
    11  C    0.080007  -0.000000
    12  C    0.134286   0.000000
    13  F   -0.121894   0.000000
    14  H   -0.010361  -0.000000
    15  H   -0.021378  -0.000000
    16  H   -0.023272  -0.000000
    17  H   -0.002075   0.000000
    18  H    0.008139   0.000000
    19  H   -0.000686   0.000000
    20  H   -0.003895  -0.000000
 Sum of Mulliken charges =  -0.00000   0.00000
 Mulliken charges and spin densities with hydrogens summed into heavy atoms:
               1          2
     1  C   -0.078555   0.000000
     2  C    0.124457   0.000000
     3  C    0.017874  -0.000000
     4  C    0.020696   0.000000
     5  N   -0.208089  -0.000000
     6  C    0.105670  -0.000000
     7  C    0.083737  -0.000000
     8  N   -0.233580   0.000000
     9  C    0.098288  -0.000000
    10  C   -0.019001   0.000000
    11  C    0.076112  -0.000000
    12  C    0.134286   0.000000
    13  F   -0.121894   0.000000
 Electronic spatial extent (au):  <R**2>=           2408.5247
 Charge=             -0.0000 electrons
 Dipole moment (field-independent basis, Debye):
    X=             -0.6421    Y=             -0.9640    Z=              0.0586  Tot=              1.1597
 Quadrupole moment (field-independent basis, Debye-Ang):
   XX=            -53.4513   YY=            -72.1606   ZZ=            -75.3828
   XY=             -0.2509   XZ=              0.1685   YZ=             -0.0099
 Traceless Quadrupole moment (field-independent basis, Debye-Ang):
   XX=             13.5469   YY=             -5.1624   ZZ=             -8.3845
   XY=             -0.2509   XZ=              0.1685   YZ=             -0.0099
 Octapole moment (field-independent basis, Debye-Ang**2):
  XXX=            -16.4077  YYY=              8.6313  ZZZ=              0.5916  XYY=              0.6589
  XXY=              4.5173  XXZ=              1.9810  XZZ=             -3.2432  YZZ=              7.6273
  YYZ=              0.4477  XYZ=             -0.4656
 Hexadecapole moment (field-independent basis, Debye-Ang**3):
 XXXX=          -2142.5005 YYYY=           -670.9751 ZZZZ=            -75.6284 XXXY=              4.2097
 XXXZ=              2.2895 YYYX=             -1.6748 YYYZ=             -0.5930 ZZZX=             -0.6340
 ZZZY=              0.2407 XXYY=           -453.2627 XXZZ=           -457.7305 YYZZ=           -132.0059
 XXYZ=             -1.2454 YYXZ=              0.1118 ZZXY=             -4.7991
 N-N= 7.172891700586D+02 E-N=-2.821816378004D+03  KE= 5.906454790465D+02
                          Isotropic Fermi Contact Couplings
        Atom                 a.u.       MegaHertz       Gauss      10(-4) cm-1
     1  C(13)             -0.00000      -0.00000      -0.00000      -0.00000
     2  C(13)             -0.00000      -0.00000      -0.00000      -0.00000
     3  C(13)             -0.00000      -0.00000      -0.00000      -0.00000
     4  C(13)              0.00000       0.00000       0.00000       0.00000
     5  N(14)             -0.00000      -0.00000      -0.00000      -0.00000
     6  C(13)              0.00000       0.00000       0.00000       0.00000
     7  C(13)             -0.00000      -0.00000      -0.00000      -0.00000
     8  N(14)              0.00000       0.00000       0.00000       0.00000
     9  C(13)              0.00000       0.00000       0.00000       0.00000
    10  C(13)             -0.00000      -0.00000      -0.00000      -0.00000
    11  C(13)              0.00000       0.00000       0.00000       0.00000
    12  C(13)              0.00000       0.00000       0.00000       0.00000
    13  F(19)              0.00000       0.00000       0.00000       0.00000
    14  H(1)              -0.00000      -0.00000      -0.00000      -0.00000
    15  H(1)              -0.00000      -0.00000      -0.00000      -0.00000
    16  H(1)              -0.00000      -0.00000      -0.00000      -0.00000
    17  H(1)               0.00000       0.00000       0.00000       0.00000
    18  H(1)               0.00000       0.00000       0.00000       0.00000
    19  H(1)               0.00000       0.00000       0.00000       0.00000
    20  H(1)               0.00000       0.00000       0.00000       0.00000
 --------------------------------------------------------
       Center         ----  Spin Dipole Couplings  ----
                      3XX-RR        3YY-RR        3ZZ-RR
 --------------------------------------------------------
     1   Atom       -0.000000      0.000000      0.000000
     2   Atom       -0.000000      0.000000      0.000000
     3   Atom       -0.000000     -0.000000      0.000000
     4   Atom        0.000000     -0.000000     -0.000000
     5   Atom        0.000000     -0.000000     -0.000000
     6   Atom        0.000000      0.000000     -0.000000
     7   Atom        0.000000     -0.000000      0.000000
     8   Atom       -0.000000      0.000000      0.000000
     9   Atom        0.000000     -0.000000      0.000000
    10   Atom        0.000000      0.000000     -0.000000
    11   Atom       -0.000000      0.000000     -0.000000
    12   Atom        0.000000     -0.000000      0.000000
    13   Atom        0.000000      0.000000     -0.000000
    14   Atom       -0.000000      0.000000      0.000000
    15   Atom        0.000000     -0.000000      0.000000
    16   Atom       -0.000000     -0.000000      0.000000
    17   Atom        0.000000      0.000000     -0.000000
    18   Atom        0.000000     -0.000000     -0.000000
    19   Atom        0.000000      0.000000     -0.000000
    20   Atom       -0.000000      0.000000     -0.000000
 --------------------------------------------------------
                        XY            XZ            YZ
 --------------------------------------------------------
     1   Atom       -0.000000     -0.000000      0.000000
     2   Atom        0.000000      0.000000     -0.000000
     3   Atom       -0.000000      0.000000      0.000000
     4   Atom       -0.000000      0.000000     -0.000000
     5   Atom        0.000000      0.000000     -0.000000
     6   Atom       -0.000000      0.000000     -0.000000
     7   Atom        0.000000      0.000000     -0.000000
     8   Atom        0.000000     -0.000000      0.000000
     9   Atom       -0.000000      0.000000     -0.000000
    10   Atom        0.000000     -0.000000      0.000000
    11   Atom       -0.000000     -0.000000      0.000000
    12   Atom        0.000000      0.000000     -0.000000
    13   Atom       -0.000000      0.000000      0.000000
    14   Atom       -0.000000     -0.000000     -0.000000
    15   Atom       -0.000000     -0.000000      0.000000
    16   Atom       -0.000000      0.000000      0.000000
    17   Atom        0.000000     -0.000000     -0.000000
    18   Atom       -0.000000      0.000000     -0.000000
    19   Atom        0.000000     -0.000000      0.000000
    20   Atom       -0.000000     -0.000000      0.000000
 --------------------------------------------------------


 ---------------------------------------------------------------------------------
              Anisotropic Spin Dipole Couplings in Principal Axis System
 ---------------------------------------------------------------------------------

       Atom             a.u.   MegaHertz   Gauss  10(-4) cm-1        Axes

              Baa    -0.0000    -0.000    -0.000    -0.000  0.9678  0.2425  0.0679
     1 C(13)  Bbb     0.0000     0.000     0.000     0.000 -0.0050 -0.2509  0.9680
              Bcc     0.0000     0.000     0.000     0.000 -0.2518  0.9371  0.2416
 
              Baa    -0.0000    -0.000    -0.000    -0.000  0.9464 -0.3211 -0.0349
     2 C(13)  Bbb     0.0000     0.000     0.000     0.000  0.0392  0.0069  0.9992
              Bcc     0.0000     0.000     0.000     0.000  0.3206  0.9470 -0.0191
 
              Baa    -0.0000    -0.000    -0.000    -0.000  0.7096  0.7032 -0.0446
     3 C(13)  Bbb    -0.0000    -0.000    -0.000    -0.000 -0.7025  0.7109  0.0336
              Bcc     0.0000     0.000     0.000     0.000  0.0553  0.0075  0.9984
 
              Baa    -0.0000    -0.000    -0.000    -0.000  0.0719  0.5766  0.8139
     4 C(13)  Bbb    -0.0000    -0.000    -0.000    -0.000  0.1860  0.7939 -0.5789
              Bcc     0.0000     0.000     0.000     0.000  0.9799 -0.1930  0.0502
 
              Baa    -0.0000    -0.000    -0.000    -0.000 -0.5171  0.7852  0.3406
     5 N(14)  Bbb    -0.0000    -0.000    -0.000    -0.000  0.0947 -0.3431  0.9345
              Bcc     0.0000     0.000     0.000     0.000  0.8507  0.5155  0.1031
 
              Baa    -0.0000    -0.000    -0.000    -0.000 -0.1374 -0.1019  0.9853
     6 C(13)  Bbb    -0.0000    -0.000    -0.000    -0.000  0.6935  0.7004  0.1691
              Bcc     0.0000     0.000     0.000     0.000  0.7073 -0.7065  0.0256
 
              Baa    -0.0000    -0.000    -0.000    -0.000 -0.3088  0.9469  0.0899
     7 C(13)  Bbb     0.0000     0.000     0.000     0.000 -0.1440 -0.1400  0.9796
              Bcc     0.0000     0.000     0.000     0.000  0.9402  0.2896  0.1796
 
              Baa    -0.0000    -0.000    -0.000    -0.000  0.9886 -0.1445  0.0433
     8 N(14)  Bbb     0.0000     0.000     0.000     0.000 -0.0631 -0.1352  0.9888
              Bcc     0.0000     0.000     0.000     0.000  0.1370  0.9802  0.1428
 
              Baa    -0.0000    -0.000    -0.000    -0.000  0.4841  0.8750  0.0063
     9 C(13)  Bbb     0.0000     0.000     0.000     0.000 -0.1094  0.0534  0.9926
              Bcc     0.0000     0.000     0.000     0.000  0.8682 -0.4812  0.1216
 
              Baa    -0.0000    -0.000    -0.000    -0.000  0.2188 -0.1858  0.9579
    10 C(13)  Bbb    -0.0000    -0.000    -0.000    -0.000  0.7240 -0.6273 -0.2870
              Bcc     0.0000     0.000     0.000     0.000  0.6542  0.7563 -0.0027
 
              Baa    -0.0000    -0.000    -0.000    -0.000  0.9040  0.4261  0.0348
    11 C(13)  Bbb    -0.0000    -0.000    -0.000    -0.000 -0.0026 -0.0760  0.9971
              Bcc     0.0000     0.000     0.000     0.000 -0.4275  0.9015  0.0676
 
              Baa    -0.0000    -0.000    -0.000    -0.000 -0.5792  0.8149  0.0197
    12 C(13)  Bbb     0.0000     0.000     0.000     0.000  0.0362  0.0016  0.9993
              Bcc     0.0000     0.000     0.000     0.000  0.8144  0.5795 -0.0304
 
              Baa    -0.0000    -0.000    -0.000    -0.000 -0.1995 -0.1821  0.9628
    13 F(19)  Bbb    -0.0000    -0.000    -0.000    -0.000  0.8061  0.5282  0.2669
              Bcc     0.0000     0.000     0.000     0.000 -0.5572  0.8294  0.0414
 
              Baa    -0.0000    -0.000    -0.000    -0.000  0.9037  0.4232  0.0644
    14 H(1)   Bbb     0.0000     0.000     0.000     0.000 -0.4230  0.9060 -0.0179
              Bcc     0.0000     0.000     0.000     0.000 -0.0660 -0.0111  0.9978
 
              Baa    -0.0000    -0.000    -0.000    -0.000  0.6016  0.7987 -0.0104
    15 H(1)   Bbb     0.0000     0.000     0.000     0.000  0.1034 -0.0649  0.9925
              Bcc     0.0000     0.000     0.000     0.000  0.7921 -0.5982 -0.1216
 
              Baa    -0.0000    -0.000    -0.000    -0.000  0.4527  0.8913 -0.0272
    16 H(1)   Bbb    -0.0000    -0.000    -0.000    -0.000  0.8916 -0.4521  0.0240
              Bcc     0.0000     0.000     0.000     0.000 -0.0091  0.0352  0.9993
 
              Baa    -0.0000    -0.000    -0.000    -0.000 -0.5995  0.7493  0.2813
    17 H(1)   Bbb    -0.0000    -0.000    -0.000    -0.000  0.2116 -0.1906  0.9586
              Bcc     0.0000     0.000     0.000     0.000  0.7719  0.6342 -0.0443
 
              Baa    -0.0000    -0.000    -0.000    -0.000  0.3052  0.6595  0.6870
    18 H(1)   Bbb    -0.0000    -0.000    -0.000    -0.000 -0.4753 -0.5197  0.7099
              Bcc     0.0000     0.000     0.000     0.000  0.8252 -0.5432  0.1549
 
              Baa    -0.0000    -0.000    -0.000    -0.000  0.1809 -0.2228  0.9579
    19 H(1)   Bbb    -0.0000    -0.000    -0.000    -0.000 -0.5202  0.8049  0.2854
              Bcc     0.0000     0.000     0.000     0.000  0.8346  0.5500 -0.0297
 
              Baa    -0.0000    -0.000    -0.000    -0.000  0.2990 -0.1224  0.9464
    20 H(1)   Bbb    -0.0000    -0.000    -0.000    -0.000  0.9528  0.0936 -0.2889
              Bcc     0.0000     0.000     0.000     0.000 -0.0532  0.9881  0.1446
 

 ---------------------------------------------------------------------------------

 No NMR shielding tensors so no spin-rotation constants.
 Leave Link  601 at Fri Jul 24 21:40:42 2020, MaxMem=  4026531840 cpu:               1.7 elap:               0.3
 (Enter /opt/ohpc/pub/libs/gaussian/g16-A.03/sandybridge/g16/l701.exe)
 ... and contract with generalized density number  0.
 Compute integral first derivatives.
 Leave Link  701 at Fri Jul 24 21:40:42 2020, MaxMem=  4026531840 cpu:               1.2 elap:               0.2
 (Enter /opt/ohpc/pub/libs/gaussian/g16-A.03/sandybridge/g16/l702.exe)
 L702 exits ... SP integral derivatives will be done elsewhere.
 Leave Link  702 at Fri Jul 24 21:40:42 2020, MaxMem=  4026531840 cpu:               0.2 elap:               0.0
 (Enter /opt/ohpc/pub/libs/gaussian/g16-A.03/sandybridge/g16/l703.exe)
 Integral derivatives from FoFJK, PRISM(SPDF).
 Compute integral first derivatives, UseDBF=F ICtDFT=           0.
 Calling FoFJK, ICntrl=      2127 FMM=F ISym2X=0 I1Cent= 0 IOpClX= 1 NMat=1 NMatS=1 NMatT=0.
 FoFJK:  IHMeth= 1 ICntrl=    2127 DoSepK=T KAlg= 0 I1Cent=           0 FoldK=F
 IRaf=         1 NMat=       1 IRICut=       1 DoRegI=T DoRafI=F ISym2E= 0 IDoP0=0 IntGTp=1.
 FoFCou: FMM=F IPFlag=           0 FMFlag=      100000 FMFlg1=         800
         NFxFlg=           0 DoJE=F BraDBF=F KetDBF=F FulRan=T
         wScrn=  0.000000 ICntrl=      2527 IOpCl=  0 I1Cent=           0 NGrid=           0
         NMat0=    1 NMatS0=      1 NMatT0=    0 NMatD0=    1 NMtDS0=    0 NMtDT0=    0
 Symmetry not used in FoFCou.
 Leave Link  703 at Fri Jul 24 21:40:54 2020, MaxMem=  4026531840 cpu:              98.4 elap:              12.4
 (Enter /opt/ohpc/pub/libs/gaussian/g16-A.03/sandybridge/g16/l716.exe)
 Dipole        =-2.52606966D-01-3.79257972D-01 2.30634547D-02
 ***** Axes restored to original set *****
 -------------------------------------------------------------------
 Center     Atomic                   Forces (Hartrees/Bohr)
 Number     Number              X              Y              Z
 -------------------------------------------------------------------
      1        6          -0.051798294    0.063187351    0.001371246
      2        6          -0.001281047   -0.011710385   -0.008849648
      3        6           0.042956680   -0.011828755   -0.003704066
      4        6          -0.018530785    0.047664666    0.014936245
      5        7           0.024867000    0.002655157   -0.003765931
      6        6           0.024303974   -0.055757908    0.000391822
      7        6          -0.066084118   -0.067595472   -0.017825499
      8        7           0.054231947   -0.012180590    0.014729334
      9        6          -0.089004197   -0.049231346   -0.010992469
     10        6           0.046149427    0.059335503    0.002779260
     11        6           0.021781894   -0.040440506   -0.003900076
     12        6           0.042865019    0.086530291    0.005038666
     13        9          -0.007319642   -0.014907964    0.000514714
     14        1           0.013669406   -0.010261723    0.000773215
     15        1          -0.014066240   -0.021393996    0.003473278
     16        1          -0.002156496   -0.007604247    0.001492675
     17        1          -0.009234262    0.015466063   -0.000007155
     18        1          -0.003180506    0.004759758    0.001346348
     19        1          -0.012634128    0.005384655    0.000955419
     20        1           0.004464369    0.017929445    0.001242624
 -------------------------------------------------------------------
 Cartesian Forces:  Max     0.089004197 RMS     0.031204804
 Leave Link  716 at Fri Jul 24 21:40:54 2020, MaxMem=  4026531840 cpu:               0.2 elap:               0.1
 (Enter /opt/ohpc/pub/libs/gaussian/g16-A.03/sandybridge/g16/l103.exe)

 GradGradGradGradGradGradGradGradGradGradGradGradGradGradGradGradGradGrad
 Berny optimization.
 FormGI is forming the generalized inverse of G from B-inverse, IUseBI=4.
 GSVD:  received Info=                   1 from GESDD.
 Internal  Forces:  Max     0.077770189 RMS     0.015185771
 Search for a local minimum.
 Step number   1 out of a maximum of  107
 All quantities printed in internal units (Hartrees-Bohrs-Radians)
 RMS Force = .15186D-01 SwitMx=.10000D-02 MixMth= 1
 Mixed Optimization -- RFO/linear search
 Second derivative matrix not updated -- first step.
 ITU=  0
     Eigenvalues ---    0.00566   0.01606   0.01880   0.02007   0.02073
     Eigenvalues ---    0.02089   0.02145   0.02200   0.02339   0.02353
     Eigenvalues ---    0.02410   0.02468   0.02567   0.02660   0.02666
     Eigenvalues ---    0.02734   0.02805   0.15830   0.15948   0.15958
     Eigenvalues ---    0.15984   0.15997   0.15998   0.16000   0.21997
     Eigenvalues ---    0.22071   0.22412   0.23268   0.24363   0.24772
     Eigenvalues ---    0.24842   0.24908   0.24996   0.30782   0.30846
     Eigenvalues ---    0.31480   0.32877   0.34670   0.36704   0.36913
     Eigenvalues ---    0.37931   0.39972   0.40739   0.41318   0.45836
     Eigenvalues ---    0.46596   0.48617   0.50224   0.50466   0.53471
     Eigenvalues ---    0.53687   0.56626   0.57130   0.59730
 RFO step:  Lambda=-4.77473205D-02 EMin= 5.66497884D-03
 Linear search not attempted -- first point.
 Maximum step size (   0.300) exceeded in Quadratic search.
    -- Step size scaled by   0.921
 Iteration  1 RMS(Cart)=  0.04159275 RMS(Int)=  0.00088176
 Iteration  2 RMS(Cart)=  0.00128591 RMS(Int)=  0.00030262
 Iteration  3 RMS(Cart)=  0.00000097 RMS(Int)=  0.00030262
 ITry= 1 IFail=0 DXMaxC= 1.97D-01 DCOld= 1.00D+10 DXMaxT= 3.00D-01 DXLimC= 3.00D+00 Rises=F
 Variable       Old X    -DE/DX   Delta X   Delta X   Delta X     New X
                                 (Linear)    (Quad)   (Total)
    R1        2.55428   0.03616   0.00000   0.05920   0.05925   2.61353
    R2        2.67996  -0.00583   0.00000  -0.01136  -0.01119   2.66877
    R3        2.13132  -0.01507   0.00000  -0.03903  -0.03903   2.09229
[...]
     3  C    0.000000  -0.000000   0.000000   0.000000   0.000000   0.000000
     4  C    0.000000  -0.000000   0.000000  -0.000000  -0.000000   0.000000
     5  N   -0.000000  -0.000000   0.000000  -0.000000   0.000000   0.000000
     6  C    0.000000  -0.000000   0.000000   0.000000   0.000000  -0.000000
     7  C    0.000000   0.000000  -0.000000  -0.000000  -0.000000   0.000000
     8  N   -0.000000   0.000000  -0.000000   0.000000   0.000000   0.000000
     9  C    0.000000  -0.000000   0.000000  -0.000000  -0.000000  -0.000000
    10  C   -0.000000   0.000000  -0.000000   0.000000  -0.000000  -0.000000
    11  C    0.000000  -0.000000   0.000000  -0.000000   0.000000  -0.000000
    12  C   -0.000000   0.000000  -0.000000   0.000000  -0.000000   0.000000
    13  F    0.000000   0.000000  -0.000000  -0.000000   0.000000   0.000000
    14  H    0.000000  -0.000000   0.000000  -0.000000   0.000000   0.000000
    15  H   -0.000000   0.000000  -0.000000   0.000000  -0.000000   0.000000
    16  H    0.000000  -0.000000   0.000000   0.000000   0.000000  -0.000000
    17  H    0.000000  -0.000000   0.000000  -0.000000   0.000000  -0.000000
    18  H   -0.000000   0.000000   0.000000  -0.000000   0.000000   0.000000
    19  H    0.000000  -0.000000  -0.000000   0.000000  -0.000000  -0.000000
    20  H    0.000000   0.000000   0.000000  -0.000000   0.000000   0.000000
               7          8          9         10         11         12
     1  C    0.000000  -0.000000   0.000000  -0.000000   0.000000  -0.000000
     2  C    0.000000   0.000000  -0.000000   0.000000  -0.000000   0.000000
     3  C   -0.000000  -0.000000   0.000000  -0.000000   0.000000  -0.000000
     4  C   -0.000000   0.000000  -0.000000   0.000000  -0.000000   0.000000
     5  N   -0.000000   0.000000  -0.000000  -0.000000   0.000000  -0.000000
     6  C    0.000000   0.000000  -0.000000  -0.000000  -0.000000   0.000000
     7  C    0.000000  -0.000000   0.000000   0.000000  -0.000000   0.000000
     8  N   -0.000000   0.000000   0.000000  -0.000000  -0.000000  -0.000000
     9  C    0.000000   0.000000   0.000000   0.000000   0.000000   0.000000
    10  C    0.000000  -0.000000   0.000000  -0.000000   0.000000  -0.000000
    11  C   -0.000000  -0.000000   0.000000   0.000000   0.000000   0.000000
    12  C    0.000000  -0.000000   0.000000  -0.000000   0.000000  -0.000000
    13  F    0.000000   0.000000   0.000000  -0.000000  -0.000000  -0.000000
    14  H   -0.000000  -0.000000  -0.000000   0.000000  -0.000000   0.000000
    15  H   -0.000000   0.000000   0.000000   0.000000  -0.000000   0.000000
    16  H   -0.000000  -0.000000  -0.000000  -0.000000   0.000000   0.000000
    17  H   -0.000000   0.000000  -0.000000   0.000000   0.000000   0.000000
    18  H   -0.000000   0.000000  -0.000000   0.000000   0.000000  -0.000000
    19  H   -0.000000   0.000000  -0.000000   0.000000  -0.000000   0.000000
    20  H   -0.000000  -0.000000   0.000000  -0.000000   0.000000   0.000000
              13         14         15         16         17         18
     1  C    0.000000   0.000000  -0.000000   0.000000   0.000000  -0.000000
     2  C    0.000000  -0.000000   0.000000  -0.000000  -0.000000   0.000000
     3  C   -0.000000   0.000000  -0.000000   0.000000   0.000000   0.000000
     4  C   -0.000000  -0.000000   0.000000   0.000000  -0.000000  -0.000000
     5  N    0.000000   0.000000  -0.000000   0.000000   0.000000   0.000000
     6  C    0.000000   0.000000   0.000000  -0.000000  -0.000000   0.000000
     7  C    0.000000  -0.000000  -0.000000  -0.000000  -0.000000  -0.000000
     8  N    0.000000  -0.000000   0.000000  -0.000000   0.000000   0.000000
     9  C    0.000000  -0.000000   0.000000  -0.000000  -0.000000  -0.000000
    10  C   -0.000000   0.000000   0.000000  -0.000000   0.000000   0.000000
    11  C   -0.000000  -0.000000  -0.000000   0.000000   0.000000   0.000000
    12  C   -0.000000   0.000000   0.000000   0.000000   0.000000  -0.000000
    13  F    0.000000  -0.000000   0.000000  -0.000000  -0.000000   0.000000
    14  H   -0.000000  -0.000000  -0.000000   0.000000   0.000000  -0.000000
    15  H    0.000000  -0.000000   0.000000  -0.000000  -0.000000  -0.000000
    16  H   -0.000000   0.000000  -0.000000   0.000000   0.000000  -0.000000
    17  H   -0.000000   0.000000  -0.000000   0.000000  -0.000000  -0.000000
    18  H    0.000000  -0.000000  -0.000000  -0.000000  -0.000000  -0.000000
    19  H    0.000000   0.000000  -0.000000   0.000000   0.000000   0.000000
    20  H   -0.000000  -0.000000  -0.000000  -0.000000  -0.000000   0.000000
              19         20
     1  C    0.000000   0.000000
     2  C   -0.000000   0.000000
     3  C   -0.000000   0.000000
     4  C    0.000000  -0.000000
     5  N   -0.000000   0.000000
     6  C   -0.000000   0.000000
     7  C   -0.000000  -0.000000
     8  N    0.000000  -0.000000
     9  C   -0.000000   0.000000
    10  C    0.000000  -0.000000
    11  C   -0.000000   0.000000
    12  C    0.000000   0.000000
    13  F    0.000000  -0.000000
    14  H    0.000000  -0.000000
    15  H   -0.000000  -0.000000
    16  H    0.000000  -0.000000
    17  H    0.000000  -0.000000
    18  H    0.000000   0.000000
    19  H    0.000000  -0.000000
    20  H   -0.000000   0.000000
 Mulliken charges and spin densities:
               1          2
     1  C   -0.020150   0.000000
     2  C    0.071726  -0.000000
     3  C    0.046131   0.000000
     4  C    0.042693  -0.000000
     5  N   -0.191846   0.000000
     6  C    0.082158  -0.000000
     7  C    0.044917  -0.000000
     8  N   -0.198607   0.000000
     9  C    0.086300   0.000000
    10  C   -0.015592  -0.000000
    11  C    0.064162   0.000000
    12  C    0.118135   0.000000
    13  F   -0.097307   0.000000
    14  H   -0.012586  -0.000000
    15  H   -0.008434  -0.000000
    16  H   -0.012175   0.000000
    17  H   -0.001034  -0.000000
    18  H    0.003006  -0.000000
    19  H   -0.006117  -0.000000
    20  H    0.004621   0.000000
 Sum of Mulliken charges =   0.00000   0.00000
 Mulliken charges and spin densities with hydrogens summed into heavy atoms:
               1          2
     1  C   -0.032736   0.000000
     2  C    0.063292  -0.000000
     3  C    0.033956   0.000000
     4  C    0.042693  -0.000000
     5  N   -0.191846   0.000000
     6  C    0.081124  -0.000000
     7  C    0.044917  -0.000000
     8  N   -0.198607   0.000000
     9  C    0.089306   0.000000
    10  C   -0.021709  -0.000000
    11  C    0.068783   0.000000
    12  C    0.118135   0.000000
    13  F   -0.097307   0.000000
 Electronic spatial extent (au):  <R**2>=           2417.3101
 Charge=              0.0000 electrons
 Dipole moment (field-independent basis, Debye):
    X=             -0.5970    Y=             -1.0033    Z=              0.0092  Tot=              1.1675
 Quadrupole moment (field-independent basis, Debye-Ang):
   XX=            -53.7179   YY=            -72.2066   ZZ=            -75.7556
   XY=             -1.1104   XZ=              0.0117   YZ=             -0.0207
 Traceless Quadrupole moment (field-independent basis, Debye-Ang):
   XX=             13.5088   YY=             -4.9799   ZZ=             -8.5289
   XY=             -1.1104   XZ=              0.0117   YZ=             -0.0207
 Octapole moment (field-independent basis, Debye-Ang**2):
  XXX=            -10.4519  YYY=              7.7136  ZZZ=              0.0496  XYY=             -1.1068
  XXY=              3.1636  XXZ=             -0.0154  XZZ=             -3.5717  YZZ=              7.7201
  YYZ=              0.0526  XYZ=             -0.1135
 Hexadecapole moment (field-independent basis, Debye-Ang**3):
 XXXX=          -2130.7453 YYYY=           -677.6011 ZZZZ=            -76.1933 XXXY=             -6.4716
 XXXZ=              0.0144 YYYX=             -9.1751 YYYZ=             -0.0230 ZZZX=             -0.1136
 ZZZY=              0.1673 XXYY=           -462.5672 XXZZ=           -461.3429 YYZZ=           -133.4985
 XXYZ=             -0.1129 YYXZ=              0.0831 ZZXY=             -4.2718
 N-N= 7.151537055361D+02 E-N=-2.817168607020D+03  KE= 5.902812556713D+02
                          Isotropic Fermi Contact Couplings
        Atom                 a.u.       MegaHertz       Gauss      10(-4) cm-1
     1  C(13)             -0.00000      -0.00000      -0.00000      -0.00000
     2  C(13)              0.00000       0.00000       0.00000       0.00000
     3  C(13)              0.00000       0.00000       0.00000       0.00000
     4  C(13)              0.00000       0.00000       0.00000       0.00000
     5  N(14)              0.00000       0.00000       0.00000       0.00000
     6  C(13)             -0.00000      -0.00000      -0.00000      -0.00000
     7  C(13)              0.00000       0.00000       0.00000       0.00000
     8  N(14)             -0.00000      -0.00000      -0.00000      -0.00000
     9  C(13)             -0.00000      -0.00000      -0.00000      -0.00000
    10  C(13)              0.00000       0.00000       0.00000       0.00000
    11  C(13)              0.00000       0.00000       0.00000       0.00000
    12  C(13)             -0.00000      -0.00000      -0.00000      -0.00000
    13  F(19)              0.00000       0.00000       0.00000       0.00000
    14  H(1)               0.00000       0.00000       0.00000       0.00000
    15  H(1)              -0.00000      -0.00000      -0.00000      -0.00000
    16  H(1)              -0.00000      -0.00000      -0.00000      -0.00000
    17  H(1)               0.00000       0.00000       0.00000       0.00000
    18  H(1)               0.00000       0.00000       0.00000       0.00000
    19  H(1)              -0.00000      -0.00000      -0.00000      -0.00000
    20  H(1)               0.00000       0.00000       0.00000       0.00000
 --------------------------------------------------------
       Center         ----  Spin Dipole Couplings  ----
                      3XX-RR        3YY-RR        3ZZ-RR
 --------------------------------------------------------
     1   Atom        0.000000     -0.000000      0.000000
     2   Atom       -0.000000      0.000000     -0.000000
     3   Atom        0.000000      0.000000     -0.000000
     4   Atom        0.000000     -0.000000     -0.000000
     5   Atom        0.000000      0.000000     -0.000000
     6   Atom        0.000000     -0.000000      0.000000
     7   Atom       -0.000000      0.000000     -0.000000
     8   Atom       -0.000000      0.000000     -0.000000
     9   Atom        0.000000     -0.000000     -0.000000
    10   Atom       -0.000000     -0.000000      0.000000
    11   Atom        0.000000     -0.000000     -0.000000
    12   Atom        0.000000     -0.000000      0.000000
    13   Atom        0.000000     -0.000000      0.000000
    14   Atom       -0.000000      0.000000      0.000000
    15   Atom        0.000000     -0.000000      0.000000
    16   Atom        0.000000      0.000000     -0.000000
    17   Atom        0.000000     -0.000000      0.000000
    18   Atom        0.000000      0.000000     -0.000000
    19   Atom        0.000000     -0.000000     -0.000000
    20   Atom       -0.000000      0.000000     -0.000000
 --------------------------------------------------------
                        XY            XZ            YZ
 --------------------------------------------------------
     1   Atom       -0.000000     -0.000000     -0.000000
     2   Atom       -0.000000      0.000000      0.000000
     3   Atom        0.000000     -0.000000     -0.000000
     4   Atom       -0.000000      0.000000      0.000000
     5   Atom       -0.000000      0.000000      0.000000
     6   Atom        0.000000     -0.000000      0.000000
     7   Atom        0.000000     -0.000000      0.000000
     8   Atom        0.000000     -0.000000     -0.000000
     9   Atom        0.000000      0.000000     -0.000000
    10   Atom        0.000000     -0.000000      0.000000
    11   Atom        0.000000     -0.000000      0.000000
    12   Atom       -0.000000      0.000000     -0.000000
    13   Atom       -0.000000      0.000000     -0.000000
    14   Atom        0.000000     -0.000000     -0.000000
    15   Atom        0.000000      0.000000     -0.000000
    16   Atom        0.000000     -0.000000     -0.000000
    17   Atom        0.000000     -0.000000     -0.000000
    18   Atom        0.000000      0.000000      0.000000
    19   Atom        0.000000      0.000000      0.000000
    20   Atom        0.000000      0.000000     -0.000000
 --------------------------------------------------------


 ---------------------------------------------------------------------------------
              Anisotropic Spin Dipole Couplings in Principal Axis System
 ---------------------------------------------------------------------------------

       Atom             a.u.   MegaHertz   Gauss  10(-4) cm-1        Axes

              Baa    -0.0000    -0.000    -0.000    -0.000  0.2956  0.9553  0.0085
     1 C(13)  Bbb     0.0000     0.000     0.000     0.000  0.1075 -0.0421  0.9933
              Bcc     0.0000     0.000     0.000     0.000  0.9492 -0.2927 -0.1151
 
              Baa    -0.0000    -0.000    -0.000    -0.000  0.7863  0.6172 -0.0267
     2 C(13)  Bbb    -0.0000    -0.000    -0.000    -0.000  0.0198  0.0180  0.9996
              Bcc     0.0000     0.000     0.000     0.000 -0.6175  0.7866 -0.0019
 
              Baa    -0.0000    -0.000    -0.000    -0.000  0.0041  0.0028  1.0000
     3 C(13)  Bbb     0.0000     0.000     0.000     0.000  0.9713 -0.2379 -0.0033
              Bcc     0.0000     0.000     0.000     0.000  0.2379  0.9713 -0.0037
 
              Baa    -0.0000    -0.000    -0.000    -0.000  0.0989  0.9949 -0.0193
     4 C(13)  Bbb    -0.0000    -0.000    -0.000    -0.000 -0.0026  0.0196  0.9998
              Bcc     0.0000     0.000     0.000     0.000  0.9951 -0.0989  0.0045
 
              Baa    -0.0000    -0.000    -0.000    -0.000 -0.1532 -0.2190  0.9636
     5 N(14)  Bbb    -0.0000    -0.000    -0.000    -0.000  0.6127  0.7440  0.2666
              Bcc     0.0000     0.000     0.000     0.000  0.7753 -0.6312 -0.0202
 
              Baa    -0.0000    -0.000    -0.000    -0.000 -0.2698  0.9629 -0.0047
     6 C(13)  Bbb     0.0000     0.000     0.000     0.000  0.0008  0.0051  1.0000
              Bcc     0.0000     0.000     0.000     0.000  0.9629  0.2698 -0.0021
 
              Baa    -0.0000    -0.000    -0.000    -0.000  0.9237 -0.3820  0.0284
     7 C(13)  Bbb    -0.0000    -0.000    -0.000    -0.000 -0.0292  0.0037  0.9996
              Bcc     0.0000     0.000     0.000     0.000  0.3819  0.9242  0.0077
 
              Baa    -0.0000    -0.000    -0.000    -0.000  0.8225 -0.5685  0.0149
     8 N(14)  Bbb    -0.0000    -0.000    -0.000    -0.000 -0.0011  0.0247  0.9997
              Bcc     0.0000     0.000     0.000     0.000  0.5687  0.8223 -0.0197
 
              Baa    -0.0000    -0.000    -0.000    -0.000 -0.3996  0.9165  0.0186
     9 C(13)  Bbb    -0.0000    -0.000    -0.000    -0.000  0.0027 -0.0191  0.9998
              Bcc     0.0000     0.000     0.000     0.000  0.9167  0.3995  0.0052
 
              Baa    -0.0000    -0.000    -0.000    -0.000 -0.5848  0.8111 -0.0122
    10 C(13)  Bbb    -0.0000    -0.000    -0.000    -0.000  0.8111  0.5849  0.0000
              Bcc     0.0000     0.000     0.000     0.000 -0.0072  0.0099  0.9999
 
              Baa    -0.0000    -0.000    -0.000    -0.000  0.0083 -0.0221  0.9997
    11 C(13)  Bbb    -0.0000    -0.000    -0.000    -0.000 -0.1806  0.9833  0.0233
              Bcc     0.0000     0.000     0.000     0.000  0.9835  0.1808 -0.0042
 
              Baa    -0.0000    -0.000    -0.000    -0.000  0.2251  0.9743  0.0124
    12 C(13)  Bbb     0.0000     0.000     0.000     0.000 -0.0279 -0.0062  0.9996
              Bcc     0.0000     0.000     0.000     0.000  0.9739 -0.2254  0.0258
 
              Baa    -0.0000    -0.000    -0.000    -0.000  0.0742  0.9972  0.0108
    13 F(19)  Bbb     0.0000     0.000     0.000     0.000 -0.1195 -0.0019  0.9928
              Bcc     0.0000     0.000     0.000     0.000  0.9901 -0.0749  0.1190
 
              Baa    -0.0000    -0.000    -0.000    -0.000  0.9452 -0.3265  0.0061
    14 H(1)   Bbb     0.0000     0.000     0.000     0.000  0.3260  0.9446  0.0382
              Bcc     0.0000     0.000     0.000     0.000 -0.0182 -0.0342  0.9992
 
              Baa    -0.0000    -0.000    -0.000    -0.000 -0.1771  0.9841  0.0151
    15 H(1)   Bbb     0.0000     0.000     0.000     0.000 -0.0081 -0.0168  0.9998
              Bcc     0.0000     0.000     0.000     0.000  0.9842  0.1770  0.0110
 
              Baa    -0.0000    -0.000    -0.000    -0.000 -0.0013  0.0105  0.9999
    16 H(1)   Bbb    -0.0000    -0.000    -0.000    -0.000  0.7098 -0.7044  0.0083
              Bcc     0.0000     0.000     0.000     0.000  0.7044  0.7097 -0.0066
 
              Baa    -0.0000    -0.000    -0.000    -0.000 -0.0075  1.0000  0.0023
    17 H(1)   Bbb     0.0000     0.000     0.000     0.000  0.9995  0.0074  0.0310
              Bcc     0.0000     0.000     0.000     0.000 -0.0309 -0.0025  0.9995
 
              Baa    -0.0000    -0.000    -0.000    -0.000 -0.0065 -0.0244  0.9997
    18 H(1)   Bbb     0.0000     0.000     0.000     0.000  0.9129 -0.4083 -0.0040
              Bcc     0.0000     0.000     0.000     0.000  0.4082  0.9125  0.0249
 
              Baa    -0.0000    -0.000    -0.000    -0.000 -0.3000  0.9538  0.0166
    19 H(1)   Bbb    -0.0000    -0.000    -0.000    -0.000 -0.0063 -0.0194  0.9998
              Bcc     0.0000     0.000     0.000     0.000  0.9539  0.2998  0.0119
 
              Baa    -0.0000    -0.000    -0.000    -0.000  0.9262 -0.3728 -0.0560
    20 H(1)   Bbb    -0.0000    -0.000    -0.000    -0.000  0.0536 -0.0168  0.9984
              Bcc     0.0000     0.000     0.000     0.000  0.3731  0.9278 -0.0044
 

 ---------------------------------------------------------------------------------

 No NMR shielding tensors so no spin-rotation constants.
 Leave Link  601 at Fri Jul 24 21:47:20 2020, MaxMem=  4026531840 cpu:               1.6 elap:               0.2
 (Enter /opt/ohpc/pub/libs/gaussian/g16-A.03/sandybridge/g16/l9999.exe)

 Test job not archived.
 1\1\GINC-SKYLAKE048\FOpt\ULC-wPBE\CC-pVDZ\C10H7F1N2\RDU230\24-Jul-2020
 \0\\#P uLC-wPBE/cc-pVDZ iop(3/107=0164300000, 3/108=0164300000) opt\\H
 7 C10 N2 F1\\0,1\C,-3.5987245182,-0.0237839294,0.0043324412\C,-2.97717
 05401,-1.2783545844,-0.0023450023\C,-1.5831192388,-1.339048841,-0.0013
 164266\C,-0.8520515202,-0.1340040412,0.0064476194\N,-1.4416535754,1.07
 84393,0.0129946024\C,-2.7828193831,1.1140536692,0.0117750666\C,0.64409
 82031,-0.191309311,0.0077159047\N,1.1852830129,-1.4289171817,0.0112209
 082\C,2.5139879339,-1.5769869153,0.0130955583\C,3.4095932929,-0.499973
 5919,0.0118125052\C,2.876611598,0.7891420203,0.007417649\C,1.488455178
 8,0.9422050312,0.00518776\F,1.0076922534,2.1974773885,-0.0004804816\H,
 -4.6925697076,0.0748014447,0.0037353922\H,-3.5734861513,-2.2015413582,
 -0.0081252818\H,-1.0346176357,-2.2880847506,-0.0060810484\H,-3.2329034
 968,2.120398178,0.017628517\H,2.8839472255,-2.6144072048,0.0161785077\
 H,4.4948514697,-0.6663987223,0.0139751513\H,3.5055955991,1.6889563999,
 0.0054726575\\Version=EM64L-G16RevA.03\State=1-A\HF=-594.1067464\S2=0.
 \S2-1=0.\S2A=0.\RMSD=4.779e-09\RMSF=3.849e-05\Dipole=0.236055,-0.39401
 77,-0.0034189\Quadrupole=10.038369,-3.697384,-6.340985,0.8666852,0.022
 6271,0.0161428\PG=C01 [X(C10H7F1N2)]\\@


 WE STILL HAVE JUDGEMENT HERE,
 THAT WE TEACH BUT BLOODY INSTRUCTIONS,
 WHICH, BEING TAUGHT,
 RETURN TO PLAGUE THE INVENTOR.
           MACBETH ACT I, SCENE VII
 Job cpu time:       0 days  0 hours 58 minutes 47.9 seconds.
 Elapsed time:       0 days  0 hours  7 minutes 32.7 seconds.
 File lengths (MBytes):  RWF=    116 Int=      0 D2E=      0 Chk=     12 Scr=      8
 Normal termination of Gaussian 16 at Fri Jul 24 21:47:20 2020.
