 Entering Gaussian System, Link 0=g16
 Input=mols_66_3_05_n-n-c-cF_opt_0.gjf
 Output=mols_66_3_05_n-n-c-cF_opt_0.log
 Initial command:
 /opt/ohpc/pub/libs/gaussian/g16-A.03/sandybridge/g16/l1.exe "/mnt/gpfs2_4m/scratch/rdu230/ondemand/projects/dihedral_energies/7trial/wtuning/mols_66_3_05_n-n-c-cF/Gau-131232.inp" -scrdir="/mnt/gpfs2_4m/scratch/rdu230/ondemand/projects/dihedral_energies/7trial/wtuning/mols_66_3_05_n-n-c-cF/"
 Entering Link 1 = /opt/ohpc/pub/libs/gaussian/g16-A.03/sandybridge/g16/l1.exe PID=    131233.
  
 Copyright (c) 1988,1990,1992,1993,1995,1998,2003,2009,2016,
            Gaussian, Inc.  All Rights Reserved.
  
 This is part of the Gaussian(R) 16 program.  It is based on
 the Gaussian(R) 09 system (copyright 2009, Gaussian, Inc.),
 the Gaussian(R) 03 system (copyright 2003, Gaussian, Inc.),
 the Gaussian(R) 98 system (copyright 1998, Gaussian, Inc.),
 the Gaussian(R) 94 system (copyright 1995, Gaussian, Inc.),
 the Gaussian 92(TM) system (copyright 1992, Gaussian, Inc.),
 the Gaussian 90(TM) system (copyright 1990, Gaussian, Inc.),
 the Gaussian 88(TM) system (copyright 1988, Gaussian, Inc.),
 the Gaussian 86(TM) system (copyright 1986, Carnegie Mellon
 University), and the Gaussian 82(TM) system (copyright 1983,
 Carnegie Mellon University). Gaussian is a federally registered
 trademark of Gaussian, Inc.
  
 This software contains proprietary and confidential information,
 including trade secrets, belonging to Gaussian, Inc.
  
 This software is provided under written license and may be
 used, copied, transmitted, or stored only in accord with that
 written license.
  
 The following legend is applicable only to US Government
 contracts under FAR:
  
                    RESTRICTED RIGHTS LEGEND
  
 Use, reproduction and disclosure by the US Government is
 subject to restrictions as set forth in subparagraphs (a)
 and (c) of the Commercial Computer Software - Restricted
 Rights clause in FAR 52.227-19.
  
 Gaussian, Inc.
 340 Quinnipiac St., Bldg. 40, Wallingford CT 06492
  
  
 ---------------------------------------------------------------
 Warning -- This program may not be used in any manner that
 competes with the business of Gaussian, Inc. or will provide
 assistance to any competitor of Gaussian, Inc.  The licensee
 of this program is prohibited from giving any competitor of
 Gaussian, Inc. access to this program.  By using this program,
 the user acknowledges that Gaussian, Inc. is engaged in the
 business of creating and licensing software in the field of
 computational chemistry and represents and warrants to the
 licensee that it is not a competitor of Gaussian, Inc. and that
 it will not use this program in any manner prohibited above.
 ---------------------------------------------------------------
  

 Cite this work as:
 Gaussian 16, Revision A.03,
 M. J. Frisch, G. W. Trucks, H. B. Schlegel, G. E. Scuseria, 
 M. A. Robb, J. R. Cheeseman, G. Scalmani, V. Barone, 
 G. A. Petersson, H. Nakatsuji, X. Li, M. Caricato, A. V. Marenich, 
 J. Bloino, B. G. Janesko, R. Gomperts, B. Mennucci, H. P. Hratchian, 
 J. V. Ortiz, A. F. Izmaylov, J. L. Sonnenberg, D. Williams-Young, 
 F. Ding, F. Lipparini, F. Egidi, J. Goings, B. Peng, A. Petrone, 
 T. Henderson, D. Ranasinghe, V. G. Zakrzewski, J. Gao, N. Rega, 
 G. Zheng, W. Liang, M. Hada, M. Ehara, K. Toyota, R. Fukuda, 
 J. Hasegawa, M. Ishida, T. Nakajima, Y. Honda, O. Kitao, H. Nakai, 
 T. Vreven, K. Throssell, J. A. Montgomery, Jr., J. E. Peralta, 
 F. Ogliaro, M. J. Bearpark, J. J. Heyd, E. N. Brothers, K. N. Kudin, 
 V. N. Staroverov, T. A. Keith, R. Kobayashi, J. Normand, 
 K. Raghavachari, A. P. Rendell, J. C. Burant, S. S. Iyengar, 
 J. Tomasi, M. Cossi, J. M. Millam, M. Klene, C. Adamo, R. Cammi, 
 J. W. Ochterski, R. L. Martin, K. Morokuma, O. Farkas, 
 J. B. Foresman, and D. J. Fox, Gaussian, Inc., Wallingford CT, 2016.
 
 ******************************************
 Gaussian 16:  EM64L-G16RevA.03 25-Dec-2016
                25-Jul-2020 
 ******************************************
 %mem=30GB
 %nproc=8
 Will use up to    8 processors via shared memory.
 ---------------------------------------------------------------
 #P uLC-wPBE/cc-pVDZ iop(3/107=0125100000, 3/108=0125100000) opt
 ---------------------------------------------------------------
 1/18=20,19=15,26=3,38=1/1,3;
 2/9=110,12=2,17=6,18=5,40=1/2;
 3/5=16,11=2,25=1,30=1,71=1,74=-41,107=125100000,108=125100000,116=2/1,2,3;
 4//1;
 5/5=2,38=5/2;
 6/7=2,8=2,9=2,10=2,28=1/1;
 7//1,2,3,16;
 1/18=20,19=15,26=3/3(2);
 2/9=110/2;
 99//99;
 2/9=110/2;
 3/5=16,11=2,25=1,30=1,71=1,74=-41,107=125100000,108=125100000,116=2/1,2,3;
 4/5=5,16=3,69=1/1;
 5/5=2,38=5/2;
 7//1,2,3,16;
 1/18=20,19=15,26=3/3(-5);
 2/9=110/2;
 6/7=2,8=2,9=2,10=2,19=2,28=1/1;
 99/9=1/99;
 Leave Link    1 at Sat Jul 25 10:28:15 2020, MaxMem=  4026531840 cpu:               1.6 elap:               0.2
 (Enter /opt/ohpc/pub/libs/gaussian/g16-A.03/sandybridge/g16/l101.exe)
 -------------
 H17 C30 N6 F3
 -------------
 Symbolic Z-matrix:
 Charge =  0 Multiplicity = 1
 C                     12.17272  -0.27908   0.3533 
 C                     11.36429  -1.08259   1.28334 
 C                     9.9893   -0.98166   1.22958 
 C                     9.40356  -0.18999   0.2595 
 N                     10.09124   0.49952  -0.61961 
 C                     11.43699   0.51546  -0.49738 
 C                     7.85447  -0.16538   0.09292 
 N                     7.21827  -0.98007   0.9352 
 C                     5.78282  -0.89812   0.87567 
 C                     5.05671  -0.16363  -0.0002 
 C                     5.84003   0.69241  -0.89017 
 C                     7.25554   0.7131   -0.7563 
 F                     7.84699   1.48273  -1.60976 
 C                     3.60975  -0.19728  -0.03505 
 C                     2.91424  -1.30418  -0.10165 
 C                     1.48395  -1.31326  -0.05627 
 C                     0.85885  -0.10552  -0.09084 
 N                     1.51779   1.08589  -0.04307 
 C                     2.83294   1.0165    0.05755 
 C                    -0.68226  -0.06236  -0.04117 
 N                    -1.27228  -1.22498  -0.12698 
 C                    -2.71946  -1.21298  -0.13624 
 C                    -3.49663  -0.07135  -0.15998 
 C                    -2.78508   1.09563  -0.05292 
 C                    -1.36096   1.19707  -0.07484 
 F                    -0.80725   2.31583  -0.01799 
 C                    -4.93763  -0.15346  -0.09712 
 C                    -5.63307  -0.9511   -1.1119 
 C                    -7.01796  -0.95433  -1.01136 
 C                    -7.70128  -0.18728  -0.13306 
 N                    -7.10707   0.5451    0.8137 
 C                    -5.70189   0.61386   0.72742 
 C                    -9.23806  -0.26504  -0.04287 
 N                    -9.867    -1.0774   -0.90516 
 C                    -11.20984  -1.10854  -0.98462 
 C                    -12.03161  -0.35302  -0.11895 
 C                    -11.33583   0.52498   0.74667 
 C                    -9.95115   0.57299   0.84874 
 F                    -9.43636   1.38992   1.68204 
 H                     13.21104  -0.26861   0.46133 
 H                     11.89741  -1.70067   2.03203 
 H                     9.44886  -1.61818   1.85668 
 H                     11.98507   1.16529  -1.26658 
 H                     5.30932  -1.55074   1.56019 
 H                     5.33995   1.35991  -1.61438 
 H                     3.43808  -2.34791  -0.12113 
 H                     0.91343  -2.28073  -0.13042 
 H                     3.31651   1.98495   0.024 
 H                    -3.10078  -2.26264  -0.17167 
 H                    -3.26887   2.10233  -0.1114 
 H                    -5.06804  -1.52481  -1.84695 
 H                    -7.51872  -1.57352  -1.74634 
 H                    -5.27938   1.24257   1.46627 
 H                    -11.67971  -1.80307  -1.66641 
 H                    -13.0303  -0.40877  -0.14778 
 H                    -11.94424   1.16578   1.46745 
 
 ITRead=  0  0  0  0  0  0  0  0  0  0  0  0  0  0  0  0  0  0  0  0
 ITRead=  0  0  0  0  0  0  0  0  0  0  0  0  0  0  0  0  0  0  0  0
 ITRead=  0  0  0  0  0  0  0  0  0  0  0  0  0  0  0  0
 MicOpt= -1 -1 -1 -1 -1 -1 -1 -1 -1 -1 -1 -1 -1 -1 -1 -1 -1 -1 -1 -1
 MicOpt= -1 -1 -1 -1 -1 -1 -1 -1 -1 -1 -1 -1 -1 -1 -1 -1 -1 -1 -1 -1
 MicOpt= -1 -1 -1 -1 -1 -1 -1 -1 -1 -1 -1 -1 -1 -1 -1 -1
 NAtoms=     56 NQM=       56 NQMF=       0 NMMI=      0 NMMIF=      0
                NMic=       0 NMicF=      0.
                    Isotopes and Nuclear Properties:
 (Nuclear quadrupole moments (NQMom) in fm**2, nuclear magnetic moments (NMagM)
  in nuclear magnetons)

  Atom         1           2           3           4           5           6           7           8           9          10
 IAtWgt=          12          12          12          12          14          12          12          14          12          12
 AtmWgt=  12.0000000  12.0000000  12.0000000  12.0000000  14.0030740  12.0000000  12.0000000  14.0030740  12.0000000  12.0000000
 NucSpn=           0           0           0           0           2           0           0           2           0           0
 AtZEff=  -0.0000000  -0.0000000  -0.0000000  -0.0000000  -0.0000000  -0.0000000  -0.0000000  -0.0000000  -0.0000000  -0.0000000
 NQMom=    0.0000000   0.0000000   0.0000000   0.0000000   2.0440000   0.0000000   0.0000000   2.0440000   0.0000000   0.0000000
 NMagM=    0.0000000   0.0000000   0.0000000   0.0000000   0.4037610   0.0000000   0.0000000   0.4037610   0.0000000   0.0000000
 AtZNuc=   6.0000000   6.0000000   6.0000000   6.0000000   7.0000000   6.0000000   6.0000000   7.0000000   6.0000000   6.0000000

  Atom        11          12          13          14          15          16          17          18          19          20
 IAtWgt=          12          12          19          12          12          12          12          14          12          12
 AtmWgt=  12.0000000  12.0000000  18.9984033  12.0000000  12.0000000  12.0000000  12.0000000  14.0030740  12.0000000  12.0000000
 NucSpn=           0           0           1           0           0           0           0           2           0           0
 AtZEff=  -0.0000000  -0.0000000  -0.0000000  -0.0000000  -0.0000000  -0.0000000  -0.0000000  -0.0000000  -0.0000000  -0.0000000
 NQMom=    0.0000000   0.0000000   0.0000000   0.0000000   0.0000000   0.0000000   0.0000000   2.0440000   0.0000000   0.0000000
 NMagM=    0.0000000   0.0000000   2.6288670   0.0000000   0.0000000   0.0000000   0.0000000   0.4037610   0.0000000   0.0000000
 AtZNuc=   6.0000000   6.0000000   9.0000000   6.0000000   6.0000000   6.0000000   6.0000000   7.0000000   6.0000000   6.0000000

  Atom        21          22          23          24          25          26          27          28          29          30
 IAtWgt=          14          12          12          12          12          19          12          12          12          12
 AtmWgt=  14.0030740  12.0000000  12.0000000  12.0000000  12.0000000  18.9984033  12.0000000  12.0000000  12.0000000  12.0000000
 NucSpn=           2           0           0           0           0           1           0           0           0           0
 AtZEff=  -0.0000000  -0.0000000  -0.0000000  -0.0000000  -0.0000000  -0.0000000  -0.0000000  -0.0000000  -0.0000000  -0.0000000
 NQMom=    2.0440000   0.0000000   0.0000000   0.0000000   0.0000000   0.0000000   0.0000000   0.0000000   0.0000000   0.0000000
 NMagM=    0.4037610   0.0000000   0.0000000   0.0000000   0.0000000   2.6288670   0.0000000   0.0000000   0.0000000   0.0000000
 AtZNuc=   7.0000000   6.0000000   6.0000000   6.0000000   6.0000000   9.0000000   6.0000000   6.0000000   6.0000000   6.0000000

  Atom        31          32          33          34          35          36          37          38          39          40
 IAtWgt=          14          12          12          14          12          12          12          12          19           1
 AtmWgt=  14.0030740  12.0000000  12.0000000  14.0030740  12.0000000  12.0000000  12.0000000  12.0000000  18.9984033   1.0078250
 NucSpn=           2           0           0           2           0           0           0           0           1           1
 AtZEff=  -0.0000000  -0.0000000  -0.0000000  -0.0000000  -0.0000000  -0.0000000  -0.0000000  -0.0000000  -0.0000000  -0.0000000
 NQMom=    2.0440000   0.0000000   0.0000000   2.0440000   0.0000000   0.0000000   0.0000000   0.0000000   0.0000000   0.0000000
 NMagM=    0.4037610   0.0000000   0.0000000   0.4037610   0.0000000   0.0000000   0.0000000   0.0000000   2.6288670   2.7928460
 AtZNuc=   7.0000000   6.0000000   6.0000000   7.0000000   6.0000000   6.0000000   6.0000000   6.0000000   9.0000000   1.0000000

  Atom        41          42          43          44          45          46          47          48          49          50
 IAtWgt=           1           1           1           1           1           1           1           1           1           1
 AtmWgt=   1.0078250   1.0078250   1.0078250   1.0078250   1.0078250   1.0078250   1.0078250   1.0078250   1.0078250   1.0078250
 NucSpn=           1           1           1           1           1           1           1           1           1           1
 AtZEff=  -0.0000000  -0.0000000  -0.0000000  -0.0000000  -0.0000000  -0.0000000  -0.0000000  -0.0000000  -0.0000000  -0.0000000
 NQMom=    0.0000000   0.0000000   0.0000000   0.0000000   0.0000000   0.0000000   0.0000000   0.0000000   0.0000000   0.0000000
 NMagM=    2.7928460   2.7928460   2.7928460   2.7928460   2.7928460   2.7928460   2.7928460   2.7928460   2.7928460   2.7928460
 AtZNuc=   1.0000000   1.0000000   1.0000000   1.0000000   1.0000000   1.0000000   1.0000000   1.0000000   1.0000000   1.0000000

  Atom        51          52          53          54          55          56
 IAtWgt=           1           1           1           1           1           1
 AtmWgt=   1.0078250   1.0078250   1.0078250   1.0078250   1.0078250   1.0078250
 NucSpn=           1           1           1           1           1           1
 AtZEff=  -0.0000000  -0.0000000  -0.0000000  -0.0000000  -0.0000000  -0.0000000
 NQMom=    0.0000000   0.0000000   0.0000000   0.0000000   0.0000000   0.0000000
 NMagM=    2.7928460   2.7928460   2.7928460   2.7928460   2.7928460   2.7928460
 AtZNuc=   1.0000000   1.0000000   1.0000000   1.0000000   1.0000000   1.0000000
 Leave Link  101 at Sat Jul 25 10:28:15 2020, MaxMem=  4026531840 cpu:               2.9 elap:               0.4
 (Enter /opt/ohpc/pub/libs/gaussian/g16-A.03/sandybridge/g16/l103.exe)

 GradGradGradGradGradGradGradGradGradGradGradGradGradGradGradGradGradGrad
 Berny optimization.
 Initialization pass.
                           ----------------------------
                           !    Initial Parameters    !
                           ! (Angstroms and Degrees)  !
 --------------------------                            --------------------------
 ! Name  Definition              Value          Derivative Info.                !
 --------------------------------------------------------------------------------
 ! R1    R(1,2)                  1.4711         estimate D2E/DX2                !
 ! R2    R(1,6)                  1.377          estimate D2E/DX2                !
 ! R3    R(1,40)                 1.044          estimate D2E/DX2                !
 ! R4    R(2,3)                  1.3797         estimate D2E/DX2                !
 ! R5    R(2,41)                 1.1076         estimate D2E/DX2                !
 ! R6    R(3,4)                  1.3823         estimate D2E/DX2                !
 ! R7    R(3,42)                 1.0443         estimate D2E/DX2                !
 ! R8    R(4,5)                  1.3119         estimate D2E/DX2                !
 ! R9    R(4,7)                  1.5582         estimate D2E/DX2                !
 ! R10   R(5,6)                  1.3514         estimate D2E/DX2                !
 ! R11   R(6,43)                 1.1465         estimate D2E/DX2                !
 ! R12   R(7,8)                  1.3334         estimate D2E/DX2                !
 ! R13   R(7,12)                 1.3607         estimate D2E/DX2                !
 ! R14   R(8,9)                  1.439          estimate D2E/DX2                !
 ! R15   R(9,10)                 1.3542         estimate D2E/DX2                !
 ! R16   R(9,44)                 1.0577         estimate D2E/DX2                !
 ! R17   R(10,11)                1.4623         estimate D2E/DX2                !
 ! R18   R(10,14)                1.4478         estimate D2E/DX2                !
 ! R19   R(11,12)                1.422          estimate D2E/DX2                !
 ! R20   R(11,45)                1.1046         estimate D2E/DX2                !
 ! R21   R(12,13)                1.2925         estimate D2E/DX2                !
 ! R22   R(14,15)                1.309          estimate D2E/DX2                !
 ! R23   R(14,19)                1.444          estimate D2E/DX2                !
 ! R24   R(15,16)                1.431          estimate D2E/DX2                !
 ! R25   R(15,46)                1.168          estimate D2E/DX2                !
 ! R26   R(16,17)                1.3604         estimate D2E/DX2                !
 ! R27   R(16,47)                1.1256         estimate D2E/DX2                !
 ! R28   R(17,18)                1.3623         estimate D2E/DX2                !
 ! R29   R(17,20)                1.5425         estimate D2E/DX2                !
 ! R30   R(18,19)                1.3208         estimate D2E/DX2                !
 ! R31   R(19,48)                1.083          estimate D2E/DX2                !
 ! R32   R(20,21)                1.3066         estimate D2E/DX2                !
 ! R33   R(20,25)                1.4311         estimate D2E/DX2                !
 ! R34   R(21,22)                1.4473         estimate D2E/DX2                !
 ! R35   R(22,23)                1.3813         estimate D2E/DX2                !
 ! R36   R(22,49)                1.1173         estimate D2E/DX2                !
 ! R37   R(23,24)                1.371          estimate D2E/DX2                !
 ! R38   R(23,27)                1.4447         estimate D2E/DX2                !
 ! R39   R(24,25)                1.4279         estimate D2E/DX2                !
 ! R40   R(24,50)                1.1185         estimate D2E/DX2                !
 ! R41   R(25,26)                1.2496         estimate D2E/DX2                !
 ! R42   R(27,28)                1.4662         estimate D2E/DX2                !
 ! R43   R(27,32)                1.3611         estimate D2E/DX2                !
 ! R44   R(28,29)                1.3885         estimate D2E/DX2                !
 ! R45   R(28,51)                1.0903         estimate D2E/DX2                !
 ! R46   R(29,30)                1.3516         estimate D2E/DX2                !
 ! R47   R(29,52)                1.0837         estimate D2E/DX2                !
 ! R48   R(30,31)                1.3363         estimate D2E/DX2                !
 ! R49   R(30,33)                1.5414         estimate D2E/DX2                !
 ! R50   R(31,32)                1.4095         estimate D2E/DX2                !
 ! R51   R(32,53)                1.0582         estimate D2E/DX2                !
 ! R52   R(33,34)                1.3413         estimate D2E/DX2                !
 ! R53   R(33,38)                1.4162         estimate D2E/DX2                !
 ! R54   R(34,35)                1.3455         estimate D2E/DX2                !
 ! R55   R(35,36)                1.4126         estimate D2E/DX2                !
 ! R56   R(35,54)                1.0807         estimate D2E/DX2                !
 ! R57   R(36,37)                1.4157         estimate D2E/DX2                !
 ! R58   R(36,55)                1.0007         estimate D2E/DX2                !
 ! R59   R(37,38)                1.3893         estimate D2E/DX2                !
 ! R60   R(37,56)                1.1403         estimate D2E/DX2                !
 ! R61   R(38,39)                1.2755         estimate D2E/DX2                !
 ! A1    A(2,1,6)              114.3356         estimate D2E/DX2                !
 ! A2    A(2,1,40)             119.1185         estimate D2E/DX2                !
 ! A3    A(6,1,40)             126.1238         estimate D2E/DX2                !
 ! A4    A(1,2,3)              118.8856         estimate D2E/DX2                !
 ! A5    A(1,2,41)             117.8802         estimate D2E/DX2                !
 ! A6    A(3,2,41)             123.1501         estimate D2E/DX2                !
 ! A7    A(2,3,4)              119.4397         estimate D2E/DX2                !
 ! A8    A(2,3,42)             116.6003         estimate D2E/DX2                !
 ! A9    A(4,3,42)             123.4503         estimate D2E/DX2                !
 ! A10   A(3,4,5)              123.3073         estimate D2E/DX2                !
 ! A11   A(3,4,7)              120.3522         estimate D2E/DX2                !
 ! A12   A(5,4,7)              116.1784         estimate D2E/DX2                !
 ! A13   A(4,5,6)              117.8772         estimate D2E/DX2                !
 ! A14   A(1,6,5)              125.53           estimate D2E/DX2                !
 ! A15   A(1,6,43)             119.0846         estimate D2E/DX2                !
 ! A16   A(5,6,43)             114.9658         estimate D2E/DX2                !
 ! A17   A(4,7,8)              113.4005         estimate D2E/DX2                !
 ! A18   A(4,7,12)             120.9629         estimate D2E/DX2                !
 ! A19   A(8,7,12)             125.3573         estimate D2E/DX2                !
 ! A20   A(7,8,9)              114.5205         estimate D2E/DX2                !
 ! A21   A(8,9,10)             126.3348         estimate D2E/DX2                !
 ! A22   A(8,9,44)             112.6222         estimate D2E/DX2                !
 ! A23   A(10,9,44)            120.8785         estimate D2E/DX2                !
 ! A24   A(9,10,11)            115.0822         estimate D2E/DX2                !
 ! A25   A(9,10,14)            122.6054         estimate D2E/DX2                !
 ! A26   A(11,10,14)           122.2975         estimate D2E/DX2                !
 ! A27   A(10,11,12)           118.9763         estimate D2E/DX2                !
 ! A28   A(10,11,45)           120.6813         estimate D2E/DX2                !
 ! A29   A(12,11,45)           120.2383         estimate D2E/DX2                !
 ! A30   A(7,12,11)            119.1767         estimate D2E/DX2                !
 ! A31   A(7,12,13)            126.5205         estimate D2E/DX2                !
 ! A32   A(11,12,13)           113.7045         estimate D2E/DX2                !
 ! A33   A(10,14,15)           123.4987         estimate D2E/DX2                !
 ! A34   A(10,14,19)           121.1014         estimate D2E/DX2                !
 ! A35   A(15,14,19)           115.3551         estimate D2E/DX2                !
 ! A36   A(14,15,16)           122.3312         estimate D2E/DX2                !
 ! A37   A(14,15,46)           121.2131         estimate D2E/DX2                !
 ! A38   A(16,15,46)           116.3033         estimate D2E/DX2                !
 ! A39   A(15,16,17)           116.925          estimate D2E/DX2                !
 ! A40   A(15,16,47)           120.661          estimate D2E/DX2                !
 ! A41   A(17,16,47)           121.9045         estimate D2E/DX2                !
 ! A42   A(16,17,18)           123.5924         estimate D2E/DX2                !
 ! A43   A(16,17,20)           118.8887         estimate D2E/DX2                !
 ! A44   A(18,17,20)           117.2351         estimate D2E/DX2                !
 ! A45   A(17,18,19)           115.9976         estimate D2E/DX2                !
 ! A46   A(14,19,18)           125.0926         estimate D2E/DX2                !
 ! A47   A(14,19,48)           120.6281         estimate D2E/DX2                !
 ! A48   A(18,19,48)           113.2821         estimate D2E/DX2                !
 ! A49   A(17,20,21)           115.0967         estimate D2E/DX2                !
 ! A50   A(17,20,25)           119.848          estimate D2E/DX2                !
 ! A51   A(21,20,25)           124.5681         estimate D2E/DX2                !
 ! A52   A(20,21,22)           116.3969         estimate D2E/DX2                !
 ! A53   A(21,22,23)           124.7214         estimate D2E/DX2                !
 ! A54   A(21,22,49)           109.4911         estimate D2E/DX2                !
 ! A55   A(23,22,49)           125.7248         estimate D2E/DX2                !
 ! A56   A(22,23,24)           114.2148         estimate D2E/DX2                !
 ! A57   A(22,23,27)           120.8963         estimate D2E/DX2                !
 ! A58   A(24,23,27)           124.2399         estimate D2E/DX2                !
 ! A59   A(23,24,25)           125.2335         estimate D2E/DX2                !
 ! A60   A(23,24,50)           122.5182         estimate D2E/DX2                !
 ! A61   A(25,24,50)           111.5098         estimate D2E/DX2                !
 ! A62   A(20,25,24)           114.2127         estimate D2E/DX2                !
 ! A63   A(20,25,26)           125.2191         estimate D2E/DX2                !
 ! A64   A(24,25,26)           120.3217         estimate D2E/DX2                !
 ! A65   A(23,27,28)           118.2884         estimate D2E/DX2                !
 ! A66   A(23,27,32)           123.6666         estimate D2E/DX2                !
 ! A67   A(28,27,32)           117.3632         estimate D2E/DX2                !
 ! A68   A(27,28,29)           115.1017         estimate D2E/DX2                !
 ! A69   A(27,28,51)           120.4695         estimate D2E/DX2                !
 ! A70   A(29,28,51)           124.3662         estimate D2E/DX2                !
 ! A71   A(28,29,30)           123.366          estimate D2E/DX2                !
 ! A72   A(28,29,52)           114.3996         estimate D2E/DX2                !
 ! A73   A(30,29,52)           122.0998         estimate D2E/DX2                !
 ! A74   A(29,30,31)           123.1358         estimate D2E/DX2                !
 ! A75   A(29,30,33)           120.8946         estimate D2E/DX2                !
 ! A76   A(31,30,33)           115.4368         estimate D2E/DX2                !
 ! A77   A(30,31,32)           115.255          estimate D2E/DX2                !
 ! A78   A(27,32,31)           124.7044         estimate D2E/DX2                !
 ! A79   A(27,32,53)           122.257          estimate D2E/DX2                !
 ! A80   A(31,32,53)           112.6006         estimate D2E/DX2                !
 ! A81   A(30,33,34)           117.4161         estimate D2E/DX2                !
 ! A82   A(30,33,38)           120.5965         estimate D2E/DX2                !
 ! A83   A(34,33,38)           121.8038         estimate D2E/DX2                !
 ! A84   A(33,34,35)           121.3285         estimate D2E/DX2                !
 ! A85   A(34,35,36)           122.1407         estimate D2E/DX2                !
 ! A86   A(34,35,54)           119.0788         estimate D2E/DX2                !
 ! A87   A(36,35,54)           118.5152         estimate D2E/DX2                !
 ! A88   A(35,36,37)           114.8652         estimate D2E/DX2                !
 ! A89   A(35,36,55)           122.2175         estimate D2E/DX2                !
 ! A90   A(37,36,55)           122.8649         estimate D2E/DX2                !
 ! A91   A(36,37,38)           123.7928         estimate D2E/DX2                !
 ! A92   A(36,37,56)           118.2145         estimate D2E/DX2                !
 ! A93   A(38,37,56)           117.77           estimate D2E/DX2                !
 ! A94   A(33,38,37)           115.7945         estimate D2E/DX2                !
 ! A95   A(33,38,39)           125.9506         estimate D2E/DX2                !
 ! A96   A(37,38,39)           118.1915         estimate D2E/DX2                !
 ! D1    D(6,1,2,3)              0.1047         estimate D2E/DX2                !
 ! D2    D(6,1,2,41)          -176.6667         estimate D2E/DX2                !
 ! D3    D(40,1,2,3)           173.1039         estimate D2E/DX2                !
 ! D4    D(40,1,2,41)           -3.6675         estimate D2E/DX2                !
 ! D5    D(2,1,6,5)             -6.996          estimate D2E/DX2                !
 ! D6    D(2,1,6,43)          -179.1676         estimate D2E/DX2                !
 ! D7    D(40,1,6,5)          -179.4211         estimate D2E/DX2                !
 ! D8    D(40,1,6,43)            8.4073         estimate D2E/DX2                !
 ! D9    D(1,2,3,4)              3.585          estimate D2E/DX2                !
 ! D10   D(1,2,3,42)           175.6791         estimate D2E/DX2                !
 ! D11   D(41,2,3,4)          -179.8238         estimate D2E/DX2                !
 ! D12   D(41,2,3,42)           -7.7297         estimate D2E/DX2                !
 ! D13   D(2,3,4,5)             -0.9775         estimate D2E/DX2                !
 ! D14   D(2,3,4,7)            174.2141         estimate D2E/DX2                !
 ! D15   D(42,3,4,5)          -172.5011         estimate D2E/DX2                !
 ! D16   D(42,3,4,7)             2.6905         estimate D2E/DX2                !
 ! D17   D(3,4,5,6)             -5.4261         estimate D2E/DX2                !
 ! D18   D(7,4,5,6)            179.1971         estimate D2E/DX2                !
 ! D19   D(3,4,7,8)             -1.3919         estimate D2E/DX2                !
 ! D20   D(3,4,7,12)           172.8516         estimate D2E/DX2                !
 ! D21   D(5,4,7,8)            174.1309         estimate D2E/DX2                !
 ! D22   D(5,4,7,12)           -11.6255         estimate D2E/DX2                !
 ! D23   D(4,5,6,1)              9.8047         estimate D2E/DX2                !
 ! D24   D(4,5,6,43)          -177.7401         estimate D2E/DX2                !
 ! D25   D(4,7,8,9)            175.2989         estimate D2E/DX2                !
 ! D26   D(12,7,8,9)             1.3524         estimate D2E/DX2                !
 ! D27   D(4,7,12,11)          179.2946         estimate D2E/DX2                !
 ! D28   D(4,7,12,13)            8.7527         estimate D2E/DX2                !
 ! D29   D(8,7,12,11)           -7.1861         estimate D2E/DX2                !
 ! D30   D(8,7,12,13)         -177.7279         estimate D2E/DX2                !
 ! D31   D(7,8,9,10)             5.091          estimate D2E/DX2                !
 ! D32   D(7,8,9,44)          -179.5733         estimate D2E/DX2                !
 ! D33   D(8,9,10,11)           -4.8527         estimate D2E/DX2                !
 ! D34   D(8,9,10,14)          176.5229         estimate D2E/DX2                !
 ! D35   D(44,9,10,11)        -179.8354         estimate D2E/DX2                !
 ! D36   D(44,9,10,14)           1.5402         estimate D2E/DX2                !
 ! D37   D(9,10,11,12)          -1.3292         estimate D2E/DX2                !
 ! D38   D(9,10,11,45)        -177.6274         estimate D2E/DX2                !
 ! D39   D(14,10,11,12)        177.3            estimate D2E/DX2                !
 ! D40   D(14,10,11,45)          1.0017         estimate D2E/DX2                !
 ! D41   D(9,10,14,15)         -51.4008         estimate D2E/DX2                !
 ! D42   D(9,10,14,19)         126.052          estimate D2E/DX2                !
 ! D43   D(11,10,14,15)        130.0731         estimate D2E/DX2                !
 ! D44   D(11,10,14,19)        -52.4741         estimate D2E/DX2                !
 ! D45   D(10,11,12,7)           6.9948         estimate D2E/DX2                !
 ! D46   D(10,11,12,13)        178.7022         estimate D2E/DX2                !
 ! D47   D(45,11,12,7)        -176.6902         estimate D2E/DX2                !
 ! D48   D(45,11,12,13)         -4.9828         estimate D2E/DX2                !
 ! D49   D(10,14,15,16)        176.2716         estimate D2E/DX2                !
 ! D50   D(10,14,15,46)          0.9256         estimate D2E/DX2                !
 ! D51   D(19,14,15,16)         -1.3149         estimate D2E/DX2                !
 ! D52   D(19,14,15,46)       -176.661          estimate D2E/DX2                !
 ! D53   D(10,14,19,18)        175.8799         estimate D2E/DX2                !
 ! D54   D(10,14,19,48)          8.0896         estimate D2E/DX2                !
 ! D55   D(15,14,19,18)         -6.4705         estimate D2E/DX2                !
 ! D56   D(15,14,19,48)       -174.2609         estimate D2E/DX2                !
 ! D57   D(14,15,16,17)          7.1656         estimate D2E/DX2                !
 ! D58   D(14,15,16,47)        179.1314         estimate D2E/DX2                !
 ! D59   D(46,15,16,17)       -177.2739         estimate D2E/DX2                !
 ! D60   D(46,15,16,47)         -5.3081         estimate D2E/DX2                !
 ! D61   D(15,16,17,18)         -6.1616         estimate D2E/DX2                !
 ! D62   D(15,16,17,20)       -179.8664         estimate D2E/DX2                !
 ! D63   D(47,16,17,18)       -178.02           estimate D2E/DX2                !
 ! D64   D(47,16,17,20)          8.2752         estimate D2E/DX2                !
 ! D65   D(16,17,18,19)         -0.7962         estimate D2E/DX2                !
 ! D66   D(20,17,18,19)        173.0051         estimate D2E/DX2                !
 ! D67   D(16,17,20,21)         -7.7125         estimate D2E/DX2                !
 ! D68   D(16,17,20,25)        179.932          estimate D2E/DX2                !
 ! D69   D(18,17,20,21)        178.1837         estimate D2E/DX2                !
 ! D70   D(18,17,20,25)          5.8282         estimate D2E/DX2                !
 ! D71   D(17,18,19,14)          7.4953         estimate D2E/DX2                !
 ! D72   D(17,18,19,48)        176.0684         estimate D2E/DX2                !
 ! D73   D(17,20,21,22)       -177.6507         estimate D2E/DX2                !
 ! D74   D(25,20,21,22)         -5.7054         estimate D2E/DX2                !
 ! D75   D(17,20,25,24)        178.6685         estimate D2E/DX2                !
 ! D76   D(17,20,25,26)         -7.0509         estimate D2E/DX2                !
 ! D77   D(21,20,25,24)          7.0808         estimate D2E/DX2                !
 ! D78   D(21,20,25,26)       -178.6386         estimate D2E/DX2                !
 ! D79   D(20,21,22,23)          4.9668         estimate D2E/DX2                !
 ! D80   D(20,21,22,49)       -177.7752         estimate D2E/DX2                !
 ! D81   D(21,22,23,24)         -5.594          estimate D2E/DX2                !
 ! D82   D(21,22,23,27)       -176.739          estimate D2E/DX2                !
 ! D83   D(49,22,23,24)        177.5904         estimate D2E/DX2                !
 ! D84   D(49,22,23,27)          6.4454         estimate D2E/DX2                !
 ! D85   D(22,23,24,25)          7.3573         estimate D2E/DX2                !
 ! D86   D(22,23,24,50)        176.6645         estimate D2E/DX2                !
 ! D87   D(27,23,24,25)        178.163          estimate D2E/DX2                !
 ! D88   D(27,23,24,50)        -12.5298         estimate D2E/DX2                !
 ! D89   D(22,23,27,28)        -56.7572         estimate D2E/DX2                !
 ! D90   D(22,23,27,32)        132.9689         estimate D2E/DX2                !
 ! D91   D(24,23,27,28)        133.0203         estimate D2E/DX2                !
 ! D92   D(24,23,27,32)        -37.2536         estimate D2E/DX2                !
 ! D93   D(23,24,25,20)         -7.9863         estimate D2E/DX2                !
 ! D94   D(23,24,25,26)        177.4257         estimate D2E/DX2                !
 ! D95   D(50,24,25,20)       -178.3051         estimate D2E/DX2                !
 ! D96   D(50,24,25,26)          7.1068         estimate D2E/DX2                !
 ! D97   D(23,27,28,29)       -178.2855         estimate D2E/DX2                !
 ! D98   D(23,27,28,51)          4.4676         estimate D2E/DX2                !
 ! D99   D(32,27,28,29)         -7.3948         estimate D2E/DX2                !
 ! D100  D(32,27,28,51)        175.3583         estimate D2E/DX2                !
 ! D101  D(23,27,32,31)       -179.5077         estimate D2E/DX2                !
 ! D102  D(23,27,32,53)         -7.6721         estimate D2E/DX2                !
 ! D103  D(28,27,32,31)         10.1351         estimate D2E/DX2                !
 ! D104  D(28,27,32,53)       -178.0293         estimate D2E/DX2                !
 ! D105  D(27,28,29,30)          6.0794         estimate D2E/DX2                !
 ! D106  D(27,28,29,52)       -178.0643         estimate D2E/DX2                !
 ! D107  D(51,28,29,30)       -176.7954         estimate D2E/DX2                !
 ! D108  D(51,28,29,52)         -0.9391         estimate D2E/DX2                !
 ! D109  D(28,29,30,31)         -7.0341         estimate D2E/DX2                !
 ! D110  D(28,29,30,33)       -178.2759         estimate D2E/DX2                !
 ! D111  D(52,29,30,31)        177.4212         estimate D2E/DX2                !
 ! D112  D(52,29,30,33)          6.1794         estimate D2E/DX2                !
 ! D113  D(29,30,31,32)          8.3335         estimate D2E/DX2                !
 ! D114  D(33,30,31,32)       -179.9856         estimate D2E/DX2                !
 ! D115  D(29,30,33,34)         -2.7544         estimate D2E/DX2                !
 ! D116  D(29,30,33,38)       -177.919          estimate D2E/DX2                !
 ! D117  D(31,30,33,34)       -174.6377         estimate D2E/DX2                !
 ! D118  D(31,30,33,38)         10.1977         estimate D2E/DX2                !
 ! D119  D(30,31,32,27)        -10.3763         estimate D2E/DX2                !
 ! D120  D(30,31,32,53)        177.0982         estimate D2E/DX2                !
 ! D121  D(30,33,34,35)       -173.4474         estimate D2E/DX2                !
 ! D122  D(38,33,34,35)          1.655          estimate D2E/DX2                !
 ! D123  D(30,33,38,37)        173.2791         estimate D2E/DX2                !
 ! D124  D(30,33,38,39)         -3.7575         estimate D2E/DX2                !
 ! D125  D(34,33,38,37)         -1.6697         estimate D2E/DX2                !
 ! D126  D(34,33,38,39)       -178.7064         estimate D2E/DX2                !
 ! D127  D(33,34,35,36)         -3.772          estimate D2E/DX2                !
 ! D128  D(33,34,35,54)       -177.7641         estimate D2E/DX2                !
 ! D129  D(34,35,36,37)          5.5696         estimate D2E/DX2                !
 ! D130  D(34,35,36,55)       -176.9919         estimate D2E/DX2                !
 ! D131  D(54,35,36,37)        179.5941         estimate D2E/DX2                !
 ! D132  D(54,35,36,55)         -2.9674         estimate D2E/DX2                !
 ! D133  D(35,36,37,38)         -5.7838         estimate D2E/DX2                !
 ! D134  D(35,36,37,56)        179.7684         estimate D2E/DX2                !
 ! D135  D(55,36,37,38)        176.7963         estimate D2E/DX2                !
 ! D136  D(55,36,37,56)          2.3484         estimate D2E/DX2                !
 ! D137  D(36,37,38,33)          3.9487         estimate D2E/DX2                !
 ! D138  D(36,37,38,39)       -178.7729         estimate D2E/DX2                !
 ! D139  D(56,37,38,33)        178.4195         estimate D2E/DX2                !
 ! D140  D(56,37,38,39)         -4.3021         estimate D2E/DX2                !
 --------------------------------------------------------------------------------
 Trust Radius=3.00D-01 FncErr=1.00D-07 GrdErr=1.00D-06 EigMax=2.50D+02 EigMin=1.00D-04
 Number of steps in this run=    307 maximum allowed number of steps=    336.
 GradGradGradGradGradGradGradGradGradGradGradGradGradGradGradGradGradGrad

 Leave Link  103 at Sat Jul 25 10:28:15 2020, MaxMem=  4026531840 cpu:               0.1 elap:               0.0
 (Enter /opt/ohpc/pub/libs/gaussian/g16-A.03/sandybridge/g16/l202.exe)
 Stoichiometry    C30H17F3N6
 Framework group  C1[X(C30H17F3N6)]
 Deg. of freedom   162
 Full point group                 C1      NOp   1
 Largest Abelian subgroup         C1      NOp   1
 Largest concise Abelian subgroup C1      NOp   1
                         Standard orientation:                         
 ---------------------------------------------------------------------
 Center     Atomic      Atomic             Coordinates (Angstroms)
 Number     Number       Type             X           Y           Z
 ---------------------------------------------------------------------
      1          6           0       12.177662   -0.263487    0.346733
      2          6           0       11.370327   -1.060347    1.283421
      3          6           0        9.995217   -0.961288    1.229246
      4          6           0        9.408384   -0.178035    0.253022
      5          7           0       10.095100    0.505121   -0.631788
      6          6           0       11.440861    0.523441   -0.510074
      7          6           0        7.859220   -0.156371    0.086696
      8          7           0        7.224107   -0.964940    0.935669
      9          6           0        5.788551   -0.884960    0.875897
     10          6           0        5.061438   -0.158270   -0.005625
     11          6           0        5.843612    0.691418   -0.902654
     12          6           0        7.259143    0.714651   -0.769364
     13          9           0        7.849549    1.478023   -1.629144
     14          6           0        3.614497   -0.193703   -0.039790
     15          6           0        2.920130   -1.301828   -0.097310
     16          6           0        1.489854   -1.312035   -0.051441
     17          6           0        0.863493   -0.105258   -0.095517
     18          7           0        1.521199    1.087183   -0.057495
     19          6           0        2.836456    1.019970    0.043306
     20          6           0       -0.677648   -0.063305   -0.045743
     21          7           0       -1.266476   -1.227187   -0.122065
     22          6           0       -2.713678   -1.216763   -0.131002
     23          6           0       -3.492044   -0.076168   -0.163670
     24          6           0       -2.781679    1.092362   -0.066171
     25          6           0       -1.357673    1.195109   -0.089321
     26          9           0       -0.805112    2.314863   -0.041597
     27          6           0       -4.932940   -0.159272   -0.099731
     28          6           0       -5.627835   -0.965752   -1.107887
     29          6           0       -7.012688   -0.969610   -1.006927
     30          6           0       -7.696558   -0.196257   -0.134602
     31          7           0       -7.102850    0.544314    0.806083
     32          6           0       -5.697765    0.613838    0.718841
     33          6           0       -9.233231   -0.274886   -0.043352
     34          7           0       -9.861571   -1.094795   -0.898915
     35          6           0      -11.204398   -1.127958   -0.977733
     36          6           0      -12.026707   -0.366378   -0.117913
     37          6           0      -11.331607    0.519259    0.740431
     38          6           0       -9.946949    0.569522    0.841716
     39          9           0       -9.432771    1.393644    1.668288
     40          1           0       13.215994   -0.251072    0.454379
     41          1           0       11.904304   -1.671849    2.036891
     42          1           0        9.455615   -1.593318    1.861592
     43          1           0       11.988054    1.167657   -1.284620
     44          1           0        5.315924   -1.532567    1.565759
     45          1           0        5.342639    1.352565   -1.632056
     46          1           0        3.445048   -2.345137   -0.108572
     47          1           0        0.920323   -2.280656   -0.117663
     48          1           0        3.319008    1.988624    0.001845
     49          1           0       -3.093908   -2.267078   -0.157905
     50          1           0       -3.266536    2.098066   -0.132581
     51          1           0       -5.062413   -1.544743   -1.838475
     52          1           0       -7.513006   -1.595201   -1.736766
     53          1           0       -5.275699    1.248889    1.452509
     54          1           0      -11.673733   -1.828425   -1.653802
     55          1           0      -13.025352   -0.423396   -0.146006
     56          1           0      -11.940476    1.165182    1.456225
 ---------------------------------------------------------------------
 Rotational constants (GHZ):           0.6243908           0.0177756           0.0176462
 Leave Link  202 at Sat Jul 25 10:28:15 2020, MaxMem=  4026531840 cpu:               0.1 elap:               0.0
 (Enter /opt/ohpc/pub/libs/gaussian/g16-A.03/sandybridge/g16/l301.exe)
 Standard basis: CC-pVDZ (5D, 7F)
 Ernie: Thresh=  0.10000D-02 Tol=  0.10000D-05 Strict=F.
 Ernie:  78 primitive shells out of 943 were deleted.
 There are   670 symmetry adapted cartesian basis functions of A   symmetry.
 There are   631 symmetry adapted basis functions of A   symmetry.
   631 basis functions,  1406 primitive gaussians,   670 cartesian basis functions
   133 alpha electrons      133 beta electrons
       nuclear repulsion energy      3471.0441387350 Hartrees.
 IExCor=32609 DFT=T Ex+Corr=LC-wPBE ExCW=0 ScaHFX=  1.000000
 ScaDFX=  1.000000  0.000000  1.000000  1.000000 ScalE2=  1.000000  1.000000
 IRadAn=      5 IRanWt=     -1 IRanGd=            0 ICorTp=0 IEmpDi=  4
 HFx  wShort=  0.000000 wLong=  0.125100 cFull=  0.000000 cShort=  0.000000 cLong=  1.000000
 DFx  wShort=  0.000000 wLong=  0.125100 cFull=  0.000000 cShort=  0.000000 cLong=  1.000000
 NAtoms=   56 NActive=   56 NUniq=   56 SFac= 1.00D+00 NAtFMM=   60 NAOKFM=F Big=F
 Integral buffers will be    131072 words long.
 Raffenetti 2 integral format.
 Two-electron integral symmetry is turned on.
 Leave Link  301 at Sat Jul 25 10:28:15 2020, MaxMem=  4026531840 cpu:               0.4 elap:               0.1
 (Enter /opt/ohpc/pub/libs/gaussian/g16-A.03/sandybridge/g16/l302.exe)
 NPDir=0 NMtPBC=     1 NCelOv=     1 NCel=       1 NClECP=     1 NCelD=      1
         NCelK=      1 NCelE2=     1 NClLst=     1 CellRange=     0.0.
 One-electron integrals computed using PRISM.
 One-electron integral symmetry used in STVInt
 NBasis=   631 RedAO= T EigKep=  3.75D-04  NBF=   631
 NBsUse=   631 1.00D-06 EigRej= -1.00D+00 NBFU=   631
 Precomputing XC quadrature grid using
 IXCGrd= 4 IRadAn=           5 IRanWt=          -1 IRanGd=           0 AccXCQ= 0.00D+00.
 Generated NRdTot=       0 NPtTot=           0 NUsed=           0 NTot=          32
 NSgBfM=   541   541   541   541   541 MxSgAt=    56 MxSgA2=    56.
 Leave Link  302 at Sat Jul 25 10:28:17 2020, MaxMem=  4026531840 cpu:              10.2 elap:               1.3
 (Enter /opt/ohpc/pub/libs/gaussian/g16-A.03/sandybridge/g16/l303.exe)
 DipDrv:  MaxL=1.
 Leave Link  303 at Sat Jul 25 10:28:17 2020, MaxMem=  4026531840 cpu:               0.9 elap:               0.1
 (Enter /opt/ohpc/pub/libs/gaussian/g16-A.03/sandybridge/g16/l401.exe)
 ExpMin= 1.22D-01 ExpMax= 1.47D+04 ExpMxC= 5.03D+02 IAcc=3 IRadAn=         5 AccDes= 0.00D+00
 Harris functional with IExCor=32609 and IRadAn=       5 diagonalized for initial guess.
 HarFok:  IExCor=32609 AccDes= 0.00D+00 IRadAn=         5 IDoV= 1 UseB2=F ITyADJ=14
 ICtDFT=  3500011 ScaDFX=  1.000000  1.000000  1.000000  1.000000
 FoFCou: FMM=F IPFlag=           0 FMFlag=      100000 FMFlg1=           0
         NFxFlg=           0 DoJE=T BraDBF=F KetDBF=T FulRan=T
         wScrn=  0.000000 ICntrl=       500 IOpCl=  0 I1Cent=   200000004 NGrid=           0
         NMat0=    1 NMatS0=      1 NMatT0=    0 NMatD0=    1 NMtDS0=    0 NMtDT0=    0
 Petite list used in FoFCou.
 Harris En= -1779.84683227252    
 JPrj=0 DoOrth=F DoCkMO=F.
 Initial guess <Sx>= 0.0000 <Sy>= 0.0000 <Sz>= 0.0000 <S**2>=-0.0000 S=-0.0000
 Leave Link  401 at Sat Jul 25 10:28:23 2020, MaxMem=  4026531840 cpu:              45.0 elap:               5.7
 (Enter /opt/ohpc/pub/libs/gaussian/g16-A.03/sandybridge/g16/l502.exe)
 Integral symmetry usage will be decided dynamically.
 UHF open shell SCF:
 Using DIIS extrapolation, IDIIS=  1040.
 NGot=  4026531840 LenX=  4025621948 LenY=  4025172378
 Requested convergence on RMS density matrix=1.00D-08 within 128 cycles.
 Requested convergence on MAX density matrix=1.00D-06.
 Requested convergence on             energy=1.00D-06.
 No special actions if energy rises.
 Fock matrices will be formed incrementally for  20 cycles.
 Integral accuracy reduced to 1.0D-05 until final iterations.

 Cycle   1  Pass 0  IDiag  1:
 FoFJK:  IHMeth= 1 ICntrl=       0 DoSepK=T KAlg= 0 I1Cent=           0 FoldK=F
 IRaf=         1 NMat=       1 IRICut=       1 DoRegI=T DoRafI=F ISym2E= 0 IDoP0=0 IntGTp=1.
 FoFCou: FMM=F IPFlag=           0 FMFlag=      100000 FMFlg1=           0
         NFxFlg=           0 DoJE=T BraDBF=F KetDBF=F FulRan=T
         wScrn=  0.000000 ICntrl=       500 IOpCl=  0 I1Cent=           0 NGrid=           0
         NMat0=    1 NMatS0=      1 NMatT0=    0 NMatD0=    1 NMtDS0=    0 NMtDT0=    0
 Symmetry not used in FoFCou.
 E= -1779.36126626006    
 DIIS: error= 1.25D-02 at cycle   1 NSaved=   1.
 NSaved= 1 IEnMin= 1 EnMin= -1779.36126626006     IErMin= 1 ErrMin= 1.25D-02
 ErrMax= 1.25D-02  0.00D+00 EMaxC= 1.00D-01 BMatC= 1.39D+00 BMatP= 1.39D+00
 IDIUse=3 WtCom= 8.75D-01 WtEn= 1.25D-01
 Coeff-Com:  0.100D+01
 Coeff-En:   0.100D+01
 Coeff:      0.100D+01
 Gap=     0.256 Goal=   None    Shift=    0.000
 Gap=     0.256 Goal=   None    Shift=    0.000
 GapD=    0.256 DampG=1.000 DampE=0.500 DampFc=0.5000 IDamp=-1.
 Damping current iteration by 5.00D-01
 RMSDP=2.21D-03 MaxDP=9.21D-02              OVMax= 1.75D-01

 Cycle   2  Pass 0  IDiag  1:
 RMSU=  1.10D-03    CP:  9.91D-01
 E= -1779.54726317321     Delta-E=       -0.185996913146 Rises=F Damp=T
 DIIS: error= 3.07D-03 at cycle   2 NSaved=   2.
 NSaved= 2 IEnMin= 2 EnMin= -1779.54726317321     IErMin= 2 ErrMin= 3.07D-03
 ErrMax= 3.07D-03  0.00D+00 EMaxC= 1.00D-01 BMatC= 1.06D-01 BMatP= 1.39D+00
 IDIUse=3 WtCom= 9.69D-01 WtEn= 3.07D-02
 Coeff-Com:  0.351D-01 0.965D+00
 Coeff-En:   0.602D-02 0.994D+00
 Coeff:      0.342D-01 0.966D+00
 Gap=     0.232 Goal=   None    Shift=    0.000
 Gap=     0.232 Goal=   None    Shift=    0.000
 RMSDP=7.76D-04 MaxDP=3.80D-02 DE=-1.86D-01 OVMax= 1.25D-01

 Cycle   3  Pass 0  IDiag  1:
 RMSU=  7.47D-04    CP:  9.89D-01  1.19D+00
 E= -1779.73427624567     Delta-E=       -0.187013072464 Rises=F Damp=F
 DIIS: error= 3.60D-03 at cycle   3 NSaved=   3.
 NSaved= 3 IEnMin= 3 EnMin= -1779.73427624567     IErMin= 2 ErrMin= 3.07D-03
 ErrMax= 3.60D-03  0.00D+00 EMaxC= 1.00D-01 BMatC= 1.20D-01 BMatP= 1.06D-01
 IDIUse=3 WtCom= 1.43D-01 WtEn= 8.57D-01
 Coeff-Com: -0.419D-01 0.537D+00 0.504D+00
 Coeff-En:   0.000D+00 0.000D+00 0.100D+01
 Coeff:     -0.598D-02 0.767D-01 0.929D+00
 Gap=     0.246 Goal=   None    Shift=    0.000
 Gap=     0.246 Goal=   None    Shift=    0.000
 RMSDP=7.55D-04 MaxDP=5.07D-02 DE=-1.87D-01 OVMax= 8.26D-02

 Cycle   4  Pass 0  IDiag  1:
 RMSU=  3.90D-04    CP:  9.89D-01  1.28D+00  1.42D-01
 E= -1779.68321043030     Delta-E=        0.051065815371 Rises=F Damp=F
 DIIS: error= 7.19D-03 at cycle   4 NSaved=   4.
 NSaved= 4 IEnMin= 3 EnMin= -1779.73427624567     IErMin= 2 ErrMin= 3.07D-03
 ErrMax= 7.19D-03  0.00D+00 EMaxC= 1.00D-01 BMatC= 3.19D-01 BMatP= 1.06D-01
 IDIUse=3 WtCom= 1.05D-01 WtEn= 8.95D-01
 Coeff-Com:  0.868D-02 0.131D+00 0.565D+00 0.296D+00
 Coeff-En:   0.000D+00 0.000D+00 0.685D+00 0.315D+00
 Coeff:      0.915D-03 0.138D-01 0.672D+00 0.313D+00
 Gap=     0.235 Goal=   None    Shift=    0.000
 Gap=     0.235 Goal=   None    Shift=    0.000
 RMSDP=3.89D-04 MaxDP=2.46D-02 DE= 5.11D-02 OVMax= 4.47D-02

 Cycle   5  Pass 0  IDiag  1:
 RMSU=  6.12D-05    CP:  9.90D-01  1.20D+00  5.59D-01  4.59D-01
 E= -1779.76355845314     Delta-E=       -0.080348022838 Rises=F Damp=F
 DIIS: error= 1.09D-03 at cycle   5 NSaved=   5.
 NSaved= 5 IEnMin= 5 EnMin= -1779.76355845314     IErMin= 5 ErrMin= 1.09D-03
 ErrMax= 1.09D-03  0.00D+00 EMaxC= 1.00D-01 BMatC= 8.66D-03 BMatP= 1.06D-01
 IDIUse=3 WtCom= 9.89D-01 WtEn= 1.09D-02
 Coeff-Com:  0.977D-02 0.110D-01 0.318D+00 0.112D+00 0.549D+00
 Coeff-En:   0.000D+00 0.000D+00 0.248D-01 0.000D+00 0.975D+00
 Coeff:      0.966D-02 0.109D-01 0.315D+00 0.110D+00 0.554D+00
 Gap=     0.231 Goal=   None    Shift=    0.000
 Gap=     0.231 Goal=   None    Shift=    0.000
 RMSDP=7.91D-05 MaxDP=5.72D-03 DE=-8.03D-02 OVMax= 8.46D-03

 Cycle   6  Pass 0  IDiag  1:
 RMSU=  2.59D-05    CP:  9.90D-01  1.19D+00  6.43D-01  3.78D-01  6.23D-01
 E= -1779.76572940897     Delta-E=       -0.002170955833 Rises=F Damp=F
 DIIS: error= 1.54D-04 at cycle   6 NSaved=   6.
 NSaved= 6 IEnMin= 6 EnMin= -1779.76572940897     IErMin= 6 ErrMin= 1.54D-04
 ErrMax= 1.54D-04  0.00D+00 EMaxC= 1.00D-01 BMatC= 1.14D-04 BMatP= 8.66D-03
 IDIUse=3 WtCom= 9.98D-01 WtEn= 1.54D-03
 Coeff-Com:  0.377D-02-0.850D-02 0.793D-01 0.137D-01 0.258D+00 0.654D+00
 Coeff-En:   0.000D+00 0.000D+00 0.000D+00 0.000D+00 0.000D+00 0.100D+01
 Coeff:      0.377D-02-0.848D-02 0.792D-01 0.137D-01 0.258D+00 0.654D+00
 Gap=     0.231 Goal=   None    Shift=    0.000
 Gap=     0.231 Goal=   None    Shift=    0.000
 RMSDP=1.15D-05 MaxDP=6.38D-04 DE=-2.17D-03 OVMax= 1.28D-03

 Cycle   7  Pass 0  IDiag  1:
 RMSU=  8.60D-06    CP:  9.90D-01  1.19D+00  6.47D-01  3.84D-01  6.99D-01
                    CP:  8.15D-01
 E= -1779.76575475393     Delta-E=       -0.000025344955 Rises=F Damp=F
 DIIS: error= 5.58D-05 at cycle   7 NSaved=   7.
 NSaved= 7 IEnMin= 7 EnMin= -1779.76575475393     IErMin= 7 ErrMin= 5.58D-05
 ErrMax= 5.58D-05  0.00D+00 EMaxC= 1.00D-01 BMatC= 2.09D-05 BMatP= 1.14D-04
 IDIUse=1 WtCom= 1.00D+00 WtEn= 0.00D+00
 Coeff-Com:  0.134D-02-0.581D-02 0.129D-01-0.371D-02 0.871D-01 0.363D+00
 Coeff-Com:  0.546D+00
 Coeff:      0.134D-02-0.581D-02 0.129D-01-0.371D-02 0.871D-01 0.363D+00
 Coeff:      0.546D+00
 Gap=     0.231 Goal=   None    Shift=    0.000
 Gap=     0.231 Goal=   None    Shift=    0.000
 RMSDP=4.50D-06 MaxDP=3.18D-04 DE=-2.53D-05 OVMax= 5.09D-04

 Initial convergence to 1.0D-05 achieved.  Increase integral accuracy.
 Cycle   8  Pass 1  IDiag  1:
 E= -1779.76523872237     Delta-E=        0.000516031556 Rises=F Damp=F
 DIIS: error= 1.12D-04 at cycle   1 NSaved=   1.
 NSaved= 1 IEnMin= 1 EnMin= -1779.76523872237     IErMin= 1 ErrMin= 1.12D-04
 ErrMax= 1.12D-04  0.00D+00 EMaxC= 1.00D-01 BMatC= 3.19D-05 BMatP= 3.19D-05
 IDIUse=3 WtCom= 9.99D-01 WtEn= 1.12D-03
 Coeff-Com:  0.100D+01
 Coeff-En:   0.100D+01
 Coeff:      0.100D+01
 Gap=     0.231 Goal=   None    Shift=    0.000
 Gap=     0.231 Goal=   None    Shift=    0.000
 RMSDP=4.50D-06 MaxDP=3.18D-04 DE= 5.16D-04 OVMax= 3.86D-04

 Cycle   9  Pass 1  IDiag  1:
 RMSU=  7.94D-05    CP:  1.00D+00
 E= -1779.76524438441     Delta-E=       -0.000005662039 Rises=F Damp=F
 DIIS: error= 4.79D-05 at cycle   2 NSaved=   2.
 NSaved= 2 IEnMin= 2 EnMin= -1779.76524438441     IErMin= 2 ErrMin= 4.79D-05
 ErrMax= 4.79D-05  0.00D+00 EMaxC= 1.00D-01 BMatC= 6.37D-06 BMatP= 3.19D-05
 IDIUse=1 WtCom= 1.00D+00 WtEn= 0.00D+00
 Coeff-Com:  0.204D+00 0.796D+00
 Coeff:      0.204D+00 0.796D+00
 Gap=     0.231 Goal=   None    Shift=    0.000
 Gap=     0.231 Goal=   None    Shift=    0.000
 RMSDP=5.83D-06 MaxDP=3.26D-04 DE=-5.66D-06 OVMax= 6.09D-04

 Cycle  10  Pass 1  IDiag  1:
 RMSU=  4.81D-06    CP:  1.00D+00  1.04D+00
 E= -1779.76524326405     Delta-E=        0.000001120363 Rises=F Damp=F
 DIIS: error= 6.72D-05 at cycle   3 NSaved=   3.
 NSaved= 3 IEnMin= 2 EnMin= -1779.76524438441     IErMin= 2 ErrMin= 4.79D-05
 ErrMax= 6.72D-05  0.00D+00 EMaxC= 1.00D-01 BMatC= 1.12D-05 BMatP= 6.37D-06
 IDIUse=1 WtCom= 1.00D+00 WtEn= 0.00D+00
 Coeff-Com: -0.194D-01 0.578D+00 0.441D+00
 Coeff:     -0.194D-01 0.578D+00 0.441D+00
 Gap=     0.231 Goal=   None    Shift=    0.000
 Gap=     0.231 Goal=   None    Shift=    0.000
 RMSDP=2.91D-06 MaxDP=2.01D-04 DE= 1.12D-06 OVMax= 3.51D-04

 Cycle  11  Pass 1  IDiag  1:
 RMSU=  8.73D-07    CP:  1.00D+00  1.05D+00  4.68D-01
 E= -1779.76524583398     Delta-E=       -0.000002569926 Rises=F Damp=F
 DIIS: error= 3.89D-06 at cycle   4 NSaved=   4.
 NSaved= 4 IEnMin= 4 EnMin= -1779.76524583398     IErMin= 4 ErrMin= 3.89D-06
 ErrMax= 3.89D-06  0.00D+00 EMaxC= 1.00D-01 BMatC= 1.20D-07 BMatP= 6.37D-06
 IDIUse=1 WtCom= 1.00D+00 WtEn= 0.00D+00
 Coeff-Com: -0.143D-01 0.326D+00 0.255D+00 0.433D+00
 Coeff:     -0.143D-01 0.326D+00 0.255D+00 0.433D+00
 Gap=     0.231 Goal=   None    Shift=    0.000
 Gap=     0.231 Goal=   None    Shift=    0.000
 RMSDP=2.99D-07 MaxDP=1.41D-05 DE=-2.57D-06 OVMax= 3.56D-05

 Cycle  12  Pass 1  IDiag  1:
 RMSU=  2.65D-07    CP:  1.00D+00  1.06D+00  4.84D-01  8.94D-01
 E= -1779.76524589594     Delta-E=       -0.000000061968 Rises=F Damp=F
 DIIS: error= 9.99D-07 at cycle   5 NSaved=   5.
 NSaved= 5 IEnMin= 5 EnMin= -1779.76524589594     IErMin= 5 ErrMin= 9.99D-07
 ErrMax= 9.99D-07  0.00D+00 EMaxC= 1.00D-01 BMatC= 3.60D-09 BMatP= 1.20D-07
 IDIUse=1 WtCom= 1.00D+00 WtEn= 0.00D+00
 Coeff-Com: -0.220D-02 0.333D-01 0.247D-01 0.128D+00 0.816D+00
 Coeff:     -0.220D-02 0.333D-01 0.247D-01 0.128D+00 0.816D+00
 Gap=     0.231 Goal=   None    Shift=    0.000
 Gap=     0.231 Goal=   None    Shift=    0.000
 RMSDP=1.19D-07 MaxDP=3.79D-06 DE=-6.20D-08 OVMax= 1.65D-05

 Cycle  13  Pass 1  IDiag  1:
 RMSU=  8.25D-08    CP:  1.00D+00  1.06D+00  4.85D-01  9.70D-01  1.02D+00
 E= -1779.76524589741     Delta-E=       -0.000000001464 Rises=F Damp=F
 DIIS: error= 6.26D-07 at cycle   6 NSaved=   6.
 NSaved= 6 IEnMin= 6 EnMin= -1779.76524589741     IErMin= 6 ErrMin= 6.26D-07
 ErrMax= 6.26D-07  0.00D+00 EMaxC= 1.00D-01 BMatC= 1.66D-09 BMatP= 3.60D-09
 IDIUse=1 WtCom= 1.00D+00 WtEn= 0.00D+00
 Coeff-Com:  0.128D-02-0.377D-01-0.311D-01-0.982D-02 0.460D+00 0.618D+00
 Coeff:      0.128D-02-0.377D-01-0.311D-01-0.982D-02 0.460D+00 0.618D+00
 Gap=     0.231 Goal=   None    Shift=    0.000
 Gap=     0.231 Goal=   None    Shift=    0.000
 RMSDP=5.87D-08 MaxDP=2.53D-06 DE=-1.46D-09 OVMax= 1.12D-05

 Cycle  14  Pass 1  IDiag  1:
 RMSU=  4.79D-08    CP:  1.00D+00  1.06D+00  4.86D-01  9.91D-01  1.11D+00
                    CP:  9.00D-01
 E= -1779.76524589804     Delta-E=       -0.000000000631 Rises=F Damp=F
 DIIS: error= 2.82D-07 at cycle   7 NSaved=   7.
 NSaved= 7 IEnMin= 7 EnMin= -1779.76524589804     IErMin= 7 ErrMin= 2.82D-07
 ErrMax= 2.82D-07  0.00D+00 EMaxC= 1.00D-01 BMatC= 3.52D-10 BMatP= 1.66D-09
 IDIUse=1 WtCom= 1.00D+00 WtEn= 0.00D+00
 Coeff-Com:  0.121D-02-0.294D-01-0.240D-01-0.336D-01 0.105D+00 0.367D+00
 Coeff-Com:  0.614D+00
 Coeff:      0.121D-02-0.294D-01-0.240D-01-0.336D-01 0.105D+00 0.367D+00
 Coeff:      0.614D+00
 Gap=     0.231 Goal=   None    Shift=    0.000
 Gap=     0.231 Goal=   None    Shift=    0.000
 RMSDP=2.36D-08 MaxDP=9.31D-07 DE=-6.31D-10 OVMax= 3.74D-06

 Cycle  15  Pass 1  IDiag  1:
 RMSU=  1.59D-08    CP:  1.00D+00  1.06D+00  4.86D-01  9.99D-01  1.12D+00
                    CP:  1.08D+00  9.89D-01
 E= -1779.76524590212     Delta-E=       -0.000000004080 Rises=F Damp=F
 DIIS: error= 5.34D-08 at cycle   8 NSaved=   8.
 NSaved= 8 IEnMin= 8 EnMin= -1779.76524590212     IErMin= 8 ErrMin= 5.34D-08
 ErrMax= 5.34D-08  0.00D+00 EMaxC= 1.00D-01 BMatC= 2.63D-11 BMatP= 3.52D-10
 IDIUse=1 WtCom= 1.00D+00 WtEn= 0.00D+00
 Coeff-Com:  0.263D-03-0.529D-02-0.436D-02-0.120D-01-0.332D-01 0.556D-01
 Coeff-Com:  0.249D+00 0.750D+00
 Coeff:      0.263D-03-0.529D-02-0.436D-02-0.120D-01-0.332D-01 0.556D-01
 Coeff:      0.249D+00 0.750D+00
 Gap=     0.231 Goal=   None    Shift=    0.000
 Gap=     0.231 Goal=   None    Shift=    0.000
 RMSDP=9.82D-09 MaxDP=4.12D-07 DE=-4.08D-09 OVMax= 2.16D-06

 SCF Done:  E(ULC-wPBE) =  -1779.76524590     A.U. after   15 cycles
            NFock= 15  Conv=0.98D-08     -V/T= 2.0057
 <Sx>= 0.0000 <Sy>= 0.0000 <Sz>= 0.0000 <S**2>=-0.0000 S=-0.0000
 <L.S>= 0.000000000000E+00
 KE= 1.769678030447D+03 PE=-1.109711193725D+04 EE= 4.076624522164D+03
 Annihilation of the first spin contaminant:
 S**2 before annihilation    -0.0000,   after     0.0000
 Leave Link  502 at Sat Jul 25 10:35:01 2020, MaxMem=  4026531840 cpu:            3177.5 elap:             398.5
 (Enter /opt/ohpc/pub/libs/gaussian/g16-A.03/sandybridge/g16/l601.exe)
 Copying SCF densities to generalized density rwf, IOpCl= 1 IROHF=0.

 **********************************************************************

            Population analysis using the SCF density.

 **********************************************************************

 Orbital symmetries:
 Alpha Orbitals:
       Occupied  (A) (A) (A) (A) (A) (A) (A) (A) (A) (A) (A) (A)
                 (A) (A) (A) (A) (A) (A) (A) (A) (A) (A) (A) (A)
                 (A) (A) (A) (A) (A) (A) (A) (A) (A) (A) (A) (A)
                 (A) (A) (A) (A) (A) (A) (A) (A) (A) (A) (A) (A)
                 (A) (A) (A) (A) (A) (A) (A) (A) (A) (A) (A) (A)
                 (A) (A) (A) (A) (A) (A) (A) (A) (A) (A) (A) (A)
                 (A) (A) (A) (A) (A) (A) (A) (A) (A) (A) (A) (A)
                 (A) (A) (A) (A) (A) (A) (A) (A) (A) (A) (A) (A)
                 (A) (A) (A) (A) (A) (A) (A) (A) (A) (A) (A) (A)
                 (A) (A) (A) (A) (A) (A) (A) (A) (A) (A) (A) (A)
                 (A) (A) (A) (A) (A) (A) (A) (A) (A) (A) (A) (A)
                 (A)
       Virtual   (A) (A) (A) (A) (A) (A) (A) (A) (A) (A) (A) (A)
                 (A) (A) (A) (A) (A) (A) (A) (A) (A) (A) (A) (A)
                 (A) (A) (A) (A) (A) (A) (A) (A) (A) (A) (A) (A)
                 (A) (A) (A) (A) (A) (A) (A) (A) (A) (A) (A) (A)
                 (A) (A) (A) (A) (A) (A) (A) (A) (A) (A) (A) (A)
                 (A) (A) (A) (A) (A) (A) (A) (A) (A) (A) (A) (A)
                 (A) (A) (A) (A) (A) (A) (A) (A) (A) (A) (A) (A)
                 (A) (A) (A) (A) (A) (A) (A) (A) (A) (A) (A) (A)
                 (A) (A) (A) (A) (A) (A) (A) (A) (A) (A) (A) (A)
                 (A) (A) (A) (A) (A) (A) (A) (A) (A) (A) (A) (A)
                 (A) (A) (A) (A) (A) (A) (A) (A) (A) (A) (A) (A)
                 (A) (A) (A) (A) (A) (A) (A) (A) (A) (A) (A) (A)
                 (A) (A) (A) (A) (A) (A) (A) (A) (A) (A) (A) (A)
                 (A) (A) (A) (A) (A) (A) (A) (A) (A) (A) (A) (A)
                 (A) (A) (A) (A) (A) (A) (A) (A) (A) (A) (A) (A)
                 (A) (A) (A) (A) (A) (A) (A) (A) (A) (A) (A) (A)
                 (A) (A) (A) (A) (A) (A) (A) (A) (A) (A) (A) (A)
                 (A) (A) (A) (A) (A) (A) (A) (A) (A) (A) (A) (A)
                 (A) (A) (A) (A) (A) (A) (A) (A) (A) (A) (A) (A)
                 (A) (A) (A) (A) (A) (A) (A) (A) (A) (A) (A) (A)
                 (A) (A) (A) (A) (A) (A) (A) (A) (A) (A) (A) (A)
                 (A) (A) (A) (A) (A) (A) (A) (A) (A) (A) (A) (A)
                 (A) (A) (A) (A) (A) (A) (A) (A) (A) (A) (A) (A)
                 (A) (A) (A) (A) (A) (A) (A) (A) (A) (A) (A) (A)
                 (A) (A) (A) (A) (A) (A) (A) (A) (A) (A) (A) (A)
                 (A) (A) (A) (A) (A) (A) (A) (A) (A) (A) (A) (A)
                 (A) (A) (A) (A) (A) (A) (A) (A) (A) (A) (A) (A)
                 (A) (A) (A) (A) (A) (A) (A) (A) (A) (A) (A) (A)
                 (A) (A) (A) (A) (A) (A) (A) (A) (A) (A) (A) (A)
                 (A) (A) (A) (A) (A) (A) (A) (A) (A) (A) (A) (A)
                 (A) (A) (A) (A) (A) (A) (A) (A) (A) (A) (A) (A)
                 (A) (A) (A) (A) (A) (A) (A) (A) (A) (A) (A) (A)
                 (A) (A) (A) (A) (A) (A) (A) (A) (A) (A) (A) (A)
                 (A) (A) (A) (A) (A) (A) (A) (A) (A) (A) (A) (A)
                 (A) (A) (A) (A) (A) (A) (A) (A) (A) (A) (A) (A)
                 (A) (A) (A) (A) (A) (A) (A) (A) (A) (A) (A) (A)
                 (A) (A) (A) (A) (A) (A) (A) (A) (A) (A) (A) (A)
                 (A) (A) (A) (A) (A) (A) (A) (A) (A) (A) (A) (A)
                 (A) (A) (A) (A) (A) (A) (A) (A) (A) (A) (A) (A)
                 (A) (A) (A) (A) (A) (A) (A) (A) (A) (A) (A) (A)
                 (A) (A) (A) (A) (A) (A) (A) (A) (A) (A) (A) (A)
                 (A) (A) (A) (A) (A) (A)
 Beta  Orbitals:
       Occupied  (A) (A) (A) (A) (A) (A) (A) (A) (A) (A) (A) (A)
                 (A) (A) (A) (A) (A) (A) (A) (A) (A) (A) (A) (A)
                 (A) (A) (A) (A) (A) (A) (A) (A) (A) (A) (A) (A)
                 (A) (A) (A) (A) (A) (A) (A) (A) (A) (A) (A) (A)
                 (A) (A) (A) (A) (A) (A) (A) (A) (A) (A) (A) (A)
                 (A) (A) (A) (A) (A) (A) (A) (A) (A) (A) (A) (A)
                 (A) (A) (A) (A) (A) (A) (A) (A) (A) (A) (A) (A)
                 (A) (A) (A) (A) (A) (A) (A) (A) (A) (A) (A) (A)
                 (A) (A) (A) (A) (A) (A) (A) (A) (A) (A) (A) (A)
                 (A) (A) (A) (A) (A) (A) (A) (A) (A) (A) (A) (A)
                 (A) (A) (A) (A) (A) (A) (A) (A) (A) (A) (A) (A)
                 (A)
       Virtual   (A) (A) (A) (A) (A) (A) (A) (A) (A) (A) (A) (A)
                 (A) (A) (A) (A) (A) (A) (A) (A) (A) (A) (A) (A)
                 (A) (A) (A) (A) (A) (A) (A) (A) (A) (A) (A) (A)
                 (A) (A) (A) (A) (A) (A) (A) (A) (A) (A) (A) (A)
                 (A) (A) (A) (A) (A) (A) (A) (A) (A) (A) (A) (A)
                 (A) (A) (A) (A) (A) (A) (A) (A) (A) (A) (A) (A)
                 (A) (A) (A) (A) (A) (A) (A) (A) (A) (A) (A) (A)
                 (A) (A) (A) (A) (A) (A) (A) (A) (A) (A) (A) (A)
                 (A) (A) (A) (A) (A) (A) (A) (A) (A) (A) (A) (A)
                 (A) (A) (A) (A) (A) (A) (A) (A) (A) (A) (A) (A)
                 (A) (A) (A) (A) (A) (A) (A) (A) (A) (A) (A) (A)
                 (A) (A) (A) (A) (A) (A) (A) (A) (A) (A) (A) (A)
                 (A) (A) (A) (A) (A) (A) (A) (A) (A) (A) (A) (A)
                 (A) (A) (A) (A) (A) (A) (A) (A) (A) (A) (A) (A)
                 (A) (A) (A) (A) (A) (A) (A) (A) (A) (A) (A) (A)
                 (A) (A) (A) (A) (A) (A) (A) (A) (A) (A) (A) (A)
                 (A) (A) (A) (A) (A) (A) (A) (A) (A) (A) (A) (A)
                 (A) (A) (A) (A) (A) (A) (A) (A) (A) (A) (A) (A)
                 (A) (A) (A) (A) (A) (A) (A) (A) (A) (A) (A) (A)
                 (A) (A) (A) (A) (A) (A) (A) (A) (A) (A) (A) (A)
                 (A) (A) (A) (A) (A) (A) (A) (A) (A) (A) (A) (A)
                 (A) (A) (A) (A) (A) (A) (A) (A) (A) (A) (A) (A)
                 (A) (A) (A) (A) (A) (A) (A) (A) (A) (A) (A) (A)
                 (A) (A) (A) (A) (A) (A) (A) (A) (A) (A) (A) (A)
                 (A) (A) (A) (A) (A) (A) (A) (A) (A) (A) (A) (A)
                 (A) (A) (A) (A) (A) (A) (A) (A) (A) (A) (A) (A)
                 (A) (A) (A) (A) (A) (A) (A) (A) (A) (A) (A) (A)
                 (A) (A) (A) (A) (A) (A) (A) (A) (A) (A) (A) (A)
                 (A) (A) (A) (A) (A) (A) (A) (A) (A) (A) (A) (A)
                 (A) (A) (A) (A) (A) (A) (A) (A) (A) (A) (A) (A)
                 (A) (A) (A) (A) (A) (A) (A) (A) (A) (A) (A) (A)
                 (A) (A) (A) (A) (A) (A) (A) (A) (A) (A) (A) (A)
                 (A) (A) (A) (A) (A) (A) (A) (A) (A) (A) (A) (A)
                 (A) (A) (A) (A) (A) (A) (A) (A) (A) (A) (A) (A)
                 (A) (A) (A) (A) (A) (A) (A) (A) (A) (A) (A) (A)
                 (A) (A) (A) (A) (A) (A) (A) (A) (A) (A) (A) (A)
                 (A) (A) (A) (A) (A) (A) (A) (A) (A) (A) (A) (A)
                 (A) (A) (A) (A) (A) (A) (A) (A) (A) (A) (A) (A)
                 (A) (A) (A) (A) (A) (A) (A) (A) (A) (A) (A) (A)
                 (A) (A) (A) (A) (A) (A) (A) (A) (A) (A) (A) (A)
                 (A) (A) (A) (A) (A) (A) (A) (A) (A) (A) (A) (A)
                 (A) (A) (A) (A) (A) (A)
 The electronic state is 1-A.
 Alpha  occ. eigenvalues --  -24.38971 -24.37721 -24.36902 -14.08542 -14.08366
 Alpha  occ. eigenvalues --  -14.07765 -14.07483 -14.07404 -14.06292 -10.07067
 Alpha  occ. eigenvalues --  -10.06448 -10.06241 -10.02181 -10.01889 -10.01620
 Alpha  occ. eigenvalues --  -10.01505 -10.01486 -10.01308 -10.01251 -10.01231
 Alpha  occ. eigenvalues --  -10.00915 -10.00642 -10.00589 -10.00553 -10.00222
 Alpha  occ. eigenvalues --  -10.00209 -10.00151 -10.00053  -9.99931  -9.99685
 Alpha  occ. eigenvalues --   -9.99512  -9.99511  -9.99413  -9.99279  -9.98649
 Alpha  occ. eigenvalues --   -9.98411  -9.98164  -9.97781  -9.97045  -1.26057
 Alpha  occ. eigenvalues --   -1.23875  -1.22583  -0.95088  -0.94626  -0.94594
 Alpha  occ. eigenvalues --   -0.93318  -0.92793  -0.92673  -0.84964  -0.84605
 Alpha  occ. eigenvalues --   -0.80716  -0.80139  -0.79876  -0.79669  -0.78939
 Alpha  occ. eigenvalues --   -0.78420  -0.78091  -0.76707  -0.75595  -0.74130
 Alpha  occ. eigenvalues --   -0.68814  -0.67970  -0.67279  -0.66491  -0.66053
 Alpha  occ. eigenvalues --   -0.64932  -0.64607  -0.63807  -0.63064  -0.62924
 Alpha  occ. eigenvalues --   -0.61915  -0.61061  -0.58140  -0.58045  -0.57218
 Alpha  occ. eigenvalues --   -0.55137  -0.55041  -0.54534  -0.54371  -0.53858
 Alpha  occ. eigenvalues --   -0.53503  -0.52225  -0.52071  -0.51577  -0.50747
 Alpha  occ. eigenvalues --   -0.50738  -0.50252  -0.50159  -0.49912  -0.49579
 Alpha  occ. eigenvalues --   -0.49348  -0.47196  -0.46945  -0.46759  -0.45187
 Alpha  occ. eigenvalues --   -0.44954  -0.44713  -0.44450  -0.44212  -0.43874
 Alpha  occ. eigenvalues --   -0.43589  -0.42865  -0.42513  -0.41916  -0.41738
 Alpha  occ. eigenvalues --   -0.41600  -0.41533  -0.41393  -0.41231  -0.40931
 Alpha  occ. eigenvalues --   -0.40657  -0.39877  -0.38114  -0.37766  -0.36914
 Alpha  occ. eigenvalues --   -0.36022  -0.35024  -0.33347  -0.33110  -0.32372
 Alpha  occ. eigenvalues --   -0.32204  -0.31479  -0.31000  -0.30781  -0.30467
 Alpha  occ. eigenvalues --   -0.30249  -0.29429  -0.29134  -0.28532  -0.27917
 Alpha  occ. eigenvalues --   -0.27609  -0.27191  -0.27086
 Alpha virt. eigenvalues --   -0.03968  -0.03014  -0.01852  -0.00990  -0.00608
 Alpha virt. eigenvalues --   -0.00418   0.00227   0.01265   0.01592   0.02914
 Alpha virt. eigenvalues --    0.04755   0.06634   0.10301   0.10579   0.10757
 Alpha virt. eigenvalues --    0.11150   0.11933   0.12133   0.13055   0.13693
 Alpha virt. eigenvalues --    0.14119   0.14181   0.14417   0.14641   0.15136
 Alpha virt. eigenvalues --    0.16118   0.16707   0.16854   0.17441   0.17559
 Alpha virt. eigenvalues --    0.18122   0.18303   0.18568   0.18732   0.18947
 Alpha virt. eigenvalues --    0.19178   0.19309   0.19900   0.22310   0.22658
 Alpha virt. eigenvalues --    0.22809   0.25391   0.25677   0.26048   0.26573
 Alpha virt. eigenvalues --    0.27088   0.27286   0.28186   0.28854   0.30011
 Alpha virt. eigenvalues --    0.30594   0.31163   0.31455   0.32248   0.32851
 Alpha virt. eigenvalues --    0.33204   0.33820   0.33982   0.35076   0.35327
 Alpha virt. eigenvalues --    0.35889   0.36097   0.36891   0.37435   0.37999
 Alpha virt. eigenvalues --    0.38835   0.39342   0.40133   0.40603   0.41312
 Alpha virt. eigenvalues --    0.41630   0.41849   0.42479   0.43156   0.43898
 Alpha virt. eigenvalues --    0.44233   0.44607   0.44758   0.45508   0.46545
 Alpha virt. eigenvalues --    0.46966   0.47185   0.47375   0.47940   0.48269
 Alpha virt. eigenvalues --    0.48686   0.49007   0.49555   0.49684   0.50393
 Alpha virt. eigenvalues --    0.50468   0.50881   0.50945   0.51057   0.51491
 Alpha virt. eigenvalues --    0.52045   0.52378   0.52528   0.53048   0.53350
 Alpha virt. eigenvalues --    0.53423   0.53742   0.53888   0.54154   0.54556
 Alpha virt. eigenvalues --    0.54884   0.54966   0.55185   0.55337   0.55673
 Alpha virt. eigenvalues --    0.55694   0.56223   0.56320   0.56656   0.56806
 Alpha virt. eigenvalues --    0.57185   0.57793   0.58217   0.58575   0.58863
 Alpha virt. eigenvalues --    0.59267   0.59792   0.60232   0.60643   0.61363
 Alpha virt. eigenvalues --    0.61847   0.62122   0.62678   0.63085   0.63380
 Alpha virt. eigenvalues --    0.63543   0.63881   0.64204   0.64560   0.65237
 Alpha virt. eigenvalues --    0.65829   0.66272   0.66721   0.67198   0.67342
 Alpha virt. eigenvalues --    0.67596   0.68001   0.68479   0.68717   0.68842
 Alpha virt. eigenvalues --    0.69383   0.69531   0.69705   0.70074   0.70470
 Alpha virt. eigenvalues --    0.70663   0.70839   0.71641   0.71972   0.72683
 Alpha virt. eigenvalues --    0.73023   0.73204   0.73580   0.74304   0.74399
 Alpha virt. eigenvalues --    0.75999   0.76466   0.77109   0.79497   0.80239
 Alpha virt. eigenvalues --    0.81012   0.82309   0.82477   0.83348   0.83980
 Alpha virt. eigenvalues --    0.84187   0.84564   0.85610   0.86182   0.86606
 Alpha virt. eigenvalues --    0.86960   0.87830   0.88159   0.88344   0.89146
 Alpha virt. eigenvalues --    0.89273   0.89811   0.90375   0.91188   0.91404
 Alpha virt. eigenvalues --    0.92027   0.92380   0.92522   0.93190   0.93642
 Alpha virt. eigenvalues --    0.93890   0.93985   0.94643   0.95263   0.95930
 Alpha virt. eigenvalues --    0.96056   0.96337   0.97157   0.97287   0.98580
 Alpha virt. eigenvalues --    0.99301   0.99532   0.99736   1.00819   1.01061
 Alpha virt. eigenvalues --    1.01411   1.01758   1.02408   1.02638   1.03467
 Alpha virt. eigenvalues --    1.03767   1.03960   1.04312   1.04530   1.05040
 Alpha virt. eigenvalues --    1.05524   1.06234   1.06515   1.06888   1.07203
 Alpha virt. eigenvalues --    1.07451   1.08143   1.08363   1.08517   1.09781
 Alpha virt. eigenvalues --    1.10338   1.10461   1.11097   1.11831   1.12360
 Alpha virt. eigenvalues --    1.12763   1.13213   1.13602   1.13996   1.14386
 Alpha virt. eigenvalues --    1.15444   1.16362   1.17539   1.17773   1.18042
 Alpha virt. eigenvalues --    1.18802   1.19623   1.19833   1.20611   1.20682
 Alpha virt. eigenvalues --    1.21048   1.21860   1.22464   1.22667   1.23722
 Alpha virt. eigenvalues --    1.24305   1.25210   1.26942   1.27905   1.28230
 Alpha virt. eigenvalues --    1.28441   1.29011   1.30519   1.30638   1.30839
 Alpha virt. eigenvalues --    1.31475   1.32032   1.33945   1.34633   1.35517
 Alpha virt. eigenvalues --    1.36700   1.38682   1.39564   1.40621   1.40989
 Alpha virt. eigenvalues --    1.41664   1.42229   1.42497   1.43172   1.44345
 Alpha virt. eigenvalues --    1.45401   1.45981   1.46613   1.47178   1.47971
 Alpha virt. eigenvalues --    1.48315   1.48895   1.49094   1.49373   1.49841
 Alpha virt. eigenvalues --    1.50093   1.50605   1.50894   1.51428   1.52168
 Alpha virt. eigenvalues --    1.52460   1.52817   1.53341   1.53409   1.54550
 Alpha virt. eigenvalues --    1.55069   1.55673   1.56434   1.56939   1.57815
 Alpha virt. eigenvalues --    1.58331   1.58741   1.58990   1.59262   1.59464
 Alpha virt. eigenvalues --    1.60199   1.60337   1.60712   1.61126   1.61377
 Alpha virt. eigenvalues --    1.61600   1.62313   1.62685   1.62901   1.63101
 Alpha virt. eigenvalues --    1.63655   1.63844   1.64250   1.64358   1.64839
 Alpha virt. eigenvalues --    1.65451   1.65734   1.65815   1.66483   1.66784
 Alpha virt. eigenvalues --    1.67706   1.67975   1.68331   1.69031   1.69296
 Alpha virt. eigenvalues --    1.69790   1.70502   1.70567   1.70737   1.71885
 Alpha virt. eigenvalues --    1.72431   1.72657   1.73510   1.73822   1.74825
 Alpha virt. eigenvalues --    1.75413   1.75813   1.76578   1.76661   1.77219
 Alpha virt. eigenvalues --    1.78182   1.78697   1.79281   1.80035   1.80119
 Alpha virt. eigenvalues --    1.80677   1.81484   1.81535   1.82237   1.83060
 Alpha virt. eigenvalues --    1.83644   1.84026   1.84682   1.85275   1.85552
 Alpha virt. eigenvalues --    1.86383   1.86873   1.87483   1.87642   1.87944
 Alpha virt. eigenvalues --    1.88000   1.88794   1.89334   1.89680   1.89840
 Alpha virt. eigenvalues --    1.90390   1.91315   1.91714   1.93592   1.94516
 Alpha virt. eigenvalues --    1.95083   1.95296   1.95571   1.95959   1.96635
 Alpha virt. eigenvalues --    1.97400   1.97707   1.97983   1.98605   1.99197
 Alpha virt. eigenvalues --    1.99309   1.99676   2.00700   2.00834   2.01256
 Alpha virt. eigenvalues --    2.02008   2.02994   2.04089   2.04603   2.05321
 Alpha virt. eigenvalues --    2.05988   2.06798   2.06926   2.07568   2.09217
 Alpha virt. eigenvalues --    2.10152   2.10460   2.12962   2.13672   2.15763
 Alpha virt. eigenvalues --    2.16187   2.19520   2.19751   2.21088   2.21704
 Alpha virt. eigenvalues --    2.22692   2.23212   2.24830   2.24994   2.26087
 Alpha virt. eigenvalues --    2.29533   2.29721   2.30794   2.31271   2.32243
 Alpha virt. eigenvalues --    2.32672   2.33504   2.34754   2.35302   2.35970
 Alpha virt. eigenvalues --    2.37313   2.37580   2.39135   2.39425   2.39925
 Alpha virt. eigenvalues --    2.40932   2.41919   2.43313   2.44148   2.44590
 Alpha virt. eigenvalues --    2.45507   2.45863   2.46681   2.47700   2.48397
 Alpha virt. eigenvalues --    2.49703   2.49869   2.50153   2.51799   2.52653
 Alpha virt. eigenvalues --    2.54482   2.56026   2.56357   2.57333   2.58442
 Alpha virt. eigenvalues --    2.59658   2.60068   2.62535   2.64563   2.65520
 Alpha virt. eigenvalues --    2.66757   2.69829   2.70606   2.71298   2.73364
 Alpha virt. eigenvalues --    2.74854   2.75116   2.76357   2.78494   2.80407
 Alpha virt. eigenvalues --    2.82586   2.84010   2.85470   2.86604   2.87514
 Alpha virt. eigenvalues --    2.88537   2.89031   2.90963   2.92171   3.03981
 Alpha virt. eigenvalues --    3.05468   3.06898   3.17004   3.20506   3.32113
 Alpha virt. eigenvalues --    3.37947   3.42515   3.46982   3.51924   3.52788
 Alpha virt. eigenvalues --    3.53617   3.56605   3.57615   3.57692   3.77343
 Alpha virt. eigenvalues --    3.77687   3.78833   4.00646   4.01264   4.01806
 Alpha virt. eigenvalues --    4.17522   4.18415   4.18735
  Beta  occ. eigenvalues --  -24.38971 -24.37721 -24.36902 -14.08542 -14.08366
  Beta  occ. eigenvalues --  -14.07765 -14.07483 -14.07404 -14.06292 -10.07067
  Beta  occ. eigenvalues --  -10.06448 -10.06241 -10.02181 -10.01889 -10.01620
  Beta  occ. eigenvalues --  -10.01505 -10.01486 -10.01308 -10.01251 -10.01231
  Beta  occ. eigenvalues --  -10.00915 -10.00642 -10.00589 -10.00553 -10.00222
  Beta  occ. eigenvalues --  -10.00209 -10.00151 -10.00053  -9.99931  -9.99685
  Beta  occ. eigenvalues --   -9.99512  -9.99511  -9.99413  -9.99279  -9.98649
  Beta  occ. eigenvalues --   -9.98411  -9.98164  -9.97781  -9.97045  -1.26057
  Beta  occ. eigenvalues --   -1.23875  -1.22583  -0.95088  -0.94626  -0.94594
  Beta  occ. eigenvalues --   -0.93318  -0.92793  -0.92673  -0.84964  -0.84605
  Beta  occ. eigenvalues --   -0.80716  -0.80139  -0.79876  -0.79669  -0.78939
  Beta  occ. eigenvalues --   -0.78420  -0.78091  -0.76707  -0.75595  -0.74130
  Beta  occ. eigenvalues --   -0.68814  -0.67970  -0.67279  -0.66491  -0.66053
  Beta  occ. eigenvalues --   -0.64932  -0.64607  -0.63807  -0.63064  -0.62924
  Beta  occ. eigenvalues --   -0.61915  -0.61061  -0.58140  -0.58045  -0.57218
  Beta  occ. eigenvalues --   -0.55137  -0.55041  -0.54534  -0.54371  -0.53858
  Beta  occ. eigenvalues --   -0.53503  -0.52225  -0.52071  -0.51577  -0.50747
  Beta  occ. eigenvalues --   -0.50738  -0.50252  -0.50159  -0.49912  -0.49579
  Beta  occ. eigenvalues --   -0.49348  -0.47196  -0.46945  -0.46759  -0.45187
  Beta  occ. eigenvalues --   -0.44954  -0.44713  -0.44450  -0.44212  -0.43874
  Beta  occ. eigenvalues --   -0.43589  -0.42865  -0.42513  -0.41916  -0.41738
  Beta  occ. eigenvalues --   -0.41600  -0.41533  -0.41393  -0.41231  -0.40931
  Beta  occ. eigenvalues --   -0.40657  -0.39877  -0.38114  -0.37766  -0.36914
  Beta  occ. eigenvalues --   -0.36022  -0.35024  -0.33347  -0.33110  -0.32372
  Beta  occ. eigenvalues --   -0.32204  -0.31479  -0.31000  -0.30781  -0.30467
  Beta  occ. eigenvalues --   -0.30249  -0.29429  -0.29134  -0.28532  -0.27917
  Beta  occ. eigenvalues --   -0.27609  -0.27191  -0.27086
  Beta virt. eigenvalues --   -0.03968  -0.03014  -0.01852  -0.00990  -0.00608
  Beta virt. eigenvalues --   -0.00418   0.00227   0.01265   0.01592   0.02914
  Beta virt. eigenvalues --    0.04755   0.06634   0.10301   0.10579   0.10757
[...]
    25   Atom        0.000000     -0.000000      0.000000
    26   Atom       -0.000000      0.000000     -0.000000
    27   Atom        0.000000      0.000000      0.000000
    28   Atom        0.000000      0.000000     -0.000000
    29   Atom       -0.000000     -0.000000     -0.000000
    30   Atom       -0.000000     -0.000000      0.000000
    31   Atom        0.000000      0.000000      0.000000
    32   Atom       -0.000000     -0.000000      0.000000
    33   Atom       -0.000000     -0.000000     -0.000000
    34   Atom       -0.000000     -0.000000      0.000000
    35   Atom       -0.000000      0.000000     -0.000000
    36   Atom        0.000000      0.000000      0.000000
    37   Atom       -0.000000      0.000000      0.000000
    38   Atom        0.000000      0.000000      0.000000
    39   Atom        0.000000      0.000000     -0.000000
    40   Atom        0.000000      0.000000     -0.000000
    41   Atom        0.000000     -0.000000     -0.000000
    42   Atom       -0.000000      0.000000      0.000000
    43   Atom        0.000000     -0.000000     -0.000000
    44   Atom       -0.000000      0.000000      0.000000
    45   Atom        0.000000     -0.000000      0.000000
    46   Atom        0.000000      0.000000      0.000000
    47   Atom       -0.000000     -0.000000     -0.000000
    48   Atom       -0.000000     -0.000000      0.000000
    49   Atom       -0.000000     -0.000000      0.000000
    50   Atom       -0.000000     -0.000000     -0.000000
    51   Atom        0.000000     -0.000000     -0.000000
    52   Atom       -0.000000     -0.000000     -0.000000
    53   Atom        0.000000      0.000000      0.000000
    54   Atom       -0.000000     -0.000000     -0.000000
    55   Atom        0.000000      0.000000      0.000000
    56   Atom       -0.000000     -0.000000      0.000000
 --------------------------------------------------------


 ---------------------------------------------------------------------------------
              Anisotropic Spin Dipole Couplings in Principal Axis System
 ---------------------------------------------------------------------------------

       Atom             a.u.   MegaHertz   Gauss  10(-4) cm-1        Axes

              Baa    -0.0000    -0.000    -0.000    -0.000  0.7483  0.5068 -0.4281
     1 C(13)  Bbb     0.0000     0.000     0.000     0.000  0.1133  0.5382  0.8352
              Bcc     0.0000     0.000     0.000     0.000 -0.6536  0.6735 -0.3453
 
              Baa    -0.0000    -0.000    -0.000    -0.000  0.7799  0.5067 -0.3674
     2 C(13)  Bbb     0.0000     0.000     0.000     0.000 -0.4990  0.8577  0.1236
              Bcc     0.0000     0.000     0.000     0.000  0.3777  0.0869  0.9218
 
              Baa    -0.0000    -0.000    -0.000    -0.000  0.0149  0.9101 -0.4140
     3 C(13)  Bbb     0.0000     0.000     0.000     0.000  0.2114  0.4018  0.8910
              Bcc     0.0000     0.000     0.000     0.000  0.9773 -0.1008 -0.1865
 
              Baa    -0.0000    -0.000    -0.000    -0.000  0.1149  0.6920  0.7127
     4 C(13)  Bbb     0.0000     0.000     0.000     0.000 -0.1511 -0.6969  0.7011
              Bcc     0.0000     0.000     0.000     0.000  0.9818 -0.1882  0.0245
 
              Baa    -0.0000    -0.000    -0.000    -0.000  0.6949  0.4036 -0.5952
     5 N(14)  Bbb    -0.0000    -0.000    -0.000    -0.000  0.5898  0.1537  0.7928
              Bcc     0.0000     0.000     0.000     0.000 -0.4114  0.9019  0.1312
 
              Baa    -0.0000    -0.000    -0.000    -0.000 -0.4968  0.8497  0.1765
     6 C(13)  Bbb    -0.0000    -0.000    -0.000    -0.000  0.7968  0.3659  0.4809
              Bcc     0.0000     0.000     0.000     0.000 -0.3440 -0.3796  0.8588
 
              Baa    -0.0000    -0.000    -0.000    -0.000  0.9683 -0.2431  0.0573
     7 C(13)  Bbb     0.0000     0.000     0.000     0.000 -0.1084 -0.2027  0.9732
              Bcc     0.0000     0.000     0.000     0.000  0.2250  0.9486  0.2226
 
              Baa    -0.0000    -0.000    -0.000    -0.000 -0.0071 -0.1348  0.9908
     8 N(14)  Bbb     0.0000     0.000     0.000     0.000  0.0311  0.9904  0.1350
              Bcc     0.0000     0.000     0.000     0.000  0.9995 -0.0317  0.0028
 
              Baa    -0.0000    -0.000    -0.000    -0.000  0.1474  0.7620 -0.6305
     9 C(13)  Bbb     0.0000     0.000     0.000     0.000 -0.2106  0.6471  0.7328
              Bcc     0.0000     0.000     0.000     0.000  0.9664  0.0248  0.2559
 
              Baa    -0.0000    -0.000    -0.000    -0.000 -0.6844 -0.2447  0.6868
    10 C(13)  Bbb     0.0000     0.000     0.000     0.000 -0.2634  0.9614  0.0800
              Bcc     0.0000     0.000     0.000     0.000  0.6799  0.1261  0.7224
 
              Baa    -0.0000    -0.000    -0.000    -0.000 -0.2118  0.8323 -0.5123
    11 C(13)  Bbb     0.0000     0.000     0.000     0.000  0.9765  0.1583 -0.1466
              Bcc     0.0000     0.000     0.000     0.000  0.0409  0.5312  0.8462
 
              Baa    -0.0000    -0.000    -0.000    -0.000 -0.0456  0.5695  0.8208
    12 C(13)  Bbb    -0.0000    -0.000    -0.000    -0.000  0.2499  0.8020 -0.5426
              Bcc     0.0000     0.000     0.000     0.000  0.9672 -0.1804  0.1789
 
              Baa    -0.0000    -0.000    -0.000    -0.000 -0.2365  0.8499 -0.4709
    13 F(19)  Bbb     0.0000     0.000     0.000     0.000  0.0657  0.4976  0.8649
              Bcc     0.0000     0.000     0.000     0.000  0.9694  0.1736 -0.1735
 
              Baa    -0.0000    -0.000    -0.000    -0.000  0.8659  0.4991  0.0335
    14 C(13)  Bbb     0.0000     0.000     0.000     0.000 -0.1476  0.1910  0.9704
              Bcc     0.0000     0.000     0.000     0.000 -0.4779  0.8453 -0.2390
 
              Baa    -0.0000    -0.000    -0.000    -0.000  0.5756  0.8175 -0.0201
    15 C(13)  Bbb     0.0000     0.000     0.000     0.000  0.8168 -0.5759 -0.0340
              Bcc     0.0000     0.000     0.000     0.000  0.0394 -0.0031  0.9992
 
              Baa    -0.0000    -0.000    -0.000    -0.000  0.8869  0.4618 -0.0054
    16 C(13)  Bbb     0.0000     0.000     0.000     0.000 -0.4619  0.8869 -0.0086
              Bcc     0.0000     0.000     0.000     0.000  0.0008  0.0102  0.9999
 
              Baa    -0.0000    -0.000    -0.000    -0.000  0.1021  0.0427  0.9939
    17 C(13)  Bbb    -0.0000    -0.000    -0.000    -0.000  0.4230  0.9024 -0.0822
              Bcc     0.0000     0.000     0.000     0.000  0.9003 -0.4288 -0.0740
 
              Baa    -0.0000    -0.000    -0.000    -0.000  0.7568 -0.6511 -0.0577
    18 N(14)  Bbb     0.0000     0.000     0.000     0.000  0.0480 -0.0327  0.9983
              Bcc     0.0000     0.000     0.000     0.000  0.6518  0.7583 -0.0064
 
              Baa    -0.0000    -0.000    -0.000    -0.000 -0.6780  0.7351 -0.0012
    19 C(13)  Bbb     0.0000     0.000     0.000     0.000  0.2312  0.2148  0.9489
              Bcc     0.0000     0.000     0.000     0.000  0.6978  0.6430 -0.3156
 
              Baa    -0.0000    -0.000    -0.000    -0.000 -0.0245 -0.0440  0.9987
    20 C(13)  Bbb    -0.0000    -0.000    -0.000    -0.000 -0.0488  0.9979  0.0428
              Bcc     0.0000     0.000     0.000     0.000  0.9985  0.0477  0.0266
 
              Baa    -0.0000    -0.000    -0.000    -0.000  0.5400  0.8398  0.0566
    21 N(14)  Bbb     0.0000     0.000     0.000     0.000  0.7329 -0.5022  0.4589
              Bcc     0.0000     0.000     0.000     0.000 -0.4138  0.2063  0.8867
 
              Baa    -0.0000    -0.000    -0.000    -0.000  0.1138  0.9905  0.0772
    22 C(13)  Bbb     0.0000     0.000     0.000     0.000  0.3423 -0.1121  0.9329
              Bcc     0.0000     0.000     0.000     0.000  0.9327 -0.0797 -0.3518
 
              Baa    -0.0000    -0.000    -0.000    -0.000 -0.2016  0.9740  0.1034
    23 C(13)  Bbb     0.0000     0.000     0.000     0.000  0.9793  0.1987  0.0376
              Bcc     0.0000     0.000     0.000     0.000 -0.0161 -0.1088  0.9939
 
              Baa    -0.0000    -0.000    -0.000    -0.000  0.0045  0.0552  0.9985
    24 C(13)  Bbb     0.0000     0.000     0.000     0.000 -0.2930  0.9547 -0.0515
              Bcc     0.0000     0.000     0.000     0.000  0.9561  0.2923 -0.0205
 
              Baa    -0.0000    -0.000    -0.000    -0.000  0.8970 -0.4410  0.0293
    25 C(13)  Bbb     0.0000     0.000     0.000     0.000  0.3981  0.7774 -0.4870
              Bcc     0.0000     0.000     0.000     0.000  0.1920  0.4486  0.8729
 
              Baa    -0.0000    -0.000    -0.000    -0.000  0.8749  0.4843  0.0083
    26 F(19)  Bbb    -0.0000    -0.000    -0.000    -0.000 -0.4819  0.8687  0.1147
              Bcc     0.0000     0.000     0.000     0.000  0.0484 -0.1044  0.9934
 
              Baa    -0.0000    -0.000    -0.000    -0.000  0.9567 -0.1420 -0.2539
    27 C(13)  Bbb     0.0000     0.000     0.000     0.000 -0.0814  0.7074 -0.7021
              Bcc     0.0000     0.000     0.000     0.000  0.2793  0.6924  0.6652
 
              Baa    -0.0000    -0.000    -0.000    -0.000 -0.4686  0.6317  0.6175
    28 C(13)  Bbb    -0.0000    -0.000    -0.000    -0.000  0.0832 -0.6644  0.7428
              Bcc     0.0000     0.000     0.000     0.000  0.8795  0.3994  0.2587
 
              Baa    -0.0000    -0.000    -0.000    -0.000  0.2966  0.7303  0.6153
    29 C(13)  Bbb    -0.0000    -0.000    -0.000    -0.000  0.1349 -0.6699  0.7301
              Bcc     0.0000     0.000     0.000     0.000  0.9454 -0.1335 -0.2972
 
              Baa    -0.0000    -0.000    -0.000    -0.000  0.4763  0.8560 -0.2009
    30 C(13)  Bbb     0.0000     0.000     0.000     0.000  0.7957 -0.3224  0.5127
              Bcc     0.0000     0.000     0.000     0.000 -0.3741  0.4041  0.8347
 
              Baa    -0.0000    -0.000    -0.000    -0.000  0.9971 -0.0693 -0.0302
    31 N(14)  Bbb     0.0000     0.000     0.000     0.000  0.0262 -0.0581  0.9980
              Bcc     0.0000     0.000     0.000     0.000  0.0710  0.9959  0.0562
 
              Baa    -0.0000    -0.000    -0.000    -0.000  0.0025 -0.6799  0.7333
    32 C(13)  Bbb    -0.0000    -0.000    -0.000    -0.000  0.9998  0.0166  0.0119
              Bcc     0.0000     0.000     0.000     0.000 -0.0203  0.7331  0.6798
 
              Baa    -0.0000    -0.000    -0.000    -0.000  0.4111  0.7227  0.5556
    33 C(13)  Bbb     0.0000     0.000     0.000     0.000  0.9044 -0.2472 -0.3477
              Bcc     0.0000     0.000     0.000     0.000  0.1140 -0.6455  0.7552
 
              Baa    -0.0000    -0.000    -0.000    -0.000  0.2778  0.8733 -0.4003
    34 N(14)  Bbb    -0.0000    -0.000    -0.000    -0.000  0.5464  0.1990  0.8135
              Bcc     0.0000     0.000     0.000     0.000  0.7901 -0.4447 -0.4219
 
              Baa    -0.0000    -0.000    -0.000    -0.000 -0.1428  0.7674  0.6251
    35 C(13)  Bbb     0.0000     0.000     0.000     0.000  0.8436  0.4247 -0.3286
              Bcc     0.0000     0.000     0.000     0.000  0.5176 -0.4804  0.7080
 
              Baa    -0.0000    -0.000    -0.000    -0.000 -0.1698  0.7586 -0.6290
    36 C(13)  Bbb    -0.0000    -0.000    -0.000    -0.000 -0.3367  0.5552  0.7605
              Bcc     0.0000     0.000     0.000     0.000  0.9262  0.3409  0.1612
 
              Baa    -0.0000    -0.000    -0.000    -0.000  0.7087  0.4226 -0.5650
    37 C(13)  Bbb    -0.0000    -0.000    -0.000    -0.000  0.6846 -0.2184  0.6954
              Bcc     0.0000     0.000     0.000     0.000 -0.1705  0.8796  0.4441
 
              Baa    -0.0000    -0.000    -0.000    -0.000  0.7574 -0.0899 -0.6467
    38 C(13)  Bbb     0.0000     0.000     0.000     0.000 -0.3659  0.7619 -0.5344
              Bcc     0.0000     0.000     0.000     0.000  0.5408  0.6414  0.5442
 
              Baa    -0.0000    -0.000    -0.000    -0.000 -0.3757  0.6741  0.6360
    39 F(19)  Bbb     0.0000     0.000     0.000     0.000  0.2191  0.7314 -0.6458
              Bcc     0.0000     0.000     0.000     0.000  0.9005  0.1033  0.4225
 
              Baa    -0.0000    -0.000    -0.000    -0.000  0.9970 -0.0393 -0.0674
    40 H(1)   Bbb     0.0000     0.000     0.000     0.000  0.0670  0.8742  0.4809
              Bcc     0.0000     0.000     0.000     0.000  0.0400 -0.4840  0.8742
 
              Baa    -0.0000    -0.000    -0.000    -0.000 -0.3331  0.7269  0.6006
    41 H(1)   Bbb    -0.0000    -0.000    -0.000    -0.000  0.7607 -0.1691  0.6266
              Bcc     0.0000     0.000     0.000     0.000  0.5571  0.6656 -0.4966
 
              Baa    -0.0000    -0.000    -0.000    -0.000  0.9382  0.0996 -0.3313
    42 H(1)   Bbb     0.0000     0.000     0.000     0.000  0.3328  0.0020  0.9430
              Bcc     0.0000     0.000     0.000     0.000 -0.0946  0.9950  0.0312
 
              Baa    -0.0000    -0.000    -0.000    -0.000  0.2040  0.3517  0.9136
    43 H(1)   Bbb    -0.0000    -0.000    -0.000    -0.000  0.8657 -0.5005 -0.0006
              Bcc     0.0000     0.000     0.000     0.000  0.4571  0.7911 -0.4065
 
              Baa    -0.0000    -0.000    -0.000    -0.000  0.3532  0.6826 -0.6397
    44 H(1)   Bbb     0.0000     0.000     0.000     0.000  0.6980 -0.6476 -0.3056
              Bcc     0.0000     0.000     0.000     0.000  0.6229  0.3386  0.7052
 
              Baa    -0.0000    -0.000    -0.000    -0.000 -0.3864  0.7492 -0.5380
    45 H(1)   Bbb     0.0000     0.000     0.000     0.000  0.8361  0.0382 -0.5473
              Bcc     0.0000     0.000     0.000     0.000  0.3895  0.6613  0.6411
 
              Baa    -0.0000    -0.000    -0.000    -0.000 -0.4472  0.8944  0.0107
    46 H(1)   Bbb     0.0000     0.000     0.000     0.000 -0.1928 -0.1081  0.9753
              Bcc     0.0000     0.000     0.000     0.000  0.8734  0.4341  0.2208
 
              Baa    -0.0000    -0.000    -0.000    -0.000  0.6957  0.7178  0.0257
    47 H(1)   Bbb     0.0000     0.000     0.000     0.000  0.7183 -0.6956 -0.0167
              Bcc     0.0000     0.000     0.000     0.000 -0.0059 -0.0301  0.9995
 
              Baa    -0.0000    -0.000    -0.000    -0.000  0.0926  0.9886 -0.1190
    48 H(1)   Bbb     0.0000     0.000     0.000     0.000  0.6399  0.0325  0.7678
              Bcc     0.0000     0.000     0.000     0.000  0.7629 -0.1472 -0.6296
 
              Baa    -0.0000    -0.000    -0.000    -0.000 -0.2352 -0.5032  0.8316
    49 H(1)   Bbb    -0.0000    -0.000    -0.000    -0.000  0.5356  0.6469  0.5429
              Bcc     0.0000     0.000     0.000     0.000  0.8111 -0.5731 -0.1173
 
              Baa    -0.0000    -0.000    -0.000    -0.000  0.8421  0.5241  0.1269
    50 H(1)   Bbb    -0.0000    -0.000    -0.000    -0.000 -0.1164 -0.0530  0.9918
              Bcc     0.0000     0.000     0.000     0.000 -0.5266  0.8500 -0.0164
 
              Baa    -0.0000    -0.000    -0.000    -0.000  0.3084  0.6641  0.6811
    51 H(1)   Bbb    -0.0000    -0.000    -0.000    -0.000  0.7247 -0.6278  0.2840
              Bcc     0.0000     0.000     0.000     0.000 -0.6162 -0.4060  0.6749
 
              Baa    -0.0000    -0.000    -0.000    -0.000  0.5099  0.7374  0.4430
    52 H(1)   Bbb     0.0000     0.000     0.000     0.000 -0.1431 -0.4351  0.8890
              Bcc     0.0000     0.000     0.000     0.000  0.8483 -0.5166 -0.1163
 
              Baa    -0.0000    -0.000    -0.000    -0.000 -0.5290 -0.2896  0.7977
    53 H(1)   Bbb    -0.0000    -0.000    -0.000    -0.000 -0.6845  0.7012 -0.1994
              Bcc     0.0000     0.000     0.000     0.000  0.5016  0.6515  0.5691
 
              Baa    -0.0000    -0.000    -0.000    -0.000  0.2659  0.7887  0.5544
    54 H(1)   Bbb     0.0000     0.000     0.000     0.000 -0.5673  0.5930 -0.5714
              Bcc     0.0000     0.000     0.000     0.000  0.7794  0.1626 -0.6051
 
              Baa    -0.0000    -0.000    -0.000    -0.000  0.7919 -0.1947 -0.5788
    55 H(1)   Bbb    -0.0000    -0.000    -0.000    -0.000 -0.2242  0.7889 -0.5721
              Bcc     0.0000     0.000     0.000     0.000  0.5680  0.5828  0.5811
 
              Baa    -0.0000    -0.000    -0.000    -0.000  0.4943 -0.3845  0.7796
    56 H(1)   Bbb    -0.0000    -0.000    -0.000    -0.000  0.6527  0.7566 -0.0407
              Bcc     0.0000     0.000     0.000     0.000 -0.5742  0.5289  0.6249
 

 ---------------------------------------------------------------------------------

 No NMR shielding tensors so no spin-rotation constants.
 Leave Link  601 at Sat Jul 25 12:19:45 2020, MaxMem=  4026531840 cpu:               5.5 elap:               0.8
 (Enter /opt/ohpc/pub/libs/gaussian/g16-A.03/sandybridge/g16/l9999.exe)

 Test job not archived.
 1\1\GINC-SKYLAKE033\FOpt\ULC-wPBE\CC-pVDZ\C30H17F3N6\RDU230\25-Jul-202
 0\0\\#P uLC-wPBE/cc-pVDZ iop(3/107=0125100000, 3/108=0125100000) opt\\
 H17 C30 N6 F3\\0,1\C,12.1202235531,-0.4951443136,0.3503346712\C,11.319
 2503303,-1.3816897159,1.0830107527\C,9.930414081,-1.2623016217,0.99823
 03796\C,9.3848816766,-0.251646919,0.1776025981\N,10.1484811818,0.60690
 69255,-0.5325760154\C,11.4810049583,0.4732575216,-0.436387574\C,7.9004
 520046,-0.1178062156,0.079348766\N,7.1743700643,-1.0367800452,0.756978
 9812\C,5.840932696,-1.0015513075,0.7183981809\C,5.0919819954,-0.047352
 7224,-0.0059790419\C,5.833608728,0.9190486697,-0.7051873292\C,7.228056
 5157,0.8851157864,-0.6580893199\F,7.8867798,1.8350452924,-1.346306036\
 C,3.6121930072,-0.0616745575,-0.0121913718\C,2.8735749937,-1.262867937
 3,-0.0181951355\C,1.4807997099,-1.2148527867,-0.0177928779\C,0.8395833
 216,0.0422696306,-0.0184099718\N,1.5281338583,1.2044627303,-0.00572267
 64\C,2.8648441735,1.1361992847,0.0009713508\C,-0.6507178231,0.10202053
 67,-0.0351017893\N,-1.291760778,-1.0896333904,-0.0603244368\C,-2.62505
 63351,-1.1337896449,-0.0840719304\C,-3.4581282775,0.0078423807,-0.0907
 331152\C,-2.8047599441,1.2507316475,-0.057378236\C,-1.4101907078,1.295
 4449463,-0.0261601507\F,-0.8355425342,2.5113988058,-0.0002679473\C,-4.
 9333192416,-0.1060010208,-0.1181797264\C,-5.5950201737,-1.1088285853,-
 0.8564057934\C,-6.9871337307,-1.1700074606,-0.8401038229\C,-7.70533632
 8,-0.2169980503,-0.0869635003\N,-7.0906763057,0.7463394328,0.633044489
 1\C,-5.7528291078,0.7833409809,0.6101890033\C,-9.1979717103,-0.2678668
 478,-0.0780919296\N,-9.7560073386,-1.276974636,-0.7864035957\C,-11.087
 1797054,-1.4018656759,-0.833116734\C,-11.9682588899,-0.5297505965,-0.1
 768105261\C,-11.4180374326,0.5213596309,0.5591682009\C,-10.0270051097,
 0.6518355834,0.6070329305\F,-9.5263343087,1.6768089171,1.3203384765\H,
 13.2171955814,-0.5499614376,0.3852575151\H,11.7728785601,-2.1588716178
 ,1.7149649983\H,9.2475527991,-1.9245746285,1.5441965069\H,12.075875270
 5,1.188762713,-1.0287253812\H,5.3226570128,-1.7677376885,1.3179037388\
 H,5.351515619,1.6963255142,-1.3135748895\H,3.3923693849,-2.2319827872,
 -0.0476758353\H,0.8646763501,-2.1220278682,-0.0300720935\H,3.389955313
 9,2.1058436241,0.0396801814\H,-3.0724977175,-2.1410521287,-0.076640449
 6\H,-3.3566222096,2.2002523805,-0.0791477657\H,-5.0183760835,-1.823315
 8066,-1.4615786536\H,-7.546228603,-1.927095017,-1.4030741248\H,-5.2883
 746548,1.5662446815,1.2337871949\H,-11.4721967036,-2.2458009006,-1.427
 9051393\H,-13.0559553454,-0.6697714671,-0.2413627641\H,-12.0353274416,
 1.2503157822,1.1013317642\\Version=EM64L-G16RevA.03\State=1-A\HF=-1779
 .8846587\S2=0.\S2-1=0.\S2A=0.\RMSD=5.950e-09\RMSF=1.924e-06\Dipole=-1.
 1138645,-0.9408944,-0.0242626\Quadrupole=32.6228416,-14.395283,-18.227
 5586,-3.8455746,8.4757168,-0.1538746\PG=C01 [X(C30H17F3N6)]\\@


 CONTRAIWISE...CONTINUED TWEEDLEDEE, IF IT WAS SO, IT MIGHT BE,
 AND IF IT WERE SO, IT WOULD BE.....
 BUT AS IT ISN'T, IT AIN'T....
 THAT'S LOGIC.....
 ALICE THROUGH THE LOOKING GLASS
 Job cpu time:       0 days 14 hours 46 minutes 28.0 seconds.
 Elapsed time:       0 days  1 hours 51 minutes 29.4 seconds.
 File lengths (MBytes):  RWF=    496 Int=      0 D2E=      0 Chk=     44 Scr=      8
 Normal termination of Gaussian 16 at Sat Jul 25 12:19:46 2020.
