 Entering Gaussian System, Link 0=g16
 Input=mols_55_5_04_CF-CF_opt_0.gjf
 Output=mols_55_5_04_CF-CF_opt_0.log
 Initial command:
 /opt/ohpc/pub/libs/gaussian/g16-A.03/sandybridge/g16/l1.exe "/mnt/gpfs2_4m/scratch/rdu230/ondemand/projects/dihedral_energies/7trial/wtuning/mols_55_5_04_CF-CF/Gau-239667.inp" -scrdir="/mnt/gpfs2_4m/scratch/rdu230/ondemand/projects/dihedral_energies/7trial/wtuning/mols_55_5_04_CF-CF/"
 Entering Link 1 = /opt/ohpc/pub/libs/gaussian/g16-A.03/sandybridge/g16/l1.exe PID=    239668.
  
 Copyright (c) 1988,1990,1992,1993,1995,1998,2003,2009,2016,
            Gaussian, Inc.  All Rights Reserved.
  
 This is part of the Gaussian(R) 16 program.  It is based on
 the Gaussian(R) 09 system (copyright 2009, Gaussian, Inc.),
 the Gaussian(R) 03 system (copyright 2003, Gaussian, Inc.),
 the Gaussian(R) 98 system (copyright 1998, Gaussian, Inc.),
 the Gaussian(R) 94 system (copyright 1995, Gaussian, Inc.),
 the Gaussian 92(TM) system (copyright 1992, Gaussian, Inc.),
 the Gaussian 90(TM) system (copyright 1990, Gaussian, Inc.),
 the Gaussian 88(TM) system (copyright 1988, Gaussian, Inc.),
 the Gaussian 86(TM) system (copyright 1986, Carnegie Mellon
 University), and the Gaussian 82(TM) system (copyright 1983,
 Carnegie Mellon University). Gaussian is a federally registered
 trademark of Gaussian, Inc.
  
 This software contains proprietary and confidential information,
 including trade secrets, belonging to Gaussian, Inc.
  
 This software is provided under written license and may be
 used, copied, transmitted, or stored only in accord with that
 written license.
  
 The following legend is applicable only to US Government
 contracts under FAR:
  
                    RESTRICTED RIGHTS LEGEND
  
 Use, reproduction and disclosure by the US Government is
 subject to restrictions as set forth in subparagraphs (a)
 and (c) of the Commercial Computer Software - Restricted
 Rights clause in FAR 52.227-19.
  
 Gaussian, Inc.
 340 Quinnipiac St., Bldg. 40, Wallingford CT 06492
  
  
 ---------------------------------------------------------------
 Warning -- This program may not be used in any manner that
 competes with the business of Gaussian, Inc. or will provide
 assistance to any competitor of Gaussian, Inc.  The licensee
 of this program is prohibited from giving any competitor of
 Gaussian, Inc. access to this program.  By using this program,
 the user acknowledges that Gaussian, Inc. is engaged in the
 business of creating and licensing software in the field of
 computational chemistry and represents and warrants to the
 licensee that it is not a competitor of Gaussian, Inc. and that
 it will not use this program in any manner prohibited above.
 ---------------------------------------------------------------
  

 Cite this work as:
 Gaussian 16, Revision A.03,
 M. J. Frisch, G. W. Trucks, H. B. Schlegel, G. E. Scuseria, 
 M. A. Robb, J. R. Cheeseman, G. Scalmani, V. Barone, 
 G. A. Petersson, H. Nakatsuji, X. Li, M. Caricato, A. V. Marenich, 
 J. Bloino, B. G. Janesko, R. Gomperts, B. Mennucci, H. P. Hratchian, 
 J. V. Ortiz, A. F. Izmaylov, J. L. Sonnenberg, D. Williams-Young, 
 F. Ding, F. Lipparini, F. Egidi, J. Goings, B. Peng, A. Petrone, 
 T. Henderson, D. Ranasinghe, V. G. Zakrzewski, J. Gao, N. Rega, 
 G. Zheng, W. Liang, M. Hada, M. Ehara, K. Toyota, R. Fukuda, 
 J. Hasegawa, M. Ishida, T. Nakajima, Y. Honda, O. Kitao, H. Nakai, 
 T. Vreven, K. Throssell, J. A. Montgomery, Jr., J. E. Peralta, 
 F. Ogliaro, M. J. Bearpark, J. J. Heyd, E. N. Brothers, K. N. Kudin, 
 V. N. Staroverov, T. A. Keith, R. Kobayashi, J. Normand, 
 K. Raghavachari, A. P. Rendell, J. C. Burant, S. S. Iyengar, 
 J. Tomasi, M. Cossi, J. M. Millam, M. Klene, C. Adamo, R. Cammi, 
 J. W. Ochterski, R. L. Martin, K. Morokuma, O. Farkas, 
 J. B. Foresman, and D. J. Fox, Gaussian, Inc., Wallingford CT, 2016.
 
 ******************************************
 Gaussian 16:  EM64L-G16RevA.03 25-Dec-2016
                24-Jul-2020 
 ******************************************
 %mem=30GB
 %nproc=8
 Will use up to    8 processors via shared memory.
 ---------------------------------------------------------------
 #P uLC-wPBE/cc-pVDZ iop(3/107=0332100000, 3/108=0332100000) opt
 ---------------------------------------------------------------
 1/18=20,19=15,26=3,38=1/1,3;
 2/9=110,12=2,17=6,18=5,40=1/2;
 3/5=16,11=2,25=1,30=1,71=1,74=-41,107=332100000,108=332100000,116=2/1,2,3;
 4//1;
 5/5=2,38=5/2;
 6/7=2,8=2,9=2,10=2,28=1/1;
 7//1,2,3,16;
 1/18=20,19=15,26=3/3(2);
 2/9=110/2;
 99//99;
 2/9=110/2;
 3/5=16,11=2,25=1,30=1,71=1,74=-41,107=332100000,108=332100000,116=2/1,2,3;
 4/5=5,16=3,69=1/1;
 5/5=2,38=5/2;
 7//1,2,3,16;
 1/18=20,19=15,26=3/3(-5);
 2/9=110/2;
 6/7=2,8=2,9=2,10=2,19=2,28=1/1;
 99/9=1/99;
 Leave Link    1 at Fri Jul 24 13:22:58 2020, MaxMem=  4026531840 cpu:               1.1 elap:               0.2
 (Enter /opt/ohpc/pub/libs/gaussian/g16-A.03/sandybridge/g16/l101.exe)
 ---------------
 H12 C40 S10 F10
 ---------------
 Symbolic Z-matrix:
 Charge =  0 Multiplicity = 1
 C                     17.51734   3.32931  -0.34129 
 C                     16.45366   4.10343   0.09118 
 C                     15.24196   3.40026   0.2381 
 F                     14.19133   3.98298   0.67906 
 C                     15.38479   2.069    -0.01262 
 S                     16.94948   1.68141  -0.49572 
 C                     14.36026   1.07692   0.10268 
 C                     14.43178  -0.29592   0.48582 
 F                     15.59541  -0.87811   0.9141 
 C                     13.21048  -0.99067   0.45703 
 C                     12.17384  -0.15986   0.11474 
 S                     12.67662   1.35718  -0.26225 
 C                     10.81664  -0.67683  -0.07484 
 C                     10.36282  -1.96081  -0.29341 
 C                     8.96575  -1.98535  -0.35282 
 F                     8.34947  -3.11422  -0.64021 
 C                     8.34594  -0.81902  -0.18499 
 S                     9.44279   0.44882   0.05758 
 C                     6.87239  -0.55295  -0.2401 
 C                     6.23796   0.71609  -0.36324 
 F                     6.81537   1.82084  -0.51966 
 C                     4.7938    0.55707  -0.24869 
 C                     4.39809  -0.75374  -0.12726 
 S                     5.6935   -1.80999   0.02017 
 C                     2.98047  -1.17409   0.01018 
 C                     2.58351  -2.55326   0.12404 
 C                     1.13166  -2.58993   0.15529 
 F                     0.60827  -3.81256   0.30515 
 C                     0.46139  -1.39539   0.12086 
 S                     1.71356  -0.11687  -0.04981 
 C                    -0.90295  -1.15988   0.11957 
 C                    -1.54265   0.00454   0.43047 
 F                    -0.96221   1.20013   0.65297 
 C                    -2.93949  -0.04014   0.37387 
 C                    -3.37123  -1.31497   0.09203 
 S                    -2.03311  -2.3493   -0.15867 
 C                    -4.74958  -1.85142  -0.00271 
 C                    -5.24014  -3.08593  -0.33986 
 C                    -6.64213  -3.17366  -0.42451 
 F                    -7.26409  -4.31867  -0.75926 
 C                    -7.23935  -1.99984  -0.02271 
 S                    -6.13039  -0.79135   0.24869 
 C                    -8.73582  -1.79618   0.0851 
 C                    -9.6521   -2.71125   0.49999 
 F                    -9.35988  -3.95509   0.86058 
 C                    -11.01079  -2.28056   0.46945 
 C                    -11.06145  -0.95933   0.0304 
 S                    -9.50957  -0.33843  -0.30901 
 C                    -12.21478  -0.07591  -0.03985 
 C                    -13.48362  -0.54434  -0.29174 
 C                    -14.45802   0.43595  -0.35263 
 F                    -15.78534   0.29257  -0.60462 
 C                    -13.9185   1.77291  -0.116 
 S                    -12.18108   1.62187   0.16032 
 C                    -14.56214   2.95375  -0.00547 
 C                    -14.12048   4.24944  -0.38669 
 F                    -13.00754   4.42306  -1.01731 
 C                    -15.02566   5.29749  -0.21997 
 C                    -16.18714   4.85079   0.38769 
 S                    -16.19409   3.15933   0.68336 
 H                     18.47525   3.52634  -0.58518 
 H                     16.59113   5.14992   0.16981 
 H                     13.16763  -2.00882   0.80935 
 H                     11.03204  -2.72583  -0.48498 
 H                     4.17866   1.42304  -0.40914 
 H                     3.24919  -3.41735   0.13733 
 H                    -3.67401   0.81765   0.54888 
 H                    -4.57271  -3.90314  -0.67587 
 H                    -11.86687  -2.85228   0.78209 
 H                    -13.71155  -1.60196  -0.49615 
 H                    -14.86384   6.32956  -0.48316 
 H                    -17.03085   5.43703   0.72031 
 
 ITRead=  0  0  0  0  0  0  0  0  0  0  0  0  0  0  0  0  0  0  0  0
 ITRead=  0  0  0  0  0  0  0  0  0  0  0  0  0  0  0  0  0  0  0  0
 ITRead=  0  0  0  0  0  0  0  0  0  0  0  0  0  0  0  0  0  0  0  0
 ITRead=  0  0  0  0  0  0  0  0  0  0  0  0
 MicOpt= -1 -1 -1 -1 -1 -1 -1 -1 -1 -1 -1 -1 -1 -1 -1 -1 -1 -1 -1 -1
 MicOpt= -1 -1 -1 -1 -1 -1 -1 -1 -1 -1 -1 -1 -1 -1 -1 -1 -1 -1 -1 -1
 MicOpt= -1 -1 -1 -1 -1 -1 -1 -1 -1 -1 -1 -1 -1 -1 -1 -1 -1 -1 -1 -1
 MicOpt= -1 -1 -1 -1 -1 -1 -1 -1 -1 -1 -1 -1
 NAtoms=     72 NQM=       72 NQMF=       0 NMMI=      0 NMMIF=      0
                NMic=       0 NMicF=      0.
                    Isotopes and Nuclear Properties:
 (Nuclear quadrupole moments (NQMom) in fm**2, nuclear magnetic moments (NMagM)
  in nuclear magnetons)

  Atom         1           2           3           4           5           6           7           8           9          10
 IAtWgt=          12          12          12          19          12          32          12          12          19          12
 AtmWgt=  12.0000000  12.0000000  12.0000000  18.9984033  12.0000000  31.9720718  12.0000000  12.0000000  18.9984033  12.0000000
 NucSpn=           0           0           0           1           0           0           0           0           1           0
 AtZEff=  -0.0000000  -0.0000000  -0.0000000  -0.0000000  -0.0000000  -0.0000000  -0.0000000  -0.0000000  -0.0000000  -0.0000000
 NQMom=    0.0000000   0.0000000   0.0000000   0.0000000   0.0000000   0.0000000   0.0000000   0.0000000   0.0000000   0.0000000
 NMagM=    0.0000000   0.0000000   0.0000000   2.6288670   0.0000000   0.0000000   0.0000000   0.0000000   2.6288670   0.0000000
 AtZNuc=   6.0000000   6.0000000   6.0000000   9.0000000   6.0000000  16.0000000   6.0000000   6.0000000   9.0000000   6.0000000

  Atom        11          12          13          14          15          16          17          18          19          20
 IAtWgt=          12          32          12          12          12          19          12          32          12          12
 AtmWgt=  12.0000000  31.9720718  12.0000000  12.0000000  12.0000000  18.9984033  12.0000000  31.9720718  12.0000000  12.0000000
 NucSpn=           0           0           0           0           0           1           0           0           0           0
 AtZEff=  -0.0000000  -0.0000000  -0.0000000  -0.0000000  -0.0000000  -0.0000000  -0.0000000  -0.0000000  -0.0000000  -0.0000000
 NQMom=    0.0000000   0.0000000   0.0000000   0.0000000   0.0000000   0.0000000   0.0000000   0.0000000   0.0000000   0.0000000
 NMagM=    0.0000000   0.0000000   0.0000000   0.0000000   0.0000000   2.6288670   0.0000000   0.0000000   0.0000000   0.0000000
 AtZNuc=   6.0000000  16.0000000   6.0000000   6.0000000   6.0000000   9.0000000   6.0000000  16.0000000   6.0000000   6.0000000

  Atom        21          22          23          24          25          26          27          28          29          30
 IAtWgt=          19          12          12          32          12          12          12          19          12          32
 AtmWgt=  18.9984033  12.0000000  12.0000000  31.9720718  12.0000000  12.0000000  12.0000000  18.9984033  12.0000000  31.9720718
 NucSpn=           1           0           0           0           0           0           0           1           0           0
 AtZEff=  -0.0000000  -0.0000000  -0.0000000  -0.0000000  -0.0000000  -0.0000000  -0.0000000  -0.0000000  -0.0000000  -0.0000000
 NQMom=    0.0000000   0.0000000   0.0000000   0.0000000   0.0000000   0.0000000   0.0000000   0.0000000   0.0000000   0.0000000
 NMagM=    2.6288670   0.0000000   0.0000000   0.0000000   0.0000000   0.0000000   0.0000000   2.6288670   0.0000000   0.0000000
 AtZNuc=   9.0000000   6.0000000   6.0000000  16.0000000   6.0000000   6.0000000   6.0000000   9.0000000   6.0000000  16.0000000

  Atom        31          32          33          34          35          36          37          38          39          40
 IAtWgt=          12          12          19          12          12          32          12          12          12          19
 AtmWgt=  12.0000000  12.0000000  18.9984033  12.0000000  12.0000000  31.9720718  12.0000000  12.0000000  12.0000000  18.9984033
 NucSpn=           0           0           1           0           0           0           0           0           0           1
 AtZEff=  -0.0000000  -0.0000000  -0.0000000  -0.0000000  -0.0000000  -0.0000000  -0.0000000  -0.0000000  -0.0000000  -0.0000000
 NQMom=    0.0000000   0.0000000   0.0000000   0.0000000   0.0000000   0.0000000   0.0000000   0.0000000   0.0000000   0.0000000
 NMagM=    0.0000000   0.0000000   2.6288670   0.0000000   0.0000000   0.0000000   0.0000000   0.0000000   0.0000000   2.6288670
 AtZNuc=   6.0000000   6.0000000   9.0000000   6.0000000   6.0000000  16.0000000   6.0000000   6.0000000   6.0000000   9.0000000

  Atom        41          42          43          44          45          46          47          48          49          50
 IAtWgt=          12          32          12          12          19          12          12          32          12          12
 AtmWgt=  12.0000000  31.9720718  12.0000000  12.0000000  18.9984033  12.0000000  12.0000000  31.9720718  12.0000000  12.0000000
 NucSpn=           0           0           0           0           1           0           0           0           0           0
 AtZEff=  -0.0000000  -0.0000000  -0.0000000  -0.0000000  -0.0000000  -0.0000000  -0.0000000  -0.0000000  -0.0000000  -0.0000000
 NQMom=    0.0000000   0.0000000   0.0000000   0.0000000   0.0000000   0.0000000   0.0000000   0.0000000   0.0000000   0.0000000
 NMagM=    0.0000000   0.0000000   0.0000000   0.0000000   2.6288670   0.0000000   0.0000000   0.0000000   0.0000000   0.0000000
 AtZNuc=   6.0000000  16.0000000   6.0000000   6.0000000   9.0000000   6.0000000   6.0000000  16.0000000   6.0000000   6.0000000

  Atom        51          52          53          54          55          56          57          58          59          60
 IAtWgt=          12          19          12          32          12          12          19          12          12          32
 AtmWgt=  12.0000000  18.9984033  12.0000000  31.9720718  12.0000000  12.0000000  18.9984033  12.0000000  12.0000000  31.9720718
 NucSpn=           0           1           0           0           0           0           1           0           0           0
 AtZEff=  -0.0000000  -0.0000000  -0.0000000  -0.0000000  -0.0000000  -0.0000000  -0.0000000  -0.0000000  -0.0000000  -0.0000000
 NQMom=    0.0000000   0.0000000   0.0000000   0.0000000   0.0000000   0.0000000   0.0000000   0.0000000   0.0000000   0.0000000
 NMagM=    0.0000000   2.6288670   0.0000000   0.0000000   0.0000000   0.0000000   2.6288670   0.0000000   0.0000000   0.0000000
 AtZNuc=   6.0000000   9.0000000   6.0000000  16.0000000   6.0000000   6.0000000   9.0000000   6.0000000   6.0000000  16.0000000

  Atom        61          62          63          64          65          66          67          68          69          70
 IAtWgt=           1           1           1           1           1           1           1           1           1           1
 AtmWgt=   1.0078250   1.0078250   1.0078250   1.0078250   1.0078250   1.0078250   1.0078250   1.0078250   1.0078250   1.0078250
 NucSpn=           1           1           1           1           1           1           1           1           1           1
 AtZEff=  -0.0000000  -0.0000000  -0.0000000  -0.0000000  -0.0000000  -0.0000000  -0.0000000  -0.0000000  -0.0000000  -0.0000000
 NQMom=    0.0000000   0.0000000   0.0000000   0.0000000   0.0000000   0.0000000   0.0000000   0.0000000   0.0000000   0.0000000
 NMagM=    2.7928460   2.7928460   2.7928460   2.7928460   2.7928460   2.7928460   2.7928460   2.7928460   2.7928460   2.7928460
 AtZNuc=   1.0000000   1.0000000   1.0000000   1.0000000   1.0000000   1.0000000   1.0000000   1.0000000   1.0000000   1.0000000

  Atom        71          72
 IAtWgt=           1           1
 AtmWgt=   1.0078250   1.0078250
 NucSpn=           1           1
 AtZEff=  -0.0000000  -0.0000000
 NQMom=    0.0000000   0.0000000
 NMagM=    2.7928460   2.7928460
 AtZNuc=   1.0000000   1.0000000
 Leave Link  101 at Fri Jul 24 13:22:59 2020, MaxMem=  4026531840 cpu:               2.5 elap:               0.5
 (Enter /opt/ohpc/pub/libs/gaussian/g16-A.03/sandybridge/g16/l103.exe)

 GradGradGradGradGradGradGradGradGradGradGradGradGradGradGradGradGradGrad
 Berny optimization.
 Initialization pass.
                           ----------------------------
                           !    Initial Parameters    !
                           ! (Angstroms and Degrees)  !
 --------------------------                            --------------------------
 ! Name  Definition              Value          Derivative Info.                !
 --------------------------------------------------------------------------------
 ! R1    R(1,2)                  1.3848         estimate D2E/DX2                !
 ! R2    R(1,6)                  1.7498         estimate D2E/DX2                !
 ! R3    R(1,61)                 1.0079         estimate D2E/DX2                !
 ! R4    R(2,3)                  1.4086         estimate D2E/DX2                !
 ! R5    R(2,62)                 1.0584         estimate D2E/DX2                !
 ! R6    R(3,4)                  1.2798         estimate D2E/DX2                !
 ! R7    R(3,5)                  1.3622         estimate D2E/DX2                !
 ! R8    R(5,6)                  1.6828         estimate D2E/DX2                !
 ! R9    R(5,7)                  1.4308         estimate D2E/DX2                !
 ! R10   R(7,8)                  1.4271         estimate D2E/DX2                !
 ! R11   R(7,12)                 1.7454         estimate D2E/DX2                !
 ! R12   R(8,9)                  1.3698         estimate D2E/DX2                !
 ! R13   R(8,10)                 1.4054         estimate D2E/DX2                !
 ! R14   R(10,11)                1.3719         estimate D2E/DX2                !
 ! R15   R(10,63)                1.0782         estimate D2E/DX2                !
 ! R16   R(11,12)                1.6421         estimate D2E/DX2                !
 ! R17   R(11,13)                1.4646         estimate D2E/DX2                !
 ! R18   R(13,14)                1.3792         estimate D2E/DX2                !
 ! R19   R(13,18)                1.781          estimate D2E/DX2                !
 ! R20   R(14,15)                1.3985         estimate D2E/DX2                !
 ! R21   R(14,64)                1.0343         estimate D2E/DX2                !
 ! R22   R(15,16)                1.3179         estimate D2E/DX2                !
 ! R23   R(15,17)                1.3314         estimate D2E/DX2                !
 ! R24   R(17,18)                1.6939         estimate D2E/DX2                !
 ! R25   R(17,19)                1.4984         estimate D2E/DX2                !
 ! R26   R(19,20)                1.4241         estimate D2E/DX2                !
 ! R27   R(19,24)                1.7429         estimate D2E/DX2                !
 ! R28   R(20,21)                1.2563         estimate D2E/DX2                !
 ! R29   R(20,22)                1.4574         estimate D2E/DX2                !
 ! R30   R(22,23)                1.3746         estimate D2E/DX2                !
 ! R31   R(22,65)                1.0743         estimate D2E/DX2                !
 ! R32   R(23,24)                1.6779         estimate D2E/DX2                !
 ! R33   R(23,25)                1.485          estimate D2E/DX2                !
 ! R34   R(25,26)                1.4397         estimate D2E/DX2                !
 ! R35   R(25,30)                1.6512         estimate D2E/DX2                !
 ! R36   R(26,27)                1.4527         estimate D2E/DX2                !
 ! R37   R(26,66)                1.0909         estimate D2E/DX2                !
 ! R38   R(27,28)                1.3384         estimate D2E/DX2                !
 ! R39   R(27,29)                1.3702         estimate D2E/DX2                !
 ! R40   R(29,30)                1.7977         estimate D2E/DX2                !
 ! R41   R(29,31)                1.3845         estimate D2E/DX2                !
 ! R42   R(31,32)                1.3645         estimate D2E/DX2                !
 ! R43   R(31,36)                1.6642         estimate D2E/DX2                !
 ! R44   R(32,33)                1.3475         estimate D2E/DX2                !
 ! R45   R(32,34)                1.3987         estimate D2E/DX2                !
 ! R46   R(34,35)                1.3751         estimate D2E/DX2                !
 ! R47   R(34,67)                1.1428         estimate D2E/DX2                !
 ! R48   R(35,36)                1.7098         estimate D2E/DX2                !
 ! R49   R(35,37)                1.4821         estimate D2E/DX2                !
 ! R50   R(37,38)                1.3705         estimate D2E/DX2                !
 ! R51   R(37,42)                1.7589         estimate D2E/DX2                !
 ! R52   R(38,39)                1.4073         estimate D2E/DX2                !
 ! R53   R(38,68)                1.1073         estimate D2E/DX2                !
 ! R54   R(39,40)                1.3453         estimate D2E/DX2                !
 ! R55   R(39,41)                1.3769         estimate D2E/DX2                !
 ! R56   R(41,42)                1.6625         estimate D2E/DX2                !
 ! R57   R(41,43)                1.5141         estimate D2E/DX2                !
 ! R58   R(43,44)                1.3598         estimate D2E/DX2                !
 ! R59   R(43,48)                1.6968         estimate D2E/DX2                !
 ! R60   R(44,45)                1.3276         estimate D2E/DX2                !
 ! R61   R(44,46)                1.4256         estimate D2E/DX2                !
 ! R62   R(46,47)                1.3932         estimate D2E/DX2                !
 ! R63   R(46,69)                1.0759         estimate D2E/DX2                !
 ! R64   R(47,48)                1.7056         estimate D2E/DX2                !
 ! R65   R(47,49)                1.4545         estimate D2E/DX2                !
 ! R66   R(49,50)                1.3758         estimate D2E/DX2                !
 ! R67   R(49,54)                1.7099         estimate D2E/DX2                !
 ! R68   R(50,51)                1.3835         estimate D2E/DX2                !
 ! R69   R(50,70)                1.101          estimate D2E/DX2                !
 ! R70   R(51,52)                1.3586         estimate D2E/DX2                !
 ! R71   R(51,53)                1.461          estimate D2E/DX2                !
 ! R72   R(53,54)                1.7657         estimate D2E/DX2                !
 ! R73   R(53,55)                1.3494         estimate D2E/DX2                !
 ! R74   R(55,56)                1.421          estimate D2E/DX2                !
 ! R75   R(55,60)                1.7833         estimate D2E/DX2                !
 ! R76   R(56,57)                1.2909         estimate D2E/DX2                !
 ! R77   R(56,58)                1.3948         estimate D2E/DX2                !
 ! R78   R(58,59)                1.3849         estimate D2E/DX2                !
 ! R79   R(58,71)                1.0773         estimate D2E/DX2                !
 ! R80   R(59,60)                1.7171         estimate D2E/DX2                !
 ! R81   R(59,72)                1.0799         estimate D2E/DX2                !
 ! A1    A(2,1,6)              107.7423         estimate D2E/DX2                !
 ! A2    A(2,1,61)             134.13           estimate D2E/DX2                !
 ! A3    A(6,1,61)             118.1098         estimate D2E/DX2                !
 ! A4    A(1,2,3)              114.4718         estimate D2E/DX2                !
 ! A5    A(1,2,62)             118.4342         estimate D2E/DX2                !
 ! A6    A(3,2,62)             126.694          estimate D2E/DX2                !
 ! A7    A(2,3,4)              120.9855         estimate D2E/DX2                !
 ! A8    A(2,3,5)              112.2386         estimate D2E/DX2                !
 ! A9    A(4,3,5)              126.4764         estimate D2E/DX2                !
 ! A10   A(3,5,6)              112.0505         estimate D2E/DX2                !
 ! A11   A(3,5,7)              125.9962         estimate D2E/DX2                !
 ! A12   A(6,5,7)              121.9532         estimate D2E/DX2                !
 ! A13   A(1,6,5)               93.4115         estimate D2E/DX2                !
 ! A14   A(5,7,8)              130.7504         estimate D2E/DX2                !
 ! A15   A(5,7,12)             124.2312         estimate D2E/DX2                !
 ! A16   A(8,7,12)             105.0077         estimate D2E/DX2                !
 ! A17   A(7,8,9)              122.3687         estimate D2E/DX2                !
 ! A18   A(7,8,10)             115.2457         estimate D2E/DX2                !
 ! A19   A(9,8,10)             122.3112         estimate D2E/DX2                !
 ! A20   A(8,10,11)            111.2477         estimate D2E/DX2                !
 ! A21   A(8,10,63)            119.6459         estimate D2E/DX2                !
 ! A22   A(11,10,63)           128.5617         estimate D2E/DX2                !
 ! A23   A(10,11,12)           112.6691         estimate D2E/DX2                !
 ! A24   A(10,11,13)           121.2481         estimate D2E/DX2                !
 ! A25   A(12,11,13)           125.4582         estimate D2E/DX2                !
 ! A26   A(7,12,11)             95.6821         estimate D2E/DX2                !
 ! A27   A(11,13,14)           130.8432         estimate D2E/DX2                !
 ! A28   A(11,13,18)           118.8219         estimate D2E/DX2                !
 ! A29   A(14,13,18)           110.2633         estimate D2E/DX2                !
 ! A30   A(13,14,15)           110.5949         estimate D2E/DX2                !
 ! A31   A(13,14,64)           120.3323         estimate D2E/DX2                !
 ! A32   A(15,14,64)           128.7173         estimate D2E/DX2                !
 ! A33   A(14,15,16)           119.4359         estimate D2E/DX2                !
 ! A34   A(14,15,17)           116.3792         estimate D2E/DX2                !
 ! A35   A(16,15,17)           124.0674         estimate D2E/DX2                !
 ! A36   A(15,17,18)           111.8557         estimate D2E/DX2                !
 ! A37   A(15,17,19)           127.4981         estimate D2E/DX2                !
 ! A38   A(18,17,19)           120.6071         estimate D2E/DX2                !
 ! A39   A(13,18,17)            90.9051         estimate D2E/DX2                !
 ! A40   A(17,19,20)           126.8351         estimate D2E/DX2                !
 ! A41   A(17,19,24)           122.1149         estimate D2E/DX2                !
 ! A42   A(20,19,24)           110.7498         estimate D2E/DX2                !
 ! A43   A(19,20,21)           126.1297         estimate D2E/DX2                !
 ! A44   A(19,20,22)           109.7191         estimate D2E/DX2                !
 ! A45   A(21,20,22)           124.1365         estimate D2E/DX2                !
 ! A46   A(20,22,23)           113.3436         estimate D2E/DX2                !
 ! A47   A(20,22,65)           117.8863         estimate D2E/DX2                !
 ! A48   A(23,22,65)           128.1009         estimate D2E/DX2                !
 ! A49   A(22,23,24)           112.6936         estimate D2E/DX2                !
 ! A50   A(22,23,25)           123.5667         estimate D2E/DX2                !
 ! A51   A(24,23,25)           123.413          estimate D2E/DX2                !
 ! A52   A(19,24,23)            93.1561         estimate D2E/DX2                !
 ! A53   A(23,25,26)           122.7998         estimate D2E/DX2                !
 ! A54   A(23,25,30)           123.2201         estimate D2E/DX2                !
 ! A55   A(26,25,30)           113.872          estimate D2E/DX2                !
 ! A56   A(25,26,27)           107.5453         estimate D2E/DX2                !
 ! A57   A(25,26,66)           126.2666         estimate D2E/DX2                !
 ! A58   A(27,26,66)           126.1316         estimate D2E/DX2                !
 ! A59   A(26,27,28)           114.6025         estimate D2E/DX2                !
 ! A60   A(26,27,29)           117.7984         estimate D2E/DX2                !
 ! A61   A(28,27,29)           127.4409         estimate D2E/DX2                !
 ! A62   A(27,29,30)           106.361          estimate D2E/DX2                !
 ! A63   A(27,29,31)           129.0776         estimate D2E/DX2                !
 ! A64   A(30,29,31)           124.4253         estimate D2E/DX2                !
 ! A65   A(25,30,29)            94.3369         estimate D2E/DX2                !
 ! A66   A(29,31,32)           127.3693         estimate D2E/DX2                !
 ! A67   A(29,31,36)           123.2168         estimate D2E/DX2                !
 ! A68   A(32,31,36)           109.2471         estimate D2E/DX2                !
 ! A69   A(31,32,33)           126.359          estimate D2E/DX2                !
 ! A70   A(31,32,34)           115.5772         estimate D2E/DX2                !
 ! A71   A(33,32,34)           117.7226         estimate D2E/DX2                !
 ! A72   A(32,34,35)           110.5762         estimate D2E/DX2                !
 ! A73   A(32,34,67)           127.7135         estimate D2E/DX2                !
 ! A74   A(35,34,67)           121.6986         estimate D2E/DX2                !
 ! A75   A(34,35,36)           110.1914         estimate D2E/DX2                !
 ! A76   A(34,35,37)           129.8396         estimate D2E/DX2                !
 ! A77   A(36,35,37)           119.9678         estimate D2E/DX2                !
 ! A78   A(31,36,35)            94.2792         estimate D2E/DX2                !
 ! A79   A(35,37,38)           132.4269         estimate D2E/DX2                !
 ! A80   A(35,37,42)           120.1864         estimate D2E/DX2                !
 ! A81   A(38,37,42)           107.2801         estimate D2E/DX2                !
 ! A82   A(37,38,39)           115.3122         estimate D2E/DX2                !
 ! A83   A(37,38,68)           121.5776         estimate D2E/DX2                !
 ! A84   A(39,38,68)           122.426          estimate D2E/DX2                !
 ! A85   A(38,39,40)           121.9107         estimate D2E/DX2                !
 ! A86   A(38,39,41)           111.1863         estimate D2E/DX2                !
 ! A87   A(40,39,41)           126.7004         estimate D2E/DX2                !
 ! A88   A(39,41,42)           112.2098         estimate D2E/DX2                !
 ! A89   A(39,41,43)           124.3416         estimate D2E/DX2                !
 ! A90   A(42,41,43)           123.3582         estimate D2E/DX2                !
 ! A91   A(37,42,41)            93.5675         estimate D2E/DX2                !
 ! A92   A(41,43,44)           126.6686         estimate D2E/DX2                !
 ! A93   A(41,43,48)           123.3482         estimate D2E/DX2                !
 ! A94   A(44,43,48)           109.9831         estimate D2E/DX2                !
 ! A95   A(43,44,45)           124.4049         estimate D2E/DX2                !
 ! A96   A(43,44,46)           115.6166         estimate D2E/DX2                !
 ! A97   A(45,44,46)           119.9096         estimate D2E/DX2                !
 ! A98   A(44,46,47)           109.1419         estimate D2E/DX2                !
 ! A99   A(44,46,69)           126.2693         estimate D2E/DX2                !
 ! A100  A(47,46,69)           124.5132         estimate D2E/DX2                !
 ! A101  A(46,47,48)           112.0158         estimate D2E/DX2                !
 ! A102  A(46,47,49)           128.3208         estimate D2E/DX2                !
 ! A103  A(48,47,49)           119.3903         estimate D2E/DX2                !
 ! A104  A(43,48,47)            93.2064         estimate D2E/DX2                !
 ! A105  A(47,49,50)           122.2313         estimate D2E/DX2                !
 ! A106  A(47,49,54)           125.5775         estimate D2E/DX2                !
 ! A107  A(50,49,54)           112.19           estimate D2E/DX2                !
 ! A108  A(49,50,51)           114.6043         estimate D2E/DX2                !
 ! A109  A(49,50,70)           123.5017         estimate D2E/DX2                !
 ! A110  A(51,50,70)           121.7783         estimate D2E/DX2                !
 ! A111  A(50,51,52)           128.4228         estimate D2E/DX2                !
 ! A112  A(50,51,53)           112.4069         estimate D2E/DX2                !
 ! A113  A(52,51,53)           119.1685         estimate D2E/DX2                !
 ! A114  A(51,53,54)           108.0848         estimate D2E/DX2                !
 ! A115  A(51,53,55)           129.6369         estimate D2E/DX2                !
 ! A116  A(54,53,55)           122.0981         estimate D2E/DX2                !
 ! A117  A(49,54,53)            92.7068         estimate D2E/DX2                !
 ! A118  A(53,55,56)           128.8805         estimate D2E/DX2                !
 ! A119  A(53,55,60)           124.683          estimate D2E/DX2                !
 ! A120  A(56,55,60)           106.4364         estimate D2E/DX2                !
 ! A121  A(55,56,57)           121.4428         estimate D2E/DX2                !
 ! A122  A(55,56,58)           116.8309         estimate D2E/DX2                !
 ! A123  A(57,56,58)           121.1192         estimate D2E/DX2                !
 ! A124  A(56,58,59)           110.7541         estimate D2E/DX2                !
 ! A125  A(56,58,71)           126.3802         estimate D2E/DX2                !
 ! A126  A(59,58,71)           122.8327         estimate D2E/DX2                !
 ! A127  A(58,59,60)           113.3713         estimate D2E/DX2                !
 ! A128  A(58,59,72)           127.9746         estimate D2E/DX2                !
 ! A129  A(60,59,72)           118.5917         estimate D2E/DX2                !
 ! A130  A(55,60,59)            92.4844         estimate D2E/DX2                !
 ! D1    D(6,1,2,3)             -2.0991         estimate D2E/DX2                !
 ! D2    D(6,1,2,62)          -175.3275         estimate D2E/DX2                !
 ! D3    D(61,1,2,3)           176.2774         estimate D2E/DX2                !
 ! D4    D(61,1,2,62)            3.049          estimate D2E/DX2                !
 ! D5    D(2,1,6,5)              0.4097         estimate D2E/DX2                !
 ! D6    D(61,1,6,5)          -178.2693         estimate D2E/DX2                !
 ! D7    D(1,2,3,4)            177.3473         estimate D2E/DX2                !
 ! D8    D(1,2,3,5)              3.2411         estimate D2E/DX2                !
 ! D9    D(62,2,3,4)           -10.0826         estimate D2E/DX2                !
 ! D10   D(62,2,3,5)           175.8112         estimate D2E/DX2                !
 ! D11   D(2,3,5,6)             -2.8208         estimate D2E/DX2                !
 ! D12   D(2,3,5,7)            177.2921         estimate D2E/DX2                !
 ! D13   D(4,3,5,6)           -176.5356         estimate D2E/DX2                !
 ! D14   D(4,3,5,7)              3.5773         estimate D2E/DX2                !
 ! D15   D(3,5,6,1)              1.3962         estimate D2E/DX2                !
 ! D16   D(7,5,6,1)           -178.7115         estimate D2E/DX2                !
 ! D17   D(3,5,7,8)           -146.712          estimate D2E/DX2                !
 ! D18   D(3,5,7,12)            34.6588         estimate D2E/DX2                !
 ! D19   D(6,5,7,8)             33.4113         estimate D2E/DX2                !
 ! D20   D(6,5,7,12)          -145.2179         estimate D2E/DX2                !
 ! D21   D(5,7,8,9)              4.5296         estimate D2E/DX2                !
 ! D22   D(5,7,8,10)          -178.5411         estimate D2E/DX2                !
 ! D23   D(12,7,8,9)          -176.6437         estimate D2E/DX2                !
 ! D24   D(12,7,8,10)            0.2856         estimate D2E/DX2                !
 ! D25   D(5,7,12,11)         -179.2861         estimate D2E/DX2                !
 ! D26   D(8,7,12,11)            1.789          estimate D2E/DX2                !
 ! D27   D(7,8,10,11)           -2.793          estimate D2E/DX2                !
 ! D28   D(7,8,10,63)         -175.0395         estimate D2E/DX2                !
 ! D29   D(9,8,10,11)          174.1382         estimate D2E/DX2                !
 ! D30   D(9,8,10,63)            1.8917         estimate D2E/DX2                !
 ! D31   D(8,10,11,12)           4.1427         estimate D2E/DX2                !
 ! D32   D(8,10,11,13)         175.5552         estimate D2E/DX2                !
 ! D33   D(63,10,11,12)        175.5187         estimate D2E/DX2                !
 ! D34   D(63,10,11,13)        -13.0688         estimate D2E/DX2                !
 ! D35   D(10,11,12,7)          -3.5197         estimate D2E/DX2                !
 ! D36   D(13,11,12,7)        -174.5029         estimate D2E/DX2                !
 ! D37   D(10,11,13,14)        -18.0699         estimate D2E/DX2                !
 ! D38   D(10,11,13,18)        158.5208         estimate D2E/DX2                !
 ! D39   D(12,11,13,14)        152.1914         estimate D2E/DX2                !
 ! D40   D(12,11,13,18)        -31.218          estimate D2E/DX2                !
 ! D41   D(11,13,14,15)        177.1985         estimate D2E/DX2                !
 ! D42   D(11,13,14,64)         -9.0693         estimate D2E/DX2                !
 ! D43   D(18,13,14,15)          0.3823         estimate D2E/DX2                !
 ! D44   D(18,13,14,64)        174.1146         estimate D2E/DX2                !
 ! D45   D(11,13,18,17)       -177.4208         estimate D2E/DX2                !
 ! D46   D(14,13,18,17)         -0.1696         estimate D2E/DX2                !
 ! D47   D(13,14,15,16)        175.7288         estimate D2E/DX2                !
 ! D48   D(13,14,15,17)         -0.4908         estimate D2E/DX2                !
 ! D49   D(64,14,15,16)          2.6654         estimate D2E/DX2                !
 ! D50   D(64,14,15,17)       -173.5542         estimate D2E/DX2                !
 ! D51   D(14,15,17,18)          0.3605         estimate D2E/DX2                !
 ! D52   D(14,15,17,19)        178.0705         estimate D2E/DX2                !
 ! D53   D(16,15,17,18)       -175.6648         estimate D2E/DX2                !
 ! D54   D(16,15,17,19)          2.0453         estimate D2E/DX2                !
 ! D55   D(15,17,18,13)         -0.1019         estimate D2E/DX2                !
 ! D56   D(19,17,18,13)       -177.9911         estimate D2E/DX2                !
 ! D57   D(15,17,19,20)       -164.5889         estimate D2E/DX2                !
 ! D58   D(15,17,19,24)         22.3            estimate D2E/DX2                !
 ! D59   D(18,17,19,20)         12.9416         estimate D2E/DX2                !
 ! D60   D(18,17,19,24)       -160.1695         estimate D2E/DX2                !
 ! D61   D(17,19,20,21)          4.1594         estimate D2E/DX2                !
 ! D62   D(17,19,20,22)       -174.4835         estimate D2E/DX2                !
 ! D63   D(24,19,20,21)        177.9226         estimate D2E/DX2                !
 ! D64   D(24,19,20,22)         -0.7203         estimate D2E/DX2                !
 ! D65   D(17,19,24,23)        177.6122         estimate D2E/DX2                !
 ! D66   D(20,19,24,23)          3.5044         estimate D2E/DX2                !
 ! D67   D(19,20,22,23)         -3.3331         estimate D2E/DX2                !
 ! D68   D(19,20,22,65)       -174.7211         estimate D2E/DX2                !
 ! D69   D(21,20,22,23)        177.9912         estimate D2E/DX2                !
 ! D70   D(21,20,22,65)          6.6032         estimate D2E/DX2                !
 ! D71   D(20,22,23,24)          6.0875         estimate D2E/DX2                !
 ! D72   D(20,22,23,25)        179.714          estimate D2E/DX2                !
 ! D73   D(65,22,23,24)        176.4049         estimate D2E/DX2                !
 ! D74   D(65,22,23,25)         -9.9687         estimate D2E/DX2                !
 ! D75   D(22,23,24,19)         -5.5207         estimate D2E/DX2                !
 ! D76   D(25,23,24,19)       -179.1586         estimate D2E/DX2                !
 ! D77   D(22,23,25,26)        179.4149         estimate D2E/DX2                !
 ! D78   D(22,23,25,30)          3.4299         estimate D2E/DX2                !
 ! D79   D(24,23,25,26)         -7.6327         estimate D2E/DX2                !
 ! D80   D(24,23,25,30)        176.3823         estimate D2E/DX2                !
 ! D81   D(23,25,26,27)       -176.4589         estimate D2E/DX2                !
 ! D82   D(23,25,26,66)          0.9335         estimate D2E/DX2                !
 ! D83   D(30,25,26,27)         -0.1315         estimate D2E/DX2                !
 ! D84   D(30,25,26,66)        177.2609         estimate D2E/DX2                !
 ! D85   D(23,25,30,29)        177.8955         estimate D2E/DX2                !
 ! D86   D(26,25,30,29)          1.5857         estimate D2E/DX2                !
 ! D87   D(25,26,27,28)       -177.8608         estimate D2E/DX2                !
 ! D88   D(25,26,27,29)         -2.0894         estimate D2E/DX2                !
 ! D89   D(66,26,27,28)          4.7423         estimate D2E/DX2                !
 ! D90   D(66,26,27,29)       -179.4863         estimate D2E/DX2                !
 ! D91   D(26,27,29,30)          3.1018         estimate D2E/DX2                !
 ! D92   D(26,27,29,31)        178.9474         estimate D2E/DX2                !
 ! D93   D(28,27,29,30)        178.2581         estimate D2E/DX2                !
 ! D94   D(28,27,29,31)         -5.8963         estimate D2E/DX2                !
 ! D95   D(27,29,30,25)         -2.6091         estimate D2E/DX2                !
 ! D96   D(31,29,30,25)       -178.6997         estimate D2E/DX2                !
 ! D97   D(27,29,31,32)        161.4848         estimate D2E/DX2                !
 ! D98   D(27,29,31,36)        -13.3045         estimate D2E/DX2                !
 ! D99   D(30,29,31,32)        -23.3492         estimate D2E/DX2                !
 ! D100  D(30,29,31,36)        161.8615         estimate D2E/DX2                !
 ! D101  D(29,31,32,33)          8.17           estimate D2E/DX2                !
 ! D102  D(29,31,32,34)       -178.7307         estimate D2E/DX2                !
 ! D103  D(36,31,32,33)       -176.4459         estimate D2E/DX2                !
 ! D104  D(36,31,32,34)         -3.3467         estimate D2E/DX2                !
 ! D105  D(29,31,36,35)        176.9976         estimate D2E/DX2                !
 ! D106  D(32,31,36,35)          1.3822         estimate D2E/DX2                !
 ! D107  D(31,32,34,35)          4.0308         estimate D2E/DX2                !
 ! D108  D(31,32,34,67)       -177.2109         estimate D2E/DX2                !
 ! D109  D(33,32,34,35)        177.7554         estimate D2E/DX2                !
 ! D110  D(33,32,34,67)         -3.4862         estimate D2E/DX2                !
 ! D111  D(32,34,35,36)         -2.7647         estimate D2E/DX2                !
 ! D112  D(32,34,35,37)        176.8303         estimate D2E/DX2                !
 ! D113  D(67,34,35,36)        178.3898         estimate D2E/DX2                !
 ! D114  D(67,34,35,37)         -2.0152         estimate D2E/DX2                !
 ! D115  D(34,35,36,31)          0.8343         estimate D2E/DX2                !
 ! D116  D(37,35,36,31)       -178.8068         estimate D2E/DX2                !
 ! D117  D(34,35,37,38)        176.3719         estimate D2E/DX2                !
 ! D118  D(34,35,37,42)          0.6486         estimate D2E/DX2                !
 ! D119  D(36,35,37,38)         -4.0669         estimate D2E/DX2                !
 ! D120  D(36,35,37,42)       -179.7902         estimate D2E/DX2                !
 ! D121  D(35,37,38,39)       -174.746          estimate D2E/DX2                !
 ! D122  D(35,37,38,68)         -4.0083         estimate D2E/DX2                !
 ! D123  D(42,37,38,39)          1.3832         estimate D2E/DX2                !
 ! D124  D(42,37,38,68)        172.1209         estimate D2E/DX2                !
 ! D125  D(35,37,42,41)        179.097          estimate D2E/DX2                !
 ! D126  D(38,37,42,41)          2.4017         estimate D2E/DX2                !
 ! D127  D(37,38,39,40)        179.2896         estimate D2E/DX2                !
 ! D128  D(37,38,39,41)         -5.557          estimate D2E/DX2                !
 ! D129  D(68,38,39,40)          8.6387         estimate D2E/DX2                !
 ! D130  D(68,38,39,41)       -176.2079         estimate D2E/DX2                !
 ! D131  D(38,39,41,42)          7.2738         estimate D2E/DX2                !
 ! D132  D(38,39,41,43)       -176.091          estimate D2E/DX2                !
 ! D133  D(40,39,41,42)       -177.8582         estimate D2E/DX2                !
 ! D134  D(40,39,41,43)         -1.223          estimate D2E/DX2                !
 ! D135  D(39,41,42,37)         -5.6466         estimate D2E/DX2                !
 ! D136  D(43,41,42,37)        177.6796         estimate D2E/DX2                !
 ! D137  D(39,41,43,44)         36.9506         estimate D2E/DX2                !
 ! D138  D(39,41,43,48)       -143.1997         estimate D2E/DX2                !
 ! D139  D(42,41,43,44)       -146.7795         estimate D2E/DX2                !
 ! D140  D(42,41,43,48)         33.0703         estimate D2E/DX2                !
 ! D141  D(41,43,44,45)         -1.1025         estimate D2E/DX2                !
 ! D142  D(41,43,44,46)       -178.0694         estimate D2E/DX2                !
 ! D143  D(48,43,44,45)        179.0311         estimate D2E/DX2                !
 ! D144  D(48,43,44,46)          2.0641         estimate D2E/DX2                !
 ! D145  D(41,43,48,47)        178.4397         estimate D2E/DX2                !
 ! D146  D(44,43,48,47)         -1.6885         estimate D2E/DX2                !
 ! D147  D(43,44,46,47)         -1.3701         estimate D2E/DX2                !
 ! D148  D(43,44,46,69)       -178.3088         estimate D2E/DX2                !
 ! D149  D(45,44,46,47)       -178.4833         estimate D2E/DX2                !
 ! D150  D(45,44,46,69)          4.578          estimate D2E/DX2                !
 ! D151  D(44,46,47,48)          0.0318         estimate D2E/DX2                !
 ! D152  D(44,46,47,49)       -173.8469         estimate D2E/DX2                !
 ! D153  D(69,46,47,48)        177.0364         estimate D2E/DX2                !
 ! D154  D(69,46,47,49)          3.1577         estimate D2E/DX2                !
 ! D155  D(46,47,48,43)          0.9484         estimate D2E/DX2                !
 ! D156  D(49,47,48,43)        175.4385         estimate D2E/DX2                !
 ! D157  D(46,47,49,50)        -32.073          estimate D2E/DX2                !
 ! D158  D(46,47,49,54)        148.3644         estimate D2E/DX2                !
 ! D159  D(48,47,49,50)        154.4419         estimate D2E/DX2                !
 ! D160  D(48,47,49,54)        -25.1207         estimate D2E/DX2                !
 ! D161  D(47,49,50,51)       -178.6636         estimate D2E/DX2                !
 ! D162  D(47,49,50,70)         -2.5208         estimate D2E/DX2                !
 ! D163  D(54,49,50,51)          0.9522         estimate D2E/DX2                !
 ! D164  D(54,49,50,70)        177.095          estimate D2E/DX2                !
 ! D165  D(47,49,54,53)        178.8862         estimate D2E/DX2                !
 ! D166  D(50,49,54,53)         -0.7142         estimate D2E/DX2                !
 ! D167  D(49,50,51,52)        178.7956         estimate D2E/DX2                !
 ! D168  D(49,50,51,53)         -0.7077         estimate D2E/DX2                !
 ! D169  D(70,50,51,52)          2.5791         estimate D2E/DX2                !
 ! D170  D(70,50,51,53)       -176.9242         estimate D2E/DX2                !
 ! D171  D(50,51,53,54)          0.1547         estimate D2E/DX2                !
 ! D172  D(50,51,53,55)       -174.9576         estimate D2E/DX2                !
 ! D173  D(52,51,53,54)       -179.3996         estimate D2E/DX2                !
 ! D174  D(52,51,53,55)          5.4881         estimate D2E/DX2                !
 ! D175  D(51,53,54,49)          0.3113         estimate D2E/DX2                !
 ! D176  D(55,53,54,49)        175.8689         estimate D2E/DX2                !
 ! D177  D(51,53,55,56)       -147.4475         estimate D2E/DX2                !
 ! D178  D(51,53,55,60)         32.7028         estimate D2E/DX2                !
 ! D179  D(54,53,55,56)         38.0389         estimate D2E/DX2                !
 ! D180  D(54,53,55,60)       -141.8108         estimate D2E/DX2                !
 ! D181  D(53,55,56,57)          5.5949         estimate D2E/DX2                !
 ! D182  D(53,55,56,58)        176.7559         estimate D2E/DX2                !
 ! D183  D(60,55,56,57)       -174.5339         estimate D2E/DX2                !
 ! D184  D(60,55,56,58)         -3.3729         estimate D2E/DX2                !
 ! D185  D(53,55,60,59)       -178.6435         estimate D2E/DX2                !
 ! D186  D(56,55,60,59)          1.4785         estimate D2E/DX2                !
 ! D187  D(55,56,58,59)          3.9493         estimate D2E/DX2                !
 ! D188  D(55,56,58,71)       -178.1039         estimate D2E/DX2                !
 ! D189  D(57,56,58,59)        175.1409         estimate D2E/DX2                !
 ! D190  D(57,56,58,71)         -6.9124         estimate D2E/DX2                !
 ! D191  D(56,58,59,60)         -2.5829         estimate D2E/DX2                !
 ! D192  D(56,58,59,72)        174.4703         estimate D2E/DX2                !
 ! D193  D(71,58,59,60)        179.3844         estimate D2E/DX2                !
 ! D194  D(71,58,59,72)         -3.5624         estimate D2E/DX2                !
 ! D195  D(58,59,60,55)          0.6034         estimate D2E/DX2                !
 ! D196  D(72,59,60,55)       -176.7513         estimate D2E/DX2                !
 --------------------------------------------------------------------------------
 Trust Radius=3.00D-01 FncErr=1.00D-07 GrdErr=1.00D-06 EigMax=2.50D+02 EigMin=1.00D-04
 Number of steps in this run=    417 maximum allowed number of steps=    432.
 GradGradGradGradGradGradGradGradGradGradGradGradGradGradGradGradGradGrad

 Leave Link  103 at Fri Jul 24 13:22:59 2020, MaxMem=  4026531840 cpu:               0.2 elap:               0.1
 (Enter /opt/ohpc/pub/libs/gaussian/g16-A.03/sandybridge/g16/l202.exe)
 Stoichiometry    C40H12F10S10
 Framework group  C1[X(C40H12F10S10)]
 Deg. of freedom   210
 Full point group                 C1      NOp   1
 Largest Abelian subgroup         C1      NOp   1
 Largest concise Abelian subgroup C1      NOp   1
                         Standard orientation:                         
 ---------------------------------------------------------------------
 Center     Atomic      Atomic             Coordinates (Angstroms)
 Number     Number       Type             X           Y           Z
 ---------------------------------------------------------------------
      1          6           0       17.518097    3.342446   -0.322063
      2          6           0       16.453713    4.114802    0.111837
      3          6           0       15.242481    3.410413    0.256781
      4          9           0       14.191287    3.991354    0.698740
      5          6           0       15.386365    2.079826    0.003087
      6         16           0       16.951493    1.694489   -0.480415
      7          6           0       14.362533    1.086732    0.115813
      8          6           0       14.434948   -0.286922    0.495849
      9          9           0       15.598872   -0.869223    0.923169
     10          6           0       13.214158   -0.982497    0.465108
     11          6           0       12.177014   -0.151674    0.124380
     12         16           0       12.678803    1.366589   -0.249005
     13          6           0       10.820255   -0.669205   -0.066793
     14          6           0       10.367448   -1.953014   -0.288417
     15          6           0        8.970417   -1.978453   -0.348319
     16          9           0        8.355050   -3.107114   -0.638462
     17          6           0        8.349690   -0.812963   -0.178031
     18         16           0        9.445535    0.455126    0.067761
     19          6           0        6.875966   -0.547846   -0.232985
     20          6           0        6.240648    0.721008   -0.353444
     21          9           0        6.817291    1.826525   -0.507168
     22          6           0        4.796561    0.560665   -0.239697
     23          6           0        4.401785   -0.750705   -0.121370
     24         16           0        5.697920   -1.806342    0.024056
     25          6           0        2.984423   -1.172414    0.014670
     26          6           0        2.588450   -2.552123    0.125271
     27          6           0        1.136611   -2.589934    0.155990
     28          9           0        0.614077   -3.813286    0.302908
     29          6           0        0.465480   -1.395808    0.124066
     30         16           0        1.716759   -0.115990   -0.043308
     31          6           0       -0.899030   -1.161302    0.122894
     32          6           0       -1.539684    0.001936    0.436245
     33          9           0       -0.960192    1.197447    0.661642
     34          6           0       -2.936476   -0.043641    0.379108
     35          6           0       -3.367195   -1.318138    0.094237
     36         16           0       -2.028236   -2.350909   -0.158397
     37          6           0       -4.745113   -1.855388   -0.002149
     38          6           0       -5.234671   -3.089484   -0.342256
     39          6           0       -6.636568   -3.178055   -0.427537
     40          9           0       -7.257586   -4.322754   -0.765078
     41          6           0       -7.234777   -2.005588   -0.023259
     42         16           0       -6.126784   -0.796900    0.251230
     43          6           0       -8.731428   -1.803266    0.084550
     44          6           0       -9.647158   -2.719954    0.497081
     45          9           0       -9.354132   -3.964398    0.854932
     46          6           0      -11.006153   -2.290194    0.467093
     47          6           0      -11.057653   -0.968007    0.031038
     48         16           0       -9.506129   -0.345192   -0.306482
     49          6           0      -12.211606   -0.085273   -0.037562
     50          6           0      -13.480025   -0.554063   -0.290910
     51          6           0      -14.455128    0.425645   -0.349874
     52          9           0      -15.782269    0.281870   -0.602594
     53          6           0      -13.916668    1.762460   -0.110041
     54         16           0      -12.179222    1.612067    0.166481
     55          6           0      -14.561208    2.942576    0.002980
     56          6           0      -14.120382    4.239456   -0.375158
     57          9           0      -13.007377    4.415320   -1.005040
     58          6           0      -15.026378    5.286455   -0.206337
     59          6           0      -16.187722    4.837519    0.399950
     60         16           0      -16.193515    3.145393    0.691771
     61          1           0       18.475936    3.540729   -0.565205
     62          1           0       16.590389    5.161204    0.192886
     63          1           0       13.171954   -2.001479    0.815094
     64          1           0       11.037290   -2.717115   -0.481516
     65          1           0        4.180833    1.426543   -0.398370
     66          1           0        3.254761   -3.415754    0.136804
     67          1           0       -3.671679    0.813218    0.555836
     68          1           0       -4.566533   -3.905441   -0.679909
     69          1           0      -11.861916   -2.863251    0.778168
     70          1           0      -13.707116   -1.611381   -0.497787
     71          1           0      -14.865234    6.319240   -0.467135
     72          1           0      -17.031962    5.422386    0.733640
 ---------------------------------------------------------------------
 Rotational constants (GHZ):           0.0917034           0.0044651           0.0042700
 Leave Link  202 at Fri Jul 24 13:22:59 2020, MaxMem=  4026531840 cpu:               0.4 elap:               0.1
 (Enter /opt/ohpc/pub/libs/gaussian/g16-A.03/sandybridge/g16/l301.exe)
 Standard basis: CC-pVDZ (5D, 7F)
 Ernie: Thresh=  0.10000D-02 Tol=  0.10000D-05 Strict=F.
 Ernie:  200 primitive shells out of 1660 were deleted.
 There are  1000 symmetry adapted cartesian basis functions of A   symmetry.
 There are   940 symmetry adapted basis functions of A   symmetry.
   940 basis functions,  2444 primitive gaussians,  1000 cartesian basis functions
   251 alpha electrons      251 beta electrons
       nuclear repulsion energy      9027.9218419657 Hartrees.
 IExCor=32609 DFT=T Ex+Corr=LC-wPBE ExCW=0 ScaHFX=  1.000000
 ScaDFX=  1.000000  0.000000  1.000000  1.000000 ScalE2=  1.000000  1.000000
 IRadAn=      5 IRanWt=     -1 IRanGd=            0 ICorTp=0 IEmpDi=  4
 HFx  wShort=  0.000000 wLong=  0.332100 cFull=  0.000000 cShort=  0.000000 cLong=  1.000000
 DFx  wShort=  0.000000 wLong=  0.332100 cFull=  0.000000 cShort=  0.000000 cLong=  1.000000
 NAtoms=   72 NActive=   72 NUniq=   72 SFac= 1.00D+00 NAtFMM=   60 NAOKFM=T Big=T
 Integral buffers will be    131072 words long.
 Raffenetti 2 integral format.
 Two-electron integral symmetry is turned on.
 Leave Link  301 at Fri Jul 24 13:22:59 2020, MaxMem=  4026531840 cpu:               0.4 elap:               0.1
 (Enter /opt/ohpc/pub/libs/gaussian/g16-A.03/sandybridge/g16/l302.exe)
 NPDir=0 NMtPBC=     1 NCelOv=     1 NCel=       1 NClECP=     1 NCelD=      1
         NCelK=      1 NCelE2=     1 NClLst=     1 CellRange=     0.0.
 One-electron integrals computed using PRISM.
 One-electron integral symmetry used in STVInt
 NBasis=   940 RedAO= T EigKep=  2.98D-04  NBF=   940
 NBsUse=   940 1.00D-06 EigRej= -1.00D+00 NBFU=   940
 Precomputing XC quadrature grid using
 IXCGrd= 4 IRadAn=           5 IRanWt=          -1 IRanGd=           0 AccXCQ= 0.00D+00.
 Generated NRdTot=       0 NPtTot=           0 NUsed=           0 NTot=          32
 NSgBfM=   624   624   624   624   624 MxSgAt=    72 MxSgA2=    66.
 Leave Link  302 at Fri Jul 24 13:23:01 2020, MaxMem=  4026531840 cpu:              18.1 elap:               2.3
 (Enter /opt/ohpc/pub/libs/gaussian/g16-A.03/sandybridge/g16/l303.exe)
 DipDrv:  MaxL=1.
 Leave Link  303 at Fri Jul 24 13:23:02 2020, MaxMem=  4026531840 cpu:               1.7 elap:               0.4
 (Enter /opt/ohpc/pub/libs/gaussian/g16-A.03/sandybridge/g16/l401.exe)
 ExpMin= 1.22D-01 ExpMax= 1.11D+05 ExpMxC= 1.07D+03 IAcc=3 IRadAn=         5 AccDes= 0.00D+00
 Harris functional with IExCor=32609 and IRadAn=       5 diagonalized for initial guess.
 HarFok:  IExCor=32609 AccDes= 0.00D+00 IRadAn=         5 IDoV= 1 UseB2=F ITyADJ=14
 ICtDFT=  3500011 ScaDFX=  1.000000  1.000000  1.000000  1.000000
 FoFCou: FMM=F IPFlag=           0 FMFlag=      100000 FMFlg1=        2001
         NFxFlg=           0 DoJE=T BraDBF=F KetDBF=T FulRan=T
         wScrn=  0.000000 ICntrl=       500 IOpCl=  0 I1Cent=   200000004 NGrid=           0
         NMat0=    1 NMatS0=      1 NMatT0=    0 NMatD0=    1 NMtDS0=    0 NMtDT0=    0
 Petite list used in FoFCou.
 Harris En= -6507.88193704945    
 JPrj=0 DoOrth=F DoCkMO=F.
 Initial guess <Sx>= 0.0000 <Sy>= 0.0000 <Sz>= 0.0000 <S**2>=-0.0000 S=-0.0000
 Leave Link  401 at Fri Jul 24 13:23:10 2020, MaxMem=  4026531840 cpu:              60.8 elap:               7.8
 (Enter /opt/ohpc/pub/libs/gaussian/g16-A.03/sandybridge/g16/l502.exe)
 Integral symmetry usage will be decided dynamically.
 UHF open shell SCF:
 Using DIIS extrapolation, IDIIS=  1040.
 NGot=  4026531840 LenX=  4024514224 LenY=  4023513224
 Requested convergence on RMS density matrix=1.00D-08 within 128 cycles.
 Requested convergence on MAX density matrix=1.00D-06.
 Requested convergence on             energy=1.00D-06.
 No special actions if energy rises.
 Fock matrices will be formed incrementally for  20 cycles.
 Integral accuracy reduced to 1.0D-05 until final iterations.

 Cycle   1  Pass 0  IDiag  1:
 FoFJK:  IHMeth= 1 ICntrl=       0 DoSepK=T KAlg= 0 I1Cent=           0 FoldK=F
 IRaf=         1 NMat=       1 IRICut=       1 DoRegI=T DoRafI=F ISym2E= 0 IDoP0=0 IntGTp=1.
 FoFCou: FMM=T IPFlag=           0 FMFlag=      100000 FMFlg1=        2001
         NFxFlg=           0 DoJE=T BraDBF=F KetDBF=F FulRan=T
         wScrn=  0.000000 ICntrl=       500 IOpCl=  0 I1Cent=           0 NGrid=           0
         NMat0=    1 NMatS0=      1 NMatT0=    0 NMatD0=    1 NMtDS0=    0 NMtDT0=    0
 Symmetry not used in FoFCou.
 FMM levels:  10  Number of levels for PrismC:   9
 E= -6507.39389772844    
 DIIS: error= 1.78D-02 at cycle   1 NSaved=   1.
 NSaved= 1 IEnMin= 1 EnMin= -6507.39389772844     IErMin= 1 ErrMin= 1.78D-02
 ErrMax= 1.78D-02  0.00D+00 EMaxC= 1.00D-01 BMatC= 4.68D+00 BMatP= 4.68D+00
 IDIUse=3 WtCom= 8.22D-01 WtEn= 1.78D-01
 Coeff-Com:  0.100D+01
 Coeff-En:   0.100D+01
 Coeff:      0.100D+01
 Gap=     0.190 Goal=   None    Shift=    0.000
 Gap=     0.190 Goal=   None    Shift=    0.000
 GapD=    0.190 DampG=1.000 DampE=0.500 DampFc=0.5000 IDamp=-1.
 Damping current iteration by 5.00D-01
 RMSDP=2.38D-03 MaxDP=1.33D-01              OVMax= 2.52D-01

 Cycle   2  Pass 0  IDiag  1:
 RMSU=  1.19D-03    CP:  9.94D-01
 E= -6508.05594816055     Delta-E=       -0.662050432107 Rises=F Damp=T
 DIIS: error= 3.22D-03 at cycle   2 NSaved=   2.
 NSaved= 2 IEnMin= 2 EnMin= -6508.05594816055     IErMin= 2 ErrMin= 3.22D-03
 ErrMax= 3.22D-03  0.00D+00 EMaxC= 1.00D-01 BMatC= 1.53D-01 BMatP= 4.68D+00
 IDIUse=3 WtCom= 9.68D-01 WtEn= 3.22D-02
 Coeff-Com: -0.352D-01 0.104D+01
 Coeff-En:   0.000D+00 0.100D+01
 Coeff:     -0.340D-01 0.103D+01
 Gap=     0.237 Goal=   None    Shift=    0.000
 Gap=     0.237 Goal=   None    Shift=    0.000
 RMSDP=6.33D-04 MaxDP=2.36D-02 DE=-6.62D-01 OVMax= 1.26D-01

 Cycle   3  Pass 0  IDiag  1:
 RMSU=  6.10D-04    CP:  9.92D-01  1.14D+00
 E= -6508.69334778416     Delta-E=       -0.637399623609 Rises=F Damp=F
 DIIS: error= 1.25D-03 at cycle   3 NSaved=   3.
 NSaved= 3 IEnMin= 3 EnMin= -6508.69334778416     IErMin= 3 ErrMin= 1.25D-03
 ErrMax= 1.25D-03  0.00D+00 EMaxC= 1.00D-01 BMatC= 3.71D-02 BMatP= 1.53D-01
 IDIUse=3 WtCom= 9.88D-01 WtEn= 1.25D-02
 Coeff-Com: -0.121D-01 0.273D+00 0.739D+00
 Coeff-En:   0.000D+00 0.000D+00 0.100D+01
 Coeff:     -0.119D-01 0.270D+00 0.742D+00
 Gap=     0.237 Goal=   None    Shift=    0.000
 Gap=     0.237 Goal=   None    Shift=    0.000
 RMSDP=1.74D-04 MaxDP=1.29D-02 DE=-6.37D-01 OVMax= 3.03D-02

 Cycle   4  Pass 0  IDiag  1:
 RMSU=  1.66D-04    CP:  9.91D-01  1.16D+00  9.31D-01
 E= -6508.70203720361     Delta-E=       -0.008689419454 Rises=F Damp=F
 DIIS: error= 9.11D-04 at cycle   4 NSaved=   4.
 NSaved= 4 IEnMin= 4 EnMin= -6508.70203720361     IErMin= 4 ErrMin= 9.11D-04
 ErrMax= 9.11D-04  0.00D+00 EMaxC= 1.00D-01 BMatC= 1.45D-02 BMatP= 3.71D-02
 IDIUse=3 WtCom= 9.91D-01 WtEn= 9.11D-03
 Coeff-Com:  0.758D-02-0.339D-01 0.357D+00 0.670D+00
 Coeff-En:   0.000D+00 0.000D+00 0.608D-01 0.939D+00
 Coeff:      0.751D-02-0.336D-01 0.354D+00 0.672D+00
 Gap=     0.240 Goal=   None    Shift=    0.000
 Gap=     0.240 Goal=   None    Shift=    0.000
 RMSDP=8.90D-05 MaxDP=6.16D-03 DE=-8.69D-03 OVMax= 1.23D-02

 Cycle   5  Pass 0  IDiag  1:
 RMSU=  6.78D-05    CP:  9.91D-01  1.16D+00  1.02D+00  8.73D-01
 E= -6508.70656652956     Delta-E=       -0.004529325950 Rises=F Damp=F
 DIIS: error= 3.21D-04 at cycle   5 NSaved=   5.
 NSaved= 5 IEnMin= 5 EnMin= -6508.70656652956     IErMin= 5 ErrMin= 3.21D-04
 ErrMax= 3.21D-04  0.00D+00 EMaxC= 1.00D-01 BMatC= 1.25D-03 BMatP= 1.45D-02
 IDIUse=3 WtCom= 9.97D-01 WtEn= 3.21D-03
 Coeff-Com:  0.750D-02-0.499D-01 0.157D-01 0.203D+00 0.824D+00
 Coeff-En:   0.000D+00 0.000D+00 0.000D+00 0.000D+00 0.100D+01
 Coeff:      0.748D-02-0.498D-01 0.156D-01 0.202D+00 0.825D+00
 Gap=     0.242 Goal=   None    Shift=    0.000
 Gap=     0.242 Goal=   None    Shift=    0.000
 RMSDP=4.12D-05 MaxDP=1.89D-03 DE=-4.53D-03 OVMax= 6.85D-03

 Cycle   6  Pass 0  IDiag  1:
 RMSU=  2.90D-05    CP:  9.91D-01  1.16D+00  1.05D+00  1.01D+00  1.11D+00
 E= -6508.70727957056     Delta-E=       -0.000713040994 Rises=F Damp=F
 DIIS: error= 1.67D-04 at cycle   6 NSaved=   6.
 NSaved= 6 IEnMin= 6 EnMin= -6508.70727957056     IErMin= 6 ErrMin= 1.67D-04
 ErrMax= 1.67D-04  0.00D+00 EMaxC= 1.00D-01 BMatC= 4.00D-04 BMatP= 1.25D-03
 IDIUse=3 WtCom= 9.98D-01 WtEn= 1.67D-03
 Coeff-Com:  0.325D-02-0.197D-01-0.635D-01-0.364D-01 0.395D+00 0.722D+00
 Coeff-En:   0.000D+00 0.000D+00 0.000D+00 0.000D+00 0.000D+00 0.100D+01
 Coeff:      0.325D-02-0.196D-01-0.634D-01-0.364D-01 0.394D+00 0.722D+00
 Gap=     0.243 Goal=   None    Shift=    0.000
 Gap=     0.243 Goal=   None    Shift=    0.000
 RMSDP=2.25D-05 MaxDP=1.09D-03 DE=-7.13D-04 OVMax= 3.30D-03

 Cycle   7  Pass 0  IDiag  1:
 RMSU=  1.39D-05    CP:  9.91D-01  1.16D+00  1.06D+00  1.06D+00  1.32D+00
                    CP:  1.04D+00
 E= -6508.70750825797     Delta-E=       -0.000228687410 Rises=F Damp=F
 DIIS: error= 7.29D-05 at cycle   7 NSaved=   7.
 NSaved= 7 IEnMin= 7 EnMin= -6508.70750825797     IErMin= 7 ErrMin= 7.29D-05
 ErrMax= 7.29D-05  0.00D+00 EMaxC= 1.00D-01 BMatC= 5.35D-05 BMatP= 4.00D-04
 IDIUse=1 WtCom= 1.00D+00 WtEn= 0.00D+00
 Coeff-Com: -0.375D-03 0.424D-02-0.173D-01-0.521D-01-0.938D-01 0.200D+00
 Coeff-Com:  0.960D+00
 Coeff:     -0.375D-03 0.424D-02-0.173D-01-0.521D-01-0.938D-01 0.200D+00
 Coeff:      0.960D+00
 Gap=     0.244 Goal=   None    Shift=    0.000
 Gap=     0.244 Goal=   None    Shift=    0.000
 RMSDP=1.50D-05 MaxDP=6.67D-04 DE=-2.29D-04 OVMax= 2.37D-03

 Cycle   8  Pass 0  IDiag  1:
 RMSU=  8.66D-06    CP:  9.91D-01  1.16D+00  1.06D+00  1.08D+00  1.41D+00
                    CP:  1.32D+00  1.32D+00
 E= -6508.70755721468     Delta-E=       -0.000048956714 Rises=F Damp=F
 DIIS: error= 3.73D-05 at cycle   8 NSaved=   8.
 NSaved= 8 IEnMin= 8 EnMin= -6508.70755721468     IErMin= 8 ErrMin= 3.73D-05
 ErrMax= 3.73D-05  0.00D+00 EMaxC= 1.00D-01 BMatC= 1.13D-05 BMatP= 5.35D-05
 IDIUse=1 WtCom= 1.00D+00 WtEn= 0.00D+00
 Coeff-Com: -0.503D-03 0.438D-02 0.191D-02-0.160D-01-0.961D-01-0.222D-01
 Coeff-Com:  0.392D+00 0.736D+00
 Coeff:     -0.503D-03 0.438D-02 0.191D-02-0.160D-01-0.961D-01-0.222D-01
 Coeff:      0.392D+00 0.736D+00
 Gap=     0.244 Goal=   None    Shift=    0.000
 Gap=     0.244 Goal=   None    Shift=    0.000
 RMSDP=8.04D-06 MaxDP=2.27D-04 DE=-4.90D-05 OVMax= 6.98D-04

 Initial convergence to 1.0D-05 achieved.  Increase integral accuracy.
 Cycle   9  Pass 1  IDiag  1:
 E= -6508.70669811246     Delta-E=        0.000859102223 Rises=F Damp=F
 DIIS: error= 2.38D-04 at cycle   1 NSaved=   1.
 NSaved= 1 IEnMin= 1 EnMin= -6508.70669811246     IErMin= 1 ErrMin= 2.38D-04
 ErrMax= 2.38D-04  0.00D+00 EMaxC= 1.00D-01 BMatC= 1.04D-04 BMatP= 1.04D-04
 IDIUse=3 WtCom= 9.98D-01 WtEn= 2.38D-03
 Coeff-Com:  0.100D+01
 Coeff-En:   0.100D+01
 Coeff:      0.100D+01
 Gap=     0.244 Goal=   None    Shift=    0.000
 Gap=     0.244 Goal=   None    Shift=    0.000
 RMSDP=8.04D-06 MaxDP=2.27D-04 DE= 8.59D-04 OVMax= 2.95D-04

 Cycle  10  Pass 1  IDiag  1:
 RMSU=  8.68D-05    CP:  1.00D+00
 E= -6508.70671812781     Delta-E=       -0.000020015357 Rises=F Damp=F
 DIIS: error= 1.17D-05 at cycle   2 NSaved=   2.
 NSaved= 2 IEnMin= 2 EnMin= -6508.70671812781     IErMin= 2 ErrMin= 1.17D-05
 ErrMax= 1.17D-05  0.00D+00 EMaxC= 1.00D-01 BMatC= 1.60D-06 BMatP= 1.04D-04
 IDIUse=1 WtCom= 1.00D+00 WtEn= 0.00D+00
 Coeff-Com: -0.968D-02 0.101D+01
 Coeff:     -0.968D-02 0.101D+01
 Gap=     0.244 Goal=   None    Shift=    0.000
 Gap=     0.244 Goal=   None    Shift=    0.000
 RMSDP=4.42D-06 MaxDP=2.25D-04 DE=-2.00D-05 OVMax= 2.09D-04

 Cycle  11  Pass 1  IDiag  1:
 RMSU=  2.12D-06    CP:  1.00D+00  1.04D+00
 E= -6508.70671795178     Delta-E=        0.000000176033 Rises=F Damp=F
 DIIS: error= 1.51D-05 at cycle   3 NSaved=   3.
 NSaved= 3 IEnMin= 2 EnMin= -6508.70671812781     IErMin= 2 ErrMin= 1.17D-05
 ErrMax= 1.51D-05  0.00D+00 EMaxC= 1.00D-01 BMatC= 2.42D-06 BMatP= 1.60D-06
 IDIUse=1 WtCom= 1.00D+00 WtEn= 0.00D+00
 Coeff-Com: -0.201D-01 0.569D+00 0.451D+00
 Coeff:     -0.201D-01 0.569D+00 0.451D+00
 Gap=     0.244 Goal=   None    Shift=    0.000
 Gap=     0.244 Goal=   None    Shift=    0.000
 RMSDP=8.68D-07 MaxDP=7.77D-05 DE= 1.76D-07 OVMax= 1.33D-04

 Cycle  12  Pass 1  IDiag  1:
 RMSU=  7.20D-07    CP:  1.00D+00  1.05D+00  7.80D-01
 E= -6508.70671853855     Delta-E=       -0.000000586771 Rises=F Damp=F
 DIIS: error= 1.67D-06 at cycle   4 NSaved=   4.
 NSaved= 4 IEnMin= 4 EnMin= -6508.70671853855     IErMin= 4 ErrMin= 1.67D-06
 ErrMax= 1.67D-06  0.00D+00 EMaxC= 1.00D-01 BMatC= 3.32D-08 BMatP= 1.60D-06
 IDIUse=1 WtCom= 1.00D+00 WtEn= 0.00D+00
 Coeff-Com: -0.387D-02 0.798D-01 0.969D-01 0.827D+00
 Coeff:     -0.387D-02 0.798D-01 0.969D-01 0.827D+00
 Gap=     0.244 Goal=   None    Shift=    0.000
 Gap=     0.244 Goal=   None    Shift=    0.000
 RMSDP=2.53D-07 MaxDP=1.63D-05 DE=-5.87D-07 OVMax= 3.79D-05

 Cycle  13  Pass 1  IDiag  1:
 RMSU=  1.91D-07    CP:  1.00D+00  1.05D+00  8.39D-01  1.12D+00
 E= -6508.70671865124     Delta-E=       -0.000000112688 Rises=F Damp=F
 DIIS: error= 1.38D-06 at cycle   5 NSaved=   5.
 NSaved= 5 IEnMin= 5 EnMin= -6508.70671865124     IErMin= 5 ErrMin= 1.38D-06
 ErrMax= 1.38D-06  0.00D+00 EMaxC= 1.00D-01 BMatC= 1.42D-08 BMatP= 3.32D-08
 IDIUse=1 WtCom= 1.00D+00 WtEn= 0.00D+00
 Coeff-Com:  0.515D-02-0.161D+00-0.110D+00 0.384D+00 0.882D+00
 Coeff:      0.515D-02-0.161D+00-0.110D+00 0.384D+00 0.882D+00
 Gap=     0.244 Goal=   None    Shift=    0.000
 Gap=     0.244 Goal=   None    Shift=    0.000
 RMSDP=2.01D-07 MaxDP=1.05D-05 DE=-1.13D-07 OVMax= 3.39D-05

 Cycle  14  Pass 1  IDiag  1:
 RMSU=  1.28D-07    CP:  1.00D+00  1.05D+00  8.74D-01  1.26D+00  1.43D+00
 E= -6508.70671866381     Delta-E=       -0.000000012567 Rises=F Damp=F
 DIIS: error= 3.88D-07 at cycle   6 NSaved=   6.
 NSaved= 6 IEnMin= 6 EnMin= -6508.70671866381     IErMin= 6 ErrMin= 3.88D-07
 ErrMax= 3.88D-07  0.00D+00 EMaxC= 1.00D-01 BMatC= 1.99D-09 BMatP= 1.42D-08
 IDIUse=1 WtCom= 1.00D+00 WtEn= 0.00D+00
 Coeff-Com:  0.219D-02-0.622D-01-0.490D-01-0.221D-01 0.286D+00 0.845D+00
 Coeff:      0.219D-02-0.622D-01-0.490D-01-0.221D-01 0.286D+00 0.845D+00
 Gap=     0.244 Goal=   None    Shift=    0.000
 Gap=     0.244 Goal=   None    Shift=    0.000
 RMSDP=7.52D-08 MaxDP=4.30D-06 DE=-1.26D-08 OVMax= 1.48D-05

 Cycle  15  Pass 1  IDiag  1:
 RMSU=  3.76D-08    CP:  1.00D+00  1.05D+00  8.80D-01  1.29D+00  1.71D+00
                    CP:  1.20D+00
 E= -6508.70671866538     Delta-E=       -0.000000001575 Rises=F Damp=F
 DIIS: error= 1.61D-07 at cycle   7 NSaved=   7.
 NSaved= 7 IEnMin= 7 EnMin= -6508.70671866538     IErMin= 7 ErrMin= 1.61D-07
 ErrMax= 1.61D-07  0.00D+00 EMaxC= 1.00D-01 BMatC= 5.39D-10 BMatP= 1.99D-09
 IDIUse=1 WtCom= 1.00D+00 WtEn= 0.00D+00
 Coeff-Com: -0.300D-03 0.125D-01 0.529D-02-0.113D+00-0.907D-01 0.405D+00
 Coeff-Com:  0.780D+00
 Coeff:     -0.300D-03 0.125D-01 0.529D-02-0.113D+00-0.907D-01 0.405D+00
 Coeff:      0.780D+00
 Gap=     0.244 Goal=   None    Shift=    0.000
 Gap=     0.244 Goal=   None    Shift=    0.000
 RMSDP=3.46D-08 MaxDP=1.92D-06 DE=-1.58D-09 OVMax= 5.93D-06

 Cycle  16  Pass 1  IDiag  1:
 RMSU=  1.43D-08    CP:  1.00D+00  1.05D+00  8.81D-01  1.29D+00  1.82D+00
                    CP:  1.36D+00  9.54D-01
 E= -6508.70671866527     Delta-E=        0.000000000111 Rises=F Damp=F
 DIIS: error= 4.94D-08 at cycle   8 NSaved=   8.
 NSaved= 8 IEnMin= 7 EnMin= -6508.70671866538     IErMin= 8 ErrMin= 4.94D-08
 ErrMax= 4.94D-08  0.00D+00 EMaxC= 1.00D-01 BMatC= 3.34D-11 BMatP= 5.39D-10
 IDIUse=1 WtCom= 1.00D+00 WtEn= 0.00D+00
 Coeff-Com: -0.250D-03 0.873D-02 0.498D-02-0.458D-01-0.553D-01 0.119D+00
 Coeff-Com:  0.316D+00 0.652D+00
 Coeff:     -0.250D-03 0.873D-02 0.498D-02-0.458D-01-0.553D-01 0.119D+00
 Coeff:      0.316D+00 0.652D+00
 Gap=     0.244 Goal=   None    Shift=    0.000
 Gap=     0.244 Goal=   None    Shift=    0.000
 RMSDP=5.91D-09 MaxDP=3.48D-07 DE= 1.11D-10 OVMax= 1.07D-06

 SCF Done:  E(ULC-wPBE) =  -6508.70671867     A.U. after   16 cycles
            NFock= 16  Conv=0.59D-08     -V/T= 2.0035
 <Sx>= 0.0000 <Sy>= 0.0000 <Sz>= 0.0000 <S**2>=-0.0000 S=-0.0000
 <L.S>= 0.000000000000E+00
 KE= 6.486326894489D+03 PE=-3.344748179546D+04 EE= 1.142452634034D+04
 Annihilation of the first spin contaminant:
 S**2 before annihilation    -0.0000,   after     0.0000
 Leave Link  502 at Fri Jul 24 13:31:22 2020, MaxMem=  4026531840 cpu:            3861.8 elap:             492.8
 (Enter /opt/ohpc/pub/libs/gaussian/g16-A.03/sandybridge/g16/l601.exe)
 Copying SCF densities to generalized density rwf, IOpCl= 1 IROHF=0.

 **********************************************************************

            Population analysis using the SCF density.

 **********************************************************************

 Orbital symmetries:
 Alpha Orbitals:
       Occupied  (A) (A) (A) (A) (A) (A) (A) (A) (A) (A) (A) (A)
                 (A) (A) (A) (A) (A) (A) (A) (A) (A) (A) (A) (A)
                 (A) (A) (A) (A) (A) (A) (A) (A) (A) (A) (A) (A)
                 (A) (A) (A) (A) (A) (A) (A) (A) (A) (A) (A) (A)
                 (A) (A) (A) (A) (A) (A) (A) (A) (A) (A) (A) (A)
                 (A) (A) (A) (A) (A) (A) (A) (A) (A) (A) (A) (A)
                 (A) (A) (A) (A) (A) (A) (A) (A) (A) (A) (A) (A)
                 (A) (A) (A) (A) (A) (A) (A) (A) (A) (A) (A) (A)
                 (A) (A) (A) (A) (A) (A) (A) (A) (A) (A) (A) (A)
                 (A) (A) (A) (A) (A) (A) (A) (A) (A) (A) (A) (A)
                 (A) (A) (A) (A) (A) (A) (A) (A) (A) (A) (A) (A)
                 (A) (A) (A) (A) (A) (A) (A) (A) (A) (A) (A) (A)
                 (A) (A) (A) (A) (A) (A) (A) (A) (A) (A) (A) (A)
                 (A) (A) (A) (A) (A) (A) (A) (A) (A) (A) (A) (A)
                 (A) (A) (A) (A) (A) (A) (A) (A) (A) (A) (A) (A)
                 (A) (A) (A) (A) (A) (A) (A) (A) (A) (A) (A) (A)
                 (A) (A) (A) (A) (A) (A) (A) (A) (A) (A) (A) (A)
                 (A) (A) (A) (A) (A) (A) (A) (A) (A) (A) (A) (A)
                 (A) (A) (A) (A) (A) (A) (A) (A) (A) (A) (A) (A)
                 (A) (A) (A) (A) (A) (A) (A) (A) (A) (A) (A) (A)
                 (A) (A) (A) (A) (A) (A) (A) (A) (A) (A) (A)
       Virtual   (A) (A) (A) (A) (A) (A) (A) (A) (A) (A) (A) (A)
                 (A) (A) (A) (A) (A) (A) (A) (A) (A) (A) (A) (A)
                 (A) (A) (A) (A) (A) (A) (A) (A) (A) (A) (A) (A)
                 (A) (A) (A) (A) (A) (A) (A) (A) (A) (A) (A) (A)
                 (A) (A) (A) (A) (A) (A) (A) (A) (A) (A) (A) (A)
                 (A) (A) (A) (A) (A) (A) (A) (A) (A) (A) (A) (A)
                 (A) (A) (A) (A) (A) (A) (A) (A) (A) (A) (A) (A)
                 (A) (A) (A) (A) (A) (A) (A) (A) (A) (A) (A) (A)
                 (A) (A) (A) (A) (A) (A) (A) (A) (A) (A) (A) (A)
                 (A) (A) (A) (A) (A) (A) (A) (A) (A) (A) (A) (A)
                 (A) (A) (A) (A) (A) (A) (A) (A) (A) (A) (A) (A)
                 (A) (A) (A) (A) (A) (A) (A) (A) (A) (A) (A) (A)
                 (A) (A) (A) (A) (A) (A) (A) (A) (A) (A) (A) (A)
                 (A) (A) (A) (A) (A) (A) (A) (A) (A) (A) (A) (A)
                 (A) (A) (A) (A) (A) (A) (A) (A) (A) (A) (A) (A)
                 (A) (A) (A) (A) (A) (A) (A) (A) (A) (A) (A) (A)
                 (A) (A) (A) (A) (A) (A) (A) (A) (A) (A) (A) (A)
                 (A) (A) (A) (A) (A) (A) (A) (A) (A) (A) (A) (A)
                 (A) (A) (A) (A) (A) (A) (A) (A) (A) (A) (A) (A)
                 (A) (A) (A) (A) (A) (A) (A) (A) (A) (A) (A) (A)
                 (A) (A) (A) (A) (A) (A) (A) (A) (A) (A) (A) (A)
                 (A) (A) (A) (A) (A) (A) (A) (A) (A) (A) (A) (A)
                 (A) (A) (A) (A) (A) (A) (A) (A) (A) (A) (A) (A)
                 (A) (A) (A) (A) (A) (A) (A) (A) (A) (A) (A) (A)
                 (A) (A) (A) (A) (A) (A) (A) (A) (A) (A) (A) (A)
                 (A) (A) (A) (A) (A) (A) (A) (A) (A) (A) (A) (A)
                 (A) (A) (A) (A) (A) (A) (A) (A) (A) (A) (A) (A)
                 (A) (A) (A) (A) (A) (A) (A) (A) (A) (A) (A) (A)
                 (A) (A) (A) (A) (A) (A) (A) (A) (A) (A) (A) (A)
                 (A) (A) (A) (A) (A) (A) (A) (A) (A) (A) (A) (A)
                 (A) (A) (A) (A) (A) (A) (A) (A) (A) (A) (A) (A)
                 (A) (A) (A) (A) (A) (A) (A) (A) (A) (A) (A) (A)
                 (A) (A) (A) (A) (A) (A) (A) (A) (A) (A) (A) (A)
                 (A) (A) (A) (A) (A) (A) (A) (A) (A) (A) (A) (A)
                 (A) (A) (A) (A) (A) (A) (A) (A) (A) (A) (A) (A)
                 (A) (A) (A) (A) (A) (A) (A) (A) (A) (A) (A) (A)
                 (A) (A) (A) (A) (A) (A) (A) (A) (A) (A) (A) (A)
                 (A) (A) (A) (A) (A) (A) (A) (A) (A) (A) (A) (A)
                 (A) (A) (A) (A) (A) (A) (A) (A) (A) (A) (A) (A)
                 (A) (A) (A) (A) (A) (A) (A) (A) (A) (A) (A) (A)
                 (A) (A) (A) (A) (A) (A) (A) (A) (A) (A) (A) (A)
                 (A) (A) (A) (A) (A) (A) (A) (A) (A) (A) (A) (A)
                 (A) (A) (A) (A) (A) (A) (A) (A) (A) (A) (A) (A)
                 (A) (A) (A) (A) (A) (A) (A) (A) (A) (A) (A) (A)
                 (A) (A) (A) (A) (A) (A) (A) (A) (A) (A) (A) (A)
                 (A) (A) (A) (A) (A) (A) (A) (A) (A) (A) (A) (A)
                 (A) (A) (A) (A) (A) (A) (A) (A) (A) (A) (A) (A)
                 (A) (A) (A) (A) (A) (A) (A) (A) (A) (A) (A) (A)
                 (A) (A) (A) (A) (A) (A) (A) (A) (A) (A) (A) (A)
                 (A) (A) (A) (A) (A) (A) (A) (A) (A) (A) (A) (A)
                 (A) (A) (A) (A) (A) (A) (A) (A) (A) (A) (A) (A)
                 (A) (A) (A) (A) (A) (A) (A) (A) (A) (A) (A) (A)
                 (A) (A) (A) (A) (A) (A) (A) (A) (A) (A) (A) (A)
                 (A) (A) (A) (A) (A) (A) (A) (A) (A) (A) (A) (A)
                 (A) (A) (A) (A) (A) (A) (A) (A) (A) (A) (A) (A)
                 (A) (A) (A) (A) (A) (A) (A) (A) (A) (A) (A) (A)
                 (A) (A) (A) (A) (A) (A) (A) (A) (A) (A) (A) (A)
                 (A) (A) (A) (A) (A)
 Beta  Orbitals:
       Occupied  (A) (A) (A) (A) (A) (A) (A) (A) (A) (A) (A) (A)
                 (A) (A) (A) (A) (A) (A) (A) (A) (A) (A) (A) (A)
                 (A) (A) (A) (A) (A) (A) (A) (A) (A) (A) (A) (A)
                 (A) (A) (A) (A) (A) (A) (A) (A) (A) (A) (A) (A)
                 (A) (A) (A) (A) (A) (A) (A) (A) (A) (A) (A) (A)
                 (A) (A) (A) (A) (A) (A) (A) (A) (A) (A) (A) (A)
                 (A) (A) (A) (A) (A) (A) (A) (A) (A) (A) (A) (A)
[...]
              Bcc     0.0000     0.000     0.000     0.000  0.2921  0.8808  0.3727
 
              Baa    -0.0000    -0.000    -0.000    -0.000 -0.2082  0.6603  0.7216
    11 C(13)  Bbb    -0.0000    -0.000    -0.000    -0.000 -0.0388  0.7316 -0.6807
              Bcc     0.0000     0.000     0.000     0.000  0.9773  0.1697  0.1267
 
              Baa    -0.0000    -0.000    -0.000    -0.000  0.2843  0.7505 -0.5967
    12 S(33)  Bbb    -0.0000    -0.000    -0.000    -0.000 -0.3248  0.6609  0.6765
              Bcc     0.0000     0.000     0.000     0.000  0.9021  0.0015  0.4316
 
              Baa    -0.0000    -0.000    -0.000    -0.000 -0.1985  0.7816  0.5913
    13 C(13)  Bbb    -0.0000    -0.000    -0.000    -0.000  0.1627 -0.5687  0.8063
              Bcc     0.0000     0.000     0.000     0.000  0.9665  0.2563 -0.0143
 
              Baa    -0.0000    -0.000    -0.000    -0.000  0.7208 -0.6055  0.3374
    14 C(13)  Bbb     0.0000     0.000     0.000     0.000 -0.4044  0.0280  0.9141
              Bcc     0.0000     0.000     0.000     0.000  0.5630  0.7953  0.2248
 
              Baa    -0.0000    -0.000    -0.000    -0.000  0.8814  0.4714 -0.0304
    15 C(13)  Bbb    -0.0000    -0.000    -0.000    -0.000 -0.2150  0.4576  0.8628
              Bcc     0.0000     0.000     0.000     0.000 -0.4207  0.7539 -0.5046
 
              Baa    -0.0000    -0.000    -0.000    -0.000 -0.0234 -0.3308  0.9434
    16 F(19)  Bbb     0.0000     0.000     0.000     0.000  0.9000 -0.4177 -0.1242
              Bcc     0.0000     0.000     0.000     0.000  0.4352  0.8462  0.3075
 
              Baa    -0.0000    -0.000    -0.000    -0.000 -0.2583  0.4332  0.8635
    17 C(13)  Bbb    -0.0000    -0.000    -0.000    -0.000  0.5146  0.8182 -0.2566
              Bcc     0.0000     0.000     0.000     0.000  0.8176 -0.3781  0.4342
 
              Baa    -0.0000    -0.000    -0.000    -0.000  0.5400  0.3119  0.7818
    18 S(33)  Bbb    -0.0000    -0.000    -0.000    -0.000  0.7193 -0.6534 -0.2361
              Bcc     0.0000     0.000     0.000     0.000  0.4371  0.6898 -0.5771
 
              Baa    -0.0000    -0.000    -0.000    -0.000  0.3978  0.8407 -0.3673
    19 C(13)  Bbb     0.0000     0.000     0.000     0.000  0.8599 -0.2020  0.4689
              Bcc     0.0000     0.000     0.000     0.000 -0.3200  0.5024  0.8033
 
              Baa    -0.0000    -0.000    -0.000    -0.000 -0.6504  0.3742  0.6610
    20 C(13)  Bbb     0.0000     0.000     0.000     0.000  0.6323  0.7489  0.1982
              Bcc     0.0000     0.000     0.000     0.000  0.4209 -0.5469  0.7237
 
              Baa    -0.0000    -0.000    -0.000    -0.000  0.5007  0.8407 -0.2063
    21 F(19)  Bbb     0.0000     0.000     0.000     0.000 -0.4093  0.4400  0.7993
              Bcc     0.0000     0.000     0.000     0.000  0.7627 -0.3158  0.5644
 
              Baa    -0.0000    -0.000    -0.000    -0.000  0.9811 -0.1165  0.1543
    22 C(13)  Bbb     0.0000     0.000     0.000     0.000  0.0262  0.8708  0.4909
              Bcc     0.0000     0.000     0.000     0.000 -0.1916 -0.4776  0.8574
 
              Baa    -0.0000    -0.000    -0.000    -0.000 -0.4047  0.9042  0.1362
    23 C(13)  Bbb    -0.0000    -0.000    -0.000    -0.000  0.1888 -0.0631  0.9800
              Bcc     0.0000     0.000     0.000     0.000  0.8948  0.4223 -0.1451
 
              Baa    -0.0000    -0.000    -0.000    -0.000  0.9203  0.3648  0.1413
    24 S(33)  Bbb    -0.0000    -0.000    -0.000    -0.000 -0.2540  0.2824  0.9250
              Bcc     0.0000     0.000     0.000     0.000 -0.2976  0.8872 -0.3526
 
              Baa    -0.0000    -0.000    -0.000    -0.000  0.0365 -0.3610  0.9319
    25 C(13)  Bbb    -0.0000    -0.000    -0.000    -0.000 -0.0982  0.9267  0.3628
              Bcc     0.0000     0.000     0.000     0.000  0.9945  0.1047  0.0017
 
              Baa    -0.0000    -0.000    -0.000    -0.000  0.9311 -0.3642  0.0191
    26 C(13)  Bbb     0.0000     0.000     0.000     0.000  0.3480  0.9029  0.2524
              Bcc     0.0000     0.000     0.000     0.000 -0.1092 -0.2284  0.9674
 
              Baa    -0.0000    -0.000    -0.000    -0.000 -0.0524  0.1008  0.9935
    27 C(13)  Bbb     0.0000     0.000     0.000     0.000 -0.2376  0.9651 -0.1104
              Bcc     0.0000     0.000     0.000     0.000  0.9699  0.2419  0.0266
 
              Baa    -0.0000    -0.000    -0.000    -0.000  0.4537  0.8891 -0.0609
    28 F(19)  Bbb     0.0000     0.000     0.000     0.000  0.0752  0.0298  0.9967
              Bcc     0.0000     0.000     0.000     0.000  0.8880 -0.4567 -0.0533
 
              Baa    -0.0000    -0.000    -0.000    -0.000 -0.3170  0.0159  0.9483
    29 C(13)  Bbb    -0.0000    -0.000    -0.000    -0.000  0.9170  0.2605  0.3021
              Bcc     0.0000     0.000     0.000     0.000 -0.2423  0.9653 -0.0971
 
              Baa    -0.0000    -0.000    -0.000    -0.000  0.1839  0.9829  0.0139
    30 S(33)  Bbb     0.0000     0.000     0.000     0.000 -0.3449  0.0512  0.9372
              Bcc     0.0000     0.000     0.000     0.000  0.9205 -0.1771  0.3484
 
              Baa    -0.0000    -0.000    -0.000    -0.000 -0.3839  0.9222 -0.0469
    31 C(13)  Bbb     0.0000     0.000     0.000     0.000  0.9231  0.3821 -0.0424
              Bcc     0.0000     0.000     0.000     0.000  0.0212  0.0596  0.9980
 
              Baa    -0.0000    -0.000    -0.000    -0.000 -0.1776  0.9834 -0.0368
    32 C(13)  Bbb     0.0000     0.000     0.000     0.000  0.9841  0.1770 -0.0171
              Bcc     0.0000     0.000     0.000     0.000  0.0103  0.0393  0.9992
 
              Baa    -0.0000    -0.000    -0.000    -0.000 -0.0818  0.0030  0.9966
    33 F(19)  Bbb    -0.0000    -0.000    -0.000    -0.000  0.7672  0.6385  0.0611
              Bcc     0.0000     0.000     0.000     0.000 -0.6362  0.7696 -0.0545
 
              Baa    -0.0000    -0.000    -0.000    -0.000  0.4164  0.9092 -0.0081
    34 C(13)  Bbb     0.0000     0.000     0.000     0.000  0.6228 -0.2787  0.7310
              Bcc     0.0000     0.000     0.000     0.000 -0.6624  0.3094  0.6823
 
              Baa    -0.0000    -0.000    -0.000    -0.000  0.8646  0.4981 -0.0662
    35 C(13)  Bbb     0.0000     0.000     0.000     0.000 -0.5021  0.8613 -0.0781
              Bcc     0.0000     0.000     0.000     0.000  0.0181  0.1008  0.9947
 
              Baa    -0.0000    -0.000    -0.000    -0.000  0.8891  0.4575 -0.0126
    36 S(33)  Bbb     0.0000     0.000     0.000     0.000  0.1849 -0.3339  0.9243
              Bcc     0.0000     0.000     0.000     0.000 -0.4186  0.8242  0.3815
 
              Baa    -0.0000    -0.000    -0.000    -0.000  0.9263  0.3648 -0.0949
    37 C(13)  Bbb     0.0000     0.000     0.000     0.000  0.2660 -0.4545  0.8501
              Bcc     0.0000     0.000     0.000     0.000 -0.2670  0.8126  0.5180
 
              Baa    -0.0000    -0.000    -0.000    -0.000  0.0625 -0.4935  0.8675
    38 C(13)  Bbb     0.0000     0.000     0.000     0.000  0.8072 -0.4862 -0.3347
              Bcc     0.0000     0.000     0.000     0.000  0.5870  0.7212  0.3680
 
              Baa    -0.0000    -0.000    -0.000    -0.000 -0.2237 -0.5751  0.7869
    39 C(13)  Bbb    -0.0000    -0.000    -0.000    -0.000  0.9746 -0.1268  0.1844
              Bcc     0.0000     0.000     0.000     0.000 -0.0062  0.8082  0.5889
 
              Baa    -0.0000    -0.000    -0.000    -0.000  0.8088 -0.3943 -0.4364
    40 F(19)  Bbb    -0.0000    -0.000    -0.000    -0.000  0.1994 -0.5142  0.8341
              Bcc     0.0000     0.000     0.000     0.000  0.5533  0.7617  0.3373
 
              Baa    -0.0000    -0.000    -0.000    -0.000  0.5067  0.8607 -0.0491
    41 C(13)  Bbb    -0.0000    -0.000    -0.000    -0.000  0.1848 -0.0528  0.9814
              Bcc     0.0000     0.000     0.000     0.000  0.8421 -0.5063 -0.1858
 
              Baa    -0.0000    -0.000    -0.000    -0.000  0.0186 -0.4029  0.9151
    42 S(33)  Bbb    -0.0000    -0.000    -0.000    -0.000  0.9352  0.3307  0.1266
              Bcc     0.0000     0.000     0.000     0.000 -0.3536  0.8534  0.3829
 
              Baa    -0.0000    -0.000    -0.000    -0.000  0.9034  0.3592 -0.2341
    43 C(13)  Bbb     0.0000     0.000     0.000     0.000 -0.4234  0.8337 -0.3547
              Bcc     0.0000     0.000     0.000     0.000  0.0678  0.4196  0.9052
 
              Baa    -0.0000    -0.000    -0.000    -0.000  0.3045  0.9170 -0.2579
    44 C(13)  Bbb     0.0000     0.000     0.000     0.000  0.7912 -0.3942 -0.4676
              Bcc     0.0000     0.000     0.000     0.000  0.5304  0.0616  0.8455
 
              Baa    -0.0000    -0.000    -0.000    -0.000 -0.2796  0.8328 -0.4777
    45 F(19)  Bbb    -0.0000    -0.000    -0.000    -0.000  0.8447 -0.0231 -0.5348
              Bcc     0.0000     0.000     0.000     0.000  0.4565  0.5530  0.6970
 
              Baa    -0.0000    -0.000    -0.000    -0.000  0.9317  0.2298 -0.2813
    46 C(13)  Bbb     0.0000     0.000     0.000     0.000 -0.3400  0.8245 -0.4524
              Bcc     0.0000     0.000     0.000     0.000  0.1280  0.5171  0.8463
 
              Baa    -0.0000    -0.000    -0.000    -0.000  0.9473 -0.3184  0.0360
    47 C(13)  Bbb     0.0000     0.000     0.000     0.000  0.1666  0.5855  0.7934
              Bcc     0.0000     0.000     0.000     0.000  0.2737  0.7456 -0.6076
 
              Baa    -0.0000    -0.000    -0.000    -0.000 -0.2614  0.9607  0.0932
    48 S(33)  Bbb     0.0000     0.000     0.000     0.000  0.0550 -0.0816  0.9951
              Bcc     0.0000     0.000     0.000     0.000  0.9637  0.2653 -0.0315
 
              Baa    -0.0000    -0.000    -0.000    -0.000 -0.2720 -0.2430  0.9311
    49 C(13)  Bbb     0.0000     0.000     0.000     0.000  0.7711  0.5239  0.3619
              Bcc     0.0000     0.000     0.000     0.000 -0.5757  0.8164  0.0449
 
              Baa    -0.0000    -0.000    -0.000    -0.000 -0.4944 -0.4456  0.7464
    50 C(13)  Bbb     0.0000     0.000     0.000     0.000  0.3558  0.6797  0.6414
              Bcc     0.0000     0.000     0.000     0.000  0.7931 -0.5826  0.1775
 
              Baa    -0.0000    -0.000    -0.000    -0.000  0.2945  0.9299  0.2203
    51 C(13)  Bbb    -0.0000    -0.000    -0.000    -0.000 -0.1051 -0.1976  0.9746
              Bcc     0.0000     0.000     0.000     0.000  0.9498 -0.3102  0.0395
 
              Baa    -0.0000    -0.000    -0.000    -0.000  0.8833 -0.4586 -0.0972
    52 F(19)  Bbb    -0.0000    -0.000    -0.000    -0.000  0.0077 -0.1930  0.9812
              Bcc     0.0000     0.000     0.000     0.000  0.4687  0.8674  0.1670
 
              Baa    -0.0000    -0.000    -0.000    -0.000  0.6960  0.7016  0.1526
    53 C(13)  Bbb     0.0000     0.000     0.000     0.000  0.7164 -0.6930 -0.0809
              Bcc     0.0000     0.000     0.000     0.000 -0.0490 -0.1656  0.9850
 
              Baa    -0.0000    -0.000    -0.000    -0.000  0.9845 -0.1224  0.1255
    54 S(33)  Bbb     0.0000     0.000     0.000     0.000  0.1208  0.9925  0.0198
              Bcc     0.0000     0.000     0.000     0.000 -0.1270 -0.0043  0.9919
 
              Baa    -0.0000    -0.000    -0.000    -0.000 -0.4273  0.8970  0.1132
    55 C(13)  Bbb     0.0000     0.000     0.000     0.000  0.0315 -0.1104  0.9934
              Bcc     0.0000     0.000     0.000     0.000  0.9036  0.4280  0.0189
 
              Baa    -0.0000    -0.000    -0.000    -0.000  0.9704 -0.1842  0.1560
    56 C(13)  Bbb    -0.0000    -0.000    -0.000    -0.000 -0.1902 -0.1851  0.9641
              Bcc     0.0000     0.000     0.000     0.000  0.1487  0.9653  0.2147
 
              Baa    -0.0000    -0.000    -0.000    -0.000 -0.3391 -0.0458  0.9396
    57 F(19)  Bbb    -0.0000    -0.000    -0.000    -0.000 -0.5280  0.8359 -0.1498
              Bcc     0.0000     0.000     0.000     0.000  0.7786  0.5469  0.3077
 
              Baa    -0.0000    -0.000    -0.000    -0.000 -0.1088 -0.2016  0.9734
    58 C(13)  Bbb     0.0000     0.000     0.000     0.000  0.9877 -0.1326  0.0830
              Bcc     0.0000     0.000     0.000     0.000  0.1124  0.9704  0.2136
 
              Baa    -0.0000    -0.000    -0.000    -0.000 -0.2943  0.9362  0.1920
    59 C(13)  Bbb     0.0000     0.000     0.000     0.000  0.8384  0.1565  0.5222
              Bcc     0.0000     0.000     0.000     0.000 -0.4588 -0.3146  0.8310
 
              Baa    -0.0000    -0.000    -0.000    -0.000  0.9466 -0.2992  0.1201
    60 S(33)  Bbb     0.0000     0.000     0.000     0.000 -0.1200  0.0188  0.9926
              Bcc     0.0000     0.000     0.000     0.000  0.2992  0.9540  0.0181
 
              Baa    -0.0000    -0.000    -0.000    -0.000 -0.5385  0.6285 -0.5613
    61 H(1)   Bbb    -0.0000    -0.000    -0.000    -0.000  0.0316  0.6807  0.7318
              Bcc     0.0000     0.000     0.000     0.000  0.8421  0.3763 -0.3864
 
              Baa    -0.0000    -0.000    -0.000    -0.000  0.6776 -0.6471  0.3496
    62 H(1)   Bbb    -0.0000    -0.000    -0.000    -0.000  0.5063  0.7551  0.4165
              Bcc     0.0000     0.000     0.000     0.000 -0.5334 -0.1052  0.8393
 
              Baa    -0.0000    -0.000    -0.000    -0.000 -0.0027 -0.4789  0.8779
    63 H(1)   Bbb     0.0000     0.000     0.000     0.000 -0.1521  0.8678  0.4730
              Bcc     0.0000     0.000     0.000     0.000  0.9884  0.1323  0.0752
 
              Baa    -0.0000    -0.000    -0.000    -0.000  0.2326  0.5279  0.8168
    64 H(1)   Bbb    -0.0000    -0.000    -0.000    -0.000  0.2777  0.7689 -0.5760
              Bcc     0.0000     0.000     0.000     0.000  0.9321 -0.3608 -0.0323
 
              Baa    -0.0000    -0.000    -0.000    -0.000  0.1185 -0.6521  0.7488
    65 H(1)   Bbb     0.0000     0.000     0.000     0.000  0.8658  0.4371  0.2436
              Bcc     0.0000     0.000     0.000     0.000 -0.4861  0.6195  0.6164
 
              Baa    -0.0000    -0.000    -0.000    -0.000  0.0765 -0.0686  0.9947
    66 H(1)   Bbb    -0.0000    -0.000    -0.000    -0.000 -0.3870  0.9174  0.0930
              Bcc     0.0000     0.000     0.000     0.000  0.9189  0.3920 -0.0436
 
              Baa    -0.0000    -0.000    -0.000    -0.000  0.9277 -0.3608  0.0953
    67 H(1)   Bbb     0.0000     0.000     0.000     0.000  0.1318  0.5557  0.8209
              Bcc     0.0000     0.000     0.000     0.000  0.3492  0.7490 -0.5631
 
              Baa    -0.0000    -0.000    -0.000    -0.000  0.8061  0.5897  0.0487
    68 H(1)   Bbb    -0.0000    -0.000    -0.000    -0.000  0.2109 -0.3633  0.9075
              Bcc     0.0000     0.000     0.000     0.000 -0.5529  0.7213  0.4173
 
              Baa    -0.0000    -0.000    -0.000    -0.000  0.7457  0.5480 -0.3791
    69 H(1)   Bbb     0.0000     0.000     0.000     0.000 -0.5726  0.8179  0.0561
              Bcc     0.0000     0.000     0.000     0.000  0.3408  0.1753  0.9236
 
              Baa    -0.0000    -0.000    -0.000    -0.000  0.4068  0.8694  0.2803
    70 H(1)   Bbb     0.0000     0.000     0.000     0.000  0.8900 -0.4464  0.0929
              Bcc     0.0000     0.000     0.000     0.000 -0.2059 -0.2117  0.9554
 
              Baa    -0.0000    -0.000    -0.000    -0.000 -0.2294 -0.0852  0.9696
    71 H(1)   Bbb    -0.0000    -0.000    -0.000    -0.000  0.8533 -0.4969  0.1583
              Bcc     0.0000     0.000     0.000     0.000  0.4683  0.8636  0.1867
 
              Baa    -0.0000    -0.000    -0.000    -0.000  0.6431  0.7223  0.2544
    72 H(1)   Bbb    -0.0000    -0.000    -0.000    -0.000 -0.1906 -0.1708  0.9667
              Bcc     0.0000     0.000     0.000     0.000  0.7417 -0.6701  0.0278
 

 ---------------------------------------------------------------------------------

 No NMR shielding tensors so no spin-rotation constants.
 Leave Link  601 at Fri Jul 24 16:53:05 2020, MaxMem=  4026531840 cpu:              10.9 elap:               1.4
 (Enter /opt/ohpc/pub/libs/gaussian/g16-A.03/sandybridge/g16/l9999.exe)

 Test job not archived.
 1\1\GINC-SKYLAKE036\FOpt\ULC-wPBE\CC-pVDZ\C40H12F10S10\RDU230\24-Jul-2
 020\0\\#P uLC-wPBE/cc-pVDZ iop(3/107=0332100000, 3/108=0332100000) opt
 \\H12 C40 S10 F10\\0,1\C,17.5780882451,2.993192806,-0.5385919504\C,16.
 658130161,3.2948026166,-1.4991093383\C,15.4230354861,2.6544589973,-1.2
 26458428\F,14.3521558624,2.7913835743,-2.0256429806\C,15.3963304037,1.
 8855938758,-0.0918281502\S,16.9525227524,1.9505523061,0.6735426918\C,1
 4.2817479142,1.1175598459,0.4393669055\C,14.2508747524,0.3441078417,1.
 5707938184\F,15.3187684042,0.2019760512,2.3719843321\C,13.0147075472,-
 0.2840458931,1.8482333599\C,12.0805440421,0.0172969983,0.891674794\S,1
 2.7292922257,1.0561933808,-0.3322756786\C,10.698897678,-0.4510740538,0
 .8302617119\C,10.213359384,-1.657542857,1.2637821588\C,8.8188597896,-1
 .752305886,1.0522641962\F,8.1174344982,-2.8457949009,1.3912027854\C,8.
 2327107685,-0.6603599621,0.4652996116\S,9.4441910505,0.5482546814,0.17
 83759108\C,6.8346477893,-0.4749694394,0.118278838\C,6.2471225204,0.618
 5776425,-0.4640858183\F,6.9470276998,1.7123119492,-0.8024619942\C,4.85
 64580387,0.5139542875,-0.6960043622\C,4.3733973431,-0.6972353878,-0.27
 24041798\S,5.6219737507,-1.6811032182,0.412496962\C,3.0028967614,-1.19
 33851719,-0.3368717157\C,2.575130965,-2.4942292652,-0.4061391994\C,1.1
 642241784,-2.5654886778,-0.4583137107\F,0.5106099987,-3.7350430896,-0.
 5379516269\C,0.5085504033,-1.3614841581,-0.4343717622\S,1.675983632,-0
 .0820638876,-0.3237283436\C,-0.9229236581,-1.1219919561,-0.4843519398\
 C,-1.578796513,0.0818776207,-0.4568000818\F,-0.9254659068,1.2516370582
 ,-0.3773389812\C,-2.9888565864,0.0112207568,-0.5293852408\C,-3.4154819
 91,-1.2890493786,-0.6115827452\S,-2.0905096652,-2.4019271284,-0.585859
 9238\C,-4.785061139,-1.7842588159,-0.7077979095\C,-5.2287359029,-2.944
 4511076,-1.2878349805\C,-6.6372897589,-3.0674037623,-1.1938732563\F,-7
 .2930639431,-4.1034512943,-1.7226421066\C,-7.2688306004,-2.03392512,-0
 .5539162017\S,-6.0909533979,-0.8766921529,-0.0255777386\C,-8.694376080
 8,-1.8707241381,-0.3096294803\C,-9.5937331352,-2.8234135579,0.09076910
 31\F,-9.2480842756,-4.0888809885,0.3409193109\C,-10.9227033903,-2.3614
 94614,0.2588682477\C,-11.0301887206,-1.0241716263,-0.0214499882\S,-9.5
 110748861,-0.3553769038,-0.5133344485\C,-12.2359317783,-0.2020840848,0
 .0379894792\C,-13.5210809888,-0.5982876765,-0.2247994441\C,-14.4306177
 261,0.4706660766,-0.0506329521\F,-15.749221447,0.3257437825,-0.2566165
 014\C,-13.8753516617,1.6653569056,0.3281638561\S,-12.160568083,1.46517
 85265,0.498763695\C,-14.5493580494,2.930545482,0.5718157582\C,-13.9890
 153033,4.1225490059,0.9517350136\F,-12.6684784689,4.262129008,1.154728
 6259\C,-14.8982055016,5.1977431767,1.1163313738\C,-16.1733943878,4.793
 4788472,0.8510492125\S,-16.2647959063,3.1369281866,0.4095002711\H,18.6
 114766605,3.3340978216,-0.4758504641\H,16.8307514432,3.9366833184,-2.3
 631153285\H,12.8319989551,-0.9010800589,2.7281726852\H,10.8184056583,-
 2.4580093828,1.6897155146\H,4.2629544652,1.2943081394,-1.1738056651\H,
 3.2265336843,-3.3681934026,-0.4423075292\H,-3.6386596235,0.8870247724,
 -0.5421355743\H,-4.5926323267,-3.6717385234,-1.7941782266\H,-11.741873
 7031,-2.9903804088,0.6084764265\H,-13.8127976697,-1.5956389642,-0.5543
 504343\H,-14.6009486251,6.2031765426,1.4147421191\H,-17.0836621111,5.3
 916500126,0.8918886128\\Version=EM64L-G16RevA.03\State=1-A\HF=-6508.82
 72151\S2=0.\S2-1=0.\S2A=0.\RMSD=6.121e-09\RMSF=2.838e-06\Dipole=0.1178
 89,0.6545058,0.0055981\Quadrupole=43.8803051,-13.9991451,-29.88116,-11
 .3677736,-5.1561627,-1.5622985\PG=C01 [X(C40H12F10S10)]\\@


 Age does not diminish the extreme disappointment of
 having a scoop of ice cream fall from the cone.
 -- Jim Fiebig
 Job cpu time:       1 days  3 hours 26 minutes 22.0 seconds.
 Elapsed time:       0 days  3 hours 30 minutes  5.3 seconds.
 File lengths (MBytes):  RWF=   1020 Int=      0 D2E=      0 Chk=     92 Scr=      8
 Normal termination of Gaussian 16 at Fri Jul 24 16:53:06 2020.
