 Entering Gaussian System, Link 0=g16
 Input=mols_65_1_12_c-cOC-C_opt_0.gjf
 Output=mols_65_1_12_c-cOC-C_opt_0.log
 Initial command:
 /opt/ohpc/pub/libs/gaussian/g16-A.03/sandybridge/g16/l1.exe "/mnt/gpfs2_4m/scratch/rdu230/ondemand/projects/dihedral_energies/7trial/wtuning/mols_65_1_12_c-cOC-C/Gau-380415.inp" -scrdir="/mnt/gpfs2_4m/scratch/rdu230/ondemand/projects/dihedral_energies/7trial/wtuning/mols_65_1_12_c-cOC-C/"
 Entering Link 1 = /opt/ohpc/pub/libs/gaussian/g16-A.03/sandybridge/g16/l1.exe PID=    380416.
  
 Copyright (c) 1988,1990,1992,1993,1995,1998,2003,2009,2016,
            Gaussian, Inc.  All Rights Reserved.
  
 This is part of the Gaussian(R) 16 program.  It is based on
 the Gaussian(R) 09 system (copyright 2009, Gaussian, Inc.),
 the Gaussian(R) 03 system (copyright 2003, Gaussian, Inc.),
 the Gaussian(R) 98 system (copyright 1998, Gaussian, Inc.),
 the Gaussian(R) 94 system (copyright 1995, Gaussian, Inc.),
 the Gaussian 92(TM) system (copyright 1992, Gaussian, Inc.),
 the Gaussian 90(TM) system (copyright 1990, Gaussian, Inc.),
 the Gaussian 88(TM) system (copyright 1988, Gaussian, Inc.),
 the Gaussian 86(TM) system (copyright 1986, Carnegie Mellon
 University), and the Gaussian 82(TM) system (copyright 1983,
 Carnegie Mellon University). Gaussian is a federally registered
 trademark of Gaussian, Inc.
  
 This software contains proprietary and confidential information,
 including trade secrets, belonging to Gaussian, Inc.
  
 This software is provided under written license and may be
 used, copied, transmitted, or stored only in accord with that
 written license.
  
 The following legend is applicable only to US Government
 contracts under FAR:
  
                    RESTRICTED RIGHTS LEGEND
  
 Use, reproduction and disclosure by the US Government is
 subject to restrictions as set forth in subparagraphs (a)
 and (c) of the Commercial Computer Software - Restricted
 Rights clause in FAR 52.227-19.
  
 Gaussian, Inc.
 340 Quinnipiac St., Bldg. 40, Wallingford CT 06492
  
  
 ---------------------------------------------------------------
 Warning -- This program may not be used in any manner that
 competes with the business of Gaussian, Inc. or will provide
 assistance to any competitor of Gaussian, Inc.  The licensee
 of this program is prohibited from giving any competitor of
 Gaussian, Inc. access to this program.  By using this program,
 the user acknowledges that Gaussian, Inc. is engaged in the
 business of creating and licensing software in the field of
 computational chemistry and represents and warrants to the
 licensee that it is not a competitor of Gaussian, Inc. and that
 it will not use this program in any manner prohibited above.
 ---------------------------------------------------------------
  

 Cite this work as:
 Gaussian 16, Revision A.03,
 M. J. Frisch, G. W. Trucks, H. B. Schlegel, G. E. Scuseria, 
 M. A. Robb, J. R. Cheeseman, G. Scalmani, V. Barone, 
 G. A. Petersson, H. Nakatsuji, X. Li, M. Caricato, A. V. Marenich, 
 J. Bloino, B. G. Janesko, R. Gomperts, B. Mennucci, H. P. Hratchian, 
 J. V. Ortiz, A. F. Izmaylov, J. L. Sonnenberg, D. Williams-Young, 
 F. Ding, F. Lipparini, F. Egidi, J. Goings, B. Peng, A. Petrone, 
 T. Henderson, D. Ranasinghe, V. G. Zakrzewski, J. Gao, N. Rega, 
 G. Zheng, W. Liang, M. Hada, M. Ehara, K. Toyota, R. Fukuda, 
 J. Hasegawa, M. Ishida, T. Nakajima, Y. Honda, O. Kitao, H. Nakai, 
 T. Vreven, K. Throssell, J. A. Montgomery, Jr., J. E. Peralta, 
 F. Ogliaro, M. J. Bearpark, J. J. Heyd, E. N. Brothers, K. N. Kudin, 
 V. N. Staroverov, T. A. Keith, R. Kobayashi, J. Normand, 
 K. Raghavachari, A. P. Rendell, J. C. Burant, S. S. Iyengar, 
 J. Tomasi, M. Cossi, J. M. Millam, M. Klene, C. Adamo, R. Cammi, 
 J. W. Ochterski, R. L. Martin, K. Morokuma, O. Farkas, 
 J. B. Foresman, and D. J. Fox, Gaussian, Inc., Wallingford CT, 2016.
 
 ******************************************
 Gaussian 16:  EM64L-G16RevA.03 25-Dec-2016
                24-Jul-2020 
 ******************************************
 %mem=30GB
 %nproc=8
 Will use up to    8 processors via shared memory.
 ---------------------------------------------------------------
 #P uLC-wPBE/cc-pVDZ iop(3/107=0446900000, 3/108=0446900000) opt
 ---------------------------------------------------------------
 1/18=20,19=15,26=3,38=1/1,3;
 2/9=110,12=2,17=6,18=5,40=1/2;
 3/5=16,11=2,25=1,30=1,71=1,74=-41,107=446900000,108=446900000,116=2/1,2,3;
 4//1;
 5/5=2,38=5/2;
 6/7=2,8=2,9=2,10=2,28=1/1;
 7//1,2,3,16;
 1/18=20,19=15,26=3/3(2);
 2/9=110/2;
 99//99;
 2/9=110/2;
 3/5=16,11=2,25=1,30=1,71=1,74=-41,107=446900000,108=446900000,116=2/1,2,3;
 4/5=5,16=3,69=1/1;
 5/5=2,38=5/2;
 7//1,2,3,16;
 1/18=20,19=15,26=3/3(-5);
 2/9=110/2;
 6/7=2,8=2,9=2,10=2,19=2,28=1/1;
 99/9=1/99;
 Leave Link    1 at Fri Jul 24 15:52:06 2020, MaxMem=  4026531840 cpu:               1.4 elap:               0.2
 (Enter /opt/ohpc/pub/libs/gaussian/g16-A.03/sandybridge/g16/l101.exe)
 -------------
 H10 C11 S1 O1
 -------------
 Symbolic Z-matrix:
 Charge =  0 Multiplicity = 1
 C                    -3.07482  -1.19812   0.1069 
 C                    -2.11173  -2.19462   0.31785 
 C                    -0.75537  -1.81552   0.26629 
 C                    -0.42355  -0.46481   0.19295 
 C                    -1.42192   0.52981   0.00288 
 O                    -0.98401   1.83445  -0.15274 
 C                    -1.93537   2.82405  -0.448 
 C                    -2.76328   0.09204  -0.0823 
 C                     1.00482  -0.09824   0.22252 
 C                     1.64505   0.74572   1.01693 
 C                     3.03468   0.87102   0.81078 
 C                     3.44637   0.02811  -0.16874 
 S                     2.17048  -0.85879  -0.82206 
 H                    -4.14987  -1.47829   0.08408 
 H                    -2.38849  -3.28218   0.34039 
 H                    -0.02847  -2.56953   0.42355 
 H                    -2.47383   2.50401  -1.37546 
 H                    -2.60573   2.89268   0.35495 
 H                    -1.3982    3.7659   -0.61332 
 H                    -3.57013   0.80981  -0.12679 
 H                     1.16935   1.31633   1.85236 
 H                     3.79436   1.44811   1.35758 
 H                     4.46537  -0.08907  -0.59167 
 
 ITRead=  0  0  0  0  0  0  0  0  0  0  0  0  0  0  0  0  0  0  0  0
 ITRead=  0  0  0
 MicOpt= -1 -1 -1 -1 -1 -1 -1 -1 -1 -1 -1 -1 -1 -1 -1 -1 -1 -1 -1 -1
 MicOpt= -1 -1 -1
 NAtoms=     23 NQM=       23 NQMF=       0 NMMI=      0 NMMIF=      0
                NMic=       0 NMicF=      0.
                    Isotopes and Nuclear Properties:
 (Nuclear quadrupole moments (NQMom) in fm**2, nuclear magnetic moments (NMagM)
  in nuclear magnetons)

  Atom         1           2           3           4           5           6           7           8           9          10
 IAtWgt=          12          12          12          12          12          16          12          12          12          12
 AtmWgt=  12.0000000  12.0000000  12.0000000  12.0000000  12.0000000  15.9949146  12.0000000  12.0000000  12.0000000  12.0000000
 NucSpn=           0           0           0           0           0           0           0           0           0           0
 AtZEff=  -0.0000000  -0.0000000  -0.0000000  -0.0000000  -0.0000000  -0.0000000  -0.0000000  -0.0000000  -0.0000000  -0.0000000
 NQMom=    0.0000000   0.0000000   0.0000000   0.0000000   0.0000000   0.0000000   0.0000000   0.0000000   0.0000000   0.0000000
 NMagM=    0.0000000   0.0000000   0.0000000   0.0000000   0.0000000   0.0000000   0.0000000   0.0000000   0.0000000   0.0000000
 AtZNuc=   6.0000000   6.0000000   6.0000000   6.0000000   6.0000000   8.0000000   6.0000000   6.0000000   6.0000000   6.0000000

  Atom        11          12          13          14          15          16          17          18          19          20
 IAtWgt=          12          12          32           1           1           1           1           1           1           1
 AtmWgt=  12.0000000  12.0000000  31.9720718   1.0078250   1.0078250   1.0078250   1.0078250   1.0078250   1.0078250   1.0078250
 NucSpn=           0           0           0           1           1           1           1           1           1           1
 AtZEff=  -0.0000000  -0.0000000  -0.0000000  -0.0000000  -0.0000000  -0.0000000  -0.0000000  -0.0000000  -0.0000000  -0.0000000
 NQMom=    0.0000000   0.0000000   0.0000000   0.0000000   0.0000000   0.0000000   0.0000000   0.0000000   0.0000000   0.0000000
 NMagM=    0.0000000   0.0000000   0.0000000   2.7928460   2.7928460   2.7928460   2.7928460   2.7928460   2.7928460   2.7928460
 AtZNuc=   6.0000000   6.0000000  16.0000000   1.0000000   1.0000000   1.0000000   1.0000000   1.0000000   1.0000000   1.0000000

  Atom        21          22          23
 IAtWgt=           1           1           1
 AtmWgt=   1.0078250   1.0078250   1.0078250
 NucSpn=           1           1           1
 AtZEff=  -0.0000000  -0.0000000  -0.0000000
 NQMom=    0.0000000   0.0000000   0.0000000
 NMagM=    2.7928460   2.7928460   2.7928460
 AtZNuc=   1.0000000   1.0000000   1.0000000
 Leave Link  101 at Fri Jul 24 15:52:06 2020, MaxMem=  4026531840 cpu:               3.2 elap:               0.4
 (Enter /opt/ohpc/pub/libs/gaussian/g16-A.03/sandybridge/g16/l103.exe)

 GradGradGradGradGradGradGradGradGradGradGradGradGradGradGradGradGradGrad
 Berny optimization.
 Initialization pass.
                           ----------------------------
                           !    Initial Parameters    !
                           ! (Angstroms and Degrees)  !
 --------------------------                            --------------------------
 ! Name  Definition              Value          Derivative Info.                !
 --------------------------------------------------------------------------------
 ! R1    R(1,2)                  1.4018         estimate D2E/DX2                !
 ! R2    R(1,8)                  1.3407         estimate D2E/DX2                !
 ! R3    R(1,14)                 1.1112         estimate D2E/DX2                !
 ! R4    R(2,3)                  1.4093         estimate D2E/DX2                !
 ! R5    R(2,15)                 1.1224         estimate D2E/DX2                !
 ! R6    R(3,4)                  1.3928         estimate D2E/DX2                !
 ! R7    R(3,16)                 1.0591         estimate D2E/DX2                !
 ! R8    R(4,5)                  1.422          estimate D2E/DX2                !
 ! R9    R(4,9)                  1.4749         estimate D2E/DX2                !
 ! R10   R(5,6)                  1.3849         estimate D2E/DX2                !
 ! R11   R(5,8)                  1.4136         estimate D2E/DX2                !
 ! R12   R(6,7)                  1.4041         estimate D2E/DX2                !
 ! R13   R(7,17)                 1.1192         estimate D2E/DX2                !
 ! R14   R(7,18)                 1.0482         estimate D2E/DX2                !
 ! R15   R(7,19)                 1.0968         estimate D2E/DX2                !
 ! R16   R(8,20)                 1.0808         estimate D2E/DX2                !
 ! R17   R(9,10)                 1.3241         estimate D2E/DX2                !
 ! R18   R(9,13)                 1.7402         estimate D2E/DX2                !
 ! R19   R(10,11)                1.4104         estimate D2E/DX2                !
 ! R20   R(10,21)                1.118          estimate D2E/DX2                !
 ! R21   R(11,12)                1.3563         estimate D2E/DX2                !
 ! R22   R(11,22)                1.0996         estimate D2E/DX2                !
 ! R23   R(12,13)                1.6856         estimate D2E/DX2                !
 ! R24   R(12,23)                1.1095         estimate D2E/DX2                !
 ! A1    A(2,1,8)              123.0712         estimate D2E/DX2                !
 ! A2    A(2,1,14)             119.2452         estimate D2E/DX2                !
 ! A3    A(8,1,14)             117.6813         estimate D2E/DX2                !
 ! A4    A(1,2,3)              117.6779         estimate D2E/DX2                !
 ! A5    A(1,2,15)             121.4932         estimate D2E/DX2                !
 ! A6    A(3,2,15)             119.9129         estimate D2E/DX2                !
 ! A7    A(2,3,4)              119.4784         estimate D2E/DX2                !
 ! A8    A(2,3,16)             117.6212         estimate D2E/DX2                !
 ! A9    A(4,3,16)             122.326          estimate D2E/DX2                !
 ! A10   A(3,4,5)              121.2031         estimate D2E/DX2                !
 ! A11   A(3,4,9)              118.0784         estimate D2E/DX2                !
 ! A12   A(5,4,9)              120.581          estimate D2E/DX2                !
 ! A13   A(4,5,6)              116.8665         estimate D2E/DX2                !
 ! A14   A(4,5,8)              117.2365         estimate D2E/DX2                !
 ! A15   A(6,5,8)              125.8035         estimate D2E/DX2                !
 ! A16   A(5,6,7)              118.2496         estimate D2E/DX2                !
 ! A17   A(6,7,17)             107.379          estimate D2E/DX2                !
 ! A18   A(6,7,18)             108.5638         estimate D2E/DX2                !
 ! A19   A(6,7,19)             107.7627         estimate D2E/DX2                !
 ! A20   A(17,7,18)            110.232          estimate D2E/DX2                !
 ! A21   A(17,7,19)            110.8724         estimate D2E/DX2                !
 ! A22   A(18,7,19)            111.867          estimate D2E/DX2                !
 ! A23   A(1,8,5)              120.666          estimate D2E/DX2                !
 ! A24   A(1,8,20)             118.1266         estimate D2E/DX2                !
 ! A25   A(5,8,20)             120.3445         estimate D2E/DX2                !
 ! A26   A(4,9,10)             129.6939         estimate D2E/DX2                !
 ! A27   A(4,9,13)             121.873          estimate D2E/DX2                !
 ! A28   A(10,9,13)            108.3491         estimate D2E/DX2                !
 ! A29   A(9,10,11)            116.445          estimate D2E/DX2                !
 ! A30   A(9,10,21)            124.605          estimate D2E/DX2                !
 ! A31   A(11,10,21)           118.8889         estimate D2E/DX2                !
 ! A32   A(10,11,12)           110.4514         estimate D2E/DX2                !
 ! A33   A(10,11,22)           130.8919         estimate D2E/DX2                !
 ! A34   A(12,11,22)           118.3983         estimate D2E/DX2                !
 ! A35   A(11,12,13)           112.1582         estimate D2E/DX2                !
 ! A36   A(11,12,23)           128.297          estimate D2E/DX2                !
 ! A37   A(13,12,23)           119.4638         estimate D2E/DX2                !
 ! A38   A(9,13,12)             92.5458         estimate D2E/DX2                !
 ! D1    D(8,1,2,3)             -2.9021         estimate D2E/DX2                !
 ! D2    D(8,1,2,15)          -171.9345         estimate D2E/DX2                !
 ! D3    D(14,1,2,3)           176.5355         estimate D2E/DX2                !
 ! D4    D(14,1,2,15)            7.5031         estimate D2E/DX2                !
 ! D5    D(2,1,8,5)             -3.852          estimate D2E/DX2                !
 ! D6    D(2,1,8,20)          -173.254          estimate D2E/DX2                !
 ! D7    D(14,1,8,5)           176.7022         estimate D2E/DX2                !
 ! D8    D(14,1,8,20)            7.3001         estimate D2E/DX2                !
 ! D9    D(1,2,3,4)              8.6262         estimate D2E/DX2                !
 ! D10   D(1,2,3,16)          -179.8604         estimate D2E/DX2                !
 ! D11   D(15,2,3,4)           177.8389         estimate D2E/DX2                !
 ! D12   D(15,2,3,16)          -10.6478         estimate D2E/DX2                !
 ! D13   D(2,3,4,5)             -7.8585         estimate D2E/DX2                !
 ! D14   D(2,3,4,9)            176.3802         estimate D2E/DX2                !
 ! D15   D(16,3,4,5)          -178.9566         estimate D2E/DX2                !
 ! D16   D(16,3,4,9)             5.282          estimate D2E/DX2                !
 ! D17   D(3,4,5,6)           -175.5089         estimate D2E/DX2                !
 ! D18   D(3,4,5,8)              1.1813         estimate D2E/DX2                !
 ! D19   D(9,4,5,6)              0.147          estimate D2E/DX2                !
 ! D20   D(9,4,5,8)            176.8371         estimate D2E/DX2                !
 ! D21   D(3,4,9,10)          -126.2148         estimate D2E/DX2                !
 ! D22   D(3,4,9,13)            50.0443         estimate D2E/DX2                !
 ! D23   D(5,4,9,10)            57.9964         estimate D2E/DX2                !
 ! D24   D(5,4,9,13)          -125.7446         estimate D2E/DX2                !
 ! D25   D(4,5,6,7)            175.0264         estimate D2E/DX2                !
 ! D26   D(8,5,6,7)             -1.3446         estimate D2E/DX2                !
 ! D27   D(4,5,8,1)              4.6811         estimate D2E/DX2                !
 ! D28   D(4,5,8,20)           173.8482         estimate D2E/DX2                !
 ! D29   D(6,5,8,1)           -178.9599         estimate D2E/DX2                !
 ! D30   D(6,5,8,20)            -9.7928         estimate D2E/DX2                !
 ! D31   D(5,6,7,17)           -56.0274         estimate D2E/DX2                !
 ! D32   D(5,6,7,18)            63.1399         estimate D2E/DX2                !
 ! D33   D(5,6,7,19)          -175.518          estimate D2E/DX2                !
 ! D34   D(4,9,10,11)          179.0925         estimate D2E/DX2                !
 ! D35   D(4,9,10,21)            1.9769         estimate D2E/DX2                !
 ! D36   D(13,9,10,11)           2.4391         estimate D2E/DX2                !
 ! D37   D(13,9,10,21)        -174.6766         estimate D2E/DX2                !
 ! D38   D(4,9,13,12)         -178.5184         estimate D2E/DX2                !
 ! D39   D(10,9,13,12)          -1.5504         estimate D2E/DX2                !
 ! D40   D(9,10,11,12)          -2.2707         estimate D2E/DX2                !
 ! D41   D(9,10,11,22)        -176.2065         estimate D2E/DX2                !
 ! D42   D(21,10,11,12)        175.0179         estimate D2E/DX2                !
 ! D43   D(21,10,11,22)          1.0821         estimate D2E/DX2                !
 ! D44   D(10,11,12,13)          0.9281         estimate D2E/DX2                !
 ! D45   D(10,11,12,23)        177.5936         estimate D2E/DX2                !
 ! D46   D(22,11,12,13)        175.7194         estimate D2E/DX2                !
 ! D47   D(22,11,12,23)         -7.6151         estimate D2E/DX2                !
 ! D48   D(11,12,13,9)           0.3265         estimate D2E/DX2                !
 ! D49   D(23,12,13,9)        -176.6681         estimate D2E/DX2                !
 --------------------------------------------------------------------------------
 Trust Radius=3.00D-01 FncErr=1.00D-07 GrdErr=1.00D-06 EigMax=2.50D+02 EigMin=1.00D-04
 Number of steps in this run=    121 maximum allowed number of steps=    138.
 GradGradGradGradGradGradGradGradGradGradGradGradGradGradGradGradGradGrad

 Leave Link  103 at Fri Jul 24 15:52:06 2020, MaxMem=  4026531840 cpu:               0.1 elap:               0.0
 (Enter /opt/ohpc/pub/libs/gaussian/g16-A.03/sandybridge/g16/l202.exe)
                          Input orientation:                          
 ---------------------------------------------------------------------
 Center     Atomic      Atomic             Coordinates (Angstroms)
 Number     Number       Type             X           Y           Z
 ---------------------------------------------------------------------
      1          6           0       -3.074818   -1.198121    0.106896
      2          6           0       -2.111730   -2.194621    0.317850
      3          6           0       -0.755373   -1.815518    0.266291
      4          6           0       -0.423548   -0.464806    0.192954
      5          6           0       -1.421918    0.529808    0.002880
      6          8           0       -0.984014    1.834445   -0.152737
      7          6           0       -1.935373    2.824054   -0.447996
      8          6           0       -2.763282    0.092037   -0.082299
      9          6           0        1.004816   -0.098241    0.222517
     10          6           0        1.645053    0.745716    1.016925
     11          6           0        3.034683    0.871022    0.810782
     12          6           0        3.446368    0.028108   -0.168735
     13         16           0        2.170481   -0.858785   -0.822057
     14          1           0       -4.149875   -1.478287    0.084079
     15          1           0       -2.388488   -3.282182    0.340392
     16          1           0       -0.028474   -2.569531    0.423552
     17          1           0       -2.473829    2.504006   -1.375461
     18          1           0       -2.605731    2.892677    0.354947
     19          1           0       -1.398204    3.765896   -0.613320
     20          1           0       -3.570129    0.809808   -0.126794
     21          1           0        1.169350    1.316327    1.852361
     22          1           0        3.794363    1.448113    1.357575
     23          1           0        4.465365   -0.089073   -0.591670
 ---------------------------------------------------------------------
                    Distance matrix (angstroms):
                    1          2          3          4          5
     1  C    0.000000
     2  C    1.401803   0.000000
     3  C    2.405496   1.409284   0.000000
     4  C    2.752161   2.420293   1.392806   0.000000
     5  C    2.393457   2.827996   2.452391   1.422015   0.000000
     6  O    3.692604   4.210293   3.681045   2.391690   1.384938
     7  C    4.217124   5.079835   4.840272   3.676008   2.393844
     8  C    1.340655   2.411108   2.791412   2.420784   1.413562
     9  C    4.226880   3.757227   2.459517   1.474947   2.516292
    10  C    5.184963   4.821588   3.589626   2.534443   3.237470
    11  C    6.488668   6.010550   4.677445   3.758392   4.542073
    12  C    6.641195   6.005809   4.608995   3.917912   4.897077
    13  S    5.337721   4.628302   3.265036   2.813264   3.938787
    14  H    1.111198   2.172975   3.416075   3.863225   3.388331
    15  H    2.206554   1.122449   2.196283   3.438071   3.947080
    16  H    3.355778   2.119360   1.059079   2.153863   3.424114
    17  H    4.032904   5.007546   4.930185   3.934136   2.627508
    18  H    4.125070   5.111361   5.059524   4.007600   2.666180
    19  H    5.288782   6.074863   5.686750   4.415753   3.294318
    20  H    2.081279   3.369159   3.869070   3.409964   2.170259
    21  H    5.232787   5.044499   4.003577   2.909191   3.279308
    22  H    7.466753   7.016586   5.704585   4.775602   5.466998
    23  H    7.653257   6.965539   5.565323   4.965710   5.949505
                    6          7          8          9         10
     6  O    0.000000
     7  C    1.404132   0.000000
     8  C    2.491333   2.878035   0.000000
     9  C    2.798488   4.199298   3.785192   0.000000
    10  C    3.076594   4.391461   4.590099   1.324104   0.000000
    11  C    4.243404   5.486375   5.917838   2.325056   1.410414
    12  C    4.784495   6.071115   6.210581   2.475928   2.272771
    13  S    4.201466   5.528224   5.078713   1.740212   2.496468
    14  H    4.588349   4.867983   2.101485   5.338027   6.276749
    15  H    5.328752   6.173572   3.421183   4.654663   5.740306
    16  H    4.543145   5.786762   3.849546   2.686145   3.760804
    17  H    2.040322   1.119177   2.752026   4.628844   5.077429
    18  H    2.001890   1.048240   2.838942   4.690328   4.807996
    19  H    2.028347   1.096790   3.955080   4.626520   4.587003
    20  H    2.781824   2.613960   1.080822   4.677253   5.339506
    21  H    2.987615   4.147793   4.550537   2.164363   1.117964
    22  H    5.026249   6.163049   6.849444   3.385431   2.286687
    23  H    5.795543   7.033946   7.248834   3.555050   3.352404
                   11         12         13         14         15
    11  C    0.000000
    12  C    1.356260   0.000000
    13  S    2.530858   1.685615   0.000000
    14  H    7.593762   7.748293   6.414964   0.000000
    15  H    6.846981   6.727761   5.292291   2.534209   0.000000
    16  H    4.622800   4.378705   3.051819   4.276915   2.466668
    17  H    6.147357   6.529548   5.760576   4.560487   6.035843
    18  H    6.009088   6.716242   6.186356   4.643606   6.178696
    19  H    5.482595   6.135030   5.845234   5.963180   7.180921
    20  H    6.671307   7.060031   6.018488   2.369800   4.284731
    21  H    2.182350   3.305926   3.589692   6.263453   6.007541
    22  H    1.099605   2.113560   3.565048   8.561339   7.850987
    23  H    2.221600   1.109486   2.431466   8.752652   7.618398
                   16         17         18         19         20
    16  H    0.000000
    17  H    5.912443   0.000000
    18  H    6.040089   1.778419   0.000000
    19  H    6.564214   1.824882   1.777125   0.000000
    20  H    4.926067   2.373047   2.345310   3.700327   0.000000
    21  H    4.310008   5.010207   4.356416   4.321146   5.161035
    22  H    5.623873   6.919149   6.637261   6.018247   7.539664
    23  H    5.232393   7.449215   7.732226   7.017314   8.098967
                   21         22         23
    21  H    0.000000
    22  H    2.674486   0.000000
    23  H    4.337298   2.571525   0.000000
 Stoichiometry    C11H10OS
 Framework group  C1[X(C11H10OS)]
 Deg. of freedom    63
 Full point group                 C1      NOp   1
 Largest Abelian subgroup         C1      NOp   1
 Largest concise Abelian subgroup C1      NOp   1
                         Standard orientation:                         
 ---------------------------------------------------------------------
 Center     Atomic      Atomic             Coordinates (Angstroms)
 Number     Number       Type             X           Y           Z
 ---------------------------------------------------------------------
      1          6           0       -3.062060   -1.239940    0.101674
      2          6           0       -2.091986   -2.231523    0.303598
      3          6           0       -0.738238   -1.843477    0.250032
      4          6           0       -0.415244   -0.490262    0.183759
      5          6           0       -1.420520    0.499085    0.002816
      6          8           0       -0.991419    1.807396   -0.146347
      7          6           0       -1.949989    2.792667   -0.432652
      8          6           0       -2.759339    0.053287   -0.080753
      9          6           0        1.010848   -0.114780    0.211011
     10          6           0        1.648243    0.728474    1.008446
     11          6           0        3.036382    0.863870    0.798671
     12          6           0        3.450284    0.029475   -0.187185
     13         16           0        2.177979   -0.861610   -0.841788
     14          1           0       -4.135381   -1.526815    0.080571
     15          1           0       -2.361751   -3.320943    0.320483
     16          1           0       -0.006061   -2.593767    0.400466
     17          1           0       -2.489362    2.474748   -1.360316
     18          1           0       -2.618200    2.852208    0.372802
     19          1           0       -1.419350    3.738888   -0.594013
     20          1           0       -3.570871    0.766152   -0.118389
     21          1           0        1.171595    1.291030    1.848792
     22          1           0        3.794122    1.442511    1.346517
     23          1           0        4.468648   -0.078672   -0.614033
 ---------------------------------------------------------------------
 Rotational constants (GHZ):           1.2042803           0.5353463           0.4042328
 Leave Link  202 at Fri Jul 24 15:52:06 2020, MaxMem=  4026531840 cpu:               0.2 elap:               0.1
 (Enter /opt/ohpc/pub/libs/gaussian/g16-A.03/sandybridge/g16/l301.exe)
 Standard basis: CC-pVDZ (5D, 7F)
 Ernie: Thresh=  0.10000D-02 Tol=  0.10000D-05 Strict=F.
 Ernie:  34 primitive shells out of 364 were deleted.
 There are   249 symmetry adapted cartesian basis functions of A   symmetry.
 There are   236 symmetry adapted basis functions of A   symmetry.
   236 basis functions,   537 primitive gaussians,   249 cartesian basis functions
    50 alpha electrons       50 beta electrons
       nuclear repulsion energy       837.2386508480 Hartrees.
 IExCor=32609 DFT=T Ex+Corr=LC-wPBE ExCW=0 ScaHFX=  1.000000
 ScaDFX=  1.000000  0.000000  1.000000  1.000000 ScalE2=  1.000000  1.000000
 IRadAn=      5 IRanWt=     -1 IRanGd=            0 ICorTp=0 IEmpDi=  4
 HFx  wShort=  0.000000 wLong=  0.446900 cFull=  0.000000 cShort=  0.000000 cLong=  1.000000
 DFx  wShort=  0.000000 wLong=  0.446900 cFull=  0.000000 cShort=  0.000000 cLong=  1.000000
 NAtoms=   23 NActive=   23 NUniq=   23 SFac= 1.00D+00 NAtFMM=   60 NAOKFM=F Big=F
 Integral buffers will be    131072 words long.
 Raffenetti 2 integral format.
 Two-electron integral symmetry is turned on.
 Leave Link  301 at Fri Jul 24 15:52:06 2020, MaxMem=  4026531840 cpu:               0.5 elap:               0.1
 (Enter /opt/ohpc/pub/libs/gaussian/g16-A.03/sandybridge/g16/l302.exe)
 NPDir=0 NMtPBC=     1 NCelOv=     1 NCel=       1 NClECP=     1 NCelD=      1
         NCelK=      1 NCelE2=     1 NClLst=     1 CellRange=     0.0.
 One-electron integrals computed using PRISM.
 One-electron integral symmetry used in STVInt
 NBasis=   236 RedAO= T EigKep=  3.66D-04  NBF=   236
 NBsUse=   236 1.00D-06 EigRej= -1.00D+00 NBFU=   236
 Precomputing XC quadrature grid using
 IXCGrd= 4 IRadAn=           5 IRanWt=          -1 IRanGd=           0 AccXCQ= 0.00D+00.
 Generated NRdTot=       0 NPtTot=           0 NUsed=           0 NTot=          32
 NSgBfM=   249   249   249   249   249 MxSgAt=    23 MxSgA2=    23.
 Leave Link  302 at Fri Jul 24 15:52:07 2020, MaxMem=  4026531840 cpu:               3.2 elap:               0.4
 (Enter /opt/ohpc/pub/libs/gaussian/g16-A.03/sandybridge/g16/l303.exe)
 DipDrv:  MaxL=1.
 Leave Link  303 at Fri Jul 24 15:52:07 2020, MaxMem=  4026531840 cpu:               0.4 elap:               0.1
 (Enter /opt/ohpc/pub/libs/gaussian/g16-A.03/sandybridge/g16/l401.exe)
 ExpMin= 1.22D-01 ExpMax= 1.11D+05 ExpMxC= 1.07D+03 IAcc=3 IRadAn=         5 AccDes= 0.00D+00
 Harris functional with IExCor=32609 and IRadAn=       5 diagonalized for initial guess.
 HarFok:  IExCor=32609 AccDes= 0.00D+00 IRadAn=         5 IDoV= 1 UseB2=F ITyADJ=14
 ICtDFT=  3500011 ScaDFX=  1.000000  1.000000  1.000000  1.000000
 FoFCou: FMM=F IPFlag=           0 FMFlag=      100000 FMFlg1=           0
         NFxFlg=           0 DoJE=T BraDBF=F KetDBF=T FulRan=T
         wScrn=  0.000000 ICntrl=       500 IOpCl=  0 I1Cent=   200000004 NGrid=           0
         NMat0=    1 NMatS0=      1 NMatT0=    0 NMatD0=    1 NMtDS0=    0 NMtDT0=    0
 Petite list used in FoFCou.
 Harris En= -898.049196077070    
 JPrj=0 DoOrth=F DoCkMO=F.
 Initial guess <Sx>= 0.0000 <Sy>= 0.0000 <Sz>= 0.0000 <S**2>=-0.0000 S=-0.0000
 Leave Link  401 at Fri Jul 24 15:52:10 2020, MaxMem=  4026531840 cpu:              19.5 elap:               2.5
 (Enter /opt/ohpc/pub/libs/gaussian/g16-A.03/sandybridge/g16/l502.exe)
 Integral symmetry usage will be decided dynamically.
 UHF open shell SCF:
 Using DIIS extrapolation, IDIIS=  1040.
 NGot=  4026531840 LenX=  4026403121 LenY=  4026340679
 Requested convergence on RMS density matrix=1.00D-08 within 128 cycles.
 Requested convergence on MAX density matrix=1.00D-06.
 Requested convergence on             energy=1.00D-06.
 No special actions if energy rises.
 Fock matrices will be formed incrementally for  20 cycles.
 Integral accuracy reduced to 1.0D-05 until final iterations.

 Cycle   1  Pass 0  IDiag  1:
 FoFJK:  IHMeth= 1 ICntrl=       0 DoSepK=T KAlg= 0 I1Cent=           0 FoldK=F
 IRaf=         1 NMat=       1 IRICut=       1 DoRegI=T DoRafI=F ISym2E= 0 IDoP0=0 IntGTp=1.
 FoFCou: FMM=F IPFlag=           0 FMFlag=      100000 FMFlg1=           0
         NFxFlg=           0 DoJE=T BraDBF=F KetDBF=F FulRan=T
         wScrn=  0.000000 ICntrl=       500 IOpCl=  0 I1Cent=           0 NGrid=           0
         NMat0=    1 NMatS0=      1 NMatT0=    0 NMatD0=    1 NMtDS0=    0 NMtDT0=    0
 Symmetry not used in FoFCou.
 E= -897.777595473036    
 DIIS: error= 2.03D-02 at cycle   1 NSaved=   1.
 NSaved= 1 IEnMin= 1 EnMin= -897.777595473036     IErMin= 1 ErrMin= 2.03D-02
 ErrMax= 2.03D-02  0.00D+00 EMaxC= 1.00D-01 BMatC= 1.21D+00 BMatP= 1.21D+00
 IDIUse=3 WtCom= 7.97D-01 WtEn= 2.03D-01
 Coeff-Com:  0.100D+01
 Coeff-En:   0.100D+01
 Coeff:      0.100D+01
 Gap=     0.467 Goal=   None    Shift=    0.000
 Gap=     0.467 Goal=   None    Shift=    0.000
 GapD=    0.467 DampG=2.000 DampE=0.500 DampFc=1.0000 IDamp=-1.
 RMSDP=4.47D-03 MaxDP=1.18D-01              OVMax= 2.14D-01

 Cycle   2  Pass 0  IDiag  1:
 RMSU=  4.39D-03    CP:  9.63D-01
 E= -897.940792478738     Delta-E=       -0.163197005703 Rises=F Damp=F
 DIIS: error= 2.18D-02 at cycle   2 NSaved=   2.
 NSaved= 2 IEnMin= 2 EnMin= -897.940792478738     IErMin= 1 ErrMin= 2.03D-02
 ErrMax= 2.18D-02  0.00D+00 EMaxC= 1.00D-01 BMatC= 7.18D-01 BMatP= 1.21D+00
 IDIUse=3 WtCom= 7.82D-01 WtEn= 2.18D-01
 Coeff-Com:  0.431D+00 0.569D+00
 Coeff-En:   0.303D+00 0.697D+00
 Coeff:      0.403D+00 0.597D+00
 Gap=     0.444 Goal=   None    Shift=    0.000
 Gap=     0.444 Goal=   None    Shift=    0.000
 RMSDP=2.14D-03 MaxDP=7.23D-02 DE=-1.63D-01 OVMax= 1.29D-01

 Cycle   3  Pass 0  IDiag  1:
 RMSU=  1.31D-03    CP:  9.68D-01  6.13D-01
 E= -898.125882308857     Delta-E=       -0.185089830118 Rises=F Damp=F
 DIIS: error= 3.72D-03 at cycle   3 NSaved=   3.
 NSaved= 3 IEnMin= 3 EnMin= -898.125882308857     IErMin= 3 ErrMin= 3.72D-03
 ErrMax= 3.72D-03  0.00D+00 EMaxC= 1.00D-01 BMatC= 1.62D-02 BMatP= 7.18D-01
 IDIUse=3 WtCom= 9.63D-01 WtEn= 3.72D-02
 Coeff-Com:  0.699D-01 0.160D+00 0.770D+00
 Coeff-En:   0.000D+00 0.000D+00 0.100D+01
 Coeff:      0.673D-01 0.154D+00 0.779D+00
 Gap=     0.375 Goal=   None    Shift=    0.000
 Gap=     0.375 Goal=   None    Shift=    0.000
 RMSDP=3.95D-04 MaxDP=1.23D-02 DE=-1.85D-01 OVMax= 3.70D-02

 Cycle   4  Pass 0  IDiag  1:
 RMSU=  3.27D-04    CP:  9.68D-01  6.58D-01  9.19D-01
 E= -898.130318046443     Delta-E=       -0.004435737586 Rises=F Damp=F
 DIIS: error= 1.25D-03 at cycle   4 NSaved=   4.
 NSaved= 4 IEnMin= 4 EnMin= -898.130318046443     IErMin= 4 ErrMin= 1.25D-03
 ErrMax= 1.25D-03  0.00D+00 EMaxC= 1.00D-01 BMatC= 2.48D-03 BMatP= 1.62D-02
 IDIUse=3 WtCom= 9.87D-01 WtEn= 1.25D-02
 Coeff-Com: -0.154D-01-0.900D-02 0.275D+00 0.749D+00
 Coeff-En:   0.000D+00 0.000D+00 0.000D+00 0.100D+01
 Coeff:     -0.152D-01-0.889D-02 0.272D+00 0.752D+00
 Gap=     0.374 Goal=   None    Shift=    0.000
 Gap=     0.374 Goal=   None    Shift=    0.000
 RMSDP=1.43D-04 MaxDP=3.13D-03 DE=-4.44D-03 OVMax= 7.45D-03

 Cycle   5  Pass 0  IDiag  1:
 RMSU=  9.94D-05    CP:  9.67D-01  6.56D-01  9.93D-01  9.03D-01
 E= -898.131086243488     Delta-E=       -0.000768197046 Rises=F Damp=F
 DIIS: error= 4.22D-04 at cycle   5 NSaved=   5.
 NSaved= 5 IEnMin= 5 EnMin= -898.131086243488     IErMin= 5 ErrMin= 4.22D-04
 ErrMax= 4.22D-04  0.00D+00 EMaxC= 1.00D-01 BMatC= 1.91D-04 BMatP= 2.48D-03
 IDIUse=3 WtCom= 9.96D-01 WtEn= 4.22D-03
 Coeff-Com: -0.106D-01-0.191D-01 0.185D-01 0.209D+00 0.803D+00
 Coeff-En:   0.000D+00 0.000D+00 0.000D+00 0.000D+00 0.100D+01
 Coeff:     -0.106D-01-0.190D-01 0.184D-01 0.208D+00 0.803D+00
 Gap=     0.374 Goal=   None    Shift=    0.000
 Gap=     0.374 Goal=   None    Shift=    0.000
 RMSDP=5.44D-05 MaxDP=1.33D-03 DE=-7.68D-04 OVMax= 5.31D-03

 Cycle   6  Pass 0  IDiag  1:
 RMSU=  3.98D-05    CP:  9.67D-01  6.55D-01  1.01D+00  9.80D-01  1.11D+00
 E= -898.131183470147     Delta-E=       -0.000097226659 Rises=F Damp=F
 DIIS: error= 1.58D-04 at cycle   6 NSaved=   6.
 NSaved= 6 IEnMin= 6 EnMin= -898.131183470147     IErMin= 6 ErrMin= 1.58D-04
 ErrMax= 1.58D-04  0.00D+00 EMaxC= 1.00D-01 BMatC= 3.77D-05 BMatP= 1.91D-04
 IDIUse=3 WtCom= 9.98D-01 WtEn= 1.58D-03
 Coeff-Com: -0.164D-02-0.651D-02-0.319D-01-0.495D-01 0.223D+00 0.867D+00
 Coeff-En:   0.000D+00 0.000D+00 0.000D+00 0.000D+00 0.000D+00 0.100D+01
 Coeff:     -0.164D-02-0.650D-02-0.319D-01-0.494D-01 0.223D+00 0.867D+00
 Gap=     0.375 Goal=   None    Shift=    0.000
 Gap=     0.375 Goal=   None    Shift=    0.000
 RMSDP=3.06D-05 MaxDP=7.25D-04 DE=-9.72D-05 OVMax= 3.42D-03

 Cycle   7  Pass 0  IDiag  1:
 RMSU=  1.76D-05    CP:  9.67D-01  6.55D-01  1.02D+00  1.01D+00  1.30D+00
                    CP:  1.20D+00
 E= -898.131212133743     Delta-E=       -0.000028663595 Rises=F Damp=F
 DIIS: error= 1.01D-04 at cycle   7 NSaved=   7.
 NSaved= 7 IEnMin= 7 EnMin= -898.131212133743     IErMin= 7 ErrMin= 1.01D-04
 ErrMax= 1.01D-04  0.00D+00 EMaxC= 1.00D-01 BMatC= 8.02D-06 BMatP= 3.77D-05
 IDIUse=3 WtCom= 9.99D-01 WtEn= 1.01D-03
 Coeff-Com:  0.173D-02 0.213D-02-0.888D-02-0.604D-01-0.150D+00 0.212D+00
 Coeff-Com:  0.100D+01
 Coeff-En:   0.000D+00 0.000D+00 0.000D+00 0.000D+00 0.000D+00 0.000D+00
 Coeff-En:   0.100D+01
 Coeff:      0.173D-02 0.213D-02-0.887D-02-0.604D-01-0.150D+00 0.212D+00
 Coeff:      0.100D+01
 Gap=     0.375 Goal=   None    Shift=    0.000
 Gap=     0.375 Goal=   None    Shift=    0.000
 RMSDP=1.95D-05 MaxDP=5.08D-04 DE=-2.87D-05 OVMax= 2.28D-03

 Cycle   8  Pass 0  IDiag  1:
 RMSU=  6.78D-06    CP:  9.67D-01  6.54D-01  1.02D+00  1.02D+00  1.40D+00
                    CP:  1.53D+00  1.29D+00
 E= -898.131219673192     Delta-E=       -0.000007539450 Rises=F Damp=F
 DIIS: error= 2.89D-05 at cycle   8 NSaved=   8.
 NSaved= 8 IEnMin= 8 EnMin= -898.131219673192     IErMin= 8 ErrMin= 2.89D-05
 ErrMax= 2.89D-05  0.00D+00 EMaxC= 1.00D-01 BMatC= 1.17D-06 BMatP= 8.02D-06
 IDIUse=1 WtCom= 1.00D+00 WtEn= 0.00D+00
 Coeff-Com:  0.777D-03 0.155D-02 0.215D-02-0.127D-01-0.813D-01-0.553D-01
 Coeff-Com:  0.324D+00 0.821D+00
 Coeff:      0.777D-03 0.155D-02 0.215D-02-0.127D-01-0.813D-01-0.553D-01
 Coeff:      0.324D+00 0.821D+00
 Gap=     0.375 Goal=   None    Shift=    0.000
 Gap=     0.375 Goal=   None    Shift=    0.000
 RMSDP=6.16D-06 MaxDP=1.95D-04 DE=-7.54D-06 OVMax= 6.73D-04

 Initial convergence to 1.0D-05 achieved.  Increase integral accuracy.
 Cycle   9  Pass 1  IDiag  1:
 E= -898.131036000334     Delta-E=        0.000183672858 Rises=F Damp=F
 DIIS: error= 7.42D-05 at cycle   1 NSaved=   1.
 NSaved= 1 IEnMin= 1 EnMin= -898.131036000334     IErMin= 1 ErrMin= 7.42D-05
 ErrMax= 7.42D-05  0.00D+00 EMaxC= 1.00D-01 BMatC= 1.78D-06 BMatP= 1.78D-06
 IDIUse=1 WtCom= 1.00D+00 WtEn= 0.00D+00
 Coeff-Com:  0.100D+01
 Coeff:      0.100D+01
 Gap=     0.375 Goal=   None    Shift=    0.000
 Gap=     0.375 Goal=   None    Shift=    0.000
 RMSDP=6.16D-06 MaxDP=1.95D-04 DE= 1.84D-04 OVMax= 1.26D-04

 Cycle  10  Pass 1  IDiag  1:
 RMSU=  3.71D-05    CP:  1.00D+00
 E= -898.131036355089     Delta-E=       -0.000000354754 Rises=F Damp=F
 DIIS: error= 6.44D-06 at cycle   2 NSaved=   2.
 NSaved= 2 IEnMin= 2 EnMin= -898.131036355089     IErMin= 2 ErrMin= 6.44D-06
 ErrMax= 6.44D-06  0.00D+00 EMaxC= 1.00D-01 BMatC= 9.24D-08 BMatP= 1.78D-06
 IDIUse=1 WtCom= 1.00D+00 WtEn= 0.00D+00
 Coeff-Com:  0.475D-01 0.953D+00
 Coeff:      0.475D-01 0.953D+00
 Gap=     0.375 Goal=   None    Shift=    0.000
 Gap=     0.375 Goal=   None    Shift=    0.000
 RMSDP=2.27D-06 MaxDP=4.58D-05 DE=-3.55D-07 OVMax= 8.30D-05

 Cycle  11  Pass 1  IDiag  1:
 RMSU=  1.38D-06    CP:  1.00D+00  1.05D+00
 E= -898.131036376618     Delta-E=       -0.000000021530 Rises=F Damp=F
 DIIS: error= 7.68D-06 at cycle   3 NSaved=   3.
 NSaved= 3 IEnMin= 3 EnMin= -898.131036376618     IErMin= 2 ErrMin= 6.44D-06
 ErrMax= 7.68D-06  0.00D+00 EMaxC= 1.00D-01 BMatC= 7.97D-08 BMatP= 9.24D-08
 IDIUse=1 WtCom= 1.00D+00 WtEn= 0.00D+00
 Coeff-Com: -0.258D-01 0.484D+00 0.542D+00
 Coeff:     -0.258D-01 0.484D+00 0.542D+00
 Gap=     0.375 Goal=   None    Shift=    0.000
 Gap=     0.375 Goal=   None    Shift=    0.000
 RMSDP=6.59D-07 MaxDP=2.15D-05 DE=-2.15D-08 OVMax= 4.16D-05

 Cycle  12  Pass 1  IDiag  1:
 RMSU=  5.37D-07    CP:  1.00D+00  1.05D+00  7.71D-01
 E= -898.131036396376     Delta-E=       -0.000000019758 Rises=F Damp=F
 DIIS: error= 1.68D-06 at cycle   4 NSaved=   4.
 NSaved= 4 IEnMin= 4 EnMin= -898.131036396376     IErMin= 4 ErrMin= 1.68D-06
 ErrMax= 1.68D-06  0.00D+00 EMaxC= 1.00D-01 BMatC= 2.39D-09 BMatP= 7.97D-08
 IDIUse=1 WtCom= 1.00D+00 WtEn= 0.00D+00
 Coeff-Com: -0.134D-02-0.992D-01-0.628D-01 0.116D+01
 Coeff:     -0.134D-02-0.992D-01-0.628D-01 0.116D+01
 Gap=     0.375 Goal=   None    Shift=    0.000
 Gap=     0.375 Goal=   None    Shift=    0.000
 RMSDP=3.44D-07 MaxDP=9.79D-06 DE=-1.98D-08 OVMax= 3.32D-05

 Cycle  13  Pass 1  IDiag  1:
 RMSU=  2.03D-07    CP:  1.00D+00  1.06D+00  8.84D-01  1.42D+00
 E= -898.131036399391     Delta-E=       -0.000000003015 Rises=F Damp=F
 DIIS: error= 1.04D-06 at cycle   5 NSaved=   5.
 NSaved= 5 IEnMin= 5 EnMin= -898.131036399391     IErMin= 5 ErrMin= 1.04D-06
 ErrMax= 1.04D-06  0.00D+00 EMaxC= 1.00D-01 BMatC= 1.13D-09 BMatP= 2.39D-09
 IDIUse=1 WtCom= 1.00D+00 WtEn= 0.00D+00
 Coeff-Com:  0.813D-02-0.210D+00-0.219D+00 0.532D+00 0.889D+00
 Coeff:      0.813D-02-0.210D+00-0.219D+00 0.532D+00 0.889D+00
 Gap=     0.375 Goal=   None    Shift=    0.000
 Gap=     0.375 Goal=   None    Shift=    0.000
 RMSDP=2.31D-07 MaxDP=6.84D-06 DE=-3.01D-09 OVMax= 2.43D-05

 Cycle  14  Pass 1  IDiag  1:
 RMSU=  9.25D-08    CP:  1.00D+00  1.06D+00  9.44D-01  1.76D+00  1.35D+00
 E= -898.131036400359     Delta-E=       -0.000000000968 Rises=F Damp=F
 DIIS: error= 2.18D-07 at cycle   6 NSaved=   6.
 NSaved= 6 IEnMin= 6 EnMin= -898.131036400359     IErMin= 6 ErrMin= 2.18D-07
 ErrMax= 2.18D-07  0.00D+00 EMaxC= 1.00D-01 BMatC= 5.66D-11 BMatP= 1.13D-09
 IDIUse=1 WtCom= 1.00D+00 WtEn= 0.00D+00
 Coeff-Com:  0.159D-02-0.301D-01-0.338D-01-0.214D-02 0.171D+00 0.894D+00
 Coeff:      0.159D-02-0.301D-01-0.338D-01-0.214D-02 0.171D+00 0.894D+00
 Gap=     0.375 Goal=   None    Shift=    0.000
 Gap=     0.375 Goal=   None    Shift=    0.000
 RMSDP=4.69D-08 MaxDP=8.56D-07 DE=-9.68D-10 OVMax= 3.84D-06

 Cycle  15  Pass 1  IDiag  1:
 RMSU=  2.37D-08    CP:  1.00D+00  1.06D+00  9.49D-01  1.79D+00  1.50D+00
                    CP:  1.15D+00
 E= -898.131036400422     Delta-E=       -0.000000000063 Rises=F Damp=F
 DIIS: error= 9.91D-08 at cycle   7 NSaved=   7.
 NSaved= 7 IEnMin= 7 EnMin= -898.131036400422     IErMin= 7 ErrMin= 9.91D-08
 ErrMax= 9.91D-08  0.00D+00 EMaxC= 1.00D-01 BMatC= 1.26D-11 BMatP= 5.66D-11
 IDIUse=1 WtCom= 1.00D+00 WtEn= 0.00D+00
 Coeff-Com: -0.102D-02 0.296D-01 0.307D-01-0.102D+00-0.106D+00 0.281D+00
 Coeff-Com:  0.868D+00
 Coeff:     -0.102D-02 0.296D-01 0.307D-01-0.102D+00-0.106D+00 0.281D+00
 Coeff:      0.868D+00
 Gap=     0.375 Goal=   None    Shift=    0.000
 Gap=     0.375 Goal=   None    Shift=    0.000
 RMSDP=1.97D-08 MaxDP=4.30D-07 DE=-6.30D-11 OVMax= 1.99D-06

 Cycle  16  Pass 1  IDiag  1:
 RMSU=  1.28D-08    CP:  1.00D+00  1.06D+00  9.50D-01  1.80D+00  1.55D+00
                    CP:  1.24D+00  1.16D+00
 E= -898.131036400406     Delta-E=        0.000000000016 Rises=F Damp=F
 DIIS: error= 5.83D-08 at cycle   8 NSaved=   8.
 NSaved= 8 IEnMin= 7 EnMin= -898.131036400422     IErMin= 8 ErrMin= 5.83D-08
 ErrMax= 5.83D-08  0.00D+00 EMaxC= 1.00D-01 BMatC= 1.55D-12 BMatP= 1.26D-11
 IDIUse=1 WtCom= 1.00D+00 WtEn= 0.00D+00
 Coeff-Com: -0.364D-03 0.872D-02 0.953D-02-0.202D-01-0.362D-01-0.675D-01
 Coeff-Com:  0.156D+00 0.950D+00
 Coeff:     -0.364D-03 0.872D-02 0.953D-02-0.202D-01-0.362D-01-0.675D-01
 Coeff:      0.156D+00 0.950D+00
 Gap=     0.375 Goal=   None    Shift=    0.000
 Gap=     0.375 Goal=   None    Shift=    0.000
 RMSDP=7.55D-09 MaxDP=1.89D-07 DE= 1.64D-11 OVMax= 8.20D-07

 SCF Done:  E(ULC-wPBE) =  -898.131036400     A.U. after   16 cycles
            NFock= 16  Conv=0.76D-08     -V/T= 2.0048
 <Sx>= 0.0000 <Sy>= 0.0000 <Sz>= 0.0000 <S**2>=-0.0000 S=-0.0000
 <L.S>= 0.000000000000E+00
 KE= 8.938518332155D+02 PE=-3.783475423092D+03 EE= 1.154253902628D+03
 Annihilation of the first spin contaminant:
 S**2 before annihilation    -0.0000,   after     0.0000
 Leave Link  502 at Fri Jul 24 15:54:09 2020, MaxMem=  4026531840 cpu:             950.8 elap:             119.4
 (Enter /opt/ohpc/pub/libs/gaussian/g16-A.03/sandybridge/g16/l601.exe)
 Copying SCF densities to generalized density rwf, IOpCl= 1 IROHF=0.

 **********************************************************************

            Population analysis using the SCF density.

 **********************************************************************

 Orbital symmetries:
 Alpha Orbitals:
       Occupied  (A) (A) (A) (A) (A) (A) (A) (A) (A) (A) (A) (A)
                 (A) (A) (A) (A) (A) (A) (A) (A) (A) (A) (A) (A)
                 (A) (A) (A) (A) (A) (A) (A) (A) (A) (A) (A) (A)
                 (A) (A) (A) (A) (A) (A) (A) (A) (A) (A) (A) (A)
                 (A) (A)
       Virtual   (A) (A) (A) (A) (A) (A) (A) (A) (A) (A) (A) (A)
                 (A) (A) (A) (A) (A) (A) (A) (A) (A) (A) (A) (A)
                 (A) (A) (A) (A) (A) (A) (A) (A) (A) (A) (A) (A)
                 (A) (A) (A) (A) (A) (A) (A) (A) (A) (A) (A) (A)
                 (A) (A) (A) (A) (A) (A) (A) (A) (A) (A) (A) (A)
                 (A) (A) (A) (A) (A) (A) (A) (A) (A) (A) (A) (A)
                 (A) (A) (A) (A) (A) (A) (A) (A) (A) (A) (A) (A)
                 (A) (A) (A) (A) (A) (A) (A) (A) (A) (A) (A) (A)
                 (A) (A) (A) (A) (A) (A) (A) (A) (A) (A) (A) (A)
                 (A) (A) (A) (A) (A) (A) (A) (A) (A) (A) (A) (A)
                 (A) (A) (A) (A) (A) (A) (A) (A) (A) (A) (A) (A)
                 (A) (A) (A) (A) (A) (A) (A) (A) (A) (A) (A) (A)
                 (A) (A) (A) (A) (A) (A) (A) (A) (A) (A) (A) (A)
                 (A) (A) (A) (A) (A) (A) (A) (A) (A) (A) (A) (A)
                 (A) (A) (A) (A) (A) (A) (A) (A) (A) (A) (A) (A)
                 (A) (A) (A) (A) (A) (A)
 Beta  Orbitals:
       Occupied  (A) (A) (A) (A) (A) (A) (A) (A) (A) (A) (A) (A)
                 (A) (A) (A) (A) (A) (A) (A) (A) (A) (A) (A) (A)
                 (A) (A) (A) (A) (A) (A) (A) (A) (A) (A) (A) (A)
                 (A) (A) (A) (A) (A) (A) (A) (A) (A) (A) (A) (A)
                 (A) (A)
       Virtual   (A) (A) (A) (A) (A) (A) (A) (A) (A) (A) (A) (A)
                 (A) (A) (A) (A) (A) (A) (A) (A) (A) (A) (A) (A)
                 (A) (A) (A) (A) (A) (A) (A) (A) (A) (A) (A) (A)
                 (A) (A) (A) (A) (A) (A) (A) (A) (A) (A) (A) (A)
                 (A) (A) (A) (A) (A) (A) (A) (A) (A) (A) (A) (A)
                 (A) (A) (A) (A) (A) (A) (A) (A) (A) (A) (A) (A)
                 (A) (A) (A) (A) (A) (A) (A) (A) (A) (A) (A) (A)
                 (A) (A) (A) (A) (A) (A) (A) (A) (A) (A) (A) (A)
                 (A) (A) (A) (A) (A) (A) (A) (A) (A) (A) (A) (A)
                 (A) (A) (A) (A) (A) (A) (A) (A) (A) (A) (A) (A)
                 (A) (A) (A) (A) (A) (A) (A) (A) (A) (A) (A) (A)
                 (A) (A) (A) (A) (A) (A) (A) (A) (A) (A) (A) (A)
                 (A) (A) (A) (A) (A) (A) (A) (A) (A) (A) (A) (A)
                 (A) (A) (A) (A) (A) (A) (A) (A) (A) (A) (A) (A)
                 (A) (A) (A) (A) (A) (A) (A) (A) (A) (A) (A) (A)
                 (A) (A) (A) (A) (A) (A)
 The electronic state is 1-A.
 Alpha  occ. eigenvalues --  -88.33267 -19.03506 -10.22100 -10.19728 -10.16894
 Alpha  occ. eigenvalues --  -10.16456 -10.16397 -10.15325 -10.15305 -10.14997
 Alpha  occ. eigenvalues --  -10.14881 -10.14038 -10.13733  -7.94211  -5.95515
 Alpha  occ. eigenvalues --   -5.94969  -5.94595  -1.22408  -1.06537  -1.03184
 Alpha  occ. eigenvalues --   -0.94678  -0.91910  -0.89178  -0.87830  -0.85001
 Alpha  occ. eigenvalues --   -0.76774  -0.75178  -0.69857  -0.69221  -0.66457
 Alpha  occ. eigenvalues --   -0.64296  -0.62606  -0.61762  -0.60166  -0.58198
 Alpha  occ. eigenvalues --   -0.55773  -0.54310  -0.53900  -0.51706  -0.50701
 Alpha  occ. eigenvalues --   -0.49626  -0.49039  -0.48584  -0.45434  -0.44966
 Alpha  occ. eigenvalues --   -0.44133  -0.38347  -0.35372  -0.34385  -0.31454
 Alpha virt. eigenvalues --    0.06016   0.07981   0.10239   0.15374   0.15815
 Alpha virt. eigenvalues --    0.17314   0.17696   0.18034   0.20188   0.20969
 Alpha virt. eigenvalues --    0.21976   0.22345   0.23008   0.23859   0.25220
 Alpha virt. eigenvalues --    0.25853   0.26677   0.29103   0.33810   0.35465
 Alpha virt. eigenvalues --    0.36883   0.40177   0.40729   0.41069   0.44041
 Alpha virt. eigenvalues --    0.44988   0.50894   0.53227   0.54052   0.55416
 Alpha virt. eigenvalues --    0.55700   0.56428   0.57380   0.58439   0.58955
 Alpha virt. eigenvalues --    0.59364   0.60885   0.60998   0.61238   0.61902
 Alpha virt. eigenvalues --    0.62470   0.63272   0.64048   0.64272   0.64879
 Alpha virt. eigenvalues --    0.65548   0.67095   0.68344   0.68940   0.70282
 Alpha virt. eigenvalues --    0.72019   0.72745   0.73570   0.73902   0.75548
 Alpha virt. eigenvalues --    0.76198   0.76564   0.76971   0.78735   0.79249
 Alpha virt. eigenvalues --    0.80747   0.81608   0.82919   0.83787   0.84538
 Alpha virt. eigenvalues --    0.85172   0.86838   0.88850   0.90036   0.92748
 Alpha virt. eigenvalues --    0.95850   0.98470   0.99510   1.01101   1.01275
 Alpha virt. eigenvalues --    1.01788   1.04655   1.05140   1.06341   1.07388
 Alpha virt. eigenvalues --    1.08132   1.08336   1.10433   1.12175   1.14512
 Alpha virt. eigenvalues --    1.14897   1.15762   1.16842   1.17961   1.20345
 Alpha virt. eigenvalues --    1.20995   1.21898   1.24516   1.26568   1.28229
 Alpha virt. eigenvalues --    1.30928   1.32784   1.36488   1.37450   1.41160
 Alpha virt. eigenvalues --    1.42046   1.43362   1.45234   1.49796   1.51058
 Alpha virt. eigenvalues --    1.52163   1.55530   1.55832   1.56921   1.60089
 Alpha virt. eigenvalues --    1.61602   1.62285   1.63457   1.65918   1.67631
 Alpha virt. eigenvalues --    1.68680   1.69912   1.71442   1.72192   1.74316
 Alpha virt. eigenvalues --    1.74452   1.74591   1.76714   1.77878   1.78346
 Alpha virt. eigenvalues --    1.79120   1.79855   1.81959   1.82219   1.82577
 Alpha virt. eigenvalues --    1.85559   1.86801   1.87585   1.89398   1.90056
 Alpha virt. eigenvalues --    1.91991   1.93730   1.95817   1.96003   1.97349
 Alpha virt. eigenvalues --    1.98940   1.99712   2.01216   2.02223   2.04141
 Alpha virt. eigenvalues --    2.06270   2.09012   2.09783   2.10328   2.14954
 Alpha virt. eigenvalues --    2.16213   2.17019   2.19389   2.21003   2.25254
 Alpha virt. eigenvalues --    2.26349   2.26591   2.29966   2.32579   2.35931
 Alpha virt. eigenvalues --    2.39910   2.40289   2.45306   2.49073   2.50577
 Alpha virt. eigenvalues --    2.51912   2.53784   2.57747   2.58628   2.60248
 Alpha virt. eigenvalues --    2.63533   2.69155   2.73899   2.75969   2.79082
 Alpha virt. eigenvalues --    2.83462   2.84246   2.87286   3.01085   3.01797
 Alpha virt. eigenvalues --    3.15306   3.17535   3.29148   3.39575   3.50168
 Alpha virt. eigenvalues --    3.72945
  Beta  occ. eigenvalues --  -88.33267 -19.03506 -10.22100 -10.19728 -10.16894
  Beta  occ. eigenvalues --  -10.16456 -10.16397 -10.15325 -10.15305 -10.14997
  Beta  occ. eigenvalues --  -10.14881 -10.14038 -10.13733  -7.94211  -5.95515
  Beta  occ. eigenvalues --   -5.94969  -5.94595  -1.22408  -1.06537  -1.03184
  Beta  occ. eigenvalues --   -0.94678  -0.91910  -0.89178  -0.87830  -0.85001
  Beta  occ. eigenvalues --   -0.76774  -0.75178  -0.69857  -0.69221  -0.66457
  Beta  occ. eigenvalues --   -0.64296  -0.62606  -0.61762  -0.60166  -0.58198
  Beta  occ. eigenvalues --   -0.55773  -0.54310  -0.53900  -0.51706  -0.50701
  Beta  occ. eigenvalues --   -0.49626  -0.49039  -0.48584  -0.45434  -0.44966
  Beta  occ. eigenvalues --   -0.44133  -0.38347  -0.35372  -0.34385  -0.31454
  Beta virt. eigenvalues --    0.06016   0.07981   0.10239   0.15374   0.15815
  Beta virt. eigenvalues --    0.17314   0.17696   0.18034   0.20188   0.20969
  Beta virt. eigenvalues --    0.21976   0.22345   0.23008   0.23859   0.25220
  Beta virt. eigenvalues --    0.25853   0.26677   0.29103   0.33810   0.35465
  Beta virt. eigenvalues --    0.36883   0.40177   0.40729   0.41069   0.44041
  Beta virt. eigenvalues --    0.44988   0.50894   0.53227   0.54052   0.55416
  Beta virt. eigenvalues --    0.55700   0.56428   0.57380   0.58439   0.58955
  Beta virt. eigenvalues --    0.59364   0.60885   0.60998   0.61238   0.61902
  Beta virt. eigenvalues --    0.62470   0.63272   0.64048   0.64272   0.64879
  Beta virt. eigenvalues --    0.65548   0.67095   0.68344   0.68940   0.70282
  Beta virt. eigenvalues --    0.72019   0.72745   0.73570   0.73902   0.75548
  Beta virt. eigenvalues --    0.76198   0.76564   0.76971   0.78735   0.79249
  Beta virt. eigenvalues --    0.80747   0.81608   0.82919   0.83787   0.84538
  Beta virt. eigenvalues --    0.85172   0.86838   0.88850   0.90036   0.92748
  Beta virt. eigenvalues --    0.95850   0.98470   0.99510   1.01101   1.01275
  Beta virt. eigenvalues --    1.01788   1.04655   1.05140   1.06341   1.07388
  Beta virt. eigenvalues --    1.08132   1.08336   1.10433   1.12175   1.14512
  Beta virt. eigenvalues --    1.14897   1.15762   1.16842   1.17961   1.20345
  Beta virt. eigenvalues --    1.20995   1.21898   1.24516   1.26568   1.28229
  Beta virt. eigenvalues --    1.30928   1.32784   1.36488   1.37450   1.41160
  Beta virt. eigenvalues --    1.42046   1.43362   1.45234   1.49796   1.51058
  Beta virt. eigenvalues --    1.52163   1.55530   1.55832   1.56921   1.60089
  Beta virt. eigenvalues --    1.61602   1.62285   1.63457   1.65918   1.67631
  Beta virt. eigenvalues --    1.68680   1.69912   1.71442   1.72192   1.74316
  Beta virt. eigenvalues --    1.74452   1.74591   1.76714   1.77878   1.78346
  Beta virt. eigenvalues --    1.79120   1.79855   1.81959   1.82219   1.82577
  Beta virt. eigenvalues --    1.85559   1.86801   1.87585   1.89398   1.90056
  Beta virt. eigenvalues --    1.91991   1.93730   1.95817   1.96003   1.97349
  Beta virt. eigenvalues --    1.98940   1.99712   2.01216   2.02223   2.04141
  Beta virt. eigenvalues --    2.06270   2.09012   2.09783   2.10328   2.14954
  Beta virt. eigenvalues --    2.16213   2.17019   2.19389   2.21003   2.25254
  Beta virt. eigenvalues --    2.26349   2.26591   2.29966   2.32579   2.35931
  Beta virt. eigenvalues --    2.39910   2.40289   2.45306   2.49073   2.50577
  Beta virt. eigenvalues --    2.51912   2.53784   2.57747   2.58628   2.60248
  Beta virt. eigenvalues --    2.63533   2.69155   2.73899   2.75969   2.79082
  Beta virt. eigenvalues --    2.83462   2.84246   2.87286   3.01085   3.01797
  Beta virt. eigenvalues --    3.15306   3.17535   3.29148   3.39575   3.50168
  Beta virt. eigenvalues --    3.72945
          Condensed to atoms (all electrons):
               1          2          3          4          5          6
     1  C    4.694056   0.514457  -0.021512  -0.052943  -0.002403   0.003671
     2  C    0.514457   4.786773   0.523989  -0.018859  -0.064114  -0.000042
     3  C   -0.021512   0.523989   4.707139   0.535713  -0.007230   0.002026
     4  C   -0.052943  -0.018859   0.535713   5.076350   0.462754  -0.075217
     5  C   -0.002403  -0.064114  -0.007230   0.462754   4.867166   0.461537
     6  O    0.003671  -0.000042   0.002026  -0.075217   0.461537   7.681570
     7  C    0.001076  -0.000014  -0.000029   0.007177  -0.075099   0.340861
     8  C    0.525864  -0.018375  -0.071736  -0.033808   0.381635  -0.067493
     9  C   -0.000347   0.007734  -0.094932   0.303957  -0.083332   0.003408
    10  C   -0.000034  -0.000172   0.003393  -0.061724  -0.007843   0.003928
    11  C   -0.000000   0.000003  -0.000310   0.004682  -0.000036  -0.000002
    12  C   -0.000000  -0.000001   0.000162   0.003134  -0.000060   0.000036
    13  S    0.000029   0.000079  -0.006912  -0.063791   0.003516  -0.000008
    14  H    0.399569  -0.047780   0.007431  -0.000254   0.008394  -0.000055
    15  H   -0.042257   0.403631  -0.037834   0.007950  -0.000132   0.000002
    16  H    0.009026  -0.037835   0.411729  -0.042721   0.010882  -0.000044
    17  H    0.000143  -0.000032  -0.000099   0.000303  -0.009992  -0.034340
    18  H    0.000159   0.000013  -0.000097  -0.000290  -0.006740  -0.031837
    19  H   -0.000013  -0.000001   0.000020  -0.000122   0.002823  -0.017681
    20  H   -0.023419   0.008229   0.000347   0.005193  -0.045863  -0.005664
    21  H   -0.000018  -0.000000   0.000190  -0.013443   0.001036   0.002750
    22  H    0.000000  -0.000000   0.000001  -0.000200   0.000002  -0.000002
    23  H    0.000000  -0.000000  -0.000003  -0.000165   0.000004   0.000000
               7          8          9         10         11         12
     1  C    0.001076   0.525864  -0.000347  -0.000034  -0.000000  -0.000000
     2  C   -0.000014  -0.018375   0.007734  -0.000172   0.000003  -0.000001
     3  C   -0.000029  -0.071736  -0.094932   0.003393  -0.000310   0.000162
     4  C    0.007177  -0.033808   0.303957  -0.061724   0.004682   0.003134
     5  C   -0.075099   0.381635  -0.083332  -0.007843  -0.000036  -0.000060
     6  O    0.340861  -0.067493   0.003408   0.003928  -0.000002   0.000036
     7  C    4.464183  -0.001695  -0.000221  -0.000099   0.000001  -0.000002
     8  C   -0.001695   4.919370   0.013677   0.000485   0.000002   0.000003
     9  C   -0.000221   0.013677   5.236017   0.582121  -0.041944  -0.106859
    10  C   -0.000099   0.000485   0.582121   4.709896   0.502704  -0.042254
    11  C    0.000001   0.000002  -0.041944   0.502704   4.697793   0.576908
    12  C   -0.000002   0.000003  -0.106859  -0.042254   0.576908   4.986564
    13  S    0.000002  -0.000153   0.375894  -0.103101  -0.101910   0.386550
    14  H   -0.000012  -0.031412   0.000017   0.000001   0.000000  -0.000000
    15  H   -0.000000   0.008217  -0.000285   0.000000   0.000000   0.000000
    16  H    0.000009  -0.001356  -0.019138   0.000742  -0.000111  -0.000194
    17  H    0.396568   0.010372   0.000005   0.000029   0.000002   0.000000
    18  H    0.402519   0.007469   0.000253  -0.000018  -0.000003   0.000000
    19  H    0.406927  -0.000227  -0.000062   0.000043   0.000002  -0.000001
    20  H    0.004560   0.393290  -0.000348  -0.000003  -0.000000   0.000000
    21  H   -0.000127   0.000102  -0.047178   0.416448  -0.042837   0.008219
    22  H   -0.000000  -0.000000   0.007310  -0.041307   0.415493  -0.045630
    23  H   -0.000000  -0.000000   0.001966   0.006761  -0.018285   0.400966
              13         14         15         16         17         18
     1  C    0.000029   0.399569  -0.042257   0.009026   0.000143   0.000159
     2  C    0.000079  -0.047780   0.403631  -0.037835  -0.000032   0.000013
     3  C   -0.006912   0.007431  -0.037834   0.411729  -0.000099  -0.000097
     4  C   -0.063791  -0.000254   0.007950  -0.042721   0.000303  -0.000290
     5  C    0.003516   0.008394  -0.000132   0.010882  -0.009992  -0.006740
     6  O   -0.000008  -0.000055   0.000002  -0.000044  -0.034340  -0.031837
     7  C    0.000002  -0.000012  -0.000000   0.000009   0.396568   0.402519
     8  C   -0.000153  -0.031412   0.008217  -0.001356   0.010372   0.007469
     9  C    0.375894   0.000017  -0.000285  -0.019138   0.000005   0.000253
    10  C   -0.103101   0.000001   0.000000   0.000742   0.000029  -0.000018
    11  C   -0.101910   0.000000   0.000000  -0.000111   0.000002  -0.000003
    12  C    0.386550  -0.000000   0.000000  -0.000194   0.000000   0.000000
    13  S   15.380654  -0.000000  -0.000007   0.004696  -0.000002   0.000002
    14  H   -0.000000   0.669676  -0.010401  -0.000226   0.000016   0.000017
    15  H   -0.000007  -0.010401   0.654663  -0.010929  -0.000000   0.000001
    16  H    0.004696  -0.000226  -0.010929   0.670964  -0.000000  -0.000001
    17  H   -0.000002   0.000016  -0.000000  -0.000000   0.644571  -0.040147
    18  H    0.000002   0.000017   0.000001  -0.000001  -0.040147   0.649891
    19  H   -0.000002  -0.000000  -0.000000   0.000000  -0.021790  -0.024593
    20  H    0.000002  -0.016062  -0.000177   0.000038   0.001311   0.000453
    21  H    0.007785  -0.000000   0.000000  -0.000021   0.000029  -0.000013
    22  H    0.007203  -0.000000   0.000000  -0.000001   0.000000  -0.000000
    23  H   -0.037487  -0.000000  -0.000000   0.000000  -0.000000   0.000000
              19         20         21         22         23
     1  C   -0.000013  -0.023419  -0.000018   0.000000   0.000000
     2  C   -0.000001   0.008229  -0.000000  -0.000000  -0.000000
     3  C    0.000020   0.000347   0.000190   0.000001  -0.000003
     4  C   -0.000122   0.005193  -0.013443  -0.000200  -0.000165
     5  C    0.002823  -0.045863   0.001036   0.000002   0.000004
     6  O   -0.017681  -0.005664   0.002750  -0.000002   0.000000
     7  C    0.406927   0.004560  -0.000127  -0.000000  -0.000000
     8  C   -0.000227   0.393290   0.000102  -0.000000  -0.000000
     9  C   -0.000062  -0.000348  -0.047178   0.007310   0.001966
    10  C    0.000043  -0.000003   0.416448  -0.041307   0.006761
    11  C    0.000002  -0.000000  -0.042837   0.415493  -0.018285
    12  C   -0.000001   0.000000   0.008219  -0.045630   0.400966
    13  S   -0.000002   0.000002   0.007785   0.007203  -0.037487
    14  H   -0.000000  -0.016062  -0.000000  -0.000000  -0.000000
    15  H   -0.000000  -0.000177   0.000000   0.000000  -0.000000
    16  H    0.000000   0.000038  -0.000021  -0.000001   0.000000
    17  H   -0.021790   0.001311   0.000029   0.000000  -0.000000
    18  H   -0.024593   0.000453  -0.000013  -0.000000   0.000000
    19  H    0.583968  -0.000195  -0.000038   0.000000  -0.000000
    20  H   -0.000195   0.664396   0.000006  -0.000000   0.000000
    21  H   -0.000038   0.000006   0.657159  -0.005984  -0.000144
    22  H    0.000000  -0.000000  -0.005984   0.652065  -0.007901
    23  H   -0.000000   0.000000  -0.000144  -0.007901   0.599845
          Atomic-Atomic Spin Densities.
               1          2          3          4          5          6
     1  C   -0.000000   0.000000  -0.000000   0.000000   0.000000   0.000000
     2  C    0.000000  -0.000000   0.000000  -0.000000   0.000000  -0.000000
     3  C   -0.000000   0.000000   0.000000  -0.000000   0.000000  -0.000000
     4  C    0.000000  -0.000000  -0.000000  -0.000000   0.000000   0.000000
     5  C    0.000000   0.000000   0.000000   0.000000  -0.000000  -0.000000
     6  O    0.000000  -0.000000  -0.000000   0.000000  -0.000000   0.000000
     7  C   -0.000000   0.000000   0.000000   0.000000   0.000000  -0.000000
     8  C    0.000000  -0.000000   0.000000  -0.000000   0.000000   0.000000
     9  C    0.000000  -0.000000   0.000000  -0.000000   0.000000   0.000000
    10  C    0.000000  -0.000000  -0.000000   0.000000   0.000000  -0.000000
    11  C   -0.000000  -0.000000  -0.000000  -0.000000   0.000000   0.000000
    12  C    0.000000   0.000000   0.000000  -0.000000   0.000000  -0.000000
    13  S   -0.000000   0.000000  -0.000000   0.000000  -0.000000  -0.000000
    14  H   -0.000000   0.000000   0.000000  -0.000000   0.000000   0.000000
    15  H    0.000000  -0.000000   0.000000  -0.000000   0.000000  -0.000000
    16  H   -0.000000   0.000000  -0.000000   0.000000  -0.000000  -0.000000
    17  H   -0.000000  -0.000000   0.000000  -0.000000   0.000000   0.000000
    18  H   -0.000000  -0.000000   0.000000   0.000000   0.000000  -0.000000
    19  H    0.000000   0.000000  -0.000000  -0.000000  -0.000000  -0.000000
    20  H    0.000000   0.000000  -0.000000  -0.000000  -0.000000   0.000000
    21  H   -0.000000   0.000000   0.000000   0.000000  -0.000000  -0.000000
    22  H    0.000000  -0.000000   0.000000  -0.000000  -0.000000   0.000000
    23  H   -0.000000   0.000000   0.000000  -0.000000  -0.000000  -0.000000
               7          8          9         10         11         12
     1  C   -0.000000   0.000000   0.000000   0.000000  -0.000000   0.000000
     2  C    0.000000  -0.000000  -0.000000  -0.000000  -0.000000   0.000000
     3  C    0.000000   0.000000   0.000000  -0.000000  -0.000000   0.000000
     4  C    0.000000  -0.000000  -0.000000   0.000000  -0.000000  -0.000000
     5  C    0.000000   0.000000   0.000000   0.000000   0.000000   0.000000
     6  O   -0.000000   0.000000   0.000000  -0.000000   0.000000  -0.000000
     7  C    0.000000  -0.000000   0.000000  -0.000000  -0.000000   0.000000
     8  C   -0.000000   0.000000  -0.000000  -0.000000   0.000000  -0.000000
     9  C    0.000000  -0.000000  -0.000000   0.000000  -0.000000   0.000000
    10  C   -0.000000  -0.000000   0.000000  -0.000000   0.000000  -0.000000
    11  C   -0.000000   0.000000  -0.000000   0.000000   0.000000   0.000000
    12  C    0.000000  -0.000000   0.000000  -0.000000   0.000000  -0.000000
    13  S    0.000000   0.000000   0.000000  -0.000000  -0.000000  -0.000000
    14  H    0.000000  -0.000000  -0.000000   0.000000   0.000000  -0.000000
    15  H    0.000000  -0.000000   0.000000  -0.000000  -0.000000   0.000000
    16  H   -0.000000   0.000000  -0.000000  -0.000000   0.000000   0.000000
    17  H    0.000000  -0.000000  -0.000000  -0.000000   0.000000  -0.000000
    18  H    0.000000  -0.000000   0.000000  -0.000000  -0.000000   0.000000
    19  H   -0.000000   0.000000   0.000000   0.000000   0.000000  -0.000000
    20  H   -0.000000   0.000000   0.000000  -0.000000  -0.000000   0.000000
    21  H    0.000000  -0.000000   0.000000  -0.000000   0.000000  -0.000000
    22  H   -0.000000  -0.000000  -0.000000   0.000000  -0.000000   0.000000
    23  H   -0.000000   0.000000   0.000000  -0.000000   0.000000  -0.000000
              13         14         15         16         17         18
     1  C   -0.000000  -0.000000   0.000000  -0.000000  -0.000000  -0.000000
     2  C    0.000000   0.000000  -0.000000   0.000000  -0.000000  -0.000000
     3  C   -0.000000   0.000000   0.000000  -0.000000   0.000000   0.000000
     4  C    0.000000  -0.000000  -0.000000   0.000000  -0.000000   0.000000
     5  C   -0.000000   0.000000   0.000000  -0.000000   0.000000   0.000000
     6  O   -0.000000   0.000000  -0.000000  -0.000000   0.000000  -0.000000
     7  C    0.000000   0.000000   0.000000  -0.000000   0.000000   0.000000
     8  C    0.000000  -0.000000  -0.000000   0.000000  -0.000000  -0.000000
     9  C    0.000000  -0.000000   0.000000  -0.000000  -0.000000   0.000000
    10  C   -0.000000   0.000000  -0.000000  -0.000000  -0.000000  -0.000000
    11  C   -0.000000   0.000000  -0.000000   0.000000   0.000000  -0.000000
    12  C   -0.000000  -0.000000   0.000000   0.000000  -0.000000   0.000000
    13  S    0.000000  -0.000000   0.000000  -0.000000   0.000000  -0.000000
    14  H   -0.000000   0.000000   0.000000  -0.000000  -0.000000   0.000000
    15  H    0.000000   0.000000  -0.000000   0.000000   0.000000  -0.000000
    16  H   -0.000000  -0.000000   0.000000  -0.000000   0.000000  -0.000000
    17  H    0.000000  -0.000000   0.000000   0.000000  -0.000000   0.000000
    18  H   -0.000000   0.000000  -0.000000  -0.000000   0.000000  -0.000000
    19  H   -0.000000  -0.000000   0.000000  -0.000000   0.000000  -0.000000
    20  H    0.000000  -0.000000  -0.000000   0.000000  -0.000000  -0.000000
    21  H   -0.000000   0.000000   0.000000  -0.000000  -0.000000   0.000000
    22  H   -0.000000  -0.000000  -0.000000   0.000000   0.000000  -0.000000
    23  H   -0.000000  -0.000000   0.000000  -0.000000  -0.000000  -0.000000
              19         20         21         22         23
     1  C    0.000000   0.000000  -0.000000   0.000000  -0.000000
     2  C    0.000000   0.000000   0.000000  -0.000000   0.000000
     3  C   -0.000000  -0.000000   0.000000   0.000000   0.000000
     4  C   -0.000000  -0.000000   0.000000  -0.000000  -0.000000
     5  C   -0.000000  -0.000000  -0.000000  -0.000000  -0.000000
     6  O   -0.000000   0.000000  -0.000000   0.000000  -0.000000
     7  C   -0.000000  -0.000000   0.000000  -0.000000  -0.000000
     8  C    0.000000   0.000000  -0.000000  -0.000000   0.000000
     9  C    0.000000   0.000000   0.000000  -0.000000   0.000000
    10  C    0.000000  -0.000000  -0.000000   0.000000  -0.000000
    11  C    0.000000  -0.000000   0.000000  -0.000000   0.000000
    12  C   -0.000000   0.000000  -0.000000   0.000000  -0.000000
    13  S   -0.000000   0.000000  -0.000000  -0.000000  -0.000000
    14  H   -0.000000  -0.000000   0.000000  -0.000000  -0.000000
    15  H    0.000000  -0.000000   0.000000  -0.000000   0.000000
    16  H   -0.000000   0.000000  -0.000000   0.000000  -0.000000
    17  H    0.000000  -0.000000  -0.000000   0.000000  -0.000000
    18  H   -0.000000  -0.000000   0.000000  -0.000000  -0.000000
    19  H   -0.000000   0.000000  -0.000000   0.000000  -0.000000
    20  H    0.000000  -0.000000  -0.000000  -0.000000   0.000000
    21  H   -0.000000  -0.000000  -0.000000   0.000000  -0.000000
    22  H    0.000000  -0.000000   0.000000  -0.000000   0.000000
    23  H   -0.000000   0.000000  -0.000000   0.000000  -0.000000
 Mulliken charges and spin densities:
               1          2
     1  C   -0.005104   0.000000
     2  C   -0.057682  -0.000000
     3  C    0.048556   0.000000
     4  C   -0.043676   0.000000
     5  C    0.103095  -0.000000
     6  O   -0.267406   0.000000
     7  C    0.053414   0.000000
     8  C   -0.034231   0.000000
     9  C   -0.137713   0.000000
    10  C    0.030004  -0.000000
    11  C    0.007848   0.000000
    12  C   -0.167541  -0.000000
    13  S    0.146963   0.000000
    14  H    0.021083   0.000000
    15  H    0.027556  -0.000000
    16  H    0.004494  -0.000000
    17  H    0.053053  -0.000000
    18  H    0.042965  -0.000000
    19  H    0.070943  -0.000000
    20  H    0.013907  -0.000000
    21  H    0.016078  -0.000000
    22  H    0.018953  -0.000000
    23  H    0.054441  -0.000000
 Sum of Mulliken charges =  -0.00000   0.00000
 Mulliken charges and spin densities with hydrogens summed into heavy atoms:
               1          2
     1  C    0.015978   0.000000
     2  C   -0.030126  -0.000000
     3  C    0.053050   0.000000
     4  C   -0.043676   0.000000
     5  C    0.103095  -0.000000
     6  O   -0.267406   0.000000
     7  C    0.220375   0.000000
     8  C   -0.020324   0.000000
     9  C   -0.137713   0.000000
    10  C    0.046082  -0.000000
    11  C    0.026800   0.000000
    12  C   -0.113099  -0.000000
    13  S    0.146963   0.000000
 Electronic spatial extent (au):  <R**2>=           2764.9161
 Charge=             -0.0000 electrons
 Dipole moment (field-independent basis, Debye):
    X=             -1.4095    Y=              1.2117    Z=              0.2054  Tot=              1.8700
 Quadrupole moment (field-independent basis, Debye-Ang):
   XX=            -69.3798   YY=            -74.0334   ZZ=            -84.6887
   XY=             -2.3553   XZ=              0.9409   YZ=              0.5488
 Traceless Quadrupole moment (field-independent basis, Debye-Ang):
   XX=              6.6542   YY=              2.0006   ZZ=             -8.6547
   XY=             -2.3553   XZ=              0.9409   YZ=              0.5488
 Octapole moment (field-independent basis, Debye-Ang**2):
  XXX=              4.6863  YYY=             17.9104  ZZZ=             -2.1676  XYY=            -20.5722
  XXY=             14.9842  XXZ=             -6.0056  XZZ=              4.7806  YZZ=             11.0006
  YYZ=             -0.0880  XYZ=              7.7818
 Hexadecapole moment (field-independent basis, Debye-Ang**3):
 XXXX=          -2172.5540 YYYY=           -942.4364 ZZZZ=           -249.1877 XXXY=             -1.6728
 XXXZ=            -20.8235 YYYX=            -32.9616 YYYZ=            -17.0435 ZZZX=              3.8743
 ZZZY=              7.4198 XXYY=           -549.7202 XXZZ=           -464.0784 YYZZ=           -220.2170
 XXYZ=             16.4813 YYXZ=              8.9581 ZZXY=             -9.7422
 N-N= 8.372386508480D+02 E-N=-3.783475424536D+03  KE= 8.938518332155D+02
                          Isotropic Fermi Contact Couplings
        Atom                 a.u.       MegaHertz       Gauss      10(-4) cm-1
     1  C(13)             -0.00000      -0.00000      -0.00000      -0.00000
     2  C(13)              0.00000       0.00000       0.00000       0.00000
     3  C(13)              0.00000       0.00000       0.00000       0.00000
     4  C(13)             -0.00000      -0.00000      -0.00000      -0.00000
     5  C(13)             -0.00000      -0.00000      -0.00000      -0.00000
     6  O(17)              0.00000      -0.00000      -0.00000      -0.00000
     7  C(13)              0.00000       0.00000       0.00000       0.00000
     8  C(13)             -0.00000      -0.00000      -0.00000      -0.00000
     9  C(13)             -0.00000      -0.00000      -0.00000      -0.00000
    10  C(13)              0.00000       0.00000       0.00000       0.00000
    11  C(13)             -0.00000      -0.00000      -0.00000      -0.00000
    12  C(13)              0.00000       0.00000       0.00000       0.00000
    13  S(33)              0.00000       0.00000       0.00000       0.00000
    14  H(1)               0.00000       0.00000       0.00000       0.00000
    15  H(1)              -0.00000      -0.00000      -0.00000      -0.00000
    16  H(1)              -0.00000      -0.00000      -0.00000      -0.00000
    17  H(1)              -0.00000      -0.00000      -0.00000      -0.00000
    18  H(1)              -0.00000      -0.00000      -0.00000      -0.00000
    19  H(1)              -0.00000      -0.00000      -0.00000      -0.00000
    20  H(1)              -0.00000      -0.00000      -0.00000      -0.00000
    21  H(1)               0.00000       0.00000       0.00000       0.00000
    22  H(1)              -0.00000      -0.00000      -0.00000      -0.00000
    23  H(1)              -0.00000      -0.00000      -0.00000      -0.00000
 --------------------------------------------------------
       Center         ----  Spin Dipole Couplings  ----
                      3XX-RR        3YY-RR        3ZZ-RR
 --------------------------------------------------------
     1   Atom       -0.000000      0.000000      0.000000
     2   Atom        0.000000     -0.000000      0.000000
     3   Atom        0.000000      0.000000     -0.000000
     4   Atom       -0.000000     -0.000000      0.000000
     5   Atom        0.000000     -0.000000     -0.000000
     6   Atom        0.000000     -0.000000      0.000000
     7   Atom        0.000000     -0.000000     -0.000000
     8   Atom        0.000000     -0.000000     -0.000000
     9   Atom       -0.000000      0.000000      0.000000
    10   Atom        0.000000     -0.000000     -0.000000
    11   Atom       -0.000000      0.000000      0.000000
    12   Atom       -0.000000     -0.000000      0.000000
    13   Atom        0.000000     -0.000000     -0.000000
    14   Atom       -0.000000      0.000000     -0.000000
    15   Atom       -0.000000      0.000000     -0.000000
    16   Atom        0.000000     -0.000000      0.000000
    17   Atom       -0.000000     -0.000000      0.000000
    18   Atom        0.000000      0.000000     -0.000000
    19   Atom       -0.000000      0.000000     -0.000000
    20   Atom        0.000000     -0.000000     -0.000000
    21   Atom        0.000000      0.000000     -0.000000
    22   Atom       -0.000000      0.000000     -0.000000
    23   Atom        0.000000      0.000000     -0.000000
 --------------------------------------------------------
                        XY            XZ            YZ
 --------------------------------------------------------
     1   Atom       -0.000000     -0.000000     -0.000000
     2   Atom       -0.000000     -0.000000      0.000000
     3   Atom        0.000000      0.000000     -0.000000
     4   Atom        0.000000     -0.000000      0.000000
     5   Atom       -0.000000      0.000000      0.000000
     6   Atom        0.000000      0.000000     -0.000000
     7   Atom       -0.000000      0.000000     -0.000000
     8   Atom       -0.000000      0.000000      0.000000
     9   Atom       -0.000000      0.000000      0.000000
    10   Atom       -0.000000     -0.000000     -0.000000
    11   Atom       -0.000000     -0.000000     -0.000000
    12   Atom       -0.000000      0.000000      0.000000
    13   Atom        0.000000     -0.000000      0.000000
    14   Atom       -0.000000      0.000000     -0.000000
    15   Atom        0.000000      0.000000      0.000000
    16   Atom       -0.000000     -0.000000      0.000000
    17   Atom        0.000000      0.000000     -0.000000
    18   Atom       -0.000000     -0.000000      0.000000
    19   Atom        0.000000     -0.000000     -0.000000
    20   Atom       -0.000000     -0.000000     -0.000000
    21   Atom        0.000000      0.000000     -0.000000
    22   Atom       -0.000000     -0.000000     -0.000000
    23   Atom        0.000000     -0.000000     -0.000000
 --------------------------------------------------------


 ---------------------------------------------------------------------------------
              Anisotropic Spin Dipole Couplings in Principal Axis System
 ---------------------------------------------------------------------------------

       Atom             a.u.   MegaHertz   Gauss  10(-4) cm-1        Axes

              Baa    -0.0000    -0.000    -0.000    -0.000  0.9509  0.2895  0.1090
     1 C(13)  Bbb     0.0000     0.000     0.000     0.000 -0.1427  0.0977  0.9849
              Bcc     0.0000     0.000     0.000     0.000 -0.2745  0.9522 -0.1343
 
              Baa    -0.0000    -0.000    -0.000    -0.000  0.2482  0.9686 -0.0164
     2 C(13)  Bbb     0.0000     0.000     0.000     0.000  0.9647 -0.2456  0.0945
              Bcc     0.0000     0.000     0.000     0.000 -0.0875  0.0393  0.9954
 
              Baa    -0.0000    -0.000    -0.000    -0.000 -0.0328  0.1684  0.9852
     3 C(13)  Bbb    -0.0000    -0.000    -0.000    -0.000  0.9871 -0.1493  0.0583
              Bcc     0.0000     0.000     0.000     0.000  0.1569  0.9744 -0.1613
 
              Baa    -0.0000    -0.000    -0.000    -0.000  0.9285 -0.3619  0.0833
     4 C(13)  Bbb    -0.0000    -0.000    -0.000    -0.000  0.3645  0.9311 -0.0171
              Bcc     0.0000     0.000     0.000     0.000 -0.0714  0.0462  0.9964
 
              Baa    -0.0000    -0.000    -0.000    -0.000  0.5938  0.7143 -0.3705
     5 C(13)  Bbb    -0.0000    -0.000    -0.000    -0.000  0.1342  0.3660  0.9209
              Bcc     0.0000     0.000     0.000     0.000  0.7934 -0.5965  0.1215
 
              Baa    -0.0000     0.000     0.000     0.000 -0.2339  0.9285  0.2883
     6 O(17)  Bbb     0.0000    -0.000    -0.000    -0.000 -0.2908 -0.3497  0.8906
              Bcc     0.0000    -0.000    -0.000    -0.000  0.9278  0.1244  0.3518
 
              Baa    -0.0000    -0.000    -0.000    -0.000 -0.0515  0.7916  0.6089
     7 C(13)  Bbb    -0.0000    -0.000    -0.000    -0.000 -0.3424 -0.5867  0.7338
              Bcc     0.0000     0.000     0.000     0.000  0.9381 -0.1707  0.3012
 
              Baa    -0.0000    -0.000    -0.000    -0.000  0.4624  0.8581 -0.2233
     8 C(13)  Bbb    -0.0000    -0.000    -0.000    -0.000  0.0028  0.2504  0.9681
              Bcc     0.0000     0.000     0.000     0.000  0.8867 -0.4483  0.1134
 
              Baa    -0.0000    -0.000    -0.000    -0.000  0.8638  0.4505 -0.2257
     9 C(13)  Bbb     0.0000     0.000     0.000     0.000 -0.3469  0.8566  0.3821
              Bcc     0.0000     0.000     0.000     0.000  0.3654 -0.2518  0.8961
 
              Baa    -0.0000    -0.000    -0.000    -0.000  0.1646  0.4947  0.8533
[...]
    20  H   -0.000000   0.000000  -0.000000  -0.000000   0.000000   0.000000
    21  H    0.000000  -0.000000  -0.000000   0.000000  -0.000000   0.000000
    22  H    0.000000  -0.000000  -0.000000   0.000000  -0.000000   0.000000
    23  H    0.000000  -0.000000   0.000000  -0.000000   0.000000   0.000000
              13         14         15         16         17         18
     1  C    0.000000   0.000000  -0.000000  -0.000000   0.000000   0.000000
     2  C   -0.000000  -0.000000   0.000000   0.000000  -0.000000  -0.000000
     3  C    0.000000   0.000000  -0.000000  -0.000000   0.000000   0.000000
     4  C   -0.000000  -0.000000   0.000000   0.000000  -0.000000  -0.000000
     5  C    0.000000   0.000000  -0.000000   0.000000  -0.000000   0.000000
     6  O   -0.000000  -0.000000   0.000000  -0.000000  -0.000000   0.000000
     7  C    0.000000   0.000000  -0.000000  -0.000000   0.000000   0.000000
     8  C   -0.000000  -0.000000   0.000000   0.000000   0.000000  -0.000000
     9  C   -0.000000   0.000000  -0.000000   0.000000  -0.000000  -0.000000
    10  C    0.000000   0.000000   0.000000   0.000000   0.000000   0.000000
    11  C   -0.000000  -0.000000  -0.000000  -0.000000   0.000000   0.000000
    12  C   -0.000000  -0.000000   0.000000  -0.000000  -0.000000  -0.000000
    13  S    0.000000   0.000000  -0.000000   0.000000  -0.000000  -0.000000
    14  H    0.000000   0.000000  -0.000000   0.000000   0.000000   0.000000
    15  H   -0.000000  -0.000000  -0.000000  -0.000000  -0.000000  -0.000000
    16  H    0.000000   0.000000  -0.000000  -0.000000   0.000000   0.000000
    17  H   -0.000000   0.000000  -0.000000   0.000000  -0.000000   0.000000
    18  H   -0.000000   0.000000  -0.000000   0.000000   0.000000  -0.000000
    19  H    0.000000  -0.000000   0.000000  -0.000000   0.000000   0.000000
    20  H   -0.000000  -0.000000   0.000000  -0.000000  -0.000000  -0.000000
    21  H    0.000000   0.000000  -0.000000   0.000000  -0.000000  -0.000000
    22  H   -0.000000   0.000000  -0.000000   0.000000   0.000000   0.000000
    23  H    0.000000   0.000000  -0.000000   0.000000  -0.000000  -0.000000
              19         20         21         22         23
     1  C    0.000000  -0.000000   0.000000   0.000000   0.000000
     2  C    0.000000   0.000000  -0.000000  -0.000000  -0.000000
     3  C   -0.000000  -0.000000   0.000000   0.000000  -0.000000
     4  C   -0.000000   0.000000   0.000000   0.000000   0.000000
     5  C    0.000000  -0.000000  -0.000000  -0.000000   0.000000
     6  O   -0.000000   0.000000  -0.000000  -0.000000  -0.000000
     7  C    0.000000  -0.000000   0.000000   0.000000   0.000000
     8  C    0.000000   0.000000  -0.000000  -0.000000  -0.000000
     9  C    0.000000  -0.000000  -0.000000  -0.000000   0.000000
    10  C   -0.000000  -0.000000   0.000000   0.000000  -0.000000
    11  C   -0.000000   0.000000  -0.000000  -0.000000   0.000000
    12  C    0.000000   0.000000   0.000000   0.000000   0.000000
    13  S    0.000000  -0.000000   0.000000  -0.000000   0.000000
    14  H   -0.000000  -0.000000   0.000000   0.000000   0.000000
    15  H    0.000000   0.000000  -0.000000  -0.000000  -0.000000
    16  H   -0.000000  -0.000000   0.000000   0.000000   0.000000
    17  H    0.000000  -0.000000  -0.000000   0.000000  -0.000000
    18  H    0.000000  -0.000000  -0.000000   0.000000  -0.000000
    19  H   -0.000000   0.000000   0.000000   0.000000   0.000000
    20  H    0.000000   0.000000  -0.000000  -0.000000  -0.000000
    21  H    0.000000  -0.000000   0.000000   0.000000  -0.000000
    22  H    0.000000  -0.000000   0.000000  -0.000000   0.000000
    23  H    0.000000  -0.000000  -0.000000   0.000000  -0.000000
 Mulliken charges and spin densities:
               1          2
     1  C    0.003073  -0.000000
     2  C   -0.002271   0.000000
     3  C   -0.006043  -0.000000
     4  C    0.006397   0.000000
     5  C    0.104276  -0.000000
     6  O   -0.259779  -0.000000
     7  C    0.036947   0.000000
     8  C   -0.058120   0.000000
     9  C   -0.148197  -0.000000
    10  C    0.004181  -0.000000
    11  C    0.036428   0.000000
    12  C   -0.153470   0.000000
    13  S    0.145557   0.000000
    14  H    0.011695   0.000000
    15  H    0.008064   0.000000
    16  H    0.016011  -0.000000
    17  H    0.054572   0.000000
    18  H    0.053191  -0.000000
    19  H    0.066233  -0.000000
    20  H    0.014450   0.000000
    21  H    0.010275   0.000000
    22  H    0.012328  -0.000000
    23  H    0.044201  -0.000000
 Sum of Mulliken charges =  -0.00000   0.00000
 Mulliken charges and spin densities with hydrogens summed into heavy atoms:
               1          2
     1  C    0.014768  -0.000000
     2  C    0.005793   0.000000
     3  C    0.009968  -0.000000
     4  C    0.006397   0.000000
     5  C    0.104276  -0.000000
     6  O   -0.259779  -0.000000
     7  C    0.210943  -0.000000
     8  C   -0.043669   0.000000
     9  C   -0.148197  -0.000000
    10  C    0.014456  -0.000000
    11  C    0.048756   0.000000
    12  C   -0.109269  -0.000000
    13  S    0.145557   0.000000
 Electronic spatial extent (au):  <R**2>=           2774.2214
 Charge=             -0.0000 electrons
 Dipole moment (field-independent basis, Debye):
    X=             -1.5180    Y=              1.4097    Z=              0.0163  Tot=              2.0717
 Quadrupole moment (field-independent basis, Debye-Ang):
   XX=            -69.2001   YY=            -72.7032   ZZ=            -86.4879
   XY=             -2.6393   XZ=              0.7895   YZ=              0.3645
 Traceless Quadrupole moment (field-independent basis, Debye-Ang):
   XX=              6.9303   YY=              3.4272   ZZ=            -10.3575
   XY=             -2.6393   XZ=              0.7895   YZ=              0.3645
 Octapole moment (field-independent basis, Debye-Ang**2):
  XXX=              1.0494  YYY=             20.1584  ZZZ=             -4.1106  XYY=            -17.2603
  XXY=             13.3216  XXZ=             -6.5524  XZZ=             -0.7992  YZZ=              8.3394
  YYZ=              2.3652  XYZ=              7.4967
 Hexadecapole moment (field-independent basis, Debye-Ang**3):
 XXXX=          -2201.1040 YYYY=          -1011.2805 ZZZZ=           -168.0618 XXXY=            -19.5988
 XXXZ=            -13.6256 YYYX=            -25.8286 YYYZ=             -9.5515 ZZZX=              0.6020
 ZZZY=              0.6126 XXYY=           -544.2550 XXZZ=           -470.9554 YYZZ=           -218.6936
 XXYZ=             10.4393 YYXZ=              9.9216 ZZXY=            -15.2823
 N-N= 8.394361265052D+02 E-N=-3.787804127271D+03  KE= 8.938979105898D+02
                          Isotropic Fermi Contact Couplings
        Atom                 a.u.       MegaHertz       Gauss      10(-4) cm-1
     1  C(13)              0.00000       0.00000       0.00000       0.00000
     2  C(13)              0.00000       0.00000       0.00000       0.00000
     3  C(13)             -0.00000      -0.00000      -0.00000      -0.00000
     4  C(13)              0.00000       0.00000       0.00000       0.00000
     5  C(13)              0.00000       0.00000       0.00000       0.00000
     6  O(17)              0.00000      -0.00000      -0.00000      -0.00000
     7  C(13)             -0.00000      -0.00000      -0.00000      -0.00000
     8  C(13)              0.00000       0.00000       0.00000       0.00000
     9  C(13)             -0.00000      -0.00000      -0.00000      -0.00000
    10  C(13)              0.00000       0.00000       0.00000       0.00000
    11  C(13)              0.00000       0.00000       0.00000       0.00000
    12  C(13)              0.00000       0.00000       0.00000       0.00000
    13  S(33)             -0.00000      -0.00000      -0.00000      -0.00000
    14  H(1)              -0.00000      -0.00000      -0.00000      -0.00000
    15  H(1)              -0.00000      -0.00000      -0.00000      -0.00000
    16  H(1)               0.00000       0.00000       0.00000       0.00000
    17  H(1)              -0.00000      -0.00000      -0.00000      -0.00000
    18  H(1)              -0.00000      -0.00000      -0.00000      -0.00000
    19  H(1)              -0.00000      -0.00000      -0.00000      -0.00000
    20  H(1)              -0.00000      -0.00000      -0.00000      -0.00000
    21  H(1)               0.00000       0.00000       0.00000       0.00000
    22  H(1)              -0.00000      -0.00000      -0.00000      -0.00000
    23  H(1)              -0.00000      -0.00000      -0.00000      -0.00000
 --------------------------------------------------------
       Center         ----  Spin Dipole Couplings  ----
                      3XX-RR        3YY-RR        3ZZ-RR
 --------------------------------------------------------
     1   Atom        0.000000     -0.000000     -0.000000
     2   Atom        0.000000      0.000000     -0.000000
     3   Atom       -0.000000      0.000000      0.000000
     4   Atom        0.000000     -0.000000     -0.000000
     5   Atom        0.000000     -0.000000     -0.000000
     6   Atom        0.000000      0.000000     -0.000000
     7   Atom        0.000000     -0.000000     -0.000000
     8   Atom        0.000000     -0.000000     -0.000000
     9   Atom       -0.000000     -0.000000      0.000000
    10   Atom       -0.000000      0.000000     -0.000000
    11   Atom       -0.000000      0.000000      0.000000
    12   Atom        0.000000      0.000000     -0.000000
    13   Atom        0.000000     -0.000000      0.000000
    14   Atom        0.000000     -0.000000     -0.000000
    15   Atom       -0.000000      0.000000     -0.000000
    16   Atom        0.000000     -0.000000     -0.000000
    17   Atom       -0.000000     -0.000000      0.000000
    18   Atom       -0.000000      0.000000     -0.000000
    19   Atom        0.000000     -0.000000     -0.000000
    20   Atom        0.000000      0.000000     -0.000000
    21   Atom        0.000000      0.000000     -0.000000
    22   Atom        0.000000     -0.000000      0.000000
    23   Atom       -0.000000      0.000000      0.000000
 --------------------------------------------------------
                        XY            XZ            YZ
 --------------------------------------------------------
     1   Atom       -0.000000      0.000000     -0.000000
     2   Atom        0.000000      0.000000     -0.000000
     3   Atom        0.000000     -0.000000      0.000000
     4   Atom       -0.000000      0.000000     -0.000000
     5   Atom       -0.000000      0.000000     -0.000000
     6   Atom        0.000000     -0.000000     -0.000000
     7   Atom        0.000000     -0.000000      0.000000
     8   Atom       -0.000000      0.000000     -0.000000
     9   Atom       -0.000000      0.000000     -0.000000
    10   Atom        0.000000      0.000000      0.000000
    11   Atom       -0.000000     -0.000000      0.000000
    12   Atom       -0.000000     -0.000000      0.000000
    13   Atom        0.000000      0.000000      0.000000
    14   Atom        0.000000      0.000000     -0.000000
    15   Atom        0.000000     -0.000000     -0.000000
    16   Atom        0.000000      0.000000      0.000000
    17   Atom        0.000000     -0.000000      0.000000
    18   Atom        0.000000     -0.000000      0.000000
    19   Atom        0.000000     -0.000000     -0.000000
    20   Atom       -0.000000      0.000000     -0.000000
    21   Atom       -0.000000     -0.000000      0.000000
    22   Atom       -0.000000     -0.000000     -0.000000
    23   Atom        0.000000      0.000000     -0.000000
 --------------------------------------------------------


 ---------------------------------------------------------------------------------
              Anisotropic Spin Dipole Couplings in Principal Axis System
 ---------------------------------------------------------------------------------

       Atom             a.u.   MegaHertz   Gauss  10(-4) cm-1        Axes

              Baa    -0.0000    -0.000    -0.000    -0.000 -0.0607  0.1854  0.9808
     1 C(13)  Bbb    -0.0000    -0.000    -0.000    -0.000  0.4151  0.8983 -0.1441
              Bcc     0.0000     0.000     0.000     0.000  0.9077 -0.3984  0.1314
 
              Baa    -0.0000    -0.000    -0.000    -0.000 -0.0375  0.0848  0.9957
     2 C(13)  Bbb     0.0000     0.000     0.000     0.000  0.8661 -0.4943  0.0747
              Bcc     0.0000     0.000     0.000     0.000  0.4985  0.8651 -0.0549
 
              Baa    -0.0000    -0.000    -0.000    -0.000  0.8185 -0.5640  0.1094
     3 C(13)  Bbb     0.0000     0.000     0.000     0.000 -0.1103  0.0327  0.9934
              Bcc     0.0000     0.000     0.000     0.000  0.5639  0.8251  0.0354
 
              Baa    -0.0000    -0.000    -0.000    -0.000  0.1530  0.4515  0.8791
     4 C(13)  Bbb    -0.0000    -0.000    -0.000    -0.000  0.4734  0.7474 -0.4662
              Bcc     0.0000     0.000     0.000     0.000  0.8675 -0.4874  0.0994
 
              Baa    -0.0000    -0.000    -0.000    -0.000  0.2514  0.9679 -0.0063
     5 C(13)  Bbb    -0.0000    -0.000    -0.000    -0.000 -0.0866  0.0290  0.9958
              Bcc     0.0000     0.000     0.000     0.000  0.9640 -0.2498  0.0911
 
              Baa    -0.0000     0.000     0.000     0.000  0.1941  0.1137  0.9744
     6 O(17)  Bbb     0.0000    -0.000    -0.000    -0.000  0.9598 -0.2271 -0.1646
              Bcc     0.0000    -0.000    -0.000    -0.000  0.2026  0.9672 -0.1533
 
              Baa    -0.0000    -0.000    -0.000    -0.000  0.4550 -0.3667  0.8115
     7 C(13)  Bbb    -0.0000    -0.000    -0.000    -0.000 -0.1842  0.8528  0.4886
              Bcc     0.0000     0.000     0.000     0.000  0.8713  0.3718 -0.3205
 
              Baa    -0.0000    -0.000    -0.000    -0.000 -0.0707  0.0730  0.9948
     8 C(13)  Bbb    -0.0000    -0.000    -0.000    -0.000  0.0679  0.9954 -0.0682
              Bcc     0.0000     0.000     0.000     0.000  0.9952 -0.0627  0.0754
 
              Baa    -0.0000    -0.000    -0.000    -0.000  0.7928  0.6080 -0.0419
     9 C(13)  Bbb     0.0000     0.000     0.000     0.000 -0.5504  0.7439  0.3790
              Bcc     0.0000     0.000     0.000     0.000  0.2616 -0.2775  0.9244
 
              Baa    -0.0000    -0.000    -0.000    -0.000  0.8991 -0.3774  0.2217
    10 C(13)  Bbb    -0.0000    -0.000    -0.000    -0.000 -0.2601 -0.0532  0.9641
              Bcc     0.0000     0.000     0.000     0.000  0.3521  0.9245  0.1460
 
              Baa    -0.0000    -0.000    -0.000    -0.000  0.9876  0.1275  0.0918
    11 C(13)  Bbb     0.0000     0.000     0.000     0.000 -0.0625 -0.2170  0.9742
              Bcc     0.0000     0.000     0.000     0.000 -0.1441  0.9678  0.2063
 
              Baa    -0.0000    -0.000    -0.000    -0.000  0.0131 -0.6101  0.7922
    12 C(13)  Bbb     0.0000     0.000     0.000     0.000  0.8905  0.3675  0.2683
              Bcc     0.0000     0.000     0.000     0.000 -0.4548  0.7019  0.5481
 
              Baa    -0.0000    -0.000    -0.000    -0.000 -0.4226  0.9037  0.0691
    13 S(33)  Bbb    -0.0000    -0.000    -0.000    -0.000 -0.4181 -0.2620  0.8698
              Bcc     0.0000     0.000     0.000     0.000  0.8041  0.3387  0.4885
 
              Baa    -0.0000    -0.000    -0.000    -0.000 -0.0391  0.0681  0.9969
    14 H(1)   Bbb    -0.0000    -0.000    -0.000    -0.000 -0.1668  0.9832 -0.0737
              Bcc     0.0000     0.000     0.000     0.000  0.9852  0.1691  0.0271
 
              Baa    -0.0000    -0.000    -0.000    -0.000  0.9837 -0.1626  0.0766
    15 H(1)   Bbb    -0.0000    -0.000    -0.000    -0.000 -0.0561  0.1270  0.9903
              Bcc     0.0000     0.000     0.000     0.000  0.1707  0.9785 -0.1158
 
              Baa    -0.0000    -0.000    -0.000    -0.000 -0.1351  0.0243  0.9905
    16 H(1)   Bbb    -0.0000    -0.000    -0.000    -0.000 -0.3389  0.9383 -0.0692
              Bcc     0.0000     0.000     0.000     0.000  0.9311  0.3450  0.1185
 
              Baa    -0.0000    -0.000    -0.000    -0.000  0.7406 -0.6653  0.0946
    17 H(1)   Bbb    -0.0000    -0.000    -0.000    -0.000  0.6569  0.7464  0.1067
              Bcc     0.0000     0.000     0.000     0.000 -0.1416 -0.0169  0.9898
 
              Baa    -0.0000    -0.000    -0.000    -0.000  0.6320 -0.4718  0.6148
    18 H(1)   Bbb     0.0000     0.000     0.000     0.000  0.2975  0.8802  0.3697
              Bcc     0.0000     0.000     0.000     0.000  0.7156  0.0507 -0.6967
 
              Baa    -0.0000    -0.000    -0.000    -0.000 -0.3172  0.8619  0.3957
    19 H(1)   Bbb    -0.0000    -0.000    -0.000    -0.000  0.5950 -0.1440  0.7907
              Bcc     0.0000     0.000     0.000     0.000  0.7385  0.4863 -0.4671
 
              Baa    -0.0000    -0.000    -0.000    -0.000  0.7055  0.6946 -0.1407
    20 H(1)   Bbb    -0.0000    -0.000    -0.000    -0.000  0.0431  0.1561  0.9868
              Bcc     0.0000     0.000     0.000     0.000  0.7074 -0.7022  0.0802
 
              Baa    -0.0000    -0.000    -0.000    -0.000  0.5217 -0.1050  0.8466
    21 H(1)   Bbb    -0.0000    -0.000    -0.000    -0.000  0.6286  0.7182 -0.2983
              Bcc     0.0000     0.000     0.000     0.000 -0.5767  0.6878  0.4408
 
              Baa    -0.0000    -0.000    -0.000    -0.000  0.3311  0.8184  0.4696
    22 H(1)   Bbb     0.0000     0.000     0.000     0.000  0.8840 -0.0951 -0.4576
              Bcc     0.0000     0.000     0.000     0.000  0.3299 -0.5667  0.7550
 
              Baa    -0.0000    -0.000    -0.000    -0.000  0.9113 -0.1954 -0.3624
    23 H(1)   Bbb     0.0000     0.000     0.000     0.000  0.3325  0.8684  0.3679
              Bcc     0.0000     0.000     0.000     0.000  0.2428 -0.4557  0.8564
 

 ---------------------------------------------------------------------------------

 No NMR shielding tensors so no spin-rotation constants.
 Leave Link  601 at Fri Jul 24 16:18:32 2020, MaxMem=  4026531840 cpu:               2.7 elap:               0.4
 (Enter /opt/ohpc/pub/libs/gaussian/g16-A.03/sandybridge/g16/l9999.exe)

 Test job not archived.
 1\1\GINC-SKYLAKE051\FOpt\ULC-wPBE\CC-pVDZ\C11H10O1S1\RDU230\24-Jul-202
 0\0\\#P uLC-wPBE/cc-pVDZ iop(3/107=0446900000, 3/108=0446900000) opt\\
 H10 C11 S1 O1\\0,1\C,-3.0874662683,-1.2318978076,0.026898577\C,-2.1132
 445721,-2.2013054828,0.1695557857\C,-0.7825871297,-1.8158927453,0.2397
 975306\C,-0.3950409586,-0.4824364219,0.1659170272\C,-1.4013194001,0.49
 09315025,0.0259797133\O,-0.9963806836,1.7795227781,-0.0358603268\C,-1.
 960528217,2.7749735302,-0.2602878796\C,-2.7354783978,0.1093236708,-0.0
 440813738\C,1.0327876803,-0.1196273446,0.2183659148\C,1.6381008104,0.9
 747789826,0.7625679116\C,3.0556872944,0.9444819597,0.6478828413\C,3.50
 28265289,-0.1670459077,0.0100563964\S,2.2127113278,-1.1843840549,-0.45
 78999561\H,-4.1393883927,-1.5101804356,-0.0274995812\H,-2.3807533145,-
 3.2545432771,0.2326562423\H,-0.0111698691,-2.5753456367,0.366715119\H,
 -2.496721,2.6125773752,-1.2065487939\H,-2.687671872,2.8307862557,0.563
 1060066\H,-1.4151015184,3.7212311632,-0.3179557802\H,-3.5155482003,0.8
 578966686,-0.1554345532\H,1.0812196425,1.7769475558,1.2351859944\H,3.7
 122701898,1.7238043928,1.0277139005\H,4.52848932,-0.4417447209,-0.2178
 98716\\Version=EM64L-G16RevA.03\State=1-A\HF=-898.152665\S2=0.\S2-1=0.
 \S2A=0.\RMSD=4.680e-09\RMSF=8.400e-06\Dipole=-0.5693581,0.5831122,0.01
 12187\Quadrupole=4.9200197,2.7245134,-7.6445331,-2.1115921,0.8256459,0
 .5131367\PG=C01 [X(C11H10O1S1)]\\@


 A true friend is someone who is there for
 you when he'd rather be anywhere else.
                               -- Len Wein
 Job cpu time:       0 days  3 hours 29 minutes  0.9 seconds.
 Elapsed time:       0 days  0 hours 26 minutes 25.0 seconds.
 File lengths (MBytes):  RWF=    124 Int=      0 D2E=      0 Chk=     12 Scr=      8
 Normal termination of Gaussian 16 at Fri Jul 24 16:18:32 2020.
